Protein in water
77526
    1DC     O5'    1   2.968   4.346   3.357 -0.7990 -0.2738  0.2506
    1DC     H5T    2   2.971   4.328   3.452 -1.0419 -0.6242  0.1920
    1DC     C5'    3   2.854   4.279   3.308 -0.7631 -0.2928  0.1934
    1DC    H5'1    4   2.796   4.335   3.235 -1.5157 -0.6918  0.4698
    1DC    H5'2    5   2.776   4.264   3.383 -3.0856 -0.8491 -2.1900
    1DC     C4'    6   2.878   4.135   3.264  0.3759 -0.0108 -0.1384
    1DC     H4'    7   2.781   4.096   3.234 -0.4011  1.8092 -0.1642
    1DC     O4'    8   2.961   4.128   3.151  0.4293 -0.0720 -0.0958
    1DC     C1'    9   3.029   4.004   3.149  0.1278 -0.2467  0.5546
    1DC     H1'   10   2.992   3.943   3.067  2.1369 -0.3841 -0.2961
    1DC      N1   11   3.172   4.035   3.137  0.0268  0.1090  0.2388
    1DC      C6   12   3.227   4.144   3.197  0.1466  0.2495 -0.1217
    1DC      H6   13   3.160   4.220   3.236  0.0751  0.4059 -0.5454
    1DC      C5   14   3.359   4.169   3.194  0.1986  0.0219  0.2394
    1DC      H5   15   3.393   4.264   3.232 -1.3846  0.7791 -0.1543
    1DC      C4   16   3.444   4.071   3.133 -0.2749 -0.1054 -0.2153
    1DC      N4   17   3.574   4.095   3.111 -0.1265 -0.3619  0.3776
    1DC     H41   18   3.617   4.177   3.152 -0.5991  0.0887 -0.0001
    1DC     H42   19   3.634   4.029   3.065  1.8143  0.2639  1.8841
    1DC      N3   20   3.392   3.964   3.071 -0.0832  0.0071 -0.5713
    1DC      C2   21   3.259   3.942   3.081 -0.0662  0.1541  0.0206
    1DC      O2   22   3.224   3.836   3.030  0.4092  0.0358 -0.0551
    1DC     C3'   23   2.953   4.050   3.367  0.2849  0.3268  0.2118
    1DC     H3'   24   3.039   4.093   3.417 -0.4558 -0.0086  1.8156
    1DC     C2'   25   2.992   3.932   3.279 -0.9043 -0.1664  0.3199
    1DC    H2'1   26   3.081   3.884   3.320 -1.2809 -0.8865  0.3091
    1DC    H2'2   27   2.915   3.856   3.265  0.1819 -0.8140 -3.6430
    1DC     O3'   28   2.867   3.991   3.462  0.0737 -0.1723 -0.2819
    2DG       P   29   2.916   3.965   3.613  0.0983 -0.3680 -0.3233
    2DG     O1P   30   2.793   3.940   3.692  0.0256 -0.1012 -0.3521
    2DG     O2P   31   3.008   4.071   3.659 -0.0879 -0.2985 -0.1060
    2DG     O5'   32   3.003   3.830   3.603  0.4471 -0.2179  0.5986
    2DG     C5'   33   2.936   3.709   3.576 -0.2192  0.2385  0.1627
    2DG    H5'1   34   2.867   3.718   3.493 -0.0025 -0.2153 -0.0682
    2DG    H5'2   35   2.890   3.672   3.668  0.2018 -0.4123  0.1253
    2DG     C4'   36   3.037   3.602   3.534 -0.2592  0.4161 -0.3842
    2DG     H4'   37   2.978   3.513   3.512 -0.6824 -0.1170  2.5361
    2DG     O4'   38   3.109   3.628   3.415 -0.0362  0.0492 -0.3302
    2DG     C1'   39   3.236   3.567   3.417 -0.1804 -0.2471 -0.1014
    2DG     H1'   40   3.247   3.483   3.349  0.1543 -0.8905  0.7309
    2DG      N9   41   3.339   3.671   3.399 -0.2262 -0.1813  0.0117
    2DG      C8   42   3.331   3.806   3.423  0.1265 -0.2086  0.2856
    2DG      H8   43   3.243   3.850   3.467  0.6302  0.7196  0.3825
    2DG      N7   44   3.442   3.871   3.403  0.0951  0.0659  0.9791
    2DG      C5   45   3.531   3.770   3.365 -0.3748  0.0257 -0.0423
    2DG      C6   46   3.665   3.782   3.321 -0.0474 -0.1240  0.8948
    2DG      O6   47   3.737   3.879   3.298  0.2297 -0.5694 -0.1686
    2DG      N1   48   3.725   3.658   3.303  0.0081  0.0455 -0.1578
    2DG      H1   49   3.821   3.649   3.271  0.2914  1.1881  0.3067
    2DG      C2   50   3.655   3.539   3.305  0.2630 -0.1098 -0.3494
    2DG      N2   51   3.729   3.429   3.286  0.1924 -0.2889  0.3964
    2DG     H21   52   3.822   3.445   3.251 -0.3955  2.6623 -0.0748
    2DG     H22   53   3.696   3.333   3.293 -2.9697  0.5139 -1.3076
    2DG      N3   54   3.527   3.527   3.344  0.1603  0.2425 -0.5666
    2DG      C4   55   3.471   3.647   3.371 -0.1902 -0.0583  0.0760
    2DG     C3'   56   3.143   3.580   3.642 -0.2516  0.2512 -0.4249
    2DG     H3'   57   3.171   3.678   3.681 -0.0166  0.0937 -0.1910
    2DG     C2'   58   3.258   3.520   3.561  0.1648  0.3923  0.0588
    2DG    H2'1   59   3.349   3.560   3.605 -0.1442  0.6815  0.4507
    2DG    H2'2   60   3.262   3.412   3.577 -2.4100  0.3387  0.8951
    2DG     O3'   61   3.096   3.493   3.742  0.2931  0.3547 -0.0720
    3DA       P   62   3.170   3.485   3.884 -0.0855 -0.0928  0.1026
    3DA     O1P   63   3.088   3.391   3.964 -0.4870  0.3910  0.2661
    3DA     O2P   64   3.188   3.621   3.940 -0.0668  0.0364 -0.2172
    3DA     O5'   65   3.313   3.421   3.850 -0.2431 -0.3870 -0.0112
    3DA     C5'   66   3.322   3.282   3.825 -0.2063 -0.4230  0.2012
    3DA    H5'1   67   3.243   3.253   3.756  1.3018 -0.2350 -1.6553
    3DA    H5'2   68   3.308   3.235   3.923 -2.1696 -1.5428 -0.5568
    3DA     C4'   69   3.454   3.237   3.764 -0.2735 -0.1544 -0.1427
    3DA     H4'   70   3.442   3.132   3.737  1.9960 -0.3983 -0.3479
    3DA     O4'   71   3.491   3.305   3.646  0.1435 -0.0525  0.0487
    3DA     C1'   72   3.632   3.313   3.642  0.1322 -0.1322 -0.5109
    3DA     H1'   73   3.680   3.281   3.549  0.3845 -1.2301 -0.0280
    3DA      N9   74   3.674   3.454   3.655  0.0227 -0.1535  0.0903
    3DA      C8   75   3.598   3.559   3.699  0.3484 -0.2602  0.9219
    3DA      H8   76   3.501   3.553   3.746 -0.0352 -1.0315  0.0551
    3DA      N7   77   3.660   3.671   3.676 -0.2236 -0.1757 -0.2654
    3DA      C5   78   3.781   3.632   3.619 -0.3661  0.1195 -0.7723
    3DA      C6   79   3.894   3.700   3.571 -0.1383 -0.0836 -0.5285
    3DA      N6   80   3.909   3.834   3.573  0.0706 -0.1100 -0.3217
    3DA     H61   81   3.833   3.892   3.604  0.8926  0.2534  1.0984
    3DA     H62   82   3.987   3.877   3.526 -0.2267 -1.8702 -2.5847
    3DA      N1   83   3.998   3.635   3.516  0.1942 -0.4098  0.4711
    3DA      C2   84   3.993   3.503   3.515  0.0429 -0.4048 -0.2513
    3DA      H2   85   4.071   3.450   3.462  0.7767  0.6398 -0.2259
    3DA      N3   86   3.903   3.423   3.571 -0.2357  0.0026 -0.1119
    3DA      C4   87   3.798   3.497   3.613  0.0840  0.1054  0.5268
    3DA     C3'   88   3.567   3.249   3.865  0.0223 -0.8353 -0.3831
    3DA     H3'   89   3.568   3.347   3.912  1.3351 -0.6053 -0.8389
    3DA     C2'   90   3.684   3.242   3.767  0.3207  0.6158 -0.1601
    3DA    H2'1   91   3.770   3.293   3.811  0.2212  0.1742  0.5521
    3DA    H2'2   92   3.711   3.139   3.746 -0.0518 -0.0605  2.3641
    3DA     O3'   93   3.575   3.138   3.951 -0.0371 -0.4066  0.1838
    4DC       P   94   3.615   3.143   4.107  0.2916 -0.1046  0.0914
    4DC     O1P   95   3.584   3.010   4.163  0.2110 -0.3211 -0.4618
    4DC     O2P   96   3.544   3.260   4.164 -0.0512 -0.3353  0.1420
    4DC     O5'   97   3.772   3.175   4.112  0.2153  0.2060  0.5627
    4DC     C5'   98   3.855   3.063   4.090 -0.3158  0.0011 -0.4677
    4DC    H5'1   99   3.818   2.996   4.012  0.9279 -0.5423 -0.6105
    4DC    H5'2  100   3.857   3.010   4.186  0.3448 -1.5676 -1.3058
    4DC     C4'  101   3.994   3.098   4.039 -0.1238 -0.3354 -0.1825
    4DC     H4'  102   4.043   3.003   4.016 -1.1960 -0.9306 -0.0622
    4DC     O4'  103   3.993   3.184   3.927 -0.3454 -0.3410 -0.1847
    4DC     C1'  104   4.105   3.270   3.922 -0.4782 -0.1808 -0.4075
    4DC     H1'  105   4.159   3.251   3.829  0.4416  1.8746 -0.3481
    4DC      N1  106   4.078   3.415   3.922  0.0556 -0.0795 -0.4683
    4DC      C6  107   3.952   3.459   3.950  0.1161 -0.3031  0.1799
    4DC      H6  108   3.870   3.398   3.985 -1.6271  2.1365  0.5844
    4DC      C5  109   3.918   3.587   3.926  0.5886 -0.2616 -0.2799
    4DC      H5  110   3.814   3.611   3.944  0.1311 -1.6660 -0.8761
    4DC      C4  111   4.018   3.678   3.878 -0.1739  0.1400 -1.1642
    4DC      N4  112   3.994   3.810   3.872  0.2441  0.2705 -0.1677
    4DC     H41  113   3.899   3.839   3.888 -0.1797 -1.5215  0.9664
    4DC     H42  114   4.067   3.872   3.839  0.1864  0.9386  0.9005
    4DC      N3  115   4.142   3.634   3.854  0.0425  0.2142 -0.2310
    4DC      C2  116   4.172   3.502   3.871  0.0025  0.2295 -0.0408
    4DC      O2  117   4.286   3.462   3.849 -0.2861 -0.5337 -0.1605
    4DC     C3'  118   4.085   3.168   4.140 -0.6481  0.0205  0.0482
    4DC     H3'  119   4.028   3.242   4.196  1.7062  1.0784  1.2203
    4DC     C2'  120   4.186   3.233   4.046 -0.8215  0.0638 -0.1086
    4DC    H2'1  121   4.243   3.314   4.092  0.9337 -2.2567  2.0921
    4DC    H2'2  122   4.260   3.157   4.023 -0.4583  0.3602  0.0632
    4DC     O3'  123   4.147   3.085   4.235 -0.5003 -0.0949 -0.1485
    5DT       P  124   4.194   3.140   4.379 -0.2863  0.1453 -0.3110
    5DT     O1P  125   4.260   3.034   4.458 -0.1605  0.3122 -0.1911
    5DT     O2P  126   4.084   3.220   4.436  0.0488  0.3516  0.0541
    5DT     O5'  127   4.311   3.245   4.341  0.0904 -0.1055  0.1487
    5DT     C5'  128   4.432   3.199   4.284 -0.1359 -0.4008 -0.0977
    5DT    H5'1  129   4.404   3.125   4.209 -1.2389 -1.0262  0.8857
    5DT    H5'2  130   4.483   3.142   4.362  0.0394  2.0818  1.7346
    5DT     C4'  131   4.526   3.310   4.240 -0.7608  0.1293 -0.1056
    5DT     H4'  132   4.618   3.258   4.214 -0.9625  0.0335 -0.6269
    5DT     O4'  133   4.490   3.381   4.123 -0.7602 -0.2223 -0.3212
    5DT     C1'  134   4.526   3.517   4.133 -0.2255 -0.4001  0.2712
    5DT     H1'  135   4.584   3.550   4.046 -1.2993 -0.4374 -0.4729
    5DT      N1  136   4.409   3.606   4.144  0.0141 -0.1440  0.7699
    5DT      C6  137   4.288   3.565   4.193 -0.2277  0.0362  0.3236
    5DT      H6  138   4.271   3.462   4.218  0.1731  0.1250  0.9795
    5DT      C5  139   4.187   3.652   4.211 -0.4734 -0.1381 -0.1825
    5DT      C7  140   4.054   3.589   4.249 -0.3515 -0.0405  0.4186
    5DT     H71  141   4.022   3.623   4.347  1.1269 -0.8933  1.2289
    5DT     H72  142   3.974   3.613   4.179  0.4246  1.9378  0.1477
    5DT     H73  143   4.063   3.481   4.257  0.2303 -0.0149  0.1995
    5DT      C4  144   4.197   3.788   4.163  0.3149 -0.1512 -0.0691
    5DT      O4  145   4.110   3.875   4.173  0.1504 -0.3243  0.0236
    5DT      N3  146   4.317   3.816   4.099  0.0704 -0.4179 -0.6529
    5DT      H3  147   4.339   3.913   4.085 -0.4869 -0.1973 -0.0879
    5DT      C2  148   4.429   3.735   4.099  0.0998 -0.3875  0.1058
    5DT      O2  149   4.531   3.786   4.052 -0.2277 -0.2538 -0.4630
    5DT     C3'  150   4.563   3.414   4.346 -0.1601  0.0179 -0.2042
    5DT     H3'  151   4.473   3.446   4.398  0.1596  2.4789 -1.0376
    5DT     C2'  152   4.614   3.527   4.257  0.4016 -0.2192 -0.1836
    5DT    H2'1  153   4.596   3.624   4.303 -1.0097 -0.1843 -0.7886
    5DT    H2'2  154   4.722   3.515   4.241  1.2309  0.8360  3.5382
    5DT     O3'  155   4.670   3.373   4.428 -0.5273  0.1273  0.3297
    6DC       P  156   4.675   3.422   4.582  0.0348  0.1561  0.3039
    6DC     O1P  157   4.786   3.349   4.646  0.1969  0.1675  0.0368
    6DC     O2P  158   4.536   3.418   4.634 -0.1474  0.0686 -0.1806
    6DC     O5'  159   4.719   3.576   4.563 -0.1194  0.1612 -0.0212
    6DC     C5'  160   4.855   3.614   4.554 -0.1117  0.2146  0.3310
    6DC    H5'1  161   4.897   3.574   4.462  0.7086  0.2728  0.6752
    6DC    H5'2  162   4.906   3.590   4.647  1.5188 -0.3650 -0.6712
    6DC     C4'  163   4.853   3.766   4.538  0.1924  0.2372  0.5043
    6DC     H4'  164   4.952   3.804   4.514 -0.3900  2.1710  1.0491
    6DC     O4'  165   4.773   3.800   4.427  0.4724 -0.0731  0.2023
    6DC     C1'  166   4.737   3.936   4.436 -0.0168 -0.1953  0.1524
    6DC     H1'  167   4.805   3.993   4.373  1.5600 -2.0273  0.0701
    6DC      N1  168   4.597   3.954   4.393 -0.2154  0.1958  0.9390
    6DC      C6  169   4.509   3.854   4.422 -0.4131  0.1227  0.1204
    6DC      H6  170   4.550   3.761   4.457  2.8900  1.0086 -1.0820
    6DC      C5  171   4.376   3.877   4.418 -0.3926  0.3013  0.4175
    6DC      H5  172   4.309   3.794   4.440 -0.0404 -0.2483 -0.5556
    6DC      C4  173   4.341   4.015   4.400  0.0644  0.2959 -0.5227
    6DC      N4  174   4.211   4.046   4.395 -0.0417 -0.1301 -0.4891
    6DC     H41  175   4.153   3.964   4.405 -0.1973  0.0511  0.1465
    6DC     H42  176   4.184   4.137   4.359 -2.0681 -0.5445 -0.1409
    6DC      N3  177   4.427   4.115   4.378  0.3428  0.0846 -0.4057
    6DC      C2  178   4.560   4.086   4.379  0.3749  0.2054 -0.8196
    6DC      O2  179   4.632   4.186   4.367  0.5046  0.1703 -0.3714
    6DC     C3'  180   4.790   3.845   4.652 -0.1317  0.2949  0.2842
    6DC     H3'  181   4.706   3.796   4.700 -0.0171 -1.8760 -1.5679
    6DC     C2'  182   4.754   3.976   4.582  0.2940  0.2579 -0.0072
    6DC    H2'1  183   4.660   4.009   4.625 -1.0532 -2.7952 -0.3841
    6DC    H2'2  184   4.838   4.045   4.587  1.9699 -1.4927 -2.0173
    6DC     O3'  185   4.895   3.874   4.741  0.1680  0.0872  0.0005
    7DT       P  186   4.873   3.922   4.893 -0.0389 -0.0865  0.0256
    7DT     O1P  187   5.005   3.908   4.958  0.0420 -0.3603 -0.1968
    7DT     O2P  188   4.753   3.857   4.951 -0.2270  0.0656 -0.1913
    7DT     O5'  189   4.839   4.078   4.869  0.1923 -0.0259  0.0934
    7DT     C5'  190   4.935   4.173   4.829 -0.0807  0.3754  0.3944
    7DT    H5'1  191   4.972   4.126   4.739 -0.1299 -0.2520  0.6965
    7DT    H5'2  192   5.011   4.172   4.906  0.1137 -3.3933  0.3486
    7DT     C4'  193   4.883   4.314   4.801 -0.3462  0.1890 -0.0658
    7DT     H4'  194   4.957   4.387   4.769 -0.2961 -0.3301 -1.1800
    7DT     O4'  195   4.790   4.312   4.695 -0.3547 -0.0302 -0.0551
    7DT     C1'  196   4.687   4.404   4.725 -0.2365 -0.0753  0.5067
    7DT     H1'  197   4.688   4.478   4.645 -2.2187  1.7718  2.0647
    7DT      N1  198   4.553   4.343   4.729 -0.3160  0.1018  0.5458
    7DT      C6  199   4.535   4.216   4.775 -0.1343 -0.0742  0.1426
    7DT      H6  200   4.617   4.153   4.807  0.3735  0.6478  0.3029
    7DT      C5  201   4.416   4.153   4.765  0.0405 -0.2291 -1.0444
    7DT      C7  202   4.401   4.007   4.798  0.0057 -0.0662 -0.3186
    7DT     H71  203   4.373   3.945   4.712  0.7511  0.2087 -0.7663
    7DT     H72  204   4.495   3.966   4.835  1.2384  0.1624 -2.9130
    7DT     H73  205   4.322   3.982   4.869 -0.3624 -1.0488 -1.0390
    7DT      C4  206   4.307   4.221   4.698  0.0830 -0.2496 -1.1348
    7DT      O4  207   4.194   4.180   4.670 -0.4042  0.2666  0.0066
    7DT      N3  208   4.328   4.352   4.659 -0.2061  0.0976 -0.1418
    7DT      H3  209   4.248   4.394   4.614  0.5549 -1.6259 -3.4247
    7DT      C2  210   4.450   4.417   4.672 -0.1479 -0.0467  0.0425
    7DT      O2  211   4.451   4.535   4.637  0.2575 -0.0477  0.0409
    7DT     C3'  212   4.821   4.374   4.927 -0.2814 -0.3755  0.2372
    7DT     H3'  213   4.766   4.310   4.996 -2.2443  1.8488  0.8713
    7DT     C2'  214   4.725   4.470   4.857  0.1122  0.0857  0.3286
    7DT    H2'1  215   4.638   4.494   4.919  0.3054  1.3776  0.1222
    7DT    H2'2  216   4.781   4.561   4.837  0.4530 -0.2366 -0.2063
    7DT     O3'  217   4.924   4.448   4.987 -0.3861  0.3580 -0.4652
    8DA       P  218   4.908   4.485   5.143  0.2082 -0.0026 -0.3152
    8DA     O1P  219   5.023   4.570   5.182 -0.2376  0.5755 -0.2518
    8DA     O2P  220   4.889   4.355   5.212  0.1104  0.1881  0.0204
    8DA     O5'  221   4.772   4.571   5.143  0.1289 -0.1235  0.0957
    8DA     C5'  222   4.776   4.708   5.109  0.1051 -0.2335 -0.3603
    8DA    H5'1  223   4.834   4.725   5.019  1.6420 -1.0599  0.4261
    8DA    H5'2  224   4.837   4.752   5.188  1.2834  0.0701 -1.4111
    8DA     C4'  225   4.642   4.779   5.092  0.1178 -0.1330 -0.0509
    8DA     H4'  226   4.661   4.877   5.048 -2.6197 -0.0374 -1.2032
    8DA     O4'  227   4.566   4.710   4.995  0.1278  0.7897 -0.7337
    8DA     C1'  228   4.430   4.731   5.025  0.0841  0.2835 -0.5706
    8DA     H1'  229   4.389   4.807   4.958 -2.3710 -0.4509 -0.0329
    8DA      N9  230   4.350   4.612   4.990  0.4545 -0.0046 -0.4345
    8DA      C8  231   4.387   4.483   5.020 -0.0271 -0.0006  0.2091
    8DA      H8  232   4.487   4.461   5.054 -0.6613 -2.3936  0.6653
    8DA      N7  233   4.295   4.392   5.005 -0.0095 -0.0332  0.3017
    8DA      C5  234   4.187   4.471   4.967  0.2706 -0.0958 -0.6363
    8DA      C6  235   4.055   4.442   4.927 -0.0075  0.2656  0.0069
    8DA      N6  236   4.010   4.316   4.928  0.2183  0.1877  0.5097
    8DA     H61  237   4.071   4.243   4.963  0.5666 -0.2040 -0.8668
    8DA     H62  238   3.916   4.303   4.895 -0.3040  1.1025  1.5708
    8DA      N1  239   3.962   4.536   4.907 -0.1985 -0.0124 -0.4153
    8DA      C2  240   4.000   4.661   4.930  0.1342 -0.1724 -0.0808
    8DA      H2  241   3.926   4.736   4.907  0.5956  0.6912  1.2093
    8DA      N3  242   4.123   4.703   4.955 -0.0723 -0.3418  1.2736
    8DA      C4  243   4.215   4.605   4.968  0.3169 -0.1019  0.3869
    8DA     C3'  244   4.556   4.800   5.216 -0.0131  0.4422 -0.2343
    8DA     H3'  245   4.566   4.716   5.285 -0.9796 -0.3264 -1.0055
    8DA     C2'  246   4.413   4.780   5.168  0.1239  0.0086 -0.4700
    8DA    H2'1  247   4.361   4.696   5.215 -0.0982  0.2339 -0.3033
    8DA    H2'2  248   4.350   4.869   5.175  0.3828  0.1799 -0.2735
    8DA     O3'  249   4.570   4.923   5.284 -0.1117  0.1691  0.2913
    9DC       P  250   4.523   4.949   5.436 -0.3883 -0.1919  0.2681
    9DC     O1P  251   4.581   5.079   5.476  0.1998 -0.3944  0.0838
    9DC     O2P  252   4.576   4.829   5.505  0.2454 -0.0036  0.1176
    9DC     O5'  253   4.363   4.934   5.432 -0.3703 -0.3702  0.1821
    9DC     C5'  254   4.292   5.050   5.394  0.0534 -0.1258  0.1299
    9DC    H5'1  255   4.321   5.090   5.297  0.9405 -0.5973  0.1918
    9DC    H5'2  256   4.301   5.120   5.477  0.1578  0.2043 -0.1575
    9DC     C4'  257   4.141   5.039   5.374  0.0208  0.5847 -0.0486
    9DC     H4'  258   4.110   5.141   5.355  1.5407  0.6634 -2.5442
    9DC     O4'  259   4.111   4.960   5.261 -0.1255  0.3544  0.1503
    9DC     C1'  260   3.988   4.893   5.276 -0.1178  0.2156 -0.3931
    9DC     H1'  261   3.920   4.914   5.193  1.4085  2.4978 -1.1671
    9DC      N1  262   3.999   4.746   5.275  0.1280  0.2304 -0.0878
    9DC      C6  263   4.110   4.680   5.318 -0.0617 -0.1360 -0.1571
    9DC      H6  264   4.201   4.730   5.348 -0.6955  0.3754  0.9571
    9DC      C5  265   4.119   4.545   5.305 -0.0277 -0.2165  0.6848
    9DC      H5  266   4.203   4.481   5.327 -1.7295 -2.3393  1.3698
    9DC      C4  267   3.999   4.474   5.274  0.1376  0.0296 -0.5601
    9DC      N4  268   3.991   4.340   5.271 -0.1235  0.0180  0.3810
    9DC     H41  269   4.071   4.279   5.279 -0.6443 -0.9060 -1.0694
    9DC     H42  270   3.899   4.305   5.248 -0.1180  0.4768 -0.3541
    9DC      N3  271   3.883   4.538   5.252 -0.0776 -0.0720  0.2671
    9DC      C2  272   3.884   4.673   5.251  0.3822 -0.0749 -0.4136
    9DC      O2  273   3.773   4.721   5.231  0.2786 -0.2516 -0.2719
    9DC     C3'  274   4.062   4.977   5.489  0.3175  0.1200 -0.0915
    9DC     H3'  275   4.109   4.893   5.541  1.4293  1.8043  1.7725
    9DC     C2'  276   3.937   4.936   5.413  0.4097 -0.2678 -0.0385
    9DC    H2'1  277   3.886   4.856   5.467  0.3134  0.3204  0.7707
    9DC    H2'2  278   3.867   5.018   5.396  1.2734  1.2190  2.9522
    9DC     O3'  279   4.023   5.074   5.584  0.3255 -0.0869  0.1252
   10DG       P  280   3.993   5.030   5.736 -0.1324 -0.0868  0.0367
   10DG     O1P  281   3.993   5.151   5.821  0.0958 -0.2936  0.3336
   10DG     O2P  282   4.085   4.919   5.768 -0.5167 -0.5780 -0.5392
   10DG     O5'  283   3.844   4.971   5.719 -0.1683  0.0461 -0.1118
   10DG     C5'  284   3.729   5.053   5.718 -0.4642 -0.3649  0.1842
   10DG    H5'1  285   3.733   5.123   5.635  0.2491  0.0061  0.5219
   10DG    H5'2  286   3.721   5.097   5.817  2.5399 -0.5304  0.6103
   10DG     C4'  287   3.599   4.978   5.692 -0.3121 -0.4703 -0.2848
   10DG     H4'  288   3.515   5.043   5.668  0.0813  0.6168  1.1511
   10DG     O4'  289   3.606   4.899   5.575  0.1495 -0.2910 -0.3809
   10DG     C1'  290   3.525   4.785   5.592 -0.2900  0.0861  0.0883
   10DG     H1'  291   3.442   4.786   5.521  0.0993 -1.9561 -0.4441
   10DG      N9  292   3.614   4.669   5.576 -0.3115  0.1531 -0.5191
   10DG      C8  293   3.747   4.658   5.605 -0.2956 -0.1987 -0.7165
   10DG      H8  294   3.811   4.743   5.624 -0.4777  0.0034 -1.0007
   10DG      N7  295   3.797   4.541   5.576 -0.2208 -0.3029 -0.1871
   10DG      C5  296   3.687   4.464   5.541 -0.4148 -0.4766  0.7770
   10DG      C6  297   3.675   4.333   5.488  0.4051 -0.1943 -0.1418
   10DG      O6  298   3.765   4.250   5.473  0.2923 -0.3378 -0.0229
   10DG      N1  299   3.544   4.294   5.464  0.3904  0.2186 -0.7373
   10DG      H1  300   3.520   4.196   5.452 -0.0011  0.2182  0.0010
   10DG      C2  301   3.437   4.377   5.487  0.3741  0.2017 -0.7576
   10DG      N2  302   3.315   4.322   5.478  0.1538  0.5304  0.1312
   10DG     H21  303   3.312   4.222   5.470  2.5911  0.5456 -2.2203
   10DG     H22  304   3.231   4.378   5.490 -0.2571 -0.0272 -0.1264
   10DG      N3  305   3.445   4.504   5.528 -0.1236  0.1153 -0.3857
   10DG      C4  306   3.574   4.541   5.544 -0.1161  0.0237 -0.2429
   10DG     C3'  307   3.559   4.887   5.808  0.2137  0.1658  0.4080
   10DG     H3'  308   3.652   4.837   5.833 -0.1519 -0.8896 -0.2440
   10DG     C2'  309   3.466   4.792   5.733  0.3536  0.0665  0.3611
   10DG    H2'1  310   3.464   4.698   5.789 -0.3998  1.5828  3.0306
   10DG    H2'2  311   3.365   4.831   5.727  0.0120 -0.9263 -0.8328
   10DG     O3'  312   3.492   4.956   5.911  0.4592  0.3437  0.4490
   11DG       P  313   3.453   4.887   6.052 -0.2537 -0.4219 -0.1129
   11DG     O1P  314   3.369   4.978   6.132 -0.2296 -0.3699 -0.1470
   11DG     O2P  315   3.586   4.840   6.098 -0.2171  0.0894  0.3051
   11DG     O5'  316   3.367   4.755   6.017 -0.2598 -0.4958  0.1794
   11DG     C5'  317   3.229   4.766   5.988 -0.1630  0.0047 -0.1131
   11DG    H5'1  318   3.227   4.818   5.892  2.1012 -0.6236 -0.5544
   11DG    H5'2  319   3.181   4.823   6.067 -0.5868 -1.0260  0.3930
   11DG     C4'  320   3.170   4.626   5.972  0.0570 -0.1062  0.0512
   11DG     H4'  321   3.068   4.661   5.956 -0.1022  0.9411  2.7915
   11DG     O4'  322   3.221   4.575   5.851  0.2921 -0.1421  0.1633
   11DG     C1'  323   3.227   4.435   5.863 -0.2410 -0.1811  0.0083
   11DG     H1'  324   3.183   4.388   5.775 -1.3802  1.3399 -0.2849
   11DG      N9  325   3.363   4.379   5.868 -0.2579 -0.2153  0.0723
   11DG      C8  326   3.474   4.456   5.891 -0.5267  0.0515  0.4905
   11DG      H8  327   3.470   4.561   5.918  1.9948  0.7126 -1.3204
   11DG      N7  328   3.579   4.380   5.877 -0.4749  0.1285  0.4625
   11DG      C5  329   3.539   4.260   5.820 -0.0422  0.3871 -0.4117
   11DG      C6  330   3.612   4.142   5.794 -0.3451 -0.0212  0.5418
   11DG      O6  331   3.735   4.131   5.789 -0.3538  0.0173  0.2017
   11DG      N1  332   3.530   4.039   5.750 -0.2410  0.1312 -0.0136
   11DG      H1  333   3.568   3.960   5.700 -2.4563  0.1957 -1.9987
   11DG      C2  334   3.393   4.051   5.742 -0.2376 -0.2659 -0.7291
   11DG      N2  335   3.325   3.939   5.715 -0.2638 -0.4368  0.0310
   11DG     H21  336   3.375   3.851   5.707 -1.4924 -1.0318 -2.1961
   11DG     H22  337   3.224   3.934   5.711 -0.2158 -0.6851 -1.7470
   11DG      N3  338   3.319   4.157   5.779  0.0913 -0.1957 -0.2776
   11DG      C4  339   3.402   4.259   5.814 -0.0719 -0.2576  0.2973
   11DG     C3'  340   3.174   4.519   6.081 -0.0194 -0.3644 -0.2013
   11DG     H3'  341   3.275   4.519   6.120 -0.7438  0.6815  1.8324
   11DG     C2'  342   3.151   4.398   5.990 -0.1535 -0.4724 -0.0239
   11DG    H2'1  343   3.187   4.310   6.043 -1.3585  0.5643  2.6811
   11DG    H2'2  344   3.044   4.386   5.973 -0.0679  0.4796 -1.4104
   11DG     O3'  345   3.072   4.533   6.177 -0.0370 -0.0069 -0.2725
   12DA       P  346   3.078   4.459   6.320 -0.2752  0.3556 -0.0719
   12DA     O1P  347   2.942   4.479   6.375 -0.3642 -0.2901 -0.0568
   12DA     O2P  348   3.195   4.516   6.391 -0.3047  0.4372 -0.0882
   12DA     O5'  349   3.097   4.300   6.310  0.1522  0.4139 -0.1877
   12DA     C5'  350   2.990   4.221   6.264  0.3567 -0.1152  0.2352
   12DA    H5'1  351   2.951   4.268   6.174  2.2363 -2.4353 -1.9601
   12DA    H5'2  352   2.905   4.222   6.332 -1.2436  3.1108 -1.5770
   12DA     C4'  353   3.021   4.076   6.227  0.2807  0.0230 -0.3810
   12DA     H4'  354   2.932   4.021   6.196 -0.0172  0.0186  0.4628
   12DA     O4'  355   3.106   4.082   6.115 -0.0942  0.1562 -0.6615
   12DA     C1'  356   3.182   3.963   6.114  0.0128  0.2118  0.2807
   12DA     H1'  357   3.155   3.905   6.026 -1.4437  0.7421  0.3570
   12DA      N9  358   3.327   3.989   6.107  0.0704 -0.1672  0.0268
   12DA      C8  359   3.397   4.105   6.131  0.2994 -0.1586 -0.6747
   12DA      H8  360   3.343   4.193   6.164 -2.6516 -1.9057 -0.5403
   12DA      N7  361   3.526   4.103   6.112  0.3793 -0.1666 -0.1404
   12DA      C5  362   3.548   3.971   6.076 -0.2338 -0.4331  0.4253
   12DA      C6  363   3.659   3.897   6.032 -0.2062  0.1167 -0.4584
   12DA      N6  364   3.785   3.942   6.018 -0.1676  0.1830  0.0859
   12DA     H61  365   3.811   4.032   6.055  1.7749  0.3560 -1.5471
   12DA     H62  366   3.851   3.874   5.983 -0.0078 -0.1781  1.0523
   12DA      N1  367   3.648   3.765   6.009  0.3041 -0.0853  0.4158
   12DA      C2  368   3.525   3.717   6.014  0.3699 -0.2706  0.2685
   12DA      H2  369   3.517   3.612   5.989  0.3185 -0.6768  1.8440
   12DA      N3  370   3.410   3.774   6.046  0.1281 -0.7334  0.2366
   12DA      C4  371   3.431   3.901   6.087 -0.2677 -0.4990 -0.2719
   12DA     C3'  372   3.089   3.988   6.331 -0.0770  0.2060  0.0098
   12DA     H3'  373   3.163   4.059   6.368 -2.8635  3.7530 -0.6121
   12DA     C2'  374   3.151   3.883   6.240 -0.1939  0.0400  0.1206
   12DA    H2'1  375   3.238   3.830   6.281  0.4806 -0.1804 -1.5149
   12DA    H2'2  376   3.063   3.822   6.219  0.2008  0.0276 -1.6953
   12DA     O3'  377   2.998   3.945   6.430 -0.2142  0.0906 -0.1671
   13DA       P  378   3.042   3.905   6.579 -0.2808  0.1997 -0.1179
   13DA     O1P  379   2.921   3.872   6.659 -0.2344 -0.6852 -0.3964
   13DA     O2P  380   3.133   4.010   6.630  0.0751 -0.2018  0.0776
   13DA     O5'  381   3.124   3.770   6.549 -0.2821  0.1547  0.0797
   13DA     C5'  382   3.070   3.644   6.516 -0.3797  0.1312  0.3233
   13DA    H5'1  383   3.011   3.654   6.425 -0.7181 -1.9027  0.2700
   13DA    H5'2  384   2.999   3.612   6.592  0.7412 -1.9475  0.5643
   13DA     C4'  385   3.166   3.529   6.485 -0.6533  0.0155 -0.1021
   13DA     H4'  386   3.099   3.444   6.473  1.3467 -1.6173 -0.2257
   13DA     O4'  387   3.245   3.549   6.370 -0.2327 -0.0096  0.1808
   13DA     C1'  388   3.381   3.514   6.387 -0.1604  0.1838  0.0039
   13DA     H1'  389   3.402   3.424   6.329 -0.3733 -0.9168  1.5711
   13DA      N9  390   3.478   3.623   6.368  0.1174 -0.1231 -0.3558
   13DA      C8  391   3.469   3.752   6.413  0.0519 -0.1411 -0.3184
   13DA      H8  392   3.375   3.798   6.441  1.9301  2.9169  1.5031
   13DA      N7  393   3.580   3.819   6.404  0.0275 -0.0103  0.3145
   13DA      C5  394   3.668   3.728   6.347 -0.3089  0.1578 -0.4899
   13DA      C6  395   3.801   3.731   6.303  0.0702 -0.4562  0.5647
   13DA      N6  396   3.867   3.847   6.304 -0.6714 -0.0174 -0.1018
   13DA     H61  397   3.824   3.930   6.343 -0.2972 -0.7416  1.9836
   13DA     H62  398   3.965   3.843   6.278 -0.7495 -1.3885 -0.2394
   13DA      N1  399   3.864   3.619   6.263  0.4858 -0.0143 -0.0504
   13DA      C2  400   3.794   3.506   6.269  0.3513  0.0732  0.0489
   13DA      H2  401   3.847   3.414   6.252  0.2028 -0.1114  0.5748
   13DA      N3  402   3.667   3.486   6.302  0.2920 -0.0039 -0.2249
   13DA      C4  403   3.611   3.604   6.338  0.3453 -0.2551  0.7023
   13DA     C3'  404   3.261   3.508   6.602 -0.2043 -0.1625 -0.4977
   13DA     H3'  405   3.288   3.602   6.651 -0.7291  0.1350 -0.7708
   13DA     C2'  406   3.378   3.448   6.524  0.1471 -0.0143 -0.0842
   13DA    H2'1  407   3.472   3.458   6.580 -0.4259 -1.0128  1.1166
   13DA    H2'2  408   3.358   3.342   6.509  0.2323 -0.0664  0.1547
   13DA     O3'  409   3.216   3.410   6.693 -0.2757  0.4746  0.1631
   14DG       P  410   3.290   3.383   6.833 -0.0432 -0.1338 -0.0741
   14DG     O1P  411   3.209   3.282   6.906  0.0673 -0.3322 -0.2237
   14DG     O2P  412   3.305   3.518   6.892 -0.0203 -0.1496 -0.0439
   14DG     O5'  413   3.441   3.331   6.817  0.0969  0.2124  0.1071
   14DG     C5'  414   3.464   3.195   6.788 -0.2865  0.2183 -0.2279
   14DG    H5'1  415   3.400   3.173   6.702  0.3377  2.5669 -1.3523
   14DG    H5'2  416   3.450   3.130   6.874  1.1544  2.9797  2.2743
   14DG     C4'  417   3.610   3.169   6.752 -0.3115  0.1532 -0.2823
   14DG     H4'  418   3.629   3.070   6.711  0.4770  0.7354 -1.3716
   14DG     O4'  419   3.650   3.254   6.647  0.0441  0.0468 -0.2330
   14DG     C1'  420   3.790   3.271   6.655  0.0371 -0.0682  0.1296
   14DG     H1'  421   3.841   3.221   6.574  0.8607 -1.0223  1.2022
   14DG      N9  422   3.826   3.414   6.646 -0.3617  0.0117 -0.2531
   14DG      C8  423   3.755   3.523   6.688  0.1729  0.0663  0.5391
   14DG      H8  424   3.659   3.506   6.734 -0.8108  3.0580 -0.1693
   14DG      N7  425   3.814   3.637   6.663  0.2357 -0.0025  0.3682
   14DG      C5  426   3.930   3.595   6.599 -0.2585  0.4692 -0.8546
   14DG      C6  427   4.040   3.670   6.550  0.3204  0.0645 -0.1981
   14DG      O6  428   4.060   3.792   6.549  0.3088  0.0681 -0.1052
   14DG      N1  429   4.149   3.595   6.509  0.4143  0.3898 -0.5517
   14DG      H1  430   4.236   3.646   6.498  0.3216  0.3263 -1.5944
   14DG      C2  431   4.152   3.457   6.507  0.1823  0.3782 -0.2154
   14DG      N2  432   4.274   3.405   6.491 -0.0116 -0.0361 -0.3529
   14DG     H21  433   4.353   3.465   6.471  1.8825 -1.7505  1.4560
   14DG     H22  434   4.279   3.304   6.496  0.2709 -0.1354 -2.0476
   14DG      N3  435   4.044   3.385   6.540  0.0557  0.7882  0.2883
   14DG      C4  436   3.939   3.459   6.581 -0.3996  0.3523 -0.0848
   14DG     C3'  437   3.711   3.193   6.864 -0.4440  0.0620 -0.1420
   14DG     H3'  438   3.693   3.287   6.916  0.5598  1.0848 -1.5279
   14DG     C2'  439   3.841   3.206   6.784 -0.1886  0.0173  0.2632
   14DG    H2'1  440   3.904   3.274   6.841 -2.2369  2.1957  0.1190
   14DG    H2'2  441   3.893   3.114   6.760  0.8497  0.8445 -0.7976
   14DG     O3'  442   3.716   3.089   6.958  0.0203  0.2727  0.0711
   15DG       P  443   3.780   3.116   7.103  0.3582  0.3430 -0.0915
   15DG     O1P  444   3.777   2.987   7.176  0.8879  0.4449  0.1146
   15DG     O2P  445   3.709   3.234   7.156 -0.3415 -0.2866  0.3955
   15DG     O5'  446   3.936   3.152   7.084  0.4497 -0.0662 -0.1366
   15DG     C5'  447   4.020   3.050   7.035  0.7264 -0.3828  0.9720
   15DG    H5'1  448   3.994   3.018   6.935  1.7059  0.9567  0.2476
   15DG    H5'2  449   4.026   2.968   7.106  2.3825  1.2803  2.8912
   15DG     C4'  450   4.164   3.093   7.011  0.3917  0.0801 -0.2900
   15DG     H4'  451   4.210   2.995   7.007 -0.0901 -0.1557 -0.0974
   15DG     O4'  452   4.178   3.168   6.892 -0.4877  0.5271 -0.1206
   15DG     C1'  453   4.286   3.258   6.905 -0.2239  0.2203 -0.1597
   15DG     H1'  454   4.361   3.242   6.828  3.0266 -0.6279  2.9229
   15DG      N9  455   4.239   3.398   6.894 -0.5424  0.0872 -0.5502
   15DG      C8  456   4.115   3.444   6.930 -0.4443  0.1714 -0.3195
   15DG      H8  457   4.045   3.379   6.980 -0.6933 -1.3708 -2.5482
   15DG      N7  458   4.097   3.569   6.896  0.0260  0.3150 -0.0572
   15DG      C5  459   4.225   3.608   6.855  0.0787 -0.1874 -0.3849
   15DG      C6  460   4.273   3.735   6.816  0.2882 -0.2474 -0.3188
   15DG      O6  461   4.205   3.837   6.807 -0.1163 -0.5082 -0.2004
   15DG      N1  462   4.405   3.738   6.773  0.2621  0.1446 -0.3745
   15DG      H1  463   4.441   3.827   6.739 -1.0661  1.3372  1.1549
   15DG      C2  464   4.486   3.627   6.783 -0.1968 -0.1947 -0.4342
   15DG      N2  465   4.615   3.642   6.750 -0.2807  0.2651 -0.5615
   15DG     H21  466   4.648   3.735   6.729  1.7799  0.0737  1.4780
   15DG     H22  467   4.678   3.569   6.779 -2.0138 -0.5321  1.4759
   15DG      N3  468   4.445   3.504   6.815  0.2566 -0.1372  0.4025
   15DG      C4  469   4.314   3.505   6.852 -0.0493 -0.2914 -0.6390
   15DG     C3'  470   4.242   3.157   7.126 -0.4853 -0.1087  0.4143
   15DG     H3'  471   4.183   3.237   7.173 -2.0771 -1.6262  1.1033
   15DG     C2'  472   4.346   3.231   7.043 -0.7596 -0.1944 -0.0043
   15DG    H2'1  473   4.363   3.330   7.086 -1.2057 -0.3507  0.5388
   15DG    H2'2  474   4.431   3.165   7.030 -0.2289  0.2534  1.1435
   15DG     O3'  475   4.299   3.067   7.217  0.0576  0.0882  0.2719
   16DG       P  476   4.357   3.126   7.356 -0.1415  0.0489  0.3719
   16DG     O1P  477   4.399   3.004   7.428  0.2047 -0.2026 -0.2402
   16DG     O2P  478   4.255   3.215   7.415 -0.3499 -0.0346  0.1416
   16DG     O5'  479   4.482   3.221   7.319 -0.3973  0.2500  0.0159
   16DG     C5'  480   4.618   3.183   7.319 -0.3992  0.2396  0.4152
   16DG    H5'1  481   4.629   3.101   7.249 -0.3017  1.4804 -1.0782
   16DG    H5'2  482   4.644   3.142   7.417  0.1110 -1.0505 -0.2517
   16DG     C4'  483   4.714   3.290   7.268 -0.1816 -0.1362  0.0381
   16DG     H4'  484   4.807   3.238   7.246 -1.5434 -1.8043 -2.1416
   16DG     O4'  485   4.659   3.348   7.152 -0.0611 -0.0609  0.0180
   16DG     C1'  486   4.693   3.485   7.160 -0.1363 -0.0320 -0.1453
   16DG     H1'  487   4.743   3.517   7.069 -1.4467 -0.5288 -1.0615
   16DG      N9  488   4.581   3.577   7.184  0.5090  0.4922  0.9288
   16DG      C8  489   4.456   3.552   7.235  0.3211  0.4408  0.4519
   16DG      H8  490   4.417   3.459   7.273 -1.7123  1.1400  0.1806
   16DG      N7  491   4.372   3.652   7.229 -0.4393 -0.2255 -0.2144
   16DG      C5  492   4.445   3.752   7.165 -0.2407  0.2585  0.7475
   16DG      C6  493   4.410   3.882   7.120 -0.1668 -0.1252 -0.4473
   16DG      O6  494   4.301   3.938   7.121  0.0569  0.3136  0.0613
   16DG      N1  495   4.518   3.956   7.071 -0.2712  0.1669 -0.2436
   16DG      H1  496   4.503   4.041   7.018  2.8621  1.0643  0.1225
   16DG      C2  497   4.648   3.911   7.072 -0.2606  0.2018  0.2866
   16DG      N2  498   4.742   4.004   7.046 -0.0876  0.0085  0.2149
   16DG     H21  499   4.717   4.101   7.040  1.6400  0.3971 -1.9984
   16DG     H22  500   4.839   3.975   7.041 -0.0100  0.2776  0.1828
   16DG      N3  501   4.677   3.784   7.104 -0.5439 -0.1897 -0.9538
   16DG      C4  502   4.575   3.711   7.154 -0.1903  0.4181  0.7291
   16DG     C3'  503   4.739   3.397   7.374  0.0348 -0.2170  0.0698
   16DG     H3'  504   4.644   3.419   7.423  0.4026  0.8977  0.3093
   16DG     C2'  505   4.787   3.507   7.279  0.2828 -0.6826 -0.3477
   16DG    H2'1  506   4.768   3.604   7.324 -0.3326 -0.8534 -0.2217
   16DG    H2'2  507   4.890   3.499   7.247  0.2908  0.8501 -0.7516
   16DG     O3'  508   4.843   3.365   7.463 -0.0439  0.3397  0.3644
   17DC       P  509   4.838   3.420   7.615  0.0506 -0.2571  0.5855
   17DC     O1P  510   4.959   3.362   7.677  0.5311 -0.2977 -0.3629
   17DC     O2P  511   4.706   3.389   7.673 -0.2470 -0.6353 -0.2753
   17DC     O5'  512   4.862   3.578   7.598  0.1586 -0.3013  0.3187
   17DC     C5'  513   4.989   3.632   7.568 -0.1908  0.4250  0.1282
   17DC    H5'1  514   5.039   3.572   7.492  2.2903  0.9512  1.2430
   17DC    H5'2  515   5.057   3.626   7.653 -0.1025 -0.5705 -0.0060
   17DC     C4'  516   5.005   3.778   7.526  0.0712  0.2840 -0.2616
   17DC     H4'  517   5.109   3.788   7.493 -0.0820  0.7301 -0.6184
   17DC     O4'  518   4.924   3.796   7.413 -0.5188  0.1357  0.1311
   17DC     C1'  519   4.884   3.931   7.412 -0.5339  0.1298 -0.3728
   17DC     H1'  520   4.914   3.984   7.321  0.6272 -2.6356 -1.7406
   17DC      N1  521   4.737   3.939   7.405 -0.5483 -0.1244 -0.3538
   17DC      C6  522   4.658   3.845   7.465 -0.0817 -0.0730  0.3577
   17DC      H6  523   4.697   3.749   7.499 -3.6631 -2.0824 -0.6954
   17DC      C5  524   4.525   3.858   7.479 -0.0357  0.3146  0.4208
   17DC      H5  525   4.460   3.779   7.513  1.0516 -0.5229  0.5761
   17DC      C4  526   4.474   3.982   7.428  0.4289  0.1267 -0.5166
   17DC      N4  527   4.345   4.017   7.437  0.4174 -0.0730  0.1263
   17DC     H41  528   4.286   3.935   7.449  1.8807 -1.1771  0.0717
   17DC     H42  529   4.319   4.097   7.382  2.5814  0.0700 -0.7796
   17DC      N3  530   4.551   4.081   7.380 -0.0768  0.8125  0.0666
   17DC      C2  531   4.685   4.063   7.372 -0.2329 -0.0928 -0.7407
   17DC      O2  532   4.757   4.154   7.332 -0.3142  0.2690 -0.0786
   17DC     C3'  533   4.977   3.884   7.633 -0.0172  0.1613 -0.1630
   17DC     H3'  534   4.893   3.857   7.697  0.5638 -0.8673  0.1902
   17DC     C2'  535   4.940   3.997   7.538 -0.8495 -0.0745 -0.1251
   17DC    H2'1  536   4.873   4.070   7.584  1.2036  1.5386  0.4603
   17DC    H2'2  537   5.033   4.048   7.514 -0.4184 -0.8067 -0.0299
   17DC     O3'  538   5.093   3.909   7.709 -0.1204 -0.0206  0.0571
   18DA       P  539   5.086   3.959   7.862 -0.3072 -0.3626  0.1603
   18DA     O1P  540   5.224   3.983   7.909 -0.1826 -0.2348 -0.2588
   18DA     O2P  541   4.999   3.862   7.932 -0.6740  0.2201  0.5190
   18DA     O5'  542   5.014   4.101   7.843  0.8446  0.1993 -0.1215
   18DA     C5'  543   5.098   4.208   7.807  0.2616  0.7643  0.1659
   18DA    H5'1  544   5.144   4.187   7.710 -0.2915 -1.2062  0.2893
   18DA    H5'2  545   5.184   4.227   7.872 -0.0999  3.1568  0.0327
   18DA     C4'  546   5.020   4.337   7.786 -0.3380  0.3422 -0.2373
   18DA     H4'  547   5.101   4.408   7.769  0.4522  0.1641  2.3373
   18DA     O4'  548   4.928   4.337   7.679 -0.5047 -0.3203 -0.0929
   18DA     C1'  549   4.822   4.428   7.699 -0.4553 -0.2878  0.0251
   18DA     H1'  550   4.822   4.504   7.620  0.5931  0.1663  0.4442
   18DA      N9  551   4.698   4.349   7.689 -0.1469 -0.7615 -0.1201
   18DA      C8  552   4.678   4.215   7.708 -0.5859 -0.6284  0.4000
   18DA      H8  553   4.763   4.152   7.730  1.5696  2.3808  1.2379
   18DA      N7  554   4.553   4.179   7.717 -0.8426  0.0927 -0.1896
   18DA      C5  555   4.490   4.296   7.675  0.5941  0.5676 -1.0872
   18DA      C6  556   4.361   4.318   7.624  0.0138 -0.4560 -0.1186
   18DA      N6  557   4.261   4.229   7.627 -0.4115  0.0298  0.5340
   18DA     H61  558   4.276   4.131   7.644  2.1239  0.3227  0.3970
   18DA     H62  559   4.168   4.260   7.603 -0.6626 -1.1956 -0.1701
   18DA      N1  560   4.324   4.443   7.591 -0.2478 -0.4298  0.2559
   18DA      C2  561   4.415   4.539   7.597 -0.1328 -0.5103 -0.1659
   18DA      H2  562   4.380   4.641   7.591 -1.6401 -1.0184 -0.5230
   18DA      N3  563   4.543   4.530   7.629 -0.0605  0.5816 -0.1175
   18DA      C4  564   4.574   4.403   7.665  0.3897  0.9367  0.7742
   18DA     C3'  565   4.940   4.392   7.904 -0.1635 -0.0129  0.0463
   18DA     H3'  566   4.876   4.317   7.951  1.0529 -0.7061  0.6406
   18DA     C2'  567   4.846   4.491   7.835  0.3797  0.2281 -0.3532
   18DA    H2'1  568   4.754   4.500   7.893  0.0784  0.2976 -0.8440
   18DA    H2'2  569   4.890   4.590   7.823 -0.8086  0.6328 -1.5058
   18DA     O3'  570   5.024   4.448   8.002  0.2503  0.1008 -0.3729
   19DT       P  571   4.975   4.474   8.153  0.1324 -0.0074 -0.3921
   19DT     O1P  572   5.083   4.538   8.231 -0.4603 -0.7386  1.0596
   19DT     O2P  573   4.920   4.348   8.208 -0.2971  0.1485 -0.4654
   19DT     O5'  574   4.852   4.577   8.144 -0.0541 -0.1254  0.7436
   19DT     C5'  575   4.868   4.714   8.113  0.3611 -0.2447  0.4263
   19DT    H5'1  576   4.942   4.732   8.036 -2.0263  1.3365 -1.6409
   19DT    H5'2  577   4.905   4.766   8.201 -2.8600  3.0957  0.0234
   19DT     C4'  578   4.742   4.789   8.073  0.2712 -0.6416 -0.0420
   19DT     H4'  579   4.768   4.890   8.042 -1.7352 -0.3069 -0.8123
   19DT     O4'  580   4.673   4.747   7.957  0.0204  0.6062 -0.3596
   19DT     C1'  581   4.534   4.755   7.975  0.0972 -0.1618  0.6933
   19DT     H1'  582   4.492   4.819   7.897  1.0109  0.5904  0.8016
   19DT      N1  583   4.463   4.626   7.977 -0.1289 -0.0551  0.0658
   19DT      C6  584   4.516   4.518   8.043 -0.0068  0.2132  0.4137
   19DT      H6  585   4.616   4.517   8.084  0.5774 -3.9912 -0.6540
   19DT      C5  586   4.451   4.401   8.029  0.0311  0.2733 -0.3263
   19DT      C7  587   4.511   4.281   8.099 -0.6179  0.3986  0.4559
   19DT     H71  588   4.453   4.254   8.188  1.6650 -3.6457  0.9410
   19DT     H72  589   4.522   4.193   8.036 -1.9628 -0.4973  1.4132
   19DT     H73  590   4.614   4.304   8.124  0.3265 -1.5162 -1.4142
   19DT      C4  591   4.329   4.384   7.952 -0.0074 -0.4733 -0.1120
   19DT      O4  592   4.264   4.283   7.931 -0.3141 -0.2030 -0.4679
   19DT      N3  593   4.273   4.506   7.918  0.3682 -0.2832 -0.0627
   19DT      H3  594   4.174   4.499   7.897  0.2365  1.8910 -0.3654
   19DT      C2  595   4.332   4.631   7.934  0.0969 -0.0741 -0.6417
   19DT      O2  596   4.266   4.732   7.912 -0.5214 -0.2877  0.1571
   19DT     C3'  597   4.640   4.802   8.186  0.2907 -0.7488 -0.0122
   19DT     H3'  598   4.627   4.704   8.233 -0.3201 -0.9618 -0.5998
   19DT     C2'  599   4.512   4.828   8.107 -0.0927 -0.3167  0.7485
   19DT    H2'1  600   4.423   4.790   8.158 -1.7240 -0.7425 -2.1889
   19DT    H2'2  601   4.487   4.932   8.086 -2.5045 -0.6368  1.6226
   19DT     O3'  602   4.659   4.906   8.278  0.2927 -0.8320  0.0818
   20DC       P  603   4.595   4.910   8.426 -0.0482  0.2019 -0.0827
   20DC     O1P  604   4.625   5.036   8.496 -0.0258  0.2153 -0.1156
   20DC     O2P  605   4.618   4.780   8.493 -0.6296  0.4567  0.6206
   20DC     O5'  606   4.439   4.925   8.389 -0.2778  0.0192  0.7775
   20DC     C5'  607   4.388   5.054   8.359 -0.0100 -0.0621 -0.0768
   20DC    H5'1  608   4.429   5.099   8.270 -2.3935 -0.8227 -1.6621
   20DC    H5'2  609   4.412   5.119   8.444 -2.0844 -0.0961  0.5944
   20DC     C4'  610   4.236   5.045   8.351 -0.0492  0.2701  0.3030
   20DC     H4'  611   4.206   5.146   8.324  0.4215  0.5073  0.6492
   20DC     O4'  612   4.198   4.962   8.244  0.2115  0.2027  0.2637
   20DC     C1'  613   4.075   4.900   8.276  0.1179  0.1748 -0.1362
   20DC     H1'  614   3.989   4.920   8.213 -1.8342 -0.4464  2.1764
   20DC      N1  615   4.089   4.754   8.268  0.1198  0.2090 -0.7776
   20DC      C6  616   4.209   4.695   8.297 -0.0603  0.0142 -0.4193
   20DC      H6  617   4.287   4.757   8.341  0.1575  0.1854 -1.0400
   20DC      C5  618   4.227   4.562   8.286 -0.0530  0.0260 -0.5536
   20DC      H5  619   4.320   4.513   8.310 -0.2665 -0.2850 -0.3569
   20DC      C4  620   4.111   4.492   8.240 -0.0584 -0.3191 -0.0242
   20DC      N4  621   4.125   4.363   8.205  0.7524 -0.2274 -0.0607
   20DC     H41  622   4.210   4.316   8.233  1.6583  0.7067 -1.1508
   20DC     H42  623   4.039   4.322   8.171 -0.4889  2.3689 -0.3381
   20DC      N3  624   3.990   4.547   8.227  0.1515  0.3172  0.7117
   20DC      C2  625   3.979   4.683   8.225 -0.0629  0.2849 -0.4411
   20DC      O2  626   3.871   4.728   8.186 -0.3512  0.0979  0.1394
   20DC     C3'  627   4.164   5.004   8.480 -0.1049  0.0073  0.1893
   20DC     H3'  628   4.220   4.926   8.532 -0.3533  0.5803  1.3326
   20DC     C2'  629   4.042   4.932   8.422  0.1294 -0.1993 -0.0520
   20DC    H2'1  630   4.025   4.844   8.483  0.7835 -0.4192 -0.1790
   20DC    H2'2  631   3.956   4.999   8.429  0.5268  0.1550  4.7278
   20DC     O3'  632   4.111   5.111   8.555  0.1923  0.3163 -0.0377
   21DT       P  633   4.055   5.077   8.702 -0.1012 -0.2537 -0.2770
   21DT     O1P  634   4.020   5.206   8.767  0.6245 -0.3080  0.2360
   21DT     O2P  635   4.156   4.997   8.776 -0.0971 -0.0320 -0.0385
   21DT     O5'  636   3.924   4.985   8.687  0.1275 -0.6351  0.0223
   21DT     C5'  637   3.795   5.041   8.672  0.3849 -0.0567 -0.0526
   21DT    H5'1  638   3.783   5.099   8.580 -3.1455 -1.5425 -0.6621
   21DT    H5'2  639   3.767   5.104   8.756 -1.0996  0.5682 -0.9751
   21DT     C4'  640   3.700   4.923   8.657  0.5293 -0.1585 -0.1802
   21DT     H4'  641   3.606   4.971   8.630 -0.0411 -1.2422 -0.1532
   21DT     O4'  642   3.729   4.836   8.550  0.2236 -0.0749 -0.3317
   21DT     C1'  643   3.659   4.714   8.565  0.3722 -0.1021  0.1581
   21DT     H1'  644   3.587   4.702   8.485  0.1190  1.4853  0.1150
   21DT      N1  645   3.742   4.593   8.556  0.0721 -0.3421  0.5799
   21DT      C6  646   3.873   4.594   8.597  0.3048 -0.2927 -0.1479
   21DT      H6  647   3.916   4.676   8.652 -0.9226 -0.7642  1.6035
   21DT      C5  648   3.954   4.489   8.575  0.6699 -0.0988  0.2764
   21DT      C7  649   4.102   4.497   8.607  0.7740 -0.4035 -0.1237
   21DT     H71  650   4.134   4.596   8.640  0.6366 -0.4493  0.1431
   21DT     H72  651   4.131   4.421   8.679  0.0970 -2.0589 -1.5058
   21DT     H73  652   4.157   4.481   8.514  0.4808  2.4038 -0.8702
   21DT      C4  653   3.906   4.372   8.505 -0.0471  0.4941 -0.2325
   21DT      O4  654   3.976   4.273   8.485  0.2161  0.5829  0.2360
   21DT      N3  655   3.773   4.376   8.466 -0.2432  0.0479  0.3727
   21DT      H3  656   3.735   4.291   8.428 -1.3536  0.8830 -0.4730
   21DT      C2  657   3.687   4.481   8.496 -0.2738  0.1243  0.0209
   21DT      O2  658   3.569   4.462   8.466 -0.1360 -0.1495 -0.3555
   21DT     C3'  659   3.670   4.832   8.776 -0.1239  0.5066  0.1793
   21DT     H3'  660   3.760   4.785   8.817 -0.4672 -2.0785 -1.7758
   21DT     C2'  661   3.592   4.724   8.702  0.2325  0.3274  0.0612
   21DT    H2'1  662   3.594   4.631   8.759 -2.9885 -0.4873 -0.9517
   21DT    H2'2  663   3.491   4.765   8.700  0.7973  1.7523 -0.5790
   21DT     O3'  664   3.583   4.887   8.872 -0.7568 -0.1452 -0.0132
   22DG       P  665   3.586   4.819   9.018 -0.2256 -0.0550  0.0199
   22DG     O1P  666   3.522   4.917   9.109 -0.1176 -0.3600  0.4258
   22DG     O2P  667   3.723   4.770   9.047 -0.2611 -0.2872 -0.2108
   22DG     O5'  668   3.494   4.691   8.989 -0.2114 -0.1458  0.3733
   22DG     C5'  669   3.355   4.699   8.965 -0.1744 -0.2443  0.1194
   22DG    H5'1  670   3.353   4.759   8.875 -0.5676  1.7176  1.3696
   22DG    H5'2  671   3.301   4.752   9.043 -1.6827 -1.4275 -0.0794
   22DG     C4'  672   3.292   4.563   8.942 -0.0485 -0.2649 -0.1011
   22DG     H4'  673   3.183   4.572   8.943 -0.4017 -3.2521  1.9636
   22DG     O4'  674   3.335   4.504   8.821 -0.1839 -0.2194 -0.1715
   22DG     C1'  675   3.358   4.366   8.839 -0.0683 -0.1625  0.1238
   22DG     H1'  676   3.297   4.306   8.771 -0.9443 -0.5428  1.2140
   22DG      N9  677   3.497   4.325   8.813 -0.0406  0.1942 -0.2941
   22DG      C8  678   3.616   4.381   8.853  0.0931 -0.8960  0.8965
   22DG      H8  679   3.619   4.478   8.901  0.0766 -0.0926 -0.6597
   22DG      N7  680   3.725   4.318   8.817  0.2168 -0.0939 -0.1915
   22DG      C5  681   3.676   4.198   8.767  0.0114 -0.2734  0.4296
   22DG      C6  682   3.744   4.076   8.742  0.1901 -0.0997  0.0699
   22DG      O6  683   3.861   4.042   8.750  0.2955  0.0355 -0.8071
   22DG      N1  684   3.656   3.971   8.719 -0.1152  0.1139  0.2565
   22DG      H1  685   3.700   3.882   8.698  1.4706 -0.0944  3.6812
   22DG      C2  686   3.518   3.986   8.722 -0.1411 -0.0813  0.0754
   22DG      N2  687   3.448   3.872   8.715 -0.2608 -0.0406  0.5617
   22DG     H21  688   3.494   3.786   8.691 -0.8114 -0.0376 -0.5820
   22DG     H22  689   3.347   3.881   8.707 -0.1510  0.4747 -0.3909
   22DG      N3  690   3.454   4.102   8.742  0.3172  0.1104  0.4545
   22DG      C4  691   3.539   4.206   8.760  0.1150  0.5282 -0.9244
   22DG     C3'  692   3.307   4.463   9.056 -0.4407 -0.4558 -0.2137
   22DG     H3'  693   3.402   4.478   9.107 -0.3143  2.5970 -1.1371
   22DG     C2'  694   3.310   4.331   8.980 -0.3457 -0.5416 -0.0623
   22DG    H2'1  695   3.387   4.270   9.027 -0.3411  0.0652  0.7358
   22DG    H2'2  696   3.211   4.287   8.974 -0.9835  0.9366 -0.8640
   22DG     O3'  697   3.201   4.461   9.150 -0.0494  0.2299  0.2505
   23DC       P  698   3.232   4.410   9.300  0.2041  0.1803  0.1831
   23DC     O1P  699   3.108   4.446   9.372  0.4334  0.5121  0.4077
   23DC     O2P  700   3.362   4.463   9.347  0.2702  0.1463  0.0414
   23DC     O5'  701   3.254   4.250   9.291 -0.1409  0.1147  0.5178
   23DC     C5'  702   3.143   4.167   9.267  0.5388 -0.4226 -0.8610
   23DC    H5'1  703   3.084   4.214   9.188  2.9172 -0.2515 -2.6195
   23DC    H5'2  704   3.082   4.168   9.358 -0.9334 -1.1214 -1.8060
   23DC     C4'  705   3.170   4.021   9.231 -0.7457 -0.8366 -0.2289
   23DC     H4'  706   3.072   3.978   9.213 -1.7822  1.0689  0.5066
   23DC     O4'  707   3.242   4.016   9.110 -0.2981  0.2000 -0.0169
   23DC     C1'  708   3.313   3.895   9.110  0.1533  0.4628  0.3972
   23DC     H1'  709   3.284   3.831   9.027  1.7373 -1.1001  0.9551
   23DC      N1  710   3.459   3.919   9.105  0.2434 -0.1186 -0.0049
   23DC      C6  711   3.511   4.037   9.150  0.5871 -0.3511  0.2086
   23DC      H6  712   3.453   4.110   9.205  0.0052 -0.2884 -0.4778
   23DC      C5  713   3.640   4.074   9.135  0.3420  0.4024 -0.0589
   23DC      H5  714   3.672   4.174   9.161  1.3982  0.5367 -1.7135
   23DC      C4  715   3.724   3.976   9.072 -0.2759 -0.1169 -0.0783
   23DC      N4  716   3.853   4.000   9.047 -0.2014 -0.1101  0.2988
   23DC     H41  717   3.899   4.080   9.087 -0.2466 -0.4816  1.1195
   23DC     H42  718   3.896   3.932   8.985 -3.1909 -0.0380 -2.0632
   23DC      N3  719   3.673   3.865   9.017  0.2245 -0.2190 -0.3373
   23DC      C2  720   3.542   3.835   9.034  0.0225  0.3458 -0.8323
   23DC      O2  721   3.500   3.733   8.980 -0.0657 -0.3727  0.5345
   23DC     C3'  722   3.248   3.941   9.335 -0.1071 -0.1229 -0.1493
   23DC     H3'  723   3.338   3.998   9.357  0.5908 -0.4021 -2.1308
   23DC     C2'  724   3.286   3.825   9.243 -0.1820 -0.2407 -0.0312
   23DC    H2'1  725   3.373   3.777   9.288 -0.1265 -1.6078 -1.5435
   23DC    H2'2  726   3.206   3.752   9.234 -1.1031  0.8269 -0.7452
   23DC     O3'  727   3.176   3.907   9.452  0.0459  0.1133  0.0153
   24DG       P  728   3.255   3.875   9.588 -0.3672  0.1412  0.2628
   24DG     O1P  729   3.154   3.858   9.694 -0.5007  0.4314  0.1837
   24DG     O2P  730   3.370   3.967   9.607  0.1003 -0.4436  0.2972
   24DG     O5'  731   3.328   3.731   9.589 -0.1822  0.2335  0.4156
   24DG     C5'  732   3.252   3.623   9.540 -0.0868  0.0244  0.7337
   24DG    H5'1  733   3.202   3.653   9.448  2.6672  2.3012 -0.1579
   24DG    H5'2  734   3.167   3.609   9.605 -1.2924 -1.0700 -0.9849
   24DG     C4'  735   3.341   3.504   9.502 -0.4532  0.0121 -0.1053
   24DG     H4'  736   3.273   3.421   9.481 -0.3868 -0.0630 -0.0260
   24DG     O4'  737   3.392   3.519   9.371 -0.2964 -0.3482 -0.0857
   24DG     C1'  738   3.519   3.457   9.370 -0.2453 -0.2669  0.5299
   24DG     H1'  739   3.534   3.392   9.283  0.8308  1.0306 -0.3025
   24DG      N9  740   3.621   3.563   9.356 -0.5086 -0.0915 -0.0969
   24DG      C8  741   3.617   3.697   9.384  0.1597 -0.0619 -0.1464
   24DG      H8  742   3.524   3.740   9.418  0.0053 -1.3375  1.1714
   24DG      N7  743   3.728   3.764   9.368  0.5011 -0.4497  0.5148
   24DG      C5  744   3.814   3.666   9.318  0.2251 -0.3283 -0.2235
   24DG      C6  745   3.949   3.678   9.279 -0.1170  0.1316 -1.3039
   24DG      O6  746   4.009   3.783   9.254  0.0997  0.3089 -0.0948
   24DG      N1  747   4.008   3.553   9.267 -0.2051 -0.0943  0.3650
   24DG      H1  748   4.101   3.552   9.227 -0.4158 -2.2698 -0.2251
   24DG      C2  749   3.940   3.433   9.261  0.0715 -0.2530  0.3789
   24DG      N2  750   4.012   3.321   9.240  0.7911  0.2117  0.3222
   24DG     H21  751   4.111   3.324   9.221  0.6186 -0.1933 -0.7080
   24DG     H22  752   3.962   3.233   9.240 -1.6082  1.4067 -1.8045
   24DG      N3  753   3.812   3.424   9.299 -0.0336  0.2074  0.1351
   24DG      C4  754   3.752   3.543   9.322 -0.4590  0.0159  0.0317
   24DG     C3'  755   3.449   3.465   9.603 -0.2790 -0.1850 -0.3667
   24DG     H3'  756   3.498   3.558   9.629 -2.2947  1.1530 -1.0600
   24DG     C2'  757   3.528   3.382   9.502  0.1614 -0.6018  0.3135
   24DG    H2'1  758   3.628   3.385   9.544 -0.1745  0.8410  1.0701
   24DG    H2'2  759   3.495   3.278   9.491 -2.5131  0.1957 -0.0810
   24DG     O3'  760   3.417   3.379   9.710 -0.2427  0.1736 -0.0661
   25DC       P  761   3.495   3.372   9.850 -0.2568 -0.3777 -0.0855
   25DC     O1P  762   3.418   3.284   9.941  0.0007 -0.4000  0.1165
   25DC     O2P  763   3.525   3.507   9.900  0.7079 -0.5664 -0.1309
   25DC     O5'  764   3.636   3.304   9.809 -0.0523  0.0153 -0.0381
   25DC     C5'  765   3.643   3.166   9.779  0.6575  0.0050  0.1589
   25DC    H5'1  766   3.572   3.139   9.701 -0.4462 -2.6113  1.9213
   25DC    H5'2  767   3.616   3.107   9.867  0.8346 -0.7081 -0.2595
   25DC     C4'  768   3.784   3.133   9.734  0.5816  0.0966 -0.1498
   25DC     H4'  769   3.797   3.029   9.704 -2.6812  0.4614 -3.4957
   25DC     O4'  770   3.820   3.205   9.619  0.0842  0.3751 -0.1296
   25DC     C1'  771   3.959   3.230   9.621  0.1365  0.0978 -0.2263
   25DC     H1'  772   4.008   3.181   9.537  0.4536  1.0935 -0.6395
   25DC      N1  773   3.976   3.376   9.604 -0.0668  0.2267  0.6122
   25DC      C6  774   3.882   3.468   9.642  0.0724  0.5545  0.1705
   25DC      H6  775   3.789   3.434   9.685 -0.9939 -1.2488 -3.1691
   25DC      C5  776   3.912   3.599   9.645  0.1223  0.5294  0.9160
   25DC      H5  777   3.842   3.673   9.680 -0.8883 -0.4018  0.8936
   25DC      C4  778   4.039   3.638   9.591 -0.1687 -0.2451 -0.3602
   25DC      N4  779   4.066   3.769   9.577  0.3005 -0.2688  0.2713
   25DC     H41  780   3.997   3.837   9.602 -0.8205 -2.0359  2.3456
   25DC     H42  781   4.147   3.799   9.524  0.3752  1.4239  1.2751
   25DC      N3  782   4.133   3.549   9.557  0.0004 -0.2438  0.0934
   25DC      C2  783   4.102   3.417   9.565  0.0157 -0.2283  0.3883
   25DC      O2  784   4.186   3.340   9.521  0.1186 -0.1208  0.3955
   25DC     C3'  785   3.893   3.171   9.834  0.3706  0.3116 -0.0025
   25DC     H3'  786   3.876   3.273   9.870 -1.2692 -0.2469  0.9206
   25DC     C2'  787   4.021   3.180   9.751  0.2831  0.5677 -0.1103
   25DC    H2'1  788   4.091   3.257   9.781 -1.5367  1.8779  0.9898
   25DC    H2'2  789   4.068   3.082   9.743 -0.8481 -0.0478  0.5211
   25DC     O3'  790   3.914   3.066   9.926 -0.3736  0.4114  0.2924
   25DC     H3T  791   3.981   3.089   9.991 -1.1864  2.2423  0.5328
   26G      O5'  792   5.084   3.937   9.196  0.0836  0.6368  0.3416
   26G      H5T  793   5.053   3.971   9.280  1.8468  3.0623  0.1400
   26G      C5'  794   5.161   3.819   9.205 -0.1985  0.4313  0.0775
   26G     H5'1  795   5.237   3.842   9.280 -1.4604  1.4423  1.1103
   26G     H5'2  796   5.213   3.791   9.114  0.9767  0.0222  0.8511
   26G      C4'  797   5.073   3.700   9.240  0.0109  0.1741 -0.2612
   26G      H4'  798   5.144   3.621   9.265  0.4309  0.7391  0.3689
   26G      O4'  799   5.005   3.725   9.362 -0.3276  0.0321 -0.4194
   26G      C1'  800   4.883   3.654   9.355 -0.2328 -0.2032  0.3074
   26G      H1'  801   4.872   3.598   9.448 -1.3488  0.8476  0.8355
   26G       N9  802   4.764   3.740   9.339 -0.0362 -0.0881 -0.5817
   26G       C8  803   4.752   3.875   9.325 -0.1403 -0.1114 -0.7097
   26G       H8  804   4.837   3.938   9.302  0.2501 -0.2036  0.4378
   26G       N7  805   4.629   3.914   9.344 -0.1383 -0.1356 -0.6479
   26G       C5  806   4.559   3.800   9.381 -0.2184 -0.0959 -0.6755
   26G       C6  807   4.427   3.783   9.431  0.0159 -0.2069 -0.0801
   26G       O6  808   4.344   3.871   9.451  0.0694 -0.1369 -0.1659
   26G       N1  809   4.393   3.652   9.459 -0.4167 -0.0320  0.2276
   26G       H1  810   4.303   3.626   9.498  0.0452 -2.2171 -0.0179
   26G       C2  811   4.486   3.550   9.453 -0.3254  0.0806 -0.3386
   26G       N2  812   4.457   3.428   9.502  0.2102  0.2606  0.4287
   26G      H21  813   4.367   3.384   9.499  1.1505 -1.7678  0.5475
   26G      H22  814   4.535   3.364   9.506 -0.3841 -0.4949  0.0544
   26G       N3  815   4.616   3.569   9.432 -0.2738  0.3494  0.1990
   26G       C4  816   4.645   3.695   9.392  0.0286  0.1468 -0.2285
   26G      C3'  817   4.971   3.648   9.139  0.0826 -0.1954 -0.1440
   26G      H3'  818   4.906   3.728   9.104 -0.2840 -0.5270 -0.2350
   26G      C2'  819   4.891   3.561   9.235  0.3783 -0.0577  0.2301
   26G     H2'1  820   4.793   3.551   9.187  0.3755  0.4983  0.1188
   26G      O2'  821   4.958   3.440   9.261  0.4133 -0.0382  0.2269
   26G     HO'2  822   5.014   3.413   9.188  0.4029 -2.5742  1.0292
   26G      O3'  823   5.034   3.580   9.033  0.4463  0.4148 -0.3267
   27C        P  824   4.956   3.573   8.892  0.0010 -0.0648 -0.0586
   27C      O1P  825   5.049   3.506   8.799 -0.3286 -0.6388  0.0194
   27C      O2P  826   4.909   3.709   8.858  0.0392 -0.0949 -0.2327
   27C      O5'  827   4.827   3.477   8.910 -0.1457  0.2027  0.3465
   27C      C5'  828   4.850   3.339   8.929 -0.0997  0.2003  0.2736
   27C     H5'1  829   4.937   3.317   8.991 -0.2076  2.4582  1.2982
   27C     H5'2  830   4.870   3.286   8.835 -3.4746  0.7044 -0.8872
   27C      C4'  831   4.726   3.265   8.979  0.0297  0.0331  0.3484
   27C      H4'  832   4.758   3.162   8.997  2.4125  0.6906  0.2261
   27C      O4'  833   4.674   3.315   9.100  0.0953 -0.4262  0.5702
   27C      C1'  834   4.533   3.310   9.099  0.0885 -0.2351 -0.3940
   27C      H1'  835   4.501   3.257   9.188  0.3839  1.3016  0.6682
   27C       N1  836   4.468   3.442   9.087  0.3638 -0.0716 -0.0895
   27C       C6  837   4.535   3.559   9.067  0.5856 -0.1584  0.1290
   27C       H6  838   4.640   3.550   9.045  0.9706 -0.1136  1.8148
   27C       C5  839   4.480   3.681   9.088  0.3909 -0.3501  0.7374
   27C       H5  840   4.531   3.775   9.075 -0.1961 -0.1944 -0.5027
   27C       C4  841   4.344   3.684   9.133  0.1719 -0.0436  0.0545
   27C       N4  842   4.273   3.797   9.153  0.1739  0.0791 -0.6114
   27C      H41  843   4.311   3.890   9.143 -1.0554  0.9077  1.6902
   27C      H42  844   4.182   3.790   9.195  1.1971 -1.4412  1.5735
   27C       N3  845   4.281   3.571   9.167  0.5770 -0.4240 -0.4476
   27C       C2  846   4.348   3.453   9.155  0.2545 -0.6355 -0.1838
   27C       O2  847   4.292   3.357   9.206 -0.3544 -0.1969 -0.0091
   27C      C3'  848   4.613   3.260   8.877  0.7592  0.2412 -0.4932
   27C      H3'  849   4.593   3.348   8.816  1.3787  1.1991  0.6482
   27C      C2'  850   4.497   3.231   8.973  0.6423 -0.0001 -0.7038
   27C     H2'1  851   4.406   3.268   8.926  1.7789  4.1247 -0.0642
   27C      O2'  852   4.496   3.094   9.004 -0.5195  0.1348 -0.0805
   27C     HO'2  853   4.514   3.042   8.925  1.4789  2.1560 -1.0449
   27C      O3'  854   4.640   3.156   8.785 -0.2933 -0.5820  0.0949
   28G        P  855   4.572   3.157   8.639  0.2818  0.1032 -0.1720
   28G      O1P  856   4.599   3.031   8.567 -0.0056 -0.3960  0.5858
   28G      O2P  857   4.600   3.287   8.573  0.2407  0.2357  0.0684
   28G      O5'  858   4.416   3.146   8.678  0.3491 -0.4486 -0.0490
   28G      C5'  859   4.354   3.022   8.699  0.1767 -0.2438  0.6851
   28G     H5'1  860   4.399   2.949   8.766  1.5740 -2.0275 -1.9943
   28G     H5'2  861   4.343   2.959   8.610 -2.5955 -0.4524  1.0786
   28G      C4'  862   4.215   3.056   8.751  0.0528  0.2522  0.0395
   28G      H4'  863   4.176   2.960   8.786  1.7063 -0.7920 -0.8524
   28G      O4'  864   4.216   3.159   8.847  0.1140  0.0017  0.3068
   28G      C1'  865   4.091   3.225   8.845  0.0178 -0.1737  0.4953
   28G      H1'  866   4.023   3.196   8.925 -2.0643  0.1762 -1.0699
   28G       N9  867   4.111   3.371   8.847  0.0568 -0.1758  0.2518
   28G       C8  868   4.222   3.446   8.817  0.0577 -0.1971  0.2048
   28G       H8  869   4.308   3.400   8.772  1.8933  2.4844  0.7308
   28G       N7  870   4.209   3.574   8.842 -0.0075 -0.0850 -0.3849
   28G       C5  871   4.079   3.589   8.890  0.0829 -0.0351 -0.1608
   28G       C6  872   4.001   3.704   8.919 -0.2312 -0.2628 -0.1150
   28G       O6  873   4.034   3.822   8.926  0.2829 -0.4209  0.1619
   28G       N1  874   3.871   3.671   8.956 -0.0917  0.1128  0.7479
   28G       H1  875   3.804   3.744   8.971  2.3321  2.1818  2.1590
   28G       C2  876   3.829   3.539   8.962  0.0954 -0.0165 -0.4780
   28G       N2  877   3.698   3.527   8.986  0.2502 -0.0071  0.3767
   28G      H21  878   3.629   3.601   8.989  1.8261  1.5990 -1.1847
   28G      H22  879   3.666   3.432   8.995  1.7787 -0.5011  0.9846
   28G       N3  880   3.902   3.429   8.943  0.0882 -0.0948 -0.0561
   28G       C4  881   4.027   3.463   8.904  0.1054 -0.0188  0.0681
   28G      C3'  882   4.133   3.110   8.634  0.0444 -0.0975 -0.1175
   28G      H3'  883   4.189   3.189   8.583 -0.5263  0.2626 -0.1929
   28G      C2'  884   4.024   3.177   8.717  0.4095  0.1505  0.1651
   28G     H2'1  885   3.971   3.259   8.669 -1.2710 -0.4867  0.8441
   28G      O2'  886   3.922   3.084   8.750  0.6033 -0.3188 -0.5379
   28G     HO'2  887   3.847   3.085   8.690 -1.5797  0.0620  2.0090
   28G      O3'  888   4.092   3.009   8.544 -0.2118 -0.1066  0.0100
   29C        P  889   4.037   3.063   8.403 -0.0668 -0.0778 -0.0355
   29C      O1P  890   4.008   2.943   8.322  0.4704  0.0182 -0.3791
   29C      O2P  891   4.128   3.167   8.350 -0.0935 -0.3251 -0.5702
   29C      O5'  892   3.896   3.134   8.432 -0.0333 -0.1980  0.4293
   29C      C5'  893   3.775   3.062   8.441  0.0275 -0.4042 -0.3360
   29C     H5'1  894   3.773   2.974   8.506  1.6739 -0.3896 -0.2238
   29C     H5'2  895   3.747   3.029   8.341 -0.1023  0.1599 -0.4872
   29C      C4'  896   3.658   3.151   8.482  0.4605  0.1168 -0.2233
   29C      H4'  897   3.574   3.091   8.514  0.8145 -0.2790 -0.0273
   29C      O4'  898   3.700   3.234   8.588 -0.3775  0.0375  0.1765
   29C      C1'  899   3.629   3.355   8.596 -0.2740  0.0990  0.1618
   29C      H1'  900   3.560   3.349   8.680 -1.3372 -1.3813 -0.7724
   29C       N1  901   3.715   3.475   8.591  0.1036 -0.1770 -0.0070
   29C       C6  902   3.841   3.470   8.538  0.1085  0.0098 -0.0159
   29C       H6  903   3.875   3.377   8.493  0.5867  0.2957 -0.2502
   29C       C5  904   3.919   3.579   8.548  0.0458  0.1113 -0.6214
   29C       H5  905   4.023   3.590   8.518 -0.1031  1.3858 -0.7319
   29C       C4  906   3.866   3.694   8.614  0.2058 -0.1651 -0.0080
   29C       N4  907   3.949   3.796   8.641 -0.2099  0.4256 -0.9348
   29C      H41  908   4.045   3.789   8.613  0.0832 -1.3607  0.3505
   29C      H42  909   3.910   3.880   8.682  1.1847 -0.6343  2.8975
   29C       N3  910   3.737   3.706   8.647  0.2085 -0.2235  0.0228
   29C       C2  911   3.659   3.596   8.628  0.1655 -0.2519  0.3430
   29C       O2  912   3.542   3.599   8.665  0.1692  0.1611  0.3307
   29C      C3'  913   3.608   3.249   8.376 -0.1030 -0.0704 -0.1321
   29C      H3'  914   3.691   3.297   8.323 -0.9939 -0.1746 -1.6970
   29C      C2'  915   3.541   3.346   8.472  0.0691 -0.0069 -0.0763
   29C     H2'1  916   3.533   3.447   8.432 -0.9536 -1.0076 -2.6261
   29C      O2'  917   3.415   3.297   8.513  0.1850 -0.3173 -0.0911
   29C     HO'2  918   3.384   3.225   8.457 -1.5858 -0.1613  0.6571
   29C      O3'  919   3.530   3.187   8.276  0.2893 -0.0689 -0.4428
   30A        P  920   3.488   3.261   8.139 -0.3915 -0.3186 -0.3742
   30A      O1P  921   3.393   3.177   8.063 -0.5043 -0.7903  0.2809
   30A      O2P  922   3.618   3.305   8.083 -0.1730 -0.3758  0.0794
   30A      O5'  923   3.412   3.399   8.169 -0.0304 -0.3024  0.4907
   30A      C5'  924   3.279   3.409   8.216 -0.2411  0.0831 -0.1673
   30A     H5'1  925   3.274   3.350   8.308  0.5377 -2.4726 -1.6490
   30A     H5'2  926   3.221   3.358   8.139 -1.4530  1.5975 -0.2889
   30A      C4'  927   3.230   3.550   8.246 -0.3221  0.0646 -0.2125
   30A      H4'  928   3.129   3.546   8.287 -0.1533  0.1989  0.2327
   30A      O4'  929   3.321   3.604   8.339  0.2614 -0.1425 -0.6569
   30A      C1'  930   3.321   3.745   8.341 -0.1706 -0.1415 -0.5944
   30A      H1'  931   3.271   3.786   8.428  1.2571  0.8736 -0.2118
   30A       N9  932   3.463   3.785   8.326 -0.1895  0.0553 -0.2654
   30A       C8  933   3.574   3.710   8.299 -0.0563  0.1474  0.0318
   30A       H8  934   3.563   3.603   8.284 -1.1887 -0.0317  1.8117
   30A       N7  935   3.689   3.764   8.330  0.1919 -0.1429 -0.3608
   30A       C5  936   3.657   3.895   8.364  0.2066 -0.2156 -0.0639
   30A       C6  937   3.724   4.012   8.402 -0.2704  0.0703 -0.0846
   30A       N6  938   3.858   4.015   8.403 -0.2716  0.0848  0.1685
   30A      H61  939   3.909   3.931   8.378 -0.0027 -0.4864  2.4234
   30A      H62  940   3.905   4.099   8.434  1.5146  0.3587 -2.8683
   30A       N1  941   3.660   4.126   8.431  0.1547  0.3937 -0.3853
   30A       C2  942   3.528   4.119   8.424  0.1894  0.1486 -0.7977
   30A       H2  943   3.475   4.210   8.448  0.5214  0.8846 -2.6630
   30A       N3  944   3.450   4.017   8.389  0.2737 -0.1122 -0.2325
   30A       C4  945   3.520   3.905   8.359  0.2177 -0.1457 -0.2369
   30A      C3'  946   3.238   3.651   8.133  0.6488 -0.2472 -0.4364
   30A      H3'  947   3.335   3.637   8.086  0.2376 -1.9855 -0.8337
   30A      C2'  948   3.240   3.779   8.216 -0.6218 -0.2732 -0.3375
   30A     H2'1  949   3.280   3.863   8.160 -0.4420 -1.7322 -2.5131
   30A      O2'  950   3.108   3.799   8.260 -0.1414  0.4975  0.8166
   30A     HO'2  951   3.067   3.868   8.207  1.0388 -0.2661 -1.1880
   30A      O3'  952   3.128   3.652   8.044  0.1778 -0.2250  0.1429
   31G        P  953   3.132   3.718   7.897  0.1618 -0.0683  0.2130
   31G      O1P  954   2.996   3.700   7.842  0.2658 -0.1682 -0.0125
   31G      O2P  955   3.247   3.656   7.828  0.0310  0.1759 -0.2304
   31G      O5'  956   3.159   3.873   7.931 -0.5714  0.1182 -0.0388
   31G      C5'  957   3.057   3.962   7.970 -0.1940  0.2677  0.6225
   31G     H5'1  958   2.998   3.922   8.054 -1.0179  1.5418  0.6780
   31G     H5'2  959   2.982   3.967   7.891 -0.9072 -2.0630  1.0540
   31G      C4'  960   3.098   4.105   8.001  0.1411  0.3757 -0.2924
   31G      H4'  961   3.008   4.162   8.023 -1.3282 -0.3962 -3.7335
   31G      O4'  962   3.189   4.098   8.109 -0.0085 -0.1060 -0.1968
   31G      C1'  963   3.279   4.206   8.100  0.1620 -0.2523 -0.2565
   31G      H1'  964   3.261   4.275   8.182 -1.4989 -0.4729 -0.4094
   31G       N9  965   3.420   4.161   8.100  0.0294 -0.6752 -0.5463
   31G       C8  966   3.479   4.039   8.084 -0.1901 -0.8264 -0.2176
   31G       H8  967   3.422   3.951   8.059 -0.3985 -0.3217 -1.5978
   31G       N7  968   3.609   4.047   8.085 -0.2746  0.6563  0.3156
   31G       C5  969   3.638   4.181   8.112 -0.0549  0.6309  0.2075
   31G       C6  970   3.765   4.242   8.134  0.1399  0.1113  0.5378
   31G       O6  971   3.876   4.191   8.129  0.0220 -0.1215  0.2354
   31G       N1  972   3.755   4.379   8.151 -0.3072  0.0469  0.8140
   31G       H1  973   3.842   4.423   8.176 -0.1667  1.0300 -1.2011
   31G       C2  974   3.631   4.440   8.154 -0.3664 -0.0617  0.6031
   31G       N2  975   3.636   4.574   8.153  0.1165 -0.0767  0.1165
   31G      H21  976   3.725   4.609   8.184 -0.1870 -0.9884  2.2536
   31G      H22  977   3.551   4.630   8.150 -0.0949 -0.1861  2.1370
   31G       N3  978   3.510   4.386   8.133 -0.3158 -0.2858  0.8905
   31G       C4  979   3.522   4.253   8.111 -0.5003 -0.0844 -0.5087
   31G      C3'  980   3.175   4.172   7.888  0.4352 -0.4649 -0.5957
   31G      H3'  981   3.241   4.102   7.836  2.2803  0.8839 -0.1844
   31G      C2'  982   3.247   4.279   7.970  0.4605 -0.5536 -0.5018
   31G     H2'1  983   3.332   4.322   7.918 -0.2176  0.5572 -0.7215
   31G      O2'  984   3.150   4.379   7.995  0.0847 -0.9617 -0.3136
   31G     HO'2  985   3.076   4.361   7.936 -2.4373  0.6902  2.1115
   31G      O3'  986   3.076   4.233   7.808  0.2747  0.3261  0.1920
   32A        P  987   3.102   4.278   7.656 -0.0449  0.2634  0.1176
   32A      O1P  988   2.972   4.338   7.619  0.1753  0.1630 -0.8479
   32A      O2P  989   3.165   4.164   7.585  0.1705  0.5324 -0.1280
   32A      O5'  990   3.210   4.396   7.671  0.2978 -0.0433  0.0694
   32A      C5'  991   3.170   4.526   7.710  0.1709  0.0303 -0.3044
   32A     H5'1  992   3.122   4.515   7.807 -0.5523 -0.6264 -0.7187
   32A     H5'2  993   3.093   4.552   7.637 -0.0806 -0.4955 -0.2337
   32A      C4'  994   3.284   4.627   7.719 -0.2448  0.5045 -0.3307
   32A      H4'  995   3.238   4.722   7.746 -0.8713  0.0898  0.1268
   32A      O4'  996   3.373   4.580   7.818  0.3817  0.8833 -0.7107
   32A      C1'  997   3.501   4.633   7.794  0.7307  0.2112 -0.3739
   32A      H1'  998   3.517   4.705   7.874 -1.4003 -0.8395  1.0883
   32A       N9  999   3.602   4.526   7.799  0.0672 -0.3816  0.6375
   32A       C8 1000   3.584   4.392   7.775  0.1646 -0.2331 -0.3408
   32A       H8 1001   3.489   4.350   7.744  0.4937 -0.8300 -0.5607
   32A       N7 1002   3.694   4.322   7.789  0.2397 -0.0041  0.2642
   32A       C5 1003   3.789   4.415   7.829  0.1776  0.1540  0.0406
   32A       C6 1004   3.927   4.401   7.850  0.2690  0.2770 -0.4556
   32A       N6 1005   3.996   4.287   7.865  0.8291  0.6479 -0.1616
   32A      H61 1006   3.941   4.203   7.871 -1.4341  2.0656  0.5638
   32A      H62 1007   4.093   4.285   7.891  0.1829 -0.4403  2.4576
   32A       N1 1008   3.996   4.514   7.868  0.0636  0.3854 -0.3421
   32A       C2 1009   3.935   4.631   7.861 -0.6210  0.0170 -0.5334
   32A       H2 1010   3.996   4.719   7.876 -1.2414  0.1306  1.8585
   32A       N3 1011   3.808   4.656   7.832 -0.5525  0.5303 -0.4093
   32A       C4 1012   3.738   4.542   7.813  0.1136  0.0905 -0.2588
   32A      C3' 1013   3.368   4.647   7.594 -0.2372 -0.2546 -0.4557
   32A      H3' 1014   3.387   4.548   7.553  1.1055 -1.2074  2.2532
   32A      C2' 1015   3.489   4.709   7.662 -0.5471  0.1808 -0.2913
   32A     H2'1 1016   3.581   4.695   7.605 -0.7310  2.3475 -1.2345
   32A      O2' 1017   3.474   4.842   7.707  0.6123  0.3708 -0.4246
   32A     HO'2 1018   3.385   4.870   7.682 -0.1059 -0.8601  0.6519
   32A      O3' 1019   3.309   4.738   7.503  0.0672  0.4334  0.0286
   33U        P 1020   3.369   4.746   7.354 -0.0697  0.2499 -0.0370
   33U      O1P 1021   3.294   4.851   7.280  0.3509  0.0378 -0.7767
   33U      O2P 1022   3.368   4.607   7.303  0.5151  0.2706 -0.1058
   33U      O5' 1023   3.524   4.789   7.366  0.0587 -0.1493 -0.2685
   33U      C5' 1024   3.548   4.923   7.400  0.2865 -0.2919  0.1387
   33U     H5'1 1025   3.490   4.951   7.488  0.4433 -0.4810  0.3044
   33U     H5'2 1026   3.518   4.990   7.320 -0.7041  1.6840  2.0628
   33U      C4' 1027   3.697   4.948   7.421  0.2837 -0.4046  0.2942
   33U      H4' 1028   3.709   5.052   7.455  0.0515 -0.6826  1.2639
   33U      O4' 1029   3.739   4.860   7.523  0.3092  0.0304  0.6648
   33U      C1' 1030   3.877   4.836   7.504  0.2895  0.2955  0.1727
   33U      H1' 1031   3.932   4.884   7.585  0.5120  1.6895 -0.7741
   33U       N1 1032   3.904   4.692   7.499 -0.0850  0.2024  0.6870
   33U       C6 1033   3.804   4.606   7.464  0.4993  0.1015 -0.8343
   33U       H6 1034   3.708   4.639   7.430 -1.2879 -2.8242  0.8747
   33U       C5 1035   3.821   4.472   7.480  0.5142  0.1876 -0.0662
   33U       H5 1036   3.734   4.409   7.471  0.6634  0.1069 -1.0188
   33U       C4 1037   3.952   4.424   7.516  0.3733 -0.0066  0.1860
   33U       O4 1038   3.979   4.305   7.533 -0.1093 -0.1384  0.0562
   33U       N3 1039   4.055   4.516   7.520  0.2923  0.0809  0.2588
   33U       H3 1040   4.152   4.487   7.519  0.4485  0.4857  1.3964
   33U       C2 1041   4.035   4.654   7.525 -0.2155 -0.0136  1.0395
   33U       O2 1042   4.131   4.729   7.539 -0.0118 -0.0634 -0.0063
   33U      C3' 1043   3.782   4.923   7.297  0.0515 -0.2167  0.0975
   33U      H3' 1044   3.746   4.830   7.253  0.5207  0.3628 -1.6055
   33U      C2' 1045   3.913   4.903   7.372  0.1680 -0.1450 -0.0861
   33U     H2'1 1046   3.980   4.834   7.321 -0.1483 -2.0770  1.9795
   33U      O2' 1047   3.973   5.026   7.408  0.3177 -0.2060 -0.1227
   33U     HO'2 1048   3.931   5.096   7.356 -1.0392 -0.9911 -0.1271
   33U      O3' 1049   3.783   5.031   7.206 -0.3790 -0.1804  0.1351
   34G        P 1050   3.837   5.014   7.055 -0.1352 -0.1725  0.2213
   34G      O1P 1051   3.816   5.143   6.986 -0.0229 -0.0182  0.4736
   34G      O2P 1052   3.777   4.888   7.006  0.0053 -0.1926  0.1014
   34G      O5' 1053   3.993   4.981   7.075 -0.1022  0.1827  0.5490
   34G      C5' 1054   4.091   5.078   7.106  0.0857  0.0635  0.3288
   34G     H5'1 1055   4.061   5.137   7.193  0.5910 -0.5713  0.9557
   34G     H5'2 1056   4.104   5.148   7.024  0.8725  0.5156  0.8232
   34G      C4' 1057   4.229   5.016   7.126 -0.3225 -1.0847 -0.3026
   34G      H4' 1058   4.297   5.098   7.149 -1.8011 -0.3098  1.5569
   34G      O4' 1059   4.224   4.934   7.241 -0.4049 -0.3361  0.2390
   34G      C1' 1060   4.312   4.828   7.211  0.0832  0.1757 -0.1592
   34G      H1' 1061   4.391   4.838   7.285  0.4196 -1.2373 -0.3058
   34G       N9 1062   4.256   4.692   7.227  0.0460  0.2330  0.2070
   34G       C8 1063   4.126   4.655   7.207  0.3000 -0.1529 -0.8003
   34G       H8 1064   4.050   4.725   7.176  1.1659  0.7598 -0.8904
   34G       N7 1065   4.111   4.526   7.224 -0.1020  0.0204  0.2785
   34G       C5 1066   4.236   4.481   7.265 -0.0967  0.4458  0.7313
   34G       C6 1067   4.280   4.350   7.296 -0.5220  0.2600  0.5509
   34G       O6 1068   4.214   4.247   7.304  0.0465 -0.1160  0.4391
   34G       N1 1069   4.419   4.337   7.302 -0.5221 -0.1643 -0.1639
   34G       H1 1070   4.452   4.245   7.328 -1.0550 -0.5781 -0.9121
   34G       C2 1071   4.500   4.449   7.306 -0.7121 -0.0178 -0.3480
   34G       N2 1072   4.631   4.425   7.320 -0.5753  0.6364 -0.5203
   34G      H21 1073   4.665   4.330   7.318  1.3163  1.2634 -0.5261
   34G      H22 1074   4.685   4.510   7.329 -1.0002  0.8530  0.0055
   34G       N3 1075   4.462   4.576   7.290  0.0230  0.4229  1.1748
   34G       C4 1076   4.329   4.583   7.266  0.2813  0.1361 -0.4787
   34G      C3' 1077   4.275   4.937   7.004 -0.1611 -0.5107 -0.6192
   34G      H3' 1078   4.200   4.870   6.961  0.1263 -1.8866  0.9078
   34G      C2' 1079   4.373   4.841   7.071  0.0348 -0.0187 -0.1988
   34G     H2'1 1080   4.387   4.747   7.018  1.1670  0.1440 -0.2134
   34G      O2' 1081   4.497   4.902   7.097  0.3233 -0.6184 -0.1427
   34G     HO'2 1082   4.568   4.864   7.045 -0.0162  0.0767 -1.1586
   34G      O3' 1083   4.335   5.011   6.900  0.1248 -0.1853 -0.2229
   35C        P 1084   4.360   4.943   6.756  0.1101 -0.3101 -0.1660
   35C      O1P 1085   4.392   5.061   6.672 -0.1029  0.1805  0.4279
   35C      O2P 1086   4.233   4.871   6.734 -0.4336  0.5125  0.2024
   35C      O5' 1087   4.482   4.839   6.765  0.2540 -0.1358 -0.0925
   35C      C5' 1088   4.613   4.885   6.787  0.0817  0.3082  0.0276
   35C     H5'1 1089   4.614   4.954   6.871 -1.3473  1.9635 -1.2424
   35C     H5'2 1090   4.654   4.935   6.699  0.7909 -1.1800 -0.5262
   35C      C4' 1091   4.700   4.766   6.828 -0.3545  0.1975  0.6347
   35C      H4' 1092   4.796   4.810   6.855 -0.1246 -0.2846  0.6086
   35C      O4' 1093   4.640   4.707   6.942 -0.0982  0.2882  0.8174
   35C      C1' 1094   4.677   4.571   6.934  0.0909  0.3701  0.1735
   35C      H1' 1095   4.726   4.552   7.029  0.0409 -0.1721  0.0910
   35C       N1 1096   4.563   4.477   6.934  0.5717 -0.2233 -0.9929
   35C       C6 1097   4.437   4.521   6.906  0.3765 -0.3035 -0.2641
   35C       H6 1098   4.416   4.615   6.858  1.4477 -0.5514 -1.2771
   35C       C5 1099   4.335   4.434   6.921  0.2420 -0.1100 -0.0630
   35C       H5 1100   4.235   4.468   6.899 -0.0738  0.6875  2.2933
   35C       C4 1101   4.357   4.303   6.975  0.0954 -0.1741 -0.1610
   35C       N4 1102   4.260   4.226   7.026  0.2035 -0.5018 -0.4383
   35C      H41 1103   4.164   4.249   7.004  0.5770 -0.4811 -2.1458
   35C      H42 1104   4.276   4.135   7.065  3.7013  0.3048  0.2923
   35C       N3 1105   4.481   4.261   7.004  0.0882 -0.0719  0.0097
   35C       C2 1106   4.582   4.350   6.986 -0.0974  0.2015  0.3090
   35C       O2 1107   4.694   4.307   7.010 -0.1550  0.2020  0.5799
   35C      C3' 1108   4.724   4.659   6.722  0.0024  0.6194  0.2845
   35C      H3' 1109   4.630   4.638   6.671  1.3217 -1.3937 -1.4337
   35C      C2' 1110   4.762   4.542   6.811 -0.0562  0.4281  0.0570
   35C     H2'1 1111   4.729   4.445   6.775  0.0700 -0.0251  1.1149
   35C      O2' 1112   4.897   4.540   6.854 -0.1130 -0.2144  0.2156
   35C     HO'2 1113   4.942   4.579   6.779 -0.0382 -1.9126 -0.6897
   35C      O3' 1114   4.819   4.704   6.628  0.2011 -0.3457  0.0126
   36C        P 1115   4.818   4.635   6.483 -0.2624  0.1169 -0.2078
   36C      O1P 1116   4.929   4.701   6.411 -0.2586 -0.0803 -0.3840
   36C      O2P 1117   4.682   4.644   6.426 -0.2937  0.0621 -0.1397
   36C      O5' 1118   4.851   4.478   6.487 -0.1697  0.1409 -0.0165
   36C      C5' 1119   4.979   4.431   6.523 -0.1410  0.2317 -0.0002
   36C     H5'1 1120   5.009   4.489   6.611  1.1258 -1.9106  1.0672
   36C     H5'2 1121   5.052   4.455   6.446  1.4377 -1.1659  0.9976
   36C      C4' 1122   4.994   4.282   6.553 -0.2011  0.1526 -0.3617
   36C      H4' 1123   5.099   4.257   6.572 -0.5915  0.4626  2.7382
   36C      O4' 1124   4.913   4.249   6.663 -0.1717 -0.0398 -0.3986
   36C      C1' 1125   4.852   4.123   6.647  0.1371 -0.1941 -0.3611
   36C      H1' 1126   4.894   4.059   6.725 -0.8479 -1.0721 -0.5408
   36C       N1 1127   4.705   4.120   6.657  0.1577  0.0889  0.0199
   36C       C6 1128   4.631   4.234   6.643 -0.0525 -0.0059  0.3400
   36C       H6 1129   4.676   4.326   6.607 -2.1020  1.3409  1.0504
   36C       C5 1130   4.501   4.235   6.678  0.0847  0.1867  0.8534
   36C       H5 1131   4.430   4.315   6.664 -1.5202 -0.8634  2.5133
   36C       C4 1132   4.443   4.109   6.717 -0.0741 -0.0974 -0.2644
   36C       N4 1133   4.314   4.093   6.746  0.1099 -0.8428  0.1452
   36C      H41 1134   4.247   4.166   6.727 -0.6790 -2.1360 -2.5399
   36C      H42 1135   4.282   3.999   6.765  1.4483 -1.6122 -1.1879
   36C       N3 1136   4.517   3.998   6.728 -0.3849 -0.3097 -0.3236
   36C       C2 1137   4.649   4.001   6.698 -0.3601  0.2614 -0.1774
   36C       O2 1138   4.713   3.897   6.715  0.3646  0.7464  0.1035
   36C      C3' 1139   4.942   4.194   6.440 -0.3723 -0.0137 -0.1533
   36C      H3' 1140   4.851   4.232   6.393 -2.2687 -2.6562  1.0910
   36C      C2' 1141   4.897   4.067   6.512  0.2888 -0.3121 -0.2638
   36C     H2'1 1142   4.817   4.021   6.454  0.1878 -0.4545 -0.0136
   36C      O2' 1143   5.010   3.983   6.526  0.1191 -0.4474  0.3218
   36C     HO'2 1144   5.065   3.996   6.449 -2.3999  0.8364 -1.4381
   36C      O3' 1145   5.036   4.181   6.336 -0.2724  0.9962 -0.1988
   37C        P 1146   4.992   4.132   6.189 -0.2681  0.0654  0.1075
   37C      O1P 1147   5.118   4.112   6.114 -0.1805  0.2507  0.2043
   37C      O2P 1148   4.890   4.223   6.134 -0.5843 -0.0246  0.5447
   37C      O5' 1149   4.928   3.987   6.217  0.2690 -0.2293 -0.1585
   37C      C5' 1150   5.009   3.872   6.218  0.2198 -0.2628  0.1289
   37C     H5'1 1151   5.082   3.884   6.298 -0.8385  0.6630  0.9923
   37C     H5'2 1152   5.056   3.852   6.122 -1.2139  4.1901 -1.7595
   37C      C4' 1153   4.939   3.744   6.264  0.1124 -0.2324  0.0541
   37C      H4' 1154   5.014   3.668   6.286  0.6710 -0.1806 -1.5311
   37C      O4' 1155   4.867   3.758   6.384 -0.0972 -0.3144 -0.0633
   37C      C1' 1156   4.753   3.675   6.383 -0.4053  0.0943  0.2398
   37C      H1' 1157   4.754   3.613   6.473 -0.2010  0.4428  0.4817
   37C       N1 1158   4.627   3.752   6.380 -0.2638  0.3185  0.0187
   37C       C6 1159   4.617   3.879   6.332 -0.3186  0.1875 -0.3189
   37C       H6 1160   4.702   3.932   6.292 -0.4625  2.4489  2.1025
   37C       C5 1161   4.499   3.945   6.335 -0.4375 -0.0283 -0.2633
   37C       H5 1162   4.490   4.043   6.291 -0.0142  0.6003  1.0013
   37C       C4 1163   4.393   3.878   6.405 -0.5233 -0.2426 -0.5966
   37C       N4 1164   4.271   3.932   6.421 -0.2815  0.1623 -0.0637
   37C      H41 1165   4.251   4.023   6.383 -1.4360  0.2638  0.7293
   37C      H42 1166   4.201   3.864   6.448 -2.5410  2.6497  0.7245
   37C       N3 1167   4.396   3.750   6.442  0.2182  0.1591  0.8041
   37C       C2 1168   4.513   3.684   6.419 -0.1305 -0.0938 -0.3008
   37C       O2 1169   4.510   3.564   6.445  0.0214 -0.1129 -0.3678
   37C      C3' 1170   4.846   3.680   6.162 -0.2759  0.2019  0.1367
   37C      H3' 1171   4.796   3.763   6.110  1.8133 -0.0398 -2.4506
   37C      C2' 1172   4.757   3.595   6.253 -0.1497  0.1496  0.2127
   37C     H2'1 1173   4.658   3.578   6.210 -1.2140  0.2981  2.4783
   37C      O2' 1174   4.822   3.472   6.272 -0.3859  0.0394  0.3019
   37C     HO'2 1175   4.885   3.473   6.200 -0.8135  3.6340 -0.1764
   37C      O3' 1176   4.917   3.602   6.069 -0.1296  0.2741  0.1882
   38U        P 1177   4.851   3.568   5.927  0.0155 -0.0741  0.2033
   38U      O1P 1178   4.940   3.471   5.859  0.6581  0.6108  0.0599
   38U      O2P 1179   4.815   3.697   5.864  0.5220 -0.0595 -0.0641
   38U      O5' 1180   4.714   3.488   5.955 -0.0483  0.0319  0.1912
   38U      C5' 1181   4.716   3.349   5.979  0.0923 -0.0206 -0.1239
   38U     H5'1 1182   4.789   3.337   6.059  1.4124  1.1055 -1.1161
   38U     H5'2 1183   4.761   3.300   5.893  4.1537  0.7643  1.3369
   38U      C4' 1184   4.585   3.286   6.027 -0.1848  0.4307 -0.2748
   38U      H4' 1185   4.611   3.188   6.068 -0.8876  0.6716  0.7847
   38U      O4' 1186   4.521   3.359   6.130 -0.0579 -0.1779  0.2433
   38U      C1' 1187   4.381   3.353   6.119 -0.0613 -0.2058  0.3024
   38U      H1' 1188   4.348   3.295   6.205  2.0979 -0.5783  0.9310
   38U       N1 1189   4.320   3.487   6.111 -0.0087 -0.1841  0.2620
   38U       C6 1190   4.391   3.602   6.094  0.4530 -0.4691  0.2618
   38U       H6 1191   4.494   3.600   6.061  0.8624 -1.1493  1.4986
   38U       C5 1192   4.333   3.724   6.098 -0.0143 -0.6664 -0.4367
   38U       H5 1193   4.385   3.818   6.086 -1.5662  0.5027  1.3811
   38U       C4 1194   4.194   3.739   6.134  0.1515  0.1273 -0.0982
   38U       O4 1195   4.129   3.840   6.156  0.1239  0.1646 -0.3453
   38U       N3 1196   4.127   3.618   6.150  0.0889  0.1519 -0.1742
   38U       H3 1197   4.030   3.621   6.177 -0.2192  1.9014 -1.2952
   38U       C2 1198   4.185   3.493   6.139 -0.0848  0.0692 -0.1447
   38U       O2 1199   4.111   3.398   6.166  0.2763 -0.1777 -0.0183
   38U      C3' 1200   4.486   3.276   5.912 -0.3724 -0.2016 -0.0647
   38U      H3' 1201   4.493   3.372   5.861  0.3216  0.2599  0.8649
   38U      C2' 1202   4.356   3.273   5.992 -0.4569  0.6336 -0.1571
   38U     H2'1 1203   4.275   3.310   5.928 -1.2321 -2.0509 -0.8876
   38U      O2' 1204   4.326   3.139   6.023  0.2752  0.4139 -0.3929
   38U     HO'2 1205   4.260   3.110   5.960 -0.4308 -1.3982  1.0684
   38U      O3' 1206   4.491   3.170   5.820 -0.3894 -0.2552 -0.0035
   39U        P 1207   4.433   3.188   5.672 -0.0772 -0.6025 -0.1722
   39U      O1P 1208   4.456   3.062   5.599 -0.0626 -0.5815 -0.2048
   39U      O2P 1209   4.474   3.318   5.613 -0.5335 -0.1359  0.5271
   39U      O5' 1210   4.274   3.192   5.701 -0.1473 -0.3762 -0.5656
   39U      C5' 1211   4.199   3.074   5.709 -0.1196 -0.3811 -0.3434
   39U     H5'1 1212   4.250   3.003   5.775 -0.4818 -0.5518 -0.2426
   39U     H5'2 1213   4.201   3.031   5.608 -1.8539 -2.3976  0.4139
   39U      C4' 1214   4.053   3.098   5.746  0.2292  0.6433  0.3840
   39U      H4' 1215   4.012   2.997   5.749 -0.8468  1.0477 -0.2463
   39U      O4' 1216   4.039   3.165   5.870  0.2916  0.2196  0.6211
   39U      C1' 1217   3.919   3.239   5.867  0.1585 -0.0124 -0.5617
   39U      H1' 1218   3.853   3.211   5.950  0.8492  1.0729  0.3831
   39U       N1 1219   3.945   3.384   5.871 -0.3303  0.0675 -0.1103
   39U       C6 1220   4.062   3.434   5.824 -0.2420  0.0579  0.0982
   39U       H6 1221   4.142   3.368   5.794 -0.5392  0.2648 -1.2238
   39U       C5 1222   4.085   3.567   5.828  0.1562  0.0048 -0.3065
   39U       H5 1223   4.186   3.601   5.809  0.1247 -0.3507 -1.1699
   39U       C4 1224   3.988   3.662   5.877  0.2778 -0.1691  0.2736
   39U       O4 1225   4.003   3.784   5.885  0.0096 -0.0979 -0.2583
   39U       N3 1226   3.871   3.601   5.921 -0.1257  0.2014 -0.2725
   39U       H3 1227   3.804   3.661   5.966  2.1513  2.7887 -0.0296
   39U       C2 1228   3.842   3.465   5.915 -0.0353  0.1430  0.4550
   39U       O2 1229   3.733   3.422   5.950 -0.5015  0.5164 -0.4885
   39U      C3' 1230   3.964   3.170   5.645  0.2853  0.0707 -0.0731
   39U      H3' 1231   4.026   3.247   5.599 -1.4274 -0.0702 -2.8593
   39U      C2' 1232   3.848   3.204   5.737 -0.0666 -0.4129 -0.3342
   39U     H2'1 1233   3.789   3.289   5.703  0.9189  0.8353  0.9889
   39U      O2' 1234   3.766   3.092   5.765 -0.0854 -0.3714 -0.2243
   39U     HO'2 1235   3.687   3.119   5.813 -1.2222  1.0189 -2.6694
   39U      O3' 1236   3.919   3.090   5.537 -0.4230 -0.0682  0.3226
   40C        P 1237   3.880   3.151   5.393  0.1993 -0.5384 -0.0511
   40C      O1P 1238   3.873   3.034   5.303  0.5558 -0.4687 -0.1677
   40C      O2P 1239   3.974   3.262   5.367 -0.0195 -0.3119  0.1177
   40C      O5' 1240   3.732   3.212   5.412  0.4853  0.1511 -0.0345
   40C      C5' 1241   3.627   3.125   5.449  0.0758  0.5822 -0.1673
   40C     H5'1 1242   3.646   3.067   5.539 -2.3332 -1.0496 -0.6515
   40C     H5'2 1243   3.592   3.050   5.379  1.9443 -1.0178  0.5184
   40C      C4' 1244   3.515   3.214   5.501  0.1847  0.4638  0.2749
   40C      H4' 1245   3.430   3.154   5.535 -0.6568  0.6827 -1.3118
   40C      O4' 1246   3.545   3.289   5.617  0.1318  0.2419  0.4320
   40C      C1' 1247   3.486   3.416   5.610 -0.0872  0.1184 -0.0502
   40C      H1' 1248   3.416   3.415   5.694 -0.7742 -0.4045 -0.6178
   40C       N1 1249   3.573   3.535   5.620 -0.0379  0.0903 -0.1610
   40C       C6 1250   3.700   3.534   5.569 -0.0976 -0.3268 -0.3104
   40C       H6 1251   3.744   3.446   5.525  1.2162 -0.0224  0.3393
   40C       C5 1252   3.775   3.645   5.586 -0.5640 -0.0386 -0.1169
   40C       H5 1253   3.879   3.642   5.556  0.0274 -0.7653  1.8746
   40C       C4 1254   3.722   3.763   5.648 -0.3947  0.1109 -0.2555
   40C       N4 1255   3.789   3.878   5.668 -0.4938  0.1156  0.0469
   40C      H41 1256   3.886   3.880   5.644 -1.2213  0.4999 -3.2902
   40C      H42 1257   3.747   3.952   5.723  1.8658  1.1641  0.5474
   40C       N3 1258   3.593   3.766   5.684 -0.2618  0.1969  0.2158
   40C       C2 1259   3.519   3.654   5.664 -0.0850  0.2051 -0.5234
   40C       O2 1260   3.402   3.666   5.700  0.2881 -0.1026  0.8678
   40C      C3' 1261   3.461   3.315   5.399  0.0342 -0.0810 -0.1901
   40C      H3' 1262   3.536   3.376   5.350 -1.1119  0.9117 -0.7634
   40C      C2' 1263   3.390   3.413   5.492 -0.0056 -0.1869 -0.1079
   40C     H2'1 1264   3.391   3.513   5.447  0.9624  0.2179  0.7832
   40C      O2' 1265   3.261   3.377   5.536 -0.2056  0.5305 -0.0854
   40C     HO'2 1266   3.207   3.376   5.456 -0.8418 -2.5673  0.2430
   40C      O3' 1267   3.372   3.254   5.308  0.0870 -0.1370 -0.2042
   41C        P 1268   3.342   3.325   5.166  0.0736  0.3972  0.0640
   41C      O1P 1269   3.252   3.236   5.090  0.0553  0.5614 -0.1071
   41C      O2P 1270   3.474   3.350   5.104  0.1058  0.0926  0.0080
   41C      O5' 1271   3.262   3.464   5.186 -0.2923  0.1819  0.1002
   41C      C5' 1272   3.125   3.476   5.215 -0.3181  0.0940  0.0147
   41C     H5'1 1273   3.103   3.402   5.291 -1.7798 -1.6376 -1.9508
   41C     H5'2 1274   3.071   3.443   5.126  2.8380 -3.0787 -0.9738
   41C      C4' 1275   3.081   3.616   5.258 -0.1076  0.1842 -0.0637
   41C      H4' 1276   2.977   3.616   5.289 -0.4980  2.6339 -1.1607
   41C      O4' 1277   3.162   3.656   5.367  0.2390 -0.1386 -0.1982
   41C      C1' 1278   3.178   3.796   5.362 -0.0364 -0.0903  0.1945
   41C      H1' 1279   3.137   3.845   5.450  2.8132  0.5433  1.2937
   41C       N1 1280   3.316   3.848   5.351 -0.1001 -0.1379 -0.9869
   41C       C6 1281   3.417   3.758   5.332  0.2010 -0.0318  0.0757
   41C       H6 1282   3.392   3.653   5.323  1.7039 -0.5442  1.3184
   41C       C5 1283   3.543   3.792   5.367  0.1677 -0.3569  0.5155
   41C       H5 1284   3.617   3.713   5.361  1.6712  0.9783  0.9432
   41C       C4 1285   3.567   3.928   5.404 -0.1966 -0.2021  0.1751
   41C       N4 1286   3.693   3.972   5.395  0.0302 -0.9633 -0.5313
   41C      H41 1287   3.770   3.910   5.374  0.3079 -0.0191 -2.5975
   41C      H42 1288   3.704   4.073   5.395 -0.2109 -0.9342  0.0890
   41C       N3 1289   3.471   4.022   5.409 -0.0124 -0.0114  0.1511
   41C       C2 1290   3.344   3.977   5.393  0.1793 -0.5788  0.2101
   41C       O2 1291   3.257   4.062   5.407  0.2551 -0.4499 -0.1024
   41C      C3' 1292   3.100   3.720   5.148 -0.3457  0.4628  0.1570
   41C      H3' 1293   3.198   3.705   5.101 -0.0636  1.3369  0.4516
   41C      C2' 1294   3.099   3.842   5.240  0.4407  0.5135  0.1070
   41C     H2'1 1295   3.151   3.926   5.194  0.0543  1.8787  2.0717
   41C      O2' 1296   2.969   3.872   5.286  0.3289  0.5120 -0.2005
   41C     HO'2 1297   2.910   3.845   5.216 -0.3109  0.3738  0.3852
   41C      O3' 1298   2.998   3.718   5.051 -0.1455 -0.1471 -0.0515
   42G        P 1299   3.019   3.797   4.912 -0.1029 -0.2715 -0.1162
   42G      O1P 1300   2.902   3.759   4.830 -0.2696 -0.4461  0.1988
   42G      O2P 1301   3.152   3.762   4.860  0.1816 -1.2179  1.1972
   42G      O5' 1302   3.020   3.958   4.924  0.0312 -0.2968  0.2360
   42G      C5' 1303   2.909   4.035   4.962  0.2163 -0.1231  0.4287
   42G     H5'1 1304   2.857   3.989   5.046 -0.3537 -0.0178  0.1396
   42G     H5'2 1305   2.833   4.040   4.883 -1.1154 -0.4373  1.6367
   42G      C4' 1306   2.959   4.173   5.002 -0.0594  0.1741 -0.2304
   42G      H4' 1307   2.867   4.229   5.022 -1.0221 -1.8850  1.4107
   42G      O4' 1308   3.039   4.186   5.118  0.2151  0.3490 -0.4367
   42G      C1' 1309   3.140   4.283   5.102 -0.0166  0.6791  0.0863
   42G      H1' 1310   3.136   4.354   5.184 -1.2635 -0.7378  1.3125
   42G       N9 1311   3.276   4.227   5.098 -0.1965  0.2485  0.0235
   42G       C8 1312   3.327   4.102   5.072  0.2456  0.3847  0.2283
   42G       H8 1313   3.253   4.026   5.050  0.5355  0.7569 -2.4047
   42G       N7 1314   3.455   4.094   5.090  0.1771 -0.0644  0.5253
   42G       C5 1315   3.498   4.225   5.110  0.3040 -0.0778  0.3457
   42G       C6 1316   3.625   4.279   5.141  0.0474  0.5005  0.4029
   42G       O6 1317   3.733   4.221   5.153  0.0455  0.3743 -0.1708
   42G       N1 1318   3.621   4.417   5.153 -0.1611  0.4858  0.4943
   42G       H1 1319   3.708   4.464   5.173  0.6404 -0.3276 -0.9877
   42G       C2 1320   3.506   4.495   5.154 -0.2958  0.3118 -0.6872
   42G       N2 1321   3.511   4.619   5.203  0.1200  0.0514 -0.0579
   42G      H21 1322   3.604   4.658   5.208  1.3493 -2.7666  1.4594
   42G      H22 1323   3.425   4.670   5.215  2.1944  3.7044  1.0604
   42G       N3 1324   3.386   4.439   5.136 -0.1458 -0.1670 -0.2297
   42G       C4 1325   3.387   4.305   5.114  0.1201 -0.3495  0.8335
   42G      C3' 1326   3.032   4.256   4.896  0.4056 -0.1392 -0.1570
   42G      H3' 1327   3.111   4.195   4.852  0.9955  0.3412  0.2374
   42G      C2' 1328   3.103   4.363   4.977 -0.1222  0.2273 -0.1753
   42G     H2'1 1329   3.189   4.401   4.922  2.0125 -2.2369  1.2723
   42G      O2' 1330   3.007   4.462   5.010 -0.0070  0.0245  0.8079
   42G     HO'2 1331   2.927   4.448   4.960  0.3119  1.0685 -0.0383
   42G      O3' 1332   2.945   4.303   4.795 -0.0729 -0.4007  0.1268
   43U        P 1333   3.001   4.341   4.649  0.2814  0.3387  0.4466
   43U      O1P 1334   2.882   4.383   4.571  0.4918  0.4597  0.1876
   43U      O2P 1335   3.073   4.225   4.592 -0.2651  0.2204 -0.0118
   43U      O5' 1336   3.096   4.469   4.671  0.4169  0.2568  0.3412
   43U      C5' 1337   3.052   4.598   4.708 -0.0050  0.2692 -0.1938
   43U     H5'1 1338   2.985   4.587   4.792 -0.1537  1.2926 -0.1680
   43U     H5'2 1339   2.987   4.645   4.634 -1.3613 -1.3210 -0.0856
   43U      C4' 1340   3.166   4.694   4.739  0.0299  0.0275  0.4333
   43U      H4' 1341   3.125   4.794   4.753 -0.5487  0.0427 -1.1989
   43U      O4' 1342   3.249   4.643   4.841  0.1672 -0.6895 -0.0318
   43U      C1' 1343   3.381   4.690   4.823  0.0375 -0.1961  0.2972
   43U      H1' 1344   3.410   4.756   4.904  0.9626  0.5998 -0.6566
   43U       N1 1345   3.476   4.578   4.808 -0.2478 -0.2692 -1.0823
   43U       C6 1346   3.436   4.455   4.764 -0.8621 -0.5958  0.3346
   43U       H6 1347   3.334   4.449   4.729 -0.5584  0.2077 -0.7590
   43U       C5 1348   3.518   4.347   4.769 -0.1786 -0.0917  0.2493
   43U       H5 1349   3.496   4.248   4.731  2.3300  0.1341 -2.0517
   43U       C4 1350   3.655   4.373   4.803 -0.1805  0.1205  0.1031
   43U       O4 1351   3.743   4.287   4.817 -0.6472 -0.3295  0.3039
   43U       N3 1352   3.693   4.503   4.831 -0.3839  0.2929 -0.4191
   43U       H3 1353   3.792   4.515   4.850 -0.5444  0.6066  0.2825
   43U       C2 1354   3.605   4.610   4.844 -0.6296  0.0407  0.0552
   43U       O2 1355   3.642   4.722   4.880  0.2355 -0.1572 -0.1957
   43U      C3' 1356   3.261   4.709   4.620 -0.3099  0.0131  0.1585
   43U      H3' 1357   3.293   4.612   4.583  1.3809  0.5196  0.1951
   43U      C2' 1358   3.385   4.764   4.689 -0.3017 -0.1757  0.2952
   43U     H2'1 1359   3.481   4.755   4.638 -1.0030 -0.4584 -1.0026
   43U      O2' 1360   3.351   4.896   4.724  0.6416  0.1394  0.0563
   43U     HO'2 1361   3.294   4.936   4.657  0.1469 -1.6742 -0.6662
   43U      O3' 1362   3.212   4.796   4.520  0.0778 -0.0106 -0.0533
   44A        P 1363   3.255   4.794   4.365 -0.3041 -0.2987 -0.1552
   44A      O1P 1364   3.171   4.904   4.313  0.0413  0.0110 -0.0585
   44A      O2P 1365   3.248   4.653   4.318 -0.0667 -0.2769 -0.2560
   44A      O5' 1366   3.410   4.835   4.354 -0.2986 -0.3027 -0.0972
   44A      C5' 1367   3.449   4.964   4.396 -0.4738 -0.5042  0.6904
   44A     H5'1 1368   3.389   4.993   4.483 -2.4592 -0.5896 -0.5683
   44A     H5'2 1369   3.423   5.031   4.314 -1.1505 -1.6592 -0.0775
   44A      C4' 1370   3.597   4.993   4.417 -0.4714  0.0736 -0.0748
   44A      H4' 1371   3.617   5.098   4.439 -3.6997  0.4351  1.6742
   44A      O4' 1372   3.635   4.920   4.531  0.1115 -0.1977 -0.4357
   44A      C1' 1373   3.773   4.894   4.522  0.2164  0.2317 -0.1345
   44A      H1' 1374   3.825   4.941   4.606 -0.1283 -1.2608  0.9582
   44A       N9 1375   3.785   4.747   4.536 -0.2809  0.1334 -0.6860
   44A       C8 1376   3.695   4.649   4.504 -0.2941 -0.1616  0.2091
   44A       H8 1377   3.593   4.675   4.480 -0.3990 -0.0292  0.7816
   44A       N7 1378   3.741   4.528   4.517  0.0576 -0.0373  0.1281
   44A       C5 1379   3.875   4.547   4.548  0.0469  0.5432 -0.1650
   44A       C6 1380   3.986   4.464   4.572 -0.1461  0.1815 -0.5115
   44A       N6 1381   3.983   4.331   4.589  0.0246  0.2380 -0.0027
   44A      H61 1382   3.892   4.289   4.571  0.4391  0.0917 -2.0416
   44A      H62 1383   4.065   4.280   4.620 -1.3783 -0.9123  2.0943
   44A       N1 1384   4.107   4.517   4.593 -0.1608 -0.1667  0.5116
   44A       C2 1385   4.121   4.649   4.595 -0.0289 -0.1550 -0.6121
   44A       H2 1386   4.220   4.684   4.617 -0.5765  0.8505  0.3872
   44A       N3 1387   4.022   4.737   4.587  0.2256  0.1187 -0.7236
   44A       C4 1388   3.903   4.681   4.559  0.0183  0.6065 -0.8327
   44A      C3' 1389   3.692   4.953   4.304 -0.3265  0.4612 -0.0909
   44A      H3' 1390   3.670   4.852   4.270 -1.5905  0.9942 -0.9535
   44A      C2' 1391   3.820   4.947   4.387 -0.2819  0.6418 -0.1460
   44A     H2'1 1392   3.898   4.884   4.346 -2.5984 -2.7753  0.3236
   44A      O2' 1393   3.874   5.075   4.410 -0.1570  0.5905 -0.1520
   44A     HO'2 1394   3.833   5.137   4.349  0.0975  1.7006  0.7684
   44A      O3' 1395   3.701   5.042   4.195 -0.6193  0.0302 -0.4726
   45G        P 1396   3.748   4.987   4.051  0.0063 -0.0085 -0.2580
   45G      O1P 1397   3.698   5.082   3.949 -0.4716  0.3761  0.3236
   45G      O2P 1398   3.702   4.848   4.033 -0.6383  0.1215  0.3384
   45G      O5' 1399   3.908   4.974   4.063  0.0688  0.2186 -0.8095
   45G      C5' 1400   3.991   5.084   4.094  0.0149  0.0820 -0.1524
   45G     H5'1 1401   3.947   5.146   4.171  0.7819  1.4884 -0.8067
   45G     H5'2 1402   3.994   5.144   4.003 -1.6490  0.1819 -0.1726
   45G      C4' 1403   4.136   5.041   4.117 -0.0194 -0.0701 -0.2138
   45G      H4' 1404   4.190   5.136   4.119  0.6023 -0.4366  0.6512
   45G      O4' 1405   4.153   4.977   4.241  0.3229  0.0369 -0.2040
   45G      C1' 1406   4.250   4.875   4.232  0.2285 -0.0107 -0.7034
   45G      H1' 1407   4.322   4.890   4.312  1.8195  0.1359 -2.1238
   45G       N9 1408   4.180   4.745   4.240  0.3272 -0.0326 -0.1405
   45G       C8 1409   4.055   4.705   4.200  0.3658 -0.1596 -0.1339
   45G       H8 1410   3.985   4.781   4.169  1.9485  0.2724 -3.0531
   45G       N7 1411   4.022   4.582   4.226 -0.1320 -0.1885 -0.8596
   45G       C5 1412   4.144   4.527   4.266 -0.2581 -0.1655 -0.4356
   45G       C6 1413   4.184   4.392   4.287  0.0199 -0.0049  0.0646
   45G       O6 1414   4.113   4.293   4.284  0.2089 -0.1304 -0.2941
   45G       N1 1415   4.318   4.378   4.323  0.1216  0.1646 -0.2391
   45G       H1 1416   4.352   4.286   4.351 -0.9535 -0.7172 -1.6930
   45G       C2 1417   4.408   4.482   4.324  0.0689  0.2107  1.1279
   45G       N2 1418   4.537   4.448   4.328  0.0279 -0.1779 -0.3270
   45G      H21 1419   4.562   4.350   4.329  0.4307 -0.1516 -2.7320
   45G      H22 1420   4.609   4.519   4.319  1.9741 -1.9877  0.0939
   45G       N3 1421   4.370   4.607   4.296 -0.2213 -0.2169 -0.4625
   45G       C4 1422   4.237   4.626   4.279 -0.3274 -0.1949  0.3409
   45G      C3' 1423   4.203   4.950   4.015  0.4582  0.2654 -0.2067
   45G      H3' 1424   4.145   4.862   3.985 -2.6693  2.7244 -2.0558
   45G      C2' 1425   4.320   4.902   4.100  0.6126  0.1918 -0.4587
   45G     H2'1 1426   4.349   4.813   4.044  0.1706 -0.6540  0.6324
   45G      O2' 1427   4.425   4.996   4.114  0.2147  0.6080 -0.2594
   45G     HO'2 1428   4.480   4.947   4.175 -1.2844 -2.8065 -1.3714
   45G      O3' 1429   4.257   5.022   3.907  0.5806  0.4419 -0.0273
   46A        P 1430   4.270   4.947   3.765  0.2711 -0.2297  0.2948
   46A      O1P 1431   4.313   5.052   3.670 -0.3294 -0.0470  0.2222
   46A      O2P 1432   4.144   4.877   3.734  0.1146  0.0980  0.1888
   46A      O5' 1433   4.376   4.826   3.780  0.5070 -0.0829 -0.1420
   46A      C5' 1434   4.511   4.864   3.794  0.4308 -0.1817  0.9454
   46A     H5'1 1435   4.513   4.953   3.857 -0.3212  1.0636 -0.7068
   46A     H5'2 1436   4.550   4.902   3.700 -0.9116  1.2465  0.9178
   46A      C4' 1437   4.605   4.752   3.837  0.4382 -0.2845  0.6625
   46A      H4' 1438   4.704   4.793   3.857  1.0022 -0.9442 -0.6471
   46A      O4' 1439   4.552   4.691   3.953  0.0989 -0.2934  0.5058
   46A      C1' 1440   4.572   4.551   3.950  0.3076 -0.2601  0.3146
   46A      H1' 1441   4.619   4.517   4.041  2.7994  0.0830 -0.7636
   46A       N9 1442   4.440   4.485   3.954  0.0256  0.2954  0.3269
   46A       C8 1443   4.314   4.527   3.920  0.2877  0.7281 -0.1334
   46A       H8 1444   4.298   4.625   3.880  2.0062  0.4763 -1.5539
   46A       N7 1445   4.226   4.431   3.930  0.5737  0.4555 -0.2212
   46A       C5 1446   4.295   4.319   3.976 -0.0662  0.1009 -0.1154
   46A       C6 1447   4.271   4.185   4.010  0.4273 -0.0690 -0.4168
   46A       N6 1448   4.153   4.121   4.015  0.1697  0.4440  0.1249
   46A      H61 1449   4.071   4.180   4.007  0.2416  0.8932  2.2241
   46A      H62 1450   4.138   4.037   4.068 -0.4282  0.8037  0.5377
   46A       N1 1451   4.370   4.103   4.049 -0.2199 -0.7234 -0.1161
   46A       C2 1452   4.496   4.145   4.052 -0.2519 -0.6308 -0.0291
   46A       H2 1453   4.566   4.065   4.070 -1.4031 -1.6653 -0.0049
   46A       N3 1454   4.525   4.273   4.037 -0.6570 -0.5463 -0.1245
   46A       C4 1455   4.426   4.354   3.994 -0.0787  0.1606 -0.1386
   46A      C3' 1456   4.621   4.640   3.735 -0.0326 -0.0222  0.2986
   46A      H3' 1457   4.520   4.624   3.698 -0.5703 -0.4475  1.9065
   46A      C2' 1458   4.658   4.524   3.827 -0.1247 -0.2803  0.0126
   46A     H2'1 1459   4.619   4.431   3.785 -2.1261 -0.6728  2.5209
   46A      O2' 1460   4.795   4.526   3.860 -0.0720 -0.2355 -0.2019
   46A     HO'2 1461   4.832   4.613   3.845 -1.7148  0.6839  0.7455
   46A      O3' 1462   4.714   4.678   3.636  0.0952 -0.5725  0.2058
   47G        P 1463   4.689   4.614   3.490 -0.2223  0.0232 -0.0022
   47G      O1P 1464   4.789   4.673   3.398  0.4987 -0.2163  0.6179
   47G      O2P 1465   4.549   4.635   3.445 -0.1419 -0.5228 -0.5223
   47G      O5' 1466   4.710   4.456   3.511 -0.0642  0.0716  0.2127
   47G      C5' 1467   4.843   4.410   3.517 -0.1117 -0.1325 -0.2601
   47G     H5'1 1468   4.893   4.463   3.598  0.7057  1.0898 -1.5147
   47G     H5'2 1469   4.902   4.436   3.429 -1.3435 -0.2477 -1.1531
   47G      C4' 1470   4.867   4.261   3.535 -0.1682 -0.1560 -0.3736
   47G      H4' 1471   4.973   4.236   3.537  0.3040  1.6913 -0.3925
   47G      O4' 1472   4.816   4.227   3.662  0.4832 -0.1862 -0.1158
   47G      C1' 1473   4.753   4.102   3.657  0.3806 -0.1441  0.0818
   47G      H1' 1474   4.799   4.025   3.720 -1.7983 -1.5061  0.1205
   47G       N9 1475   4.606   4.104   3.668  0.3851  0.0727  0.1049
   47G       C8 1476   4.516   4.202   3.634  0.0147 -0.4139 -0.3395
   47G       H8 1477   4.551   4.297   3.597  0.4595 -0.9521 -1.3384
   47G       N7 1478   4.389   4.177   3.651 -0.0570 -0.0931 -0.3975
   47G       C5 1479   4.392   4.044   3.693 -0.0565  0.0878  0.1809
   47G       C6 1480   4.287   3.953   3.722 -0.0778  0.1083  0.1716
   47G       O6 1481   4.167   3.963   3.698 -0.0302  1.2225  0.3761
   47G       N1 1482   4.331   3.829   3.767 -0.0372  0.1467  0.2399
   47G       H1 1483   4.266   3.755   3.791  1.0173 -1.0855 -0.5511
   47G       C2 1484   4.464   3.792   3.769 -0.2691 -0.7750 -0.5674
   47G       N2 1485   4.492   3.662   3.788 -0.0451 -0.7516 -0.7411
   47G      H21 1486   4.418   3.596   3.800 -0.2179 -0.2981  0.8923
   47G      H22 1487   4.584   3.624   3.767 -0.0784 -1.6433  0.6547
   47G       N3 1488   4.562   3.876   3.733 -0.7289  0.1083  0.1969
   47G       C4 1489   4.521   4.002   3.703  0.0337  0.2923 -0.0885
   47G      C3' 1490   4.798   4.171   3.433 -0.4325 -0.2613 -0.1025
   47G      H3' 1491   4.699   4.209   3.410 -1.1220 -1.7366  0.3029
   47G      C2' 1492   4.788   4.045   3.519 -0.2926 -0.2406 -0.0559
   47G     H2'1 1493   4.714   3.976   3.481 -0.4137 -0.4294  0.5183
   47G      O2' 1494   4.910   3.977   3.535 -0.1615 -0.0231 -0.1206
   47G     HO'2 1495   4.962   3.999   3.457 -1.3073  1.6773 -0.4544
   47G      O3' 1496   4.883   4.152   3.323 -0.1542 -0.4201  0.1379
   48U        P 1497   4.827   4.095   3.183 -0.1957  0.1690 -0.0902
   48U      O1P 1498   4.943   4.091   3.091 -0.4490 -0.6519 -0.3850
   48U      O2P 1499   4.711   4.173   3.136 -0.6277 -0.4483 -0.0663
   48U      O5' 1500   4.765   3.949   3.211 -0.0197  0.1313  0.1019
   48U      C5' 1501   4.854   3.841   3.232 -0.2251 -0.0948 -0.1883
   48U     H5'1 1502   4.922   3.866   3.313  1.1832 -0.6668 -1.1558
   48U     H5'2 1503   4.913   3.820   3.143  0.1259 -0.3965  0.1166
   48U      C4' 1504   4.782   3.715   3.276  0.0078 -0.1175  0.1260
   48U      H4' 1505   4.855   3.637   3.296  0.5883  0.1082 -1.0796
   48U      O4' 1506   4.715   3.742   3.397 -0.0739 -0.2116  0.1028
   48U      C1' 1507   4.600   3.661   3.396 -0.3147  0.1293 -0.2546
   48U      H1' 1508   4.598   3.593   3.482  1.6830  0.5023  0.1365
   48U       N1 1509   4.479   3.744   3.403  0.0378  0.6270 -0.0498
   48U       C6 1510   4.476   3.868   3.345  0.5258  0.3506 -0.6740
   48U       H6 1511   4.566   3.919   3.315  0.6578 -0.1122 -1.0828
   48U       C5 1512   4.361   3.938   3.338  0.2032 -0.1195 -0.1539
   48U       H5 1513   4.362   4.038   3.297  0.3963  0.0782  0.3294
   48U       C4 1514   4.234   3.890   3.388  0.1225  0.4185  0.1547
   48U       O4 1515   4.126   3.950   3.391 -0.1833 -0.1339  0.3327
   48U       N3 1516   4.247   3.769   3.453 -0.0542  0.1040 -0.3926
   48U       H3 1517   4.162   3.725   3.486 -1.2982  3.0490  0.6110
   48U       C2 1518   4.365   3.697   3.466  0.1716  0.5687  0.1497
   48U       O2 1519   4.364   3.586   3.520 -0.0904  0.6161  0.2472
   48U      C3' 1520   4.678   3.661   3.178  0.0107 -0.1265  0.1275
   48U      H3' 1521   4.617   3.744   3.141 -0.3521 -0.3516  0.2298
   48U      C2' 1522   4.594   3.574   3.270 -0.0574 -0.2249 -0.0260
   48U     H2'1 1523   4.494   3.552   3.232  0.6280 -0.3562 -1.8172
   48U      O2' 1524   4.664   3.454   3.292 -0.1344 -0.3661 -0.5419
   48U     HO'2 1525   4.714   3.430   3.214  1.6570  0.1458  0.3875
   48U      O3' 1526   4.741   3.587   3.076 -0.1794 -0.1236  0.0067
   49C        P 1527   4.689   3.602   2.925 -0.0459  0.1525 -0.0122
   49C      O1P 1528   4.789   3.536   2.838 -0.0809  0.2619 -0.1366
   49C      O2P 1529   4.652   3.744   2.907 -0.1759  0.0957 -0.2032
   49C      O5' 1530   4.555   3.512   2.932  0.0245  0.0271 -0.2364
   49C      C5' 1531   4.561   3.374   2.960  0.3983  0.1287  0.1964
   49C     H5'1 1532   4.628   3.355   3.045  0.0717 -0.6246  0.2869
   49C     H5'2 1533   4.608   3.324   2.875 -0.7629 -0.1835 -0.2761
   49C      C4' 1534   4.429   3.305   2.990  0.5210 -0.1953 -0.0114
   49C      H4' 1535   4.457   3.203   3.017  3.6029  0.9525  1.4945
   49C      O4' 1536   4.380   3.356   3.112 -0.1622 -0.6194 -0.0993
   49C      C1' 1537   4.240   3.347   3.121 -0.2177  0.2965  0.0444
   49C      H1' 1538   4.209   3.291   3.209  0.7857  0.4191  0.4778
   49C       N1 1539   4.180   3.481   3.127 -0.2095  0.3070 -0.1062
   49C       C6 1540   4.255   3.592   3.101 -0.0384  0.2507  0.1479
   49C       H6 1541   4.357   3.577   3.068 -1.2482 -1.4996 -3.3321
   49C       C5 1542   4.202   3.716   3.099  0.0371  0.2808 -0.1062
   49C       H5 1543   4.257   3.807   3.080  3.6733 -1.4516  1.2125
   49C       C4 1544   4.062   3.720   3.131 -0.0234 -0.3625 -0.2823
   49C       N4 1545   3.999   3.835   3.158  0.3151 -0.1993 -0.1747
   49C      H41 1546   4.045   3.923   3.139  0.6485 -0.2073  0.5715
   49C      H42 1547   3.907   3.832   3.200 -0.0496  1.4354 -0.8116
   49C       N3 1548   3.989   3.617   3.176 -0.1676  0.0207  0.3796
   49C       C2 1549   4.048   3.495   3.167 -0.2478  0.0190 -0.1318
   49C       O2 1550   3.985   3.397   3.208 -0.2806  0.1552  0.1444
   49C      C3' 1551   4.307   3.308   2.897  0.2542  0.3461  0.3480
   49C      H3' 1552   4.305   3.405   2.848  1.5301 -0.5121 -1.5464
   49C      C2' 1553   4.195   3.273   2.995  0.2377 -0.1681  0.1511
   49C     H2'1 1554   4.103   3.317   2.957 -0.0975  0.4768  1.6364
   49C      O2' 1555   4.186   3.139   3.037 -0.2997 -0.0663  0.3611
   49C     HO'2 1556   4.269   3.106   3.072  0.6256 -0.0069 -1.6522
   49C      O3' 1557   4.327   3.204   2.804 -0.1093  0.6095 -0.0245
   50G        P 1558   4.269   3.229   2.656 -0.0411  0.0520 -0.1480
   50G      O1P 1559   4.311   3.118   2.567  0.2843  0.2059 -0.1861
   50G      O2P 1560   4.311   3.364   2.612 -0.0075 -0.0012 -0.2812
   50G      O5' 1561   4.109   3.226   2.678 -0.0506 -0.0783 -0.2291
   50G      C5' 1562   4.038   3.113   2.724  0.0026  0.2521  0.6853
   50G     H5'1 1563   4.089   3.073   2.811 -2.4979  1.4345  2.8336
   50G     H5'2 1564   4.042   3.030   2.653 -0.3600  0.2600  0.6541
   50G      C4' 1565   3.890   3.137   2.750 -0.0928  0.0911  0.2989
   50G      H4' 1566   3.848   3.037   2.757 -0.9553  0.2498 -1.8305
   50G      O4' 1567   3.867   3.208   2.870  0.3216  0.2021  0.3159
   50G      C1' 1568   3.750   3.283   2.849  0.3132  0.1675  0.2323
   50G      H1' 1569   3.675   3.262   2.926  0.2671  1.9774  0.7268
   50G       N9 1570   3.773   3.427   2.873  0.1705  0.2120  0.1140
   50G       C8 1571   3.890   3.497   2.852  0.0133  0.4465  0.0166
   50G       H8 1572   3.982   3.458   2.814  2.8293  3.1487  3.3592
   50G       N7 1573   3.882   3.622   2.887 -0.0980  0.3946  0.1822
   50G       C5 1574   3.752   3.636   2.933 -0.0851  0.3252  0.2410
   50G       C6 1575   3.689   3.757   2.974  0.1496  0.2671  0.7762
   50G       O6 1576   3.729   3.870   2.998 -0.4337  0.6795 -0.1317
   50G       N1 1577   3.556   3.732   3.001 -0.0581 -0.0858 -0.5222
   50G       H1 1578   3.504   3.814   3.029  0.1559  0.4972 -1.7726
   50G       C2 1579   3.504   3.604   3.009 -0.1812 -0.0600 -0.8614
   50G       N2 1580   3.372   3.595   3.033 -0.0730 -0.5614 -0.4341
   50G      H21 1581   3.316   3.679   3.037 -0.9636 -1.1769  0.7761
   50G      H22 1582   3.324   3.506   3.037 -1.1859  0.0473  0.1053
   50G       N3 1583   3.561   3.488   2.974  0.2408 -0.1434  0.0459
   50G       C4 1584   3.684   3.517   2.927 -0.0310  0.3224 -0.3998
   50G      C3' 1585   3.808   3.206   2.640  0.3966  0.1857 -0.0101
   50G      H3' 1586   3.861   3.292   2.599 -2.0443  1.0804 -1.5051
   50G      C2' 1587   3.683   3.247   2.717  0.4598 -0.0383  0.2147
   50G     H2'1 1588   3.636   3.330   2.665 -3.0758 -1.1743  1.3345
   50G      O2' 1589   3.589   3.146   2.746 -0.3646  0.6822  0.0820
   50G     HO'2 1590   3.547   3.113   2.666 -1.0838 -3.7682  1.9705
   50G      O3' 1591   3.769   3.115   2.539 -0.1255  0.1096  0.2588
   50G      H3T 1592   3.842   3.113   2.478 -1.4574  0.1862 -1.4038
   51SOL     OW 1593   6.097   0.876  12.036  0.3918 -0.3898  0.1823
   51SOL    HW1 1594   6.189   0.898  12.021  0.5475 -0.6910  0.6673
   51SOL    HW2 1595   6.100   0.800  12.095 -0.1651  0.0091  0.7376
   52SOL     OW 1596   0.114   7.210   1.055  0.1652 -0.7499  0.1156
   52SOL    HW1 1597   0.094   7.302   1.035  1.1095 -0.9081 -1.8971
   52SOL    HW2 1598   0.131   7.209   1.149  0.9760  1.3202  0.0565
   53SOL     OW 1599   0.888   7.227   1.123  0.2930 -0.0280  0.0434
   53SOL    HW1 1600   0.969   7.215   1.173  0.4866  0.6728 -0.0954
   53SOL    HW2 1601   0.823   7.175   1.170  0.4331  0.7457  1.1132
   54SOL     OW 1602   0.052   0.047   2.142 -0.9621 -0.1893 -0.5095
   54SOL    HW1 1603   0.035   0.009   2.228  0.0394 -1.1017 -0.6964
   54SOL    HW2 1604   0.129   0.102   2.154 -0.2159 -1.0996 -1.0242
   55SOL     OW 1605   2.020   1.149   0.154 -0.3779 -0.7748  0.0708
   55SOL    HW1 1606   1.994   1.111   0.237 -1.1740 -0.7356 -0.1593
   55SOL    HW2 1607   2.083   1.217   0.178 -0.5746 -0.7890  0.6362
   56SOL     OW 1608   1.482   7.186   0.573  0.5113 -0.2034 -0.2108
   56SOL    HW1 1609   1.396   7.155   0.600  0.7150 -0.3231  0.3138
   56SOL    HW2 1610   1.536   7.106   0.568  0.4599 -0.1951 -1.0528
   57SOL     OW 1611   0.670   0.535   0.683 -0.0046  0.0312 -0.2959
   57SOL    HW1 1612   0.592   0.583   0.655 -0.1159  0.0733  0.0842
   57SOL    HW2 1613   0.665   0.451   0.637 -0.0672  0.1865 -0.5765
   58SOL     OW 1614   0.944   2.092   2.121  0.1414 -0.6013 -0.0365
   58SOL    HW1 1615   0.849   2.086   2.128  0.1717 -0.4902  0.5448
   58SOL    HW2 1616   0.969   2.019   2.064 -0.5113  0.7671 -2.2174
   59SOL     OW 1617   0.834   1.255   2.045 -0.3904 -0.1659  0.4336
   59SOL    HW1 1618   0.841   1.161   2.061  0.6749  0.0627  1.4743
   59SOL    HW2 1619   0.925   1.286   2.043 -0.7324  0.8834  0.3986
   60SOL     OW 1620   0.979   0.955   1.811 -0.1383 -0.3386  0.3140
   60SOL    HW1 1621   0.971   0.931   1.903 -2.1942 -1.5882 -0.1136
   60SOL    HW2 1622   0.891   0.942   1.775  0.6329 -0.0353 -1.8487
   61SOL     OW 1623   7.914   2.611   2.510 -0.2647  0.3012 -0.1604
   61SOL    HW1 1624   7.890   2.640   2.598 -0.4154  3.4378 -1.1207
   61SOL    HW2 1625   7.967   2.533   2.525 -0.8331  0.3367  2.6629
   62SOL     OW 1626   7.199   1.130  11.886  0.1891 -0.7944  0.1476
   62SOL    HW1 1627   7.104   1.136  11.888  0.2208 -0.3801  1.7756
   62SOL    HW2 1628   7.221   1.128  11.793 -1.3669 -0.3464 -0.2585
   63SOL     OW 1629   1.249   1.851   2.521  0.4347  0.4452 -0.4846
   63SOL    HW1 1630   1.265   1.844   2.427  0.7998 -3.0541 -0.2886
   63SOL    HW2 1631   1.335   1.873   2.558  0.8307 -0.5348 -0.8029
   64SOL     OW 1632   0.071   0.486   1.002  0.1609  0.3423 -0.2772
   64SOL    HW1 1633   0.034   0.574   1.002 -0.9099 -0.0761  0.6786
   64SOL    HW2 1634   0.107   0.476   1.090 -2.3085 -1.1536  0.6691
   65SOL     OW 1635   1.360   0.677   2.056 -0.4524  0.6370 -0.3154
   65SOL    HW1 1636   1.450   0.648   2.043 -1.5553 -2.5525 -1.8981
   65SOL    HW2 1637   1.361   0.770   2.034  2.5099  0.8447  0.2998
   66SOL     OW 1638   0.003   1.781   1.448 -0.2156  0.7067  0.1428
   66SOL    HW1 1639  -0.061   1.755   1.382  0.2931 -0.2254 -0.0019
   66SOL    HW2 1640   0.061   1.705   1.457  0.2850  1.1666  0.9801
   67SOL     OW 1641   1.919   1.951   1.867  0.1688 -0.2815  0.1381
   67SOL    HW1 1642   1.976   2.017   1.828  1.0673 -0.4990  1.0451
   67SOL    HW2 1643   1.916   1.881   1.802 -0.0647  0.2592 -0.4427
   68SOL     OW 1644   1.056   3.489   0.802  0.0200  0.0589  0.8262
   68SOL    HW1 1645   0.989   3.435   0.844 -2.2887  1.5389 -0.7009
   68SOL    HW2 1646   1.100   3.533   0.874 -1.0064 -0.5612  1.8697
   69SOL     OW 1647   0.720   1.480   2.789  0.0224 -0.2057  0.6525
   69SOL    HW1 1648   0.800   1.472   2.737 -0.4743  1.7065 -0.5037
   69SOL    HW2 1649   0.739   1.549   2.852  0.0548 -1.3973  2.0032
   70SOL     OW 1650   0.045   0.019   1.292 -0.4222  0.1161 -0.1994
   70SOL    HW1 1651   0.060   0.114   1.294  0.4594  0.0144 -1.1360
   70SOL    HW2 1652   0.033  -0.005   1.384  2.4251  0.6916  0.4351
   71SOL     OW 1653   1.410   0.596   0.385  0.7431 -0.2460  1.1128
   71SOL    HW1 1654   1.321   0.591   0.421  1.0269  2.4201  2.4393
   71SOL    HW2 1655   1.465   0.553   0.451  0.8368  1.6140  2.3343
   72SOL     OW 1656   0.916   7.281   1.513  0.9015  0.1082  0.2451
   72SOL    HW1 1657   0.936   7.226   1.589 -1.9870  0.1467  1.1423
   72SOL    HW2 1658   0.845   7.236   1.468 -0.3057  2.1690 -0.0389
   73SOL     OW 1659   1.546   0.114   0.332  0.1325 -0.2534  0.1229
   73SOL    HW1 1660   1.620   0.079   0.381  0.1263 -0.1702  0.1946
   73SOL    HW2 1661   1.503   0.173   0.395 -0.3703 -0.7962  0.2996
   74SOL     OW 1662   7.116   2.135  12.257 -0.0628 -0.0304 -0.0410
   74SOL    HW1 1663   7.021   2.139  12.257 -0.0439  0.4859 -0.6327
   74SOL    HW2 1664   7.138   2.091  12.175  0.2348  0.6268 -0.3195
   75SOL     OW 1665   1.312   2.355  11.598 -0.6539 -0.3462 -0.1835
   75SOL    HW1 1666   1.336   2.442  11.567 -0.4393 -0.7411 -1.1600
   75SOL    HW2 1667   1.248   2.372  11.668  0.1233  0.6110  0.3242
   76SOL     OW 1668   3.998   7.595  11.532 -0.2060 -0.0707 -0.7570
   76SOL    HW1 1669   3.959   7.508  11.540 -0.0412 -0.0256  0.6185
   76SOL    HW2 1670   4.088   7.578  11.504 -0.2894 -0.3129 -0.8878
   77SOL     OW 1671   0.079   2.795   1.071  0.7366  0.4989  0.0790
   77SOL    HW1 1672   0.083   2.880   1.028  0.0329 -0.2782 -1.6114
   77SOL    HW2 1673   0.015   2.806   1.141  1.2509  1.5659  0.3925
   78SOL     OW 1674   0.547   0.715   0.859 -0.2968  0.1145  0.1136
   78SOL    HW1 1675   0.602   0.648   0.817 -0.0990  1.2209 -1.4795
   78SOL    HW2 1676   0.457   0.682   0.848 -0.2543  0.3873 -1.2722
   79SOL     OW 1677   1.325   0.712   0.996 -1.0583  0.3095  0.0600
   79SOL    HW1 1678   1.406   0.672   0.967 -1.6725 -1.9194  1.1497
   79SOL    HW2 1679   1.340   0.731   1.089 -1.5449  0.5100  0.1001
   80SOL     OW 1680   7.664   1.975   1.395  0.0490  0.3149  0.2031
   80SOL    HW1 1681   7.731   1.974   1.326  0.6564 -0.0020  0.7838
   80SOL    HW2 1682   7.588   1.933   1.355  0.3569  0.2304 -0.3109
   81SOL     OW 1683   1.022   6.687  12.278 -0.0071 -0.8427 -0.1890
   81SOL    HW1 1684   1.075   6.721  12.206 -0.4436 -0.9311 -0.5610
   81SOL    HW2 1685   1.059   6.727  12.356  1.4045 -1.8665 -0.2934
   82SOL     OW 1686   1.404   1.321   3.170 -0.1171  0.3763 -0.0218
   82SOL    HW1 1687   1.440   1.408   3.188 -1.8092  1.2052 -0.4893
   82SOL    HW2 1688   1.395   1.318   3.075  2.0929 -1.2542 -0.2697
   83SOL     OW 1689   0.336   0.692  12.208  0.3543 -0.7161 -0.4986
   83SOL    HW1 1690   0.334   0.697  12.112 -0.1273 -1.1126 -0.5142
   83SOL    HW2 1691   0.244   0.680  12.233  0.5159 -0.9428 -0.0075
   84SOL     OW 1692   1.056   2.173   0.177  0.2351 -0.2828  0.4200
   84SOL    HW1 1693   0.997   2.184   0.102  0.6759  0.3743  0.1666
   84SOL    HW2 1694   0.997   2.167   0.253 -0.1416  1.3568  0.2924
   85SOL     OW 1695   0.753   2.125  12.136 -0.2722  0.6233  0.0372
   85SOL    HW1 1696   0.688   2.077  12.188  1.1949 -0.9617  0.4878
   85SOL    HW2 1697   0.830   2.130  12.193  0.4907  1.1940 -1.0187
   86SOL     OW 1698   1.014   1.097   1.449 -0.0832 -0.2361 -0.2020
   86SOL    HW1 1699   0.973   1.012   1.465  0.5351 -0.4318  0.3517
   86SOL    HW2 1700   1.044   1.126   1.535  2.8411 -1.0680 -0.8468
   87SOL     OW 1701   0.638   0.041  12.399  0.2883  0.5020 -0.1762
   87SOL    HW1 1702   0.611   0.052  12.308  1.0597 -0.5067 -0.5422
   87SOL    HW2 1703   0.718  -0.012  12.395 -0.6875 -1.1953  1.1541
   88SOL     OW 1704   2.261   1.942   0.145 -0.2695  0.3172  0.0427
   88SOL    HW1 1705   2.168   1.965   0.144 -0.5672 -0.8510 -0.3177
   88SOL    HW2 1706   2.306   2.022   0.117 -1.2280  0.6129 -0.6837
   89SOL     OW 1707   2.235   0.352   1.884 -0.1212  0.0507  0.4027
   89SOL    HW1 1708   2.321   0.332   1.920  0.4829  4.1333  1.6357
   89SOL    HW2 1709   2.252   0.369   1.791  0.0834 -0.6432  0.3035
   90SOL     OW 1710   0.130   0.923   2.219 -0.7136 -0.3122  0.5502
   90SOL    HW1 1711   0.123   0.847   2.160  1.1380 -0.0430 -0.0628
   90SOL    HW2 1712   0.202   0.901   2.278  1.4812  1.8848 -1.1385
   91SOL     OW 1713   1.155   7.776   0.368  0.0707 -0.1620  0.1466
   91SOL    HW1 1714   1.147   7.839   0.440  1.2162 -0.9634  1.0086
   91SOL    HW2 1715   1.107   7.699   0.398 -0.3660 -0.1091 -0.4156
   92SOL     OW 1716   1.541   7.950   0.661  0.1165  0.4330 -0.5917
   92SOL    HW1 1717   1.452   7.914   0.669 -0.0065  0.9781  0.9053
   92SOL    HW2 1718   1.574   7.915   0.579 -0.7842 -1.3636 -0.2442
   93SOL     OW 1719   7.653   0.819   0.932 -0.0261  0.5641 -0.0321
   93SOL    HW1 1720   7.568   0.810   0.975  0.6584 -0.1690  1.2241
   93SOL    HW2 1721   7.633   0.854   0.846 -1.4304  2.6211  1.0492
   94SOL     OW 1722   0.885   0.084   3.363 -0.2608  0.3023 -0.5606
   94SOL    HW1 1723   0.891   0.174   3.396 -1.4397 -0.3504  1.6651
   94SOL    HW2 1724   0.798   0.078   3.325 -0.0039  0.2268 -1.1405
   95SOL     OW 1725   1.819   0.037   0.676  0.1251 -0.3462  0.2377
   95SOL    HW1 1726   1.730   0.058   0.704 -1.2574 -2.2511 -2.2681
   95SOL    HW2 1727   1.845  -0.035   0.733 -1.8976 -2.8921 -1.7600
   96SOL     OW 1728   1.851   1.080   1.924 -0.1028 -0.0497  0.2888
   96SOL    HW1 1729   1.879   1.141   1.992 -1.6639  0.8580  0.1562
   96SOL    HW2 1730   1.848   1.133   1.844 -1.0155 -0.4057  0.0804
   97SOL     OW 1731   7.869   1.815   0.878  0.3279  0.8867 -0.3528
   97SOL    HW1 1732   7.799   1.781   0.933  0.9162  0.2224 -0.0115
   97SOL    HW2 1733   7.843   1.906   0.860 -0.3923  0.7830  0.1319
   98SOL     OW 1734   2.465   2.039   1.546  0.2434 -0.2545  0.3314
   98SOL    HW1 1735   2.415   1.958   1.552 -0.6099  0.2991  1.0646
   98SOL    HW2 1736   2.406   2.100   1.502  0.3763  0.3232  0.9407
   99SOL     OW 1737   2.006   1.721   0.835  0.0609  0.2097 -0.5447
   99SOL    HW1 1738   1.996   1.652   0.770  0.6615 -0.0405 -0.3793
   99SOL    HW2 1739   1.990   1.802   0.787 -0.2898 -0.0244 -0.8229
  100SOL     OW 1740   7.827   1.247   1.804  0.6551  0.5087 -0.4772
  100SOL    HW1 1741   7.776   1.325   1.827 -0.1705  0.3104 -1.5776
  100SOL    HW2 1742   7.794   1.179   1.864 -0.1846  0.4570 -0.9819
  101SOL     OW 1743   1.747   2.039   1.467 -0.2811  1.0448  0.0245
  101SOL    HW1 1744   1.762   2.112   1.407 -3.2466  0.7084 -1.2679
  101SOL    HW2 1745   1.704   1.972   1.415 -0.1230 -0.5714  1.8285
  102SOL     OW 1746   7.400   1.379   3.063 -0.1203 -0.2418  0.3654
  102SOL    HW1 1747   7.444   1.375   3.148 -1.7156 -2.8241  1.1972
  102SOL    HW2 1748   7.351   1.297   3.058 -0.3154 -0.0456 -2.9597
  103SOL     OW 1749   0.437   6.429  11.887  0.2687  0.1241 -0.2566
  103SOL    HW1 1750   0.528   6.424  11.917  0.7717  1.5200 -1.4301
  103SOL    HW2 1751   0.419   6.343  11.851  0.3494 -0.9109  1.9987
  104SOL     OW 1752   1.368   0.558   1.332 -0.3145  0.3754  0.2229
  104SOL    HW1 1753   1.424   0.547   1.409  0.3215  0.3029 -0.2494
  104SOL    HW2 1754   1.400   0.637   1.290  0.7209 -0.7132 -1.1199
  105SOL     OW 1755   1.796   2.324   2.105  0.4558 -0.1645  0.1380
  105SOL    HW1 1756   1.846   2.405   2.111  0.2531 -0.1106  1.3598
  105SOL    HW2 1757   1.810   2.294   2.015  1.3722  0.6798 -0.0213
  106SOL     OW 1758   1.539   1.516  11.270  0.0689 -0.1589  0.3555
  106SOL    HW1 1759   1.494   1.524  11.354  0.2528  0.2315  0.4177
  106SOL    HW2 1760   1.538   1.605  11.233  2.5476  0.3280  1.2652
  107SOL     OW 1761   0.920   0.030   1.385 -0.1948 -0.1067  0.1403
  107SOL    HW1 1762   1.009   0.017   1.416 -0.9530  0.3920  2.8374
  107SOL    HW2 1763   0.905   0.125   1.394 -0.9726 -0.1683 -0.3413
  108SOL     OW 1764   1.078   1.386  12.187  0.4194  0.0285 -0.0244
  108SOL    HW1 1765   1.093   1.347  12.101 -2.1611 -0.1495 -0.4880
  108SOL    HW2 1766   1.030   1.467  12.169  0.0460  0.1090  1.2277
  109SOL     OW 1767   7.506   0.329   1.817  0.1418  0.7420 -0.8686
  109SOL    HW1 1768   7.561   0.268   1.767  0.0735  0.8274 -1.0472
  109SOL    HW2 1769   7.554   0.411   1.814  0.5501  0.5444 -0.0912
  110SOL     OW 1770   1.660   7.848   0.452  0.7067  0.4074 -0.1325
  110SOL    HW1 1771   1.658   7.852   0.357  2.2847  0.7036 -0.1805
  110SOL    HW2 1772   1.749   7.818   0.473  0.2369 -0.1128  1.2342
  111SOL     OW 1773   7.920   2.825   1.589 -0.2555  0.0060 -0.3753
  111SOL    HW1 1774   7.853   2.756   1.589 -0.3527  0.0440  1.4988
  111SOL    HW2 1775   7.872   2.905   1.568 -0.9157  0.0793  1.2249
  112SOL     OW 1776   0.244   1.568   2.965  0.3456  0.0986 -0.0700
  112SOL    HW1 1777   0.257   1.660   2.987  0.9367 -0.1611  0.7158
  112SOL    HW2 1778   0.242   1.523   3.050  1.2139 -0.7575 -0.4884
  113SOL     OW 1779   0.635   7.286   0.747  0.1215 -0.1374  0.6993
  113SOL    HW1 1780   0.557   7.234   0.765 -0.2420  0.3945  0.6726
  113SOL    HW2 1781   0.625   7.365   0.800  0.9524 -0.3497  1.1952
  114SOL     OW 1782   0.544   0.171   2.149 -0.1963  0.1574  0.1587
  114SOL    HW1 1783   0.554   0.266   2.140 -1.5222  0.4138  1.1345
  114SOL    HW2 1784   0.468   0.160   2.206 -0.0525 -1.5004  0.0765
  115SOL     OW 1785   7.891   7.946   1.061 -0.2466  0.2619 -0.0764
  115SOL    HW1 1786   7.831   8.015   1.032 -3.0393 -1.4769  1.2662
  115SOL    HW2 1787   7.945   7.988   1.128  0.5724  2.0317 -1.7500
  116SOL     OW 1788   2.296   0.748   3.412  0.7248 -0.7942 -0.1120
  116SOL    HW1 1789   2.239   0.813   3.370  1.1075  0.6074  1.4404
  116SOL    HW2 1790   2.257   0.733   3.498  1.0063 -2.1817 -0.1943
  117SOL     OW 1791   0.817   1.231   1.762  0.1440  0.1354 -0.2268
  117SOL    HW1 1792   0.805   1.245   1.855 -0.8328 -0.6059 -0.2250
  117SOL    HW2 1793   0.776   1.307   1.720 -0.6416 -0.1997 -0.0818
  118SOL     OW 1794   2.016   1.338   0.779 -0.1705  0.2164 -0.0288
  118SOL    HW1 1795   1.972   1.409   0.732 -0.8184  1.5169  2.3338
  118SOL    HW2 1796   1.947   1.275   0.798 -0.1877  0.3032  0.2102
  119SOL     OW 1797   7.735   1.183   0.924  0.3688  0.0577 -0.5990
  119SOL    HW1 1798   7.801   1.143   0.980  0.0789 -2.2568 -1.7971
  119SOL    HW2 1799   7.778   1.261   0.887  0.8873  1.0923  1.9697
  120SOL     OW 1800   0.713   0.490   1.409 -0.1492 -0.2493 -0.2969
  120SOL    HW1 1801   0.734   0.532   1.326  1.8971 -1.3875 -0.4226
  120SOL    HW2 1802   0.798   0.460   1.443 -0.9456 -0.0567  2.0827
  121SOL     OW 1803   1.124   7.608   0.091  0.7521  0.2625  0.3193
  121SOL    HW1 1804   1.063   7.601   0.018  1.1987 -2.3570  0.1047
  121SOL    HW2 1805   1.071   7.591   0.169  1.0467 -1.6817  0.1577
  122SOL     OW 1806   1.485   3.196   0.035 -0.0259  0.6634  0.0799
  122SOL    HW1 1807   1.429   3.246  -0.025  0.7624  1.4997  0.0100
  122SOL    HW2 1808   1.426   3.163   0.102 -1.4157 -2.3629 -2.3492
  123SOL     OW 1809   0.228   0.264   1.411 -0.0444  0.4309 -0.5670
  123SOL    HW1 1810   0.269   0.232   1.492 -0.9507 -0.1054 -0.3014
  123SOL    HW2 1811   0.164   0.329   1.441 -0.4844  0.1279 -0.8412
  124SOL     OW 1812   7.608   0.320   0.674  0.0910  0.1026  0.0151
  124SOL    HW1 1813   7.694   0.321   0.632 -0.4274 -0.8480 -1.1638
  124SOL    HW2 1814   7.622   0.357   0.761  1.3569  1.5745 -0.7635
  125SOL     OW 1815   0.888   0.750   3.092  0.7921 -0.2182  0.2967
  125SOL    HW1 1816   0.836   0.821   3.053  1.3057  0.5997  1.0638
  125SOL    HW2 1817   0.828   0.708   3.154 -0.1191 -1.7021 -1.4849
  126SOL     OW 1818   0.090   0.771   3.298  0.0253  0.5531  0.5052
  126SOL    HW1 1819   0.133   0.687   3.314 -2.7314 -0.6259  2.7507
  126SOL    HW2 1820   0.068   0.803   3.386 -3.1094  1.2406 -0.4034
  127SOL     OW 1821   1.085   1.365   2.047 -0.1162  0.6444  0.0331
  127SOL    HW1 1822   1.117   1.393   1.961  1.2190 -1.9001 -0.3950
  127SOL    HW2 1823   1.163   1.356   2.101 -0.4134 -1.9492  0.1563
  128SOL     OW 1824   0.026   2.251   1.507 -0.1477  0.2714  0.1726
  128SOL    HW1 1825  -0.068   2.262   1.494 -0.1679 -0.4649 -0.3598
  128SOL    HW2 1826   0.063   2.338   1.492 -0.6887  0.4536 -0.1160
  129SOL     OW 1827   2.076   0.548   0.217 -0.6067 -0.4506  0.1057
  129SOL    HW1 1828   2.167   0.516   0.220  0.1146  1.4510 -0.0723
  129SOL    HW2 1829   2.055   0.569   0.308 -0.3887  0.3091 -0.0097
  130SOL     OW 1830   0.710   2.407   2.224  0.5924  0.5111  0.3588
  130SOL    HW1 1831   0.715   2.422   2.130  1.0527  2.2474  0.6285
  130SOL    HW2 1832   0.800   2.412   2.254  0.2875  2.0672  1.1453
  131SOL     OW 1833   1.663   0.202   2.005 -0.1093  0.2705  0.2642
  131SOL    HW1 1834   1.652   0.297   2.008  0.5492  0.3790 -0.4432
  131SOL    HW2 1835   1.628   0.177   1.920 -1.2497 -0.2646  0.8741
  132SOL     OW 1836   0.766   2.018  12.455 -0.0426 -0.3612 -0.3439
  132SOL    HW1 1837   0.797   1.966  12.529  1.2436 -1.7938 -1.7869
  132SOL    HW2 1838   0.791   2.108  12.477  2.4211 -1.0394  0.0207
  133SOL     OW 1839   1.481   0.352  12.487  0.5575  0.3919 -0.2284
  133SOL    HW1 1840   1.553   0.410  12.511  1.4638 -1.4805  1.9341
  133SOL    HW2 1841   1.497   0.330  12.396  2.5634  0.2942  0.1098
  134SOL     OW 1842   0.303   0.377   0.643 -0.1165  0.0768  0.1064
  134SOL    HW1 1843   0.208   0.373   0.637 -0.0622  0.1531 -1.0420
  134SOL    HW2 1844   0.322   0.470   0.659 -0.1788  0.4240 -1.6003
  135SOL     OW 1845   1.546   1.270   1.559  0.0320 -0.1707  0.3385
  135SOL    HW1 1846   1.525   1.279   1.652 -1.3567 -0.3386  0.0629
  135SOL    HW2 1847   1.562   1.360   1.530 -1.2701  0.0858  0.3669
  136SOL     OW 1848   1.549   1.732   1.610 -0.0519 -0.0620  0.0986
  136SOL    HW1 1849   1.586   1.775   1.687  0.2646  0.2495 -0.2219
  136SOL    HW2 1850   1.572   1.790   1.537 -0.1431 -0.4730 -0.2608
  137SOL     OW 1851   0.287   1.799   0.383 -0.1060  0.7984 -0.4423
  137SOL    HW1 1852   0.255   1.839   0.302  0.3363  0.8560 -0.5886
  137SOL    HW2 1853   0.207   1.777   0.432 -0.3813  0.5182 -1.0145
  138SOL     OW 1854   2.055   0.166   0.311 -0.6809  0.1890  0.0021
  138SOL    HW1 1855   2.068   0.215   0.230 -0.8541  0.1178 -0.0696
  138SOL    HW2 1856   1.971   0.197   0.345 -1.5491 -1.1395 -0.8312
  139SOL     OW 1857   2.149   7.940   0.469 -0.2078 -0.3388 -0.4402
  139SOL    HW1 1858   2.112   8.016   0.425  1.8446  0.8958 -0.1446
  139SOL    HW2 1859   2.167   7.970   0.558  1.0246 -1.0216 -0.4426
  140SOL     OW 1860   1.233   0.243   1.838  0.1148  0.4088 -0.1044
  140SOL    HW1 1861   1.264   0.273   1.924  0.2090  0.4116 -0.1388
  140SOL    HW2 1862   1.163   0.304   1.814 -1.3111 -0.7772  0.8855
  141SOL     OW 1863   2.050   0.116   0.966  0.7341  0.1358 -0.3073
  141SOL    HW1 1864   2.068   0.165   0.886  1.4451 -1.6105 -1.2810
  141SOL    HW2 1865   1.960   0.139   0.989  0.4162  0.4768 -1.7697
  142SOL     OW 1866   1.299   0.976   2.539  0.5539 -0.2439  0.1621
  142SOL    HW1 1867   1.318   0.882   2.537 -1.2287 -0.7196  2.0936
  142SOL    HW2 1868   1.366   1.012   2.597 -0.5115 -0.8728  1.8614
  143SOL     OW 1869   1.375   2.450   2.359  0.4983 -0.5848 -0.1489
  143SOL    HW1 1870   1.437   2.396   2.311  0.4202 -1.3162  0.5484
  143SOL    HW2 1871   1.362   2.404   2.442  2.4353  1.8048  1.6349
  144SOL     OW 1872   1.576   2.791   0.001  0.7565  0.1336 -0.6394
  144SOL    HW1 1873   1.596   2.712   0.052 -2.5632 -1.0035 -0.8965
  144SOL    HW2 1874   1.559   2.759  -0.088 -1.4450  0.9555 -0.5744
  145SOL     OW 1875   2.204   0.550   3.037 -0.0381 -0.0054  0.5179
  145SOL    HW1 1876   2.150   0.578   3.110 -0.4995  1.7002 -0.4046
  145SOL    HW2 1877   2.145   0.551   2.961  1.0206  0.9192 -0.3385
  146SOL     OW 1878   1.597   7.472   2.087 -0.1916  0.1821  0.2815
  146SOL    HW1 1879   1.515   7.513   2.061  0.3317  1.0969  0.0530
  146SOL    HW2 1880   1.571   7.410   2.155 -1.3967 -1.2952 -1.4290
  147SOL     OW 1881   1.125   0.698   1.763  0.5801  0.4149 -0.4809
  147SOL    HW1 1882   1.170   0.654   1.835  0.6183 -0.2425 -0.8932
  147SOL    HW2 1883   1.072   0.765   1.805 -0.1165 -0.5569  0.2524
  148SOL     OW 1884   1.524   1.491   1.390  0.2740 -0.4013  0.2478
  148SOL    HW1 1885   1.517   1.450   1.304 -3.3809  1.3292 -0.4582
  148SOL    HW2 1886   1.539   1.584   1.371 -0.4091 -0.0238  1.4746
  149SOL     OW 1887   1.034   6.171   1.020 -0.2410 -0.4219 -0.0195
  149SOL    HW1 1888   0.988   6.243   0.977  1.6072  0.4199 -0.6674
  149SOL    HW2 1889   1.024   6.098   0.959 -1.1197 -0.4186  0.0946
  150SOL     OW 1890   7.902   5.423   2.687 -0.2752  0.7200 -0.5588
  150SOL    HW1 1891   7.856   5.341   2.670 -0.1030  0.7428 -1.1467
  150SOL    HW2 1892   7.832   5.488   2.693 -0.6878  0.1257  2.7647
  151SOL     OW 1893   0.925   1.842   1.251  0.0965  0.2271 -0.1963
  151SOL    HW1 1894   0.957   1.752   1.245  0.3658  0.2943  0.1741
  151SOL    HW2 1895   1.004   1.894   1.265 -0.2720  0.2175  2.4722
  152SOL     OW 1896   0.679   1.810   1.583  0.0396 -0.4456 -0.2252
  152SOL    HW1 1897   0.662   1.775   1.495  2.1043  1.1281 -1.3166
  152SOL    HW2 1898   0.750   1.755   1.616  0.7582  0.3302 -0.4530
  153SOL     OW 1899   0.673   7.904   1.300  0.4641 -0.4717  0.4442
  153SOL    HW1 1900   0.742   7.962   1.332 -0.3360  1.5112 -1.2024
  153SOL    HW2 1901   0.593   7.935   1.342 -0.2010  0.6251 -1.4792
  154SOL     OW 1902   0.269   1.642   1.383 -0.3481  0.4370 -0.1168
  154SOL    HW1 1903   0.316   1.718   1.349 -0.5141  0.6843  0.1953
  154SOL    HW2 1904   0.256   1.662   1.476  0.7683 -0.5530  0.2712
  155SOL     OW 1905   7.470   1.857   1.747 -0.3014 -0.7549  0.0825
  155SOL    HW1 1906   7.441   1.791   1.810 -1.2318  0.6700  1.2079
  155SOL    HW2 1907   7.443   1.941   1.785  1.7601  0.3953 -0.7790
  156SOL     OW 1908   0.904   7.010   0.012  0.4950 -0.1465  0.2049
  156SOL    HW1 1909   0.862   6.928   0.035  2.6878 -1.2730  0.3908
  156SOL    HW2 1910   0.897   7.064   0.091 -2.3703  0.5547 -0.4173
  157SOL     OW 1911   0.586   1.070   2.629  0.5239  0.3569  0.1579
  157SOL    HW1 1912   0.536   0.991   2.652  1.4130 -0.2721 -0.0086
  157SOL    HW2 1913   0.560   1.135   2.694 -1.0782  0.2899 -0.3700
  158SOL     OW 1914   0.038   0.355   2.316 -0.0146  0.0959 -0.2274
  158SOL    HW1 1915   0.013   0.309   2.397  0.0315 -0.6486 -0.6278
  158SOL    HW2 1916   0.105   0.418   2.344 -0.3786  0.2147  0.4016
  159SOL     OW 1917   1.618   0.654   3.150 -0.1809 -0.5423  0.3101
  159SOL    HW1 1918   1.536   0.641   3.196  0.0920 -1.3939  0.5687
  159SOL    HW2 1919   1.686   0.633   3.214  0.2121 -1.1296 -0.2844
  160SOL     OW 1920   0.428   7.713   2.840 -0.2403  0.1033 -0.0379
  160SOL    HW1 1921   0.370   7.645   2.874 -1.0808 -0.1242 -1.8163
  160SOL    HW2 1922   0.423   7.704   2.745  3.0055 -0.1405 -0.2997
  161SOL     OW 1923   1.445   0.141   1.270  0.8295 -0.2972  0.5285
  161SOL    HW1 1924   1.475   0.058   1.234 -0.7731 -0.2620 -1.0116
  161SOL    HW2 1925   1.520   0.174   1.319  2.2502 -1.6000 -0.6717
  162SOL     OW 1926   0.751   1.127   0.308 -0.4358 -0.1702  0.0574
  162SOL    HW1 1927   0.818   1.104   0.372 -1.1420 -1.7073  0.2992
  162SOL    HW2 1928   0.796   1.126   0.224  0.4362  1.5847  0.4727
  163SOL     OW 1929   2.237   0.769   0.037 -0.0260  0.7258 -0.6966
  163SOL    HW1 1930   2.234   0.819   0.118 -2.0892 -1.3719  0.6499
  163SOL    HW2 1931   2.309   0.707   0.050 -0.0982  0.6537 -0.6411
  164SOL     OW 1932   0.132   2.065   2.492 -0.1773 -0.3559  0.4414
  164SOL    HW1 1933   0.178   2.081   2.574 -1.1700 -0.1018  0.9703
  164SOL    HW2 1934   0.201   2.058   2.426  0.6080 -0.1021  1.2184
  165SOL     OW 1935   7.955   1.461   1.994 -0.4188  0.1893  0.8384
  165SOL    HW1 1936   7.979   1.438   1.904  0.6467 -0.5528  1.2850
  165SOL    HW2 1937   7.913   1.546   1.986 -0.5738  0.0254 -0.3885
  166SOL     OW 1938   1.369   1.532   1.604 -0.1486 -0.1089 -0.0713
  166SOL    HW1 1939   1.423   1.499   1.532  0.4523  0.2220  0.2255
  166SOL    HW2 1940   1.417   1.607   1.638 -0.9956  0.4388 -0.0571
  167SOL     OW 1941   2.500   1.405   3.336  0.0444  0.4214  0.0458
  167SOL    HW1 1942   2.421   1.437   3.378 -0.6033 -1.8000  0.6465
  167SOL    HW2 1943   2.497   1.443   3.248 -1.0624  1.3129  0.4450
  168SOL     OW 1944   0.993   7.053   0.891 -0.4145 -0.0645 -0.4087
  168SOL    HW1 1945   0.942   7.019   0.964  0.1560  2.0647  1.0593
  168SOL    HW2 1946   1.010   6.976   0.836  0.0225 -1.9525  2.1952
  169SOL     OW 1947   0.614   0.184   1.880  0.2305  0.1911  0.1572
  169SOL    HW1 1948   0.613   0.274   1.847 -0.7896  0.1878  0.1394
  169SOL    HW2 1949   0.593   0.192   1.973  1.4778  0.0674  0.4667
  170SOL     OW 1950   0.721   1.028   2.409 -0.4240  0.3237 -0.4790
  170SOL    HW1 1951   0.668   1.000   2.334 -0.4162 -4.7179  1.0486
  170SOL    HW2 1952   0.658   1.061   2.473 -0.8410  1.0725 -1.2537
  171SOL     OW 1953   1.202   0.452   2.020  0.0486  0.2492 -0.0107
  171SOL    HW1 1954   1.257   0.529   2.031 -2.9908  2.5737  0.3644
  171SOL    HW2 1955   1.166   0.435   2.108 -1.0999 -0.0958 -0.5208
  172SOL     OW 1956   1.793   1.075   3.192 -0.4686 -0.3635  0.0025
  172SOL    HW1 1957   1.793   1.022   3.112 -1.5541 -1.3218  0.6090
  172SOL    HW2 1958   1.708   1.059   3.232  0.1566 -0.1404  1.5160
  173SOL     OW 1959   2.776   0.444  11.145  0.4751  0.0334  0.3109
  173SOL    HW1 1960   2.840   0.514  11.146 -0.4649  0.9343 -0.3258
  173SOL    HW2 1961   2.712   0.468  11.212  0.4985 -0.5617  0.5545
  174SOL     OW 1962   1.355   1.361   2.539  0.4300 -0.3792  0.5791
  174SOL    HW1 1963   1.284   1.419   2.563  0.0530 -0.0080 -1.2614
  174SOL    HW2 1964   1.433   1.399   2.579  0.6800  3.0330 -2.6425
  175SOL     OW 1965   5.500   1.515   2.105 -0.0005 -0.6770 -0.1566
  175SOL    HW1 1966   5.579   1.554   2.143 -0.3500 -0.4528  0.3509
  175SOL    HW2 1967   5.472   1.579   2.039 -1.9376  1.2189  2.3023
  176SOL     OW 1968   0.643   1.796   0.697  0.7082 -0.0634  0.3441
  176SOL    HW1 1969   0.666   1.786   0.605  1.8395 -0.2863  0.6264
  176SOL    HW2 1970   0.653   1.889   0.715  0.6061 -0.0389  0.2751
  177SOL     OW 1971   0.224   7.739  12.287  0.3443  0.2983  0.2442
  177SOL    HW1 1972   0.285   7.789  12.342 -1.0299 -0.6162  2.7906
  177SOL    HW2 1973   0.150   7.799  12.275  0.7684  0.6042 -0.9264
  178SOL     OW 1974   1.674   0.935   2.305 -0.5743  0.1315  0.1045
  178SOL    HW1 1975   1.656   1.013   2.358  2.6992  1.0349  0.1228
  178SOL    HW2 1976   1.664   0.964   2.215  0.0339  0.4093  0.1236
  179SOL     OW 1977   0.499   0.898   1.995 -0.0753 -0.4170 -0.1805
  179SOL    HW1 1978   0.411   0.928   1.972 -0.5962 -1.6321  0.1777
  179SOL    HW2 1979   0.555   0.932   1.925 -0.9800 -0.4311 -0.9264
  180SOL     OW 1980   7.068   2.757  12.404 -0.3248  0.2685 -0.5594
  180SOL    HW1 1981   7.039   2.764  12.495  1.6275 -0.8152  0.1946
  180SOL    HW2 1982   7.148   2.809  12.400 -0.2453  0.0881 -1.6069
  181SOL     OW 1983   6.205   1.924   0.095 -0.8321 -0.2926  0.2510
  181SOL    HW1 1984   6.149   1.959   0.165  1.3900  0.8105  1.6001
  181SOL    HW2 1985   6.243   1.845   0.133 -1.5494 -1.1129 -0.7065
  182SOL     OW 1986   0.215   0.380   0.235 -0.3353  0.5265  0.0979
  182SOL    HW1 1987   0.187   0.442   0.302 -3.7425  0.2204 -0.8775
  182SOL    HW2 1988   0.205   0.294   0.276 -0.2035  0.4185 -0.0931
  183SOL     OW 1989   1.186   2.466   1.110  0.0469 -0.3756 -0.2235
  183SOL    HW1 1990   1.109   2.459   1.055 -1.3279 -0.3333  1.6044
  183SOL    HW2 1991   1.173   2.400   1.179  0.8540  0.6947  1.0146
  184SOL     OW 1992   0.903   0.331   1.222  0.4834 -0.4603  1.0117
  184SOL    HW1 1993   0.965   0.374   1.282 -0.7060  1.2630  1.0803
  184SOL    HW2 1994   0.947   0.334   1.137  0.9710 -0.2832  1.2598
  185SOL     OW 1995   7.054   7.321   1.176  0.1461  0.1833  0.4870
  185SOL    HW1 1996   7.118   7.285   1.114 -0.4634  1.4349 -0.9386
  185SOL    HW2 1997   7.102   7.389   1.223  0.1011  0.5488  0.0106
  186SOL     OW 1998   1.798   2.182   0.039 -0.3001 -0.4315 -0.4794
  186SOL    HW1 1999   1.788   2.105  -0.018  0.4543  0.9192 -2.5704
  186SOL    HW2 2000   1.711   2.221   0.040 -0.7876 -1.4973  0.9282
  187SOL     OW 2001   6.037   0.760  12.493  0.1522 -0.2744  0.2288
  187SOL    HW1 2002   5.992   0.831  12.447 -0.3098 -1.7525 -1.7644
  187SOL    HW2 2003   5.991   0.752  12.576 -1.8480 -0.2463 -0.8082
  188SOL     OW 2004   2.794   2.290   1.647 -0.0402  1.0768 -0.3380
  188SOL    HW1 2005   2.772   2.300   1.555 -2.4397  2.3815  0.2855
  188SOL    HW2 2006   2.834   2.373   1.672 -1.5376  1.6433  0.2843
  189SOL     OW 2007   7.523   2.508   2.193  0.0165 -0.2161  0.1571
  189SOL    HW1 2008   7.532   2.413   2.192 -1.7758 -0.4045 -0.1065
  189SOL    HW2 2009   7.440   2.526   2.150  0.2075  1.4742  0.3878
  190SOL     OW 2010   2.493   7.580   0.002 -0.5397  0.1715 -0.3431
  190SOL    HW1 2011   2.497   7.531   0.084  0.6812  1.3101  0.3151
  190SOL    HW2 2012   2.559   7.539  -0.053  0.4864  1.0300  0.2096
  191SOL     OW 2013   0.766   0.782   2.790 -0.3084  0.1703  0.0930
  191SOL    HW1 2014   0.804   0.867   2.811 -0.5437  0.8541 -2.0655
  191SOL    HW2 2015   0.672   0.798   2.786 -0.2287  0.4283 -2.5954
  192SOL     OW 2016   1.192   0.563   0.053 -0.2173  1.1055 -0.1277
  192SOL    HW1 2017   1.174   0.474   0.023  1.6330  1.1182 -1.4429
  192SOL    HW2 2018   1.142   0.572   0.134 -1.0600 -0.8429 -0.3812
  193SOL     OW 2019   1.523   1.524   2.258 -0.2149  0.1800  0.5385
  193SOL    HW1 2020   1.436   1.484   2.258 -0.2057  0.1450  1.2301
  193SOL    HW2 2021   1.513   1.604   2.310 -0.4204  1.5395 -1.4689
  194SOL     OW 2022   2.533   1.602   2.563  0.0972 -0.0561 -0.4566
  194SOL    HW1 2023   2.505   1.512   2.551 -1.0437  0.4333 -1.7162
  194SOL    HW2 2024   2.454   1.647   2.594  1.3089  0.0289  2.8872
  195SOL     OW 2025   1.442   0.235   0.570 -0.0368 -0.4895  0.3365
  195SOL    HW1 2026   1.499   0.168   0.608 -0.5513 -1.3031 -0.2923
  195SOL    HW2 2027   1.498   0.312   0.563  1.2510 -1.4768 -0.9815
  196SOL     OW 2028   0.080   3.539   3.006  0.0157  0.0789  0.0324
  196SOL    HW1 2029   0.001   3.590   2.990 -1.4948 -1.6240  1.5924
  196SOL    HW2 2030   0.094   3.490   2.925  0.5262  1.6550 -0.8747
  197SOL     OW 2031   2.935   1.322   0.548 -0.2542  0.4480 -0.1794
  197SOL    HW1 2032   2.853   1.291   0.509  0.8536 -0.9379 -1.5098
  197SOL    HW2 2033   2.907   1.389   0.611 -2.3547  0.4837 -1.0504
  198SOL     OW 2034   5.128   0.873   1.237 -0.2033  0.2171  0.2846
  198SOL    HW1 2035   5.189   0.804   1.208 -1.0351 -0.3393 -0.1987
  198SOL    HW2 2036   5.147   0.884   1.330  1.2266  0.6756 -0.0386
  199SOL     OW 2037   1.169   2.716   1.885 -0.0817 -0.3378  0.0402
  199SOL    HW1 2038   1.232   2.774   1.843  1.2854 -1.0620  1.0039
  199SOL    HW2 2039   1.124   2.672   1.813 -0.0013  0.7148 -0.6677
  200SOL     OW 2040   1.087   7.031   0.483  0.4613  0.3414  0.7483
  200SOL    HW1 2041   1.131   7.068   0.560  1.3683 -0.8285  0.8203
  200SOL    HW2 2042   1.156   7.022   0.418 -0.0930  0.3664  0.1496
  201SOL     OW 2043   0.918   6.915   1.109 -0.3227 -0.0409 -0.5726
  201SOL    HW1 2044   0.944   6.942   1.197 -0.2684  1.9936 -1.1406
  201SOL    HW2 2045   0.978   6.844   1.087 -0.2572 -0.5085  0.9624
  202SOL     OW 2046   0.414   2.627   1.580 -0.1905  0.0491 -0.3728
  202SOL    HW1 2047   0.420   2.691   1.509  0.2932  0.9308  0.4383
  202SOL    HW2 2048   0.442   2.675   1.658 -1.7212 -0.5928  0.6203
  203SOL     OW 2049   7.949   1.676   2.972 -0.1878  0.1349  0.2787
  203SOL    HW1 2050   8.019   1.740   2.985 -0.0575  0.1468 -0.4525
  203SOL    HW2 2051   7.917   1.657   3.061  0.5794  0.3080  0.5993
  204SOL     OW 2052   0.812   0.443   0.968 -0.1853 -0.0219  0.4296
  204SOL    HW1 2053   0.891   0.391   0.983  0.5976  0.7869 -0.6198
  204SOL    HW2 2054   0.792   0.429   0.875  0.2184  1.6957  0.0350
  205SOL     OW 2055   0.040   2.318   0.996  0.1995  0.2642 -0.4563
  205SOL    HW1 2056  -0.049   2.311   1.032  0.5547  0.0919  0.3920
  205SOL    HW2 2057   0.047   2.244   0.936  0.6410 -1.2720  1.3795
  206SOL     OW 2058   0.225   1.900  11.443  0.3293  0.1278  0.2244
  206SOL    HW1 2059   0.303   1.940  11.483  0.6506 -0.0027 -0.2691
  206SOL    HW2 2060   0.258   1.823  11.397 -0.1757 -0.2450  0.4748
  207SOL     OW 2061   1.675   2.077   0.941  0.1540  0.3479  0.0114
  207SOL    HW1 2062   1.590   2.063   0.983 -0.2662  1.3666 -0.4763
  207SOL    HW2 2063   1.707   2.159   0.979  0.0010  1.0145 -1.2671
  208SOL     OW 2064   2.781   7.184  12.009 -0.8458  0.2045 -0.1865
  208SOL    HW1 2065   2.854   7.242  12.026 -0.4121 -0.6447  0.9965
  208SOL    HW2 2066   2.808   7.099  12.045 -1.8531 -0.4863 -0.9672
  209SOL     OW 2067   1.208   0.067   1.412 -0.0427 -0.1026 -0.8207
  209SOL    HW1 2068   1.287   0.080   1.359  1.2503 -0.8608  0.8542
  209SOL    HW2 2069   1.214   0.132   1.481 -0.1869 -1.0374  0.0898
  210SOL     OW 2070   1.268   1.774  12.255  0.1475 -0.4668  0.4995
  210SOL    HW1 2071   1.272   1.864  12.288 -1.0830  0.0564 -0.6905
  210SOL    HW2 2072   1.182   1.743  12.281  0.5593 -1.3154  0.8885
  211SOL     OW 2073   2.152   6.948   0.469 -0.2806  0.4112 -0.5032
  211SOL    HW1 2074   2.188   7.029   0.503 -2.3363  0.9871  0.4599
  211SOL    HW2 2075   2.215   6.881   0.495  0.2327  1.3850  0.8899
  212SOL     OW 2076   0.131   0.647   1.700 -0.2183  0.0000 -0.8063
  212SOL    HW1 2077   0.133   0.740   1.676 -0.9622  0.3368  0.2992
  212SOL    HW2 2078   0.109   0.648   1.794  1.7426 -1.2374 -0.2834
  213SOL     OW 2079   1.621   7.741   0.830 -0.2367  0.4429 -0.5538
  213SOL    HW1 2080   1.596   7.826   0.794 -0.8607  0.3638 -0.3160
  213SOL    HW2 2081   1.579   7.677   0.773 -1.1779  0.3164  0.2537
  214SOL     OW 2082   7.666   1.346   1.301  0.0561 -0.1178 -0.0785
  214SOL    HW1 2083   7.616   1.359   1.220 -0.1374 -1.1717 -0.1366
  214SOL    HW2 2084   7.618   1.278   1.347  1.0546 -0.6362  0.1997
  215SOL     OW 2085   0.932   3.237   1.610 -0.3716  0.0027 -0.3487
  215SOL    HW1 2086   0.912   3.279   1.694  0.3823  0.0777 -0.2022
  215SOL    HW2 2087   0.940   3.144   1.631  0.9778  0.1552 -0.1103
  216SOL     OW 2088   0.980   7.253   0.191 -0.6185 -0.0987 -0.0274
  216SOL    HW1 2089   0.929   7.334   0.195  0.7384  0.7537  1.3914
  216SOL    HW2 2090   1.028   7.251   0.274  0.7423 -1.4345 -0.7936
  217SOL     OW 2091   7.728   0.413   0.919  0.5104 -0.8869  0.1774
  217SOL    HW1 2092   7.665   0.430   0.989  0.9316 -1.2799  0.6593
  217SOL    HW2 2093   7.804   0.467   0.941  0.0462  0.2318 -0.8484
  218SOL     OW 2094   2.872   7.386  12.245  0.1892  0.1706  0.2326
  218SOL    HW1 2095   2.922   7.311  12.279 -1.5192 -0.3599  1.7043
  218SOL    HW2 2096   2.858   7.442  12.321 -0.5927  0.8063 -0.3677
  219SOL     OW 2097   0.112   1.299  12.111  0.6835 -0.6376  0.5525
  219SOL    HW1 2098   0.027   1.281  12.070  1.2465 -0.6348 -0.6593
  219SOL    HW2 2099   0.154   1.213  12.116  1.1898 -0.4464 -0.2234
  220SOL     OW 2100   7.481   2.520   2.595  0.3965  0.6137  0.2839
  220SOL    HW1 2101   7.564   2.490   2.558  0.3065  0.1576  0.4445
  220SOL    HW2 2102   7.487   2.498   2.688  0.2801  0.9936  0.3827
  221SOL     OW 2103   2.710   1.318   1.550  0.1584  0.1009  0.6485
  221SOL    HW1 2104   2.787   1.347   1.503  0.1325 -1.8189 -0.7160
  221SOL    HW2 2105   2.743   1.289   1.635  0.9139 -0.3360  0.2198
  222SOL     OW 2106   7.111   1.082   0.739  0.4550 -0.0530  0.3905
  222SOL    HW1 2107   7.066   1.035   0.810  0.4021  0.3496  0.6231
  222SOL    HW2 2108   7.201   1.049   0.743  0.1939 -0.8549 -0.0728
  223SOL     OW 2109   1.551   0.751   2.774 -0.6434  0.4845  0.3332
  223SOL    HW1 2110   1.487   0.699   2.726 -0.4063  1.2140 -0.8098
  223SOL    HW2 2111   1.551   0.836   2.731 -0.9009  1.4163  2.0549
  224SOL     OW 2112   7.937   1.312   1.313 -0.1045  0.5659  0.1914
  224SOL    HW1 2113   7.845   1.336   1.311 -0.3956 -0.2910  1.6022
  224SOL    HW2 2114   7.983   1.388   1.278 -1.2851  1.3620  0.3398
  225SOL     OW 2115   1.101   1.942   1.797  0.1172 -0.2867 -0.0315
  225SOL    HW1 2116   1.048   1.901   1.865  1.9236 -1.2960  0.8440
  225SOL    HW2 2117   1.064   1.910   1.715 -1.5236  0.2312  0.4785
  226SOL     OW 2118   1.104   0.064   3.165  0.6877  0.5563 -1.1214
  226SOL    HW1 2119   1.037   0.070   3.233  1.0921 -0.1118 -0.6536
  226SOL    HW2 2120   1.125  -0.029   3.160  0.7300  0.6097 -2.1055
  227SOL     OW 2121   1.749   1.121   0.696 -0.7391  0.2888 -0.2113
  227SOL    HW1 2122   1.691   1.073   0.755 -0.6086 -0.6765 -0.8442
  227SOL    HW2 2123   1.711   1.209   0.691 -1.3542  0.0699  0.4681
  228SOL     OW 2124   0.547   0.276   2.484 -0.3097  0.3812  0.0166
  228SOL    HW1 2125   0.535   0.356   2.433 -0.7242 -1.2051 -2.5696
  228SOL    HW2 2126   0.636   0.283   2.520 -0.0104  1.6208 -0.8975
  229SOL     OW 2127   2.455   2.305   2.000  0.1237  0.0578 -0.1815
  229SOL    HW1 2128   2.457   2.211   1.984  2.2732 -0.1564  0.9722
  229SOL    HW2 2129   2.371   2.334   1.964 -0.3184 -2.1811 -1.1061
  230SOL     OW 2130   0.475   1.901   1.740  0.0512  0.0740  0.2935
  230SOL    HW1 2131   0.556   1.877   1.693  0.3543  0.1034  0.8003
  230SOL    HW2 2132   0.430   1.817   1.753  0.6413 -0.1119  1.1920
  231SOL     OW 2133   2.543   1.469   2.274  0.6387  0.2624 -1.0330
  231SOL    HW1 2134   2.487   1.461   2.198 -0.7766 -0.0083 -0.0005
  231SOL    HW2 2135   2.539   1.562   2.297 -0.2944  0.0572 -0.3165
  232SOL     OW 2136   1.511   0.592   1.736 -0.1117  0.1822 -0.1728
  232SOL    HW1 2137   1.595   0.612   1.695  0.2452  0.4439  0.6683
  232SOL    HW2 2138   1.479   0.515   1.689 -1.4078  2.4626 -3.3563
  233SOL     OW 2139   1.966   0.234   2.688  0.1194  0.0011 -0.4133
  233SOL    HW1 2140   1.894   0.246   2.750  0.1493 -0.0495 -0.3700
  233SOL    HW2 2141   1.926   0.186   2.615  0.5321 -1.5770  0.3738
  234SOL     OW 2142   2.804   0.476   1.260  0.0134  0.2100  0.3684
  234SOL    HW1 2143   2.832   0.446   1.347 -0.5728  0.1089  0.5250
  234SOL    HW2 2144   2.884   0.509   1.219  0.3214  0.1154  0.8889
  235SOL     OW 2145   2.173   1.274   0.527  0.3480  0.1905 -0.2164
  235SOL    HW1 2146   2.124   1.329   0.589 -2.4718 -2.5404  0.2092
  235SOL    HW2 2147   2.168   1.322   0.445 -1.5397  0.9105  0.2528
  236SOL     OW 2148   7.780   7.331   0.763  0.2081 -0.0449 -0.7825
  236SOL    HW1 2149   7.721   7.360   0.693  0.1161 -0.8011 -1.0302
  236SOL    HW2 2150   7.852   7.394   0.762  0.1600  0.0054 -1.4962
  237SOL     OW 2151   1.034   2.482   0.121 -0.4463 -0.8730  0.4250
  237SOL    HW1 2152   1.108   2.542   0.129 -1.1680  0.2006 -0.7550
  237SOL    HW2 2153   1.053   2.430   0.043 -1.6750  0.5424 -0.8845
  238SOL     OW 2154   2.178   7.985   0.738 -0.1669 -0.0395 -0.4391
  238SOL    HW1 2155   2.209   7.895   0.739 -0.3376 -0.0936  0.2134
  238SOL    HW2 2156   2.100   7.985   0.793 -0.8563  0.2680 -1.3988
  239SOL     OW 2157   0.986   1.802   0.597  0.0431 -0.0973 -0.0913
  239SOL    HW1 2158   0.917   1.740   0.574  1.1168 -1.2581 -0.3198
  239SOL    HW2 2159   1.017   1.774   0.683  0.2926  0.3513 -0.0309
  240SOL     OW 2160   2.103   1.377   0.292  0.3123 -0.3935  0.1031
  240SOL    HW1 2161   2.022   1.420   0.321  0.3286 -0.3785  0.1266
  240SOL    HW2 2162   2.135   1.433   0.221  0.5300 -0.1633  0.3816
  241SOL     OW 2163   7.088   1.118   3.548 -0.0895 -0.1167  0.1699
  241SOL    HW1 2164   7.145   1.194   3.561 -0.0259 -0.0162 -0.6682
  241SOL    HW2 2165   7.145   1.043   3.564 -0.3316 -0.0076  1.7492
  242SOL     OW 2166   0.689   1.219   1.138 -0.4035 -0.2319 -0.4308
  242SOL    HW1 2167   0.605   1.222   1.092 -1.3721  1.7284  1.2613
  242SOL    HW2 2168   0.667   1.186   1.225  0.5918  0.2344  0.0121
  243SOL     OW 2169   1.666   0.799   0.598 -0.4499 -0.6491  0.1286
  243SOL    HW1 2170   1.710   0.846   0.527  0.2056 -0.5316  0.5993
  243SOL    HW2 2171   1.661   0.708   0.567 -0.2403 -0.5831 -0.1039
  244SOL     OW 2172   0.574   2.720   1.788 -0.1576  0.2645  0.0504
  244SOL    HW1 2173   0.632   2.731   1.864 -1.1292  0.7256  0.7571
  244SOL    HW2 2174   0.597   2.792   1.730 -1.1348  1.4806  1.0966
  245SOL     OW 2175   1.378   0.150   2.247 -0.0398 -0.3700 -0.0227
  245SOL    HW1 2176   1.315   0.162   2.318  0.1508  1.6860 -0.1523
  245SOL    HW2 2177   1.448   0.097   2.285 -0.6053 -0.4883  0.8871
  246SOL     OW 2178   0.947   0.709   0.928  0.3180  0.1314 -0.0788
  246SOL    HW1 2179   0.879   0.642   0.936 -0.6914  0.8755 -1.6522
  246SOL    HW2 2180   1.023   0.662   0.894  0.5458 -0.6751  1.4668
  247SOL     OW 2181   2.371   0.590   1.079  0.2180  0.1222  0.4019
  247SOL    HW1 2182   2.407   0.631   1.000  0.2252 -1.9452 -0.7395
  247SOL    HW2 2183   2.280   0.571   1.057  0.4345 -1.1901  0.5625
  248SOL     OW 2184   0.868   1.220  11.720  0.7882  0.0279 -0.1096
  248SOL    HW1 2185   0.787   1.246  11.764  1.2268  1.6186 -0.1794
  248SOL    HW2 2186   0.894   1.139  11.764 -0.3229  0.0110  0.5673
  249SOL     OW 2187   0.290   2.126   2.720 -0.2336 -0.2272  0.0050
  249SOL    HW1 2188   0.335   2.113   2.803  0.2007  2.4523  0.2804
  249SOL    HW2 2189   0.205   2.164   2.744  0.4666  1.9811 -0.7451
  250SOL     OW 2190   1.739   7.849   1.553  0.3731 -0.5040 -0.0214
  250SOL    HW1 2191   1.671   7.889   1.499  1.0332  0.4002 -0.2021
  250SOL    HW2 2192   1.817   7.901   1.536  0.3984  0.4244  2.5495
  251SOL     OW 2193   0.681   0.533   2.869  0.7316 -0.2227  0.1558
  251SOL    HW1 2194   0.725   0.618   2.859  3.7749 -1.7957 -0.9863
  251SOL    HW2 2195   0.718   0.496   2.949 -0.2758 -0.6772  0.4255
  252SOL     OW 2196   0.882   0.653   2.243 -0.7744  0.2366 -0.4977
  252SOL    HW1 2197   0.955   0.705   2.277 -0.8006  0.5347 -0.8835
  252SOL    HW2 2198   0.814   0.660   2.310 -0.7136  0.5633 -0.4682
  253SOL     OW 2199   6.850   1.591   1.976 -0.6262  0.3049 -0.1780
  253SOL    HW1 2200   6.814   1.605   1.889 -2.1420 -0.4062  0.2863
  253SOL    HW2 2201   6.809   1.510   2.006  0.3927  0.1635  0.9301
  254SOL     OW 2202   1.743   3.138   1.230 -0.3316  0.2950  0.3303
  254SOL    HW1 2203   1.802   3.097   1.293 -1.4565 -2.7640 -0.4105
  254SOL    HW2 2204   1.734   3.073   1.160 -2.4060  1.8110 -0.9243
  255SOL     OW 2205   2.802   1.560   3.317 -0.0394  0.3310 -0.5972
  255SOL    HW1 2206   2.783   1.654   3.322 -0.3049  0.2935 -0.8675
  255SOL    HW2 2207   2.895   1.556   3.295  1.0005  0.5192  3.1735
  256SOL     OW 2208   7.515   1.358   3.307  0.2626 -0.1037 -0.3621
  256SOL    HW1 2209   7.496   1.443   3.348  0.4903  0.7466 -1.9367
  256SOL    HW2 2210   7.609   1.346   3.318  0.2546 -0.0787 -0.2666
  257SOL     OW 2211   2.737   7.384   3.880  0.6940  0.0944 -0.0995
  257SOL    HW1 2212   2.830   7.405   3.868  0.4778  1.8075  0.8682
  257SOL    HW2 2213   2.695   7.417   3.800  0.8199  0.0413 -0.1885
  258SOL     OW 2214   1.480   2.472   4.848 -0.7122 -0.8632  0.0535
  258SOL    HW1 2215   1.572   2.480   4.873 -1.2759 -0.4678  2.1480
  258SOL    HW2 2216   1.481   2.474   4.752  1.4258 -0.6813  0.0362
  259SOL     OW 2217   1.506   1.998   3.650 -0.0068  0.5298 -0.0736
  259SOL    HW1 2218   1.478   1.980   3.560  0.5131  2.5011 -0.6924
  259SOL    HW2 2219   1.427   1.989   3.703 -0.4906  0.1188 -0.8545
  260SOL     OW 2220   1.528   0.756   1.210  0.0912 -0.3563 -0.3686
  260SOL    HW1 2221   1.601   0.747   1.148  0.4970 -0.0166  0.0506
  260SOL    HW2 2222   1.567   0.798   1.287  0.0168 -2.4019  0.8459
  261SOL     OW 2223   0.279   0.198   2.294  0.1391  0.4730 -0.4169
  261SOL    HW1 2224   0.309   0.227   2.380 -0.5162  0.9903 -0.3603
  261SOL    HW2 2225   0.215   0.264   2.266  0.1095  0.1452 -1.1623
  262SOL     OW 2226   1.405   1.176   4.956  0.1988 -0.0285 -0.4627
  262SOL    HW1 2227   1.345   1.102   4.953  1.1588 -0.8309 -0.4258
  262SOL    HW2 2228   1.349   1.253   4.964 -0.7970 -0.7904  0.0066
  263SOL     OW 2229   2.153   1.151   4.180  0.3628  0.0381  0.3057
  263SOL    HW1 2230   2.163   1.058   4.161  1.6328  0.0541  0.7739
  263SOL    HW2 2231   2.140   1.192   4.095  0.1053 -0.5310  0.0668
  264SOL     OW 2232   7.712   2.348   3.034 -0.1678  0.2583 -0.4825
  264SOL    HW1 2233   7.772   2.282   3.068 -1.4813 -1.4289 -1.2407
  264SOL    HW2 2234   7.704   2.412   3.105 -0.1102 -1.2850  0.9903
  265SOL     OW 2235   1.241   2.081   4.463 -0.4227 -0.3265  0.1418
  265SOL    HW1 2236   1.156   2.094   4.420 -0.4502 -0.9712 -0.0039
  265SOL    HW2 2237   1.297   2.149   4.424 -0.3212 -1.1868 -1.2802
  266SOL     OW 2238   0.050   2.194   2.796  0.4342  0.3119  0.2302
  266SOL    HW1 2239  -0.035   2.156   2.774  1.2542 -1.1991 -0.5123
  266SOL    HW2 2240   0.032   2.286   2.814 -1.0416  0.5518 -2.0754
  267SOL     OW 2241   2.441   7.720   4.197 -0.4031 -0.1883  0.1991
  267SOL    HW1 2242   2.470   7.810   4.213 -1.2645  0.3395 -1.0265
  267SOL    HW2 2243   2.442   7.678   4.283 -0.7396  1.2227  0.9190
  268SOL     OW 2244   1.069   1.176   3.648 -0.2622 -0.3458  0.2312
  268SOL    HW1 2245   1.049   1.083   3.653  0.3742 -0.4921  0.1554
  268SOL    HW2 2246   1.069   1.206   3.739  0.4187 -0.6198  0.3282
  269SOL     OW 2247   7.972   2.485   3.198 -0.3267 -0.3475  0.2220
  269SOL    HW1 2248   8.065   2.487   3.220 -0.2224  0.3580 -0.2279
  269SOL    HW2 2249   7.934   2.424   3.260  0.1088  0.8352  1.7233
  270SOL     OW 2250   1.369   2.752   3.927 -0.4560  0.0366  0.3688
  270SOL    HW1 2251   1.301   2.697   3.964  0.8950 -2.6395 -0.8636
  270SOL    HW2 2252   1.443   2.743   3.987  0.8891 -2.3208 -1.4666
  271SOL     OW 2253   7.392   1.403   1.439 -0.1339 -0.7341 -0.6629
  271SOL    HW1 2254   7.330   1.431   1.371  1.2459  0.0233 -1.6443
  271SOL    HW2 2255   7.447   1.479   1.455  1.2815 -1.7170 -0.6611
  272SOL     OW 2256   7.995   2.477   2.895 -0.1014  0.3157  0.3319
  272SOL    HW1 2257   8.004   2.459   2.989  1.3500  0.8461  0.3140
  272SOL    HW2 2258   7.904   2.508   2.886 -0.9659 -1.7630  1.1935
  273SOL     OW 2259   1.107   3.583   3.564 -0.4504 -0.2020 -0.2140
  273SOL    HW1 2260   1.087   3.502   3.518 -1.8799 -0.6363  1.0950
  273SOL    HW2 2261   1.045   3.647   3.529  1.1467  0.5909 -1.7737
  274SOL     OW 2262   2.837   0.652   2.466  0.2497  0.3312  0.0833
  274SOL    HW1 2263   2.782   0.622   2.538 -2.2975  0.5987 -1.6193
  274SOL    HW2 2264   2.876   0.734   2.497  1.7065 -1.0536  2.1931
  275SOL     OW 2265   2.366   5.376   4.138 -0.5761 -0.4169  0.2050
  275SOL    HW1 2266   2.382   5.303   4.197  0.7383  0.3816  0.8794
  275SOL    HW2 2267   2.402   5.453   4.183  1.7702  0.0124 -2.1668
  276SOL     OW 2268   7.913   1.978   3.392 -0.6169 -0.6000 -0.3494
  276SOL    HW1 2269   7.909   2.056   3.447  0.0909 -0.4349 -0.5182
  276SOL    HW2 2270   7.895   1.905   3.451 -0.5647 -0.3645 -0.0430
  277SOL     OW 2271   2.434   1.135   3.467  0.0185 -0.0205 -0.2873
  277SOL    HW1 2272   2.343   1.160   3.450  0.3272  2.7257  1.3205
  277SOL    HW2 2273   2.485   1.186   3.404  0.4926 -2.6215 -2.1565
  278SOL     OW 2274   0.242   0.549   2.294 -0.2977  0.6113 -0.0190
  278SOL    HW1 2275   0.213   0.593   2.213  0.2140  0.3437 -0.3503
  278SOL    HW2 2276   0.237   0.617   2.361  0.5137  1.1947 -0.5305
  279SOL     OW 2277   2.275   1.855   4.051  0.4369 -0.4311 -0.3295
  279SOL    HW1 2278   2.280   1.886   3.960  0.4921  1.5045  0.3073
  279SOL    HW2 2279   2.338   1.909   4.098  1.5286 -2.4373  0.6332
  280SOL     OW 2280   1.179   0.161   2.495  0.2510  0.1156 -0.3144
  280SOL    HW1 2281   1.153   0.246   2.459 -0.6882 -0.5912 -1.4170
  280SOL    HW2 2282   1.096   0.120   2.520  0.6218 -0.7387 -0.4544
  281SOL     OW 2283   0.395   0.475   2.842 -0.1099 -0.0471  0.2270
  281SOL    HW1 2284   0.471   0.467   2.899 -0.3038  0.1631  0.5212
  281SOL    HW2 2285   0.324   0.434   2.892 -0.1286 -0.4961 -0.1650
  282SOL     OW 2286   0.947   2.200   1.702 -0.1047  0.4032 -0.0550
  282SOL    HW1 2287   0.985   2.130   1.755  0.0085 -0.1384 -0.8366
  282SOL    HW2 2288   0.954   2.278   1.757  2.6131  0.4442 -0.3305
  283SOL     OW 2289   1.227   0.614   4.651 -0.8217 -0.0038  0.0379
  283SOL    HW1 2290   1.197   0.629   4.740 -1.0317 -0.4401  0.0447
  283SOL    HW2 2291   1.146   0.611   4.599 -0.7200 -0.0645 -0.1177
  284SOL     OW 2292   0.948   7.871   2.755 -0.1142  0.2279  0.4001
  284SOL    HW1 2293   0.861   7.896   2.785 -1.0013  0.2382 -1.9053
  284SOL    HW2 2294   0.962   7.925   2.677  2.5922  1.2467  1.4850
  285SOL     OW 2295   2.020   0.844   5.069  0.7062  0.1645 -0.3419
  285SOL    HW1 2296   1.987   0.882   5.150  1.2715  1.7808 -0.8355
  285SOL    HW2 2297   2.065   0.764   5.097 -0.2073  0.0161  0.7687
  286SOL     OW 2298   6.906   0.749   1.553  0.0319 -0.5925 -0.1523
  286SOL    HW1 2299   6.962   0.672   1.557  0.4407 -0.2517  1.2104
  286SOL    HW2 2300   6.908   0.785   1.642 -0.8396  0.4964 -0.5486
  287SOL     OW 2301   1.661   7.638   2.932 -0.2399  0.1866 -0.0285
  287SOL    HW1 2302   1.648   7.709   2.995 -0.3536 -0.3556  0.5630
  287SOL    HW2 2303   1.690   7.683   2.852  0.7423  0.8159  0.6555
  288SOL     OW 2304   7.359   7.995   4.427 -0.0833  0.1278 -0.2337
  288SOL    HW1 2305   7.382   8.075   4.381  0.1502 -0.3909 -1.0285
  288SOL    HW2 2306   7.440   7.968   4.470 -0.6652  1.4810  1.8907
  289SOL     OW 2307   0.360   1.595   2.370 -0.1224  0.4338  0.2206
  289SOL    HW1 2308   0.325   1.557   2.289  1.0837  2.3514 -1.2831
  289SOL    HW2 2309   0.421   1.529   2.403 -2.8532 -1.7339  1.3620
  290SOL     OW 2310   1.479   2.344   3.788  0.0624 -0.0787  0.3333
  290SOL    HW1 2311   1.502   2.390   3.707 -1.1758 -2.4843 -1.5179
  290SOL    HW2 2312   1.553   2.284   3.803  0.2632  0.3240  0.9821
  291SOL     OW 2313   2.526   0.323   1.937  0.1611 -0.0903 -0.2850
  291SOL    HW1 2314   2.558   0.283   2.018  0.1035  1.8755  0.7642
  291SOL    HW2 2315   2.566   0.410   1.935  0.3057 -0.1535 -2.4943
  292SOL     OW 2316   7.864   0.798   2.547 -0.4576 -0.5872 -0.7738
  292SOL    HW1 2317   7.806   0.838   2.612 -0.2389 -0.2566 -0.7820
  292SOL    HW2 2318   7.916   0.734   2.597 -0.0931 -0.1356 -0.5701
  293SOL     OW 2319   2.192   2.027   2.501 -0.3228  0.1681 -0.2212
  293SOL    HW1 2320   2.282   2.023   2.535  0.2903  1.4167 -1.5949
  293SOL    HW2 2321   2.145   2.082   2.564 -1.1782 -3.3159  2.5243
  294SOL     OW 2322   1.339   0.485   5.073 -0.0918 -0.3618  0.1666
  294SOL    HW1 2323   1.402   0.554   5.052 -1.4599  1.0848  0.5949
  294SOL    HW2 2324   1.357   0.416   5.009  0.1143  1.1747 -1.5296
  295SOL     OW 2325   1.241   7.626   3.911  0.5170 -0.3095  0.7258
  295SOL    HW1 2326   1.157   7.624   3.866  0.4179 -3.2469  0.9062
  295SOL    HW2 2327   1.231   7.568   3.986  2.6717 -0.7353  0.7689
  296SOL     OW 2328   0.195   7.740   2.141 -0.4895  0.4567  0.1512
  296SOL    HW1 2329   0.247   7.711   2.066 -0.4819  0.1226  0.2850
  296SOL    HW2 2330   0.251   7.801   2.188  0.2801 -0.8448  1.0007
  297SOL     OW 2331   2.483   7.988   3.538 -0.0040 -0.5870 -0.2020
  297SOL    HW1 2332   2.557   7.980   3.478 -0.6536 -0.2143 -1.0763
  297SOL    HW2 2333   2.448   8.076   3.521  0.0656 -0.2948  1.0473
  298SOL     OW 2334   1.649   2.550   1.423 -0.2578  0.3128 -0.2170
  298SOL    HW1 2335   1.700   2.515   1.496  1.7424  3.2333 -0.0334
  298SOL    HW2 2336   1.711   2.554   1.350 -0.7822  1.9655 -0.6189
  299SOL     OW 2337   7.821   1.208   3.996  0.6234 -0.6472  0.2201
  299SOL    HW1 2338   7.779   1.124   3.978  0.7129 -0.5506 -0.4494
  299SOL    HW2 2339   7.902   1.206   3.946  0.4719 -0.0256 -0.0631
  300SOL     OW 2340   7.295   1.153   3.829  0.3825 -0.0032 -0.4084
  300SOL    HW1 2341   7.330   1.084   3.772  0.5050  0.3786 -0.7971
  300SOL    HW2 2342   7.211   1.118   3.859  0.7454 -0.6008 -0.0741
  301SOL     OW 2343   1.581   1.167   2.431 -0.0089 -0.2643  0.4491
  301SOL    HW1 2344   1.503   1.193   2.480 -1.0166 -0.1645 -1.1547
  301SOL    HW2 2345   1.623   1.250   2.408 -1.6371 -0.0418 -2.1170
  302SOL     OW 2346   1.375   1.139   5.856 -0.2887  0.1458 -0.3273
  302SOL    HW1 2347   1.284   1.161   5.875 -0.7729 -0.8825 -1.3045
  302SOL    HW2 2348   1.408   1.099   5.937 -1.6126 -2.1202 -0.8283
  303SOL     OW 2349   7.070   7.702   2.774 -0.8595  0.5962  0.0913
  303SOL    HW1 2350   7.049   7.619   2.730 -1.5318  0.5958  0.3995
  303SOL    HW2 2351   7.165   7.704   2.778 -0.8266  0.0834 -0.3920
  304SOL     OW 2352   2.036   0.578   2.821  0.5520  0.2192 -0.4378
  304SOL    HW1 2353   1.957   0.576   2.767  0.8077 -0.1526 -0.8121
  304SOL    HW2 2354   2.057   0.671   2.829  1.1941  0.2579 -2.0378
  305SOL     OW 2355   0.737   2.526   1.966 -0.3473  0.1439 -0.7109
  305SOL    HW1 2356   0.750   2.613   2.003 -1.2928  0.5356 -1.2917
  305SOL    HW2 2357   0.756   2.536   1.873 -0.1800 -0.3473 -0.7345
  306SOL     OW 2358   0.714   2.822   3.490  0.2283  0.0288  0.2004
  306SOL    HW1 2359   0.711   2.831   3.586  0.2513  0.2697  0.1783
  306SOL    HW2 2360   0.804   2.795   3.472  0.3773  0.5145  0.2025
  307SOL     OW 2361   1.411   1.266   1.871  0.7232  0.2235 -0.4208
  307SOL    HW1 2362   1.409   1.175   1.900  1.4599 -0.3003 -1.9076
  307SOL    HW2 2363   1.489   1.303   1.912  1.5999 -0.4263 -1.4562
  308SOL     OW 2364   2.257   1.208   3.049  0.1675  0.3885  0.0859
  308SOL    HW1 2365   2.218   1.278   2.997 -0.1488 -1.3419 -2.2115
  308SOL    HW2 2366   2.346   1.200   3.015 -0.2747 -1.2620 -0.8611
  309SOL     OW 2367   6.914   7.058   1.027 -0.3987  0.0425  0.5994
  309SOL    HW1 2368   6.929   7.000   0.952  0.2944  0.5949  0.3032
  309SOL    HW2 2369   6.910   6.999   1.102 -0.2313 -0.4411  0.2355
  310SOL     OW 2370   1.107   7.481   3.595  0.1303  0.1591 -0.3201
  310SOL    HW1 2371   1.157   7.539   3.538 -0.8490 -0.2441 -1.6384
  310SOL    HW2 2372   1.046   7.539   3.641  1.4377  0.5875  0.9379
  311SOL     OW 2373   1.659   1.922   3.286  0.4965  0.0111  0.0538
  311SOL    HW1 2374   1.644   1.857   3.217 -1.3914  1.9877 -1.5302
  311SOL    HW2 2375   1.717   1.986   3.246  0.0950  0.7388  0.6158
  312SOL     OW 2376   1.369   1.999   1.899 -0.0913 -0.1248  0.5229
  312SOL    HW1 2377   1.279   1.976   1.875  0.3602  0.6799 -2.3732
  312SOL    HW2 2378   1.374   2.094   1.886  0.8805  0.0375  1.8562
  313SOL     OW 2379   7.164   0.889   2.374 -0.3591  0.4690  0.2249
  313SOL    HW1 2380   7.241   0.946   2.366 -0.4367  0.5287 -0.0690
  313SOL    HW2 2381   7.091   0.942   2.342 -0.2422 -0.2235 -1.2557
  314SOL     OW 2382   0.669   2.158   3.074 -0.2708  0.2475  0.8276
  314SOL    HW1 2383   0.574   2.161   3.065 -0.2491 -1.2884 -0.2934
  314SOL    HW2 2384   0.702   2.179   2.987  0.2907 -2.4100  0.3054
  315SOL     OW 2385   1.193   0.258   3.582  1.0408 -0.2470  0.1820
  315SOL    HW1 2386   1.209   0.183   3.640 -0.7698 -1.2495 -0.5293
  315SOL    HW2 2387   1.154   0.324   3.639  0.1965 -0.8549  0.3298
  316SOL     OW 2388   2.193   2.027   2.085  0.0746  0.1170  0.4231
  316SOL    HW1 2389   2.216   1.947   2.039  0.0478  0.9109 -1.0474
  316SOL    HW2 2390   2.098   2.023   2.094  0.1102 -0.1783  0.6886
  317SOL     OW 2391   7.243   3.509   4.014  0.1297  0.4645 -0.5491
  317SOL    HW1 2392   7.266   3.511   3.921  1.2155  3.1032 -0.3269
  317SOL    HW2 2393   7.210   3.597   4.031  0.1520  0.0923  1.6042
  318SOL     OW 2394   1.228   2.422   3.396 -0.0500  0.5300 -0.3107
  318SOL    HW1 2395   1.232   2.402   3.490 -0.2867  1.3124 -0.1321
  318SOL    HW2 2396   1.318   2.407   3.365  0.2672  1.2335  0.2400
  319SOL     OW 2397   7.193   0.614   1.553  0.0636  0.4839 -0.1280
  319SOL    HW1 2398   7.181   0.550   1.623 -0.0717  1.3189  0.6368
  319SOL    HW2 2399   7.202   0.698   1.599  0.0379  1.0397 -1.1102
  320SOL     OW 2400   1.968   0.144   5.348  0.3385 -0.6628 -0.2833
  320SOL    HW1 2401   1.873   0.142   5.338  0.4112  0.0228 -1.2554
  320SOL    HW2 2402   1.982   0.155   5.442 -0.5360 -0.8007 -0.1292
  321SOL     OW 2403   7.875   0.030   4.300  0.0850 -0.6272  0.3510
  321SOL    HW1 2404   7.867  -0.029   4.226 -1.1169 -1.0669  0.8077
  321SOL    HW2 2405   7.913  -0.023   4.370  1.0040 -0.2736  0.1389
  322SOL     OW 2406   0.783   1.155   3.248 -0.1891 -0.0552 -0.8046
  322SOL    HW1 2407   0.865   1.172   3.296  0.0492 -1.4691 -0.6726
  322SOL    HW2 2408   0.723   1.120   3.314  0.2197 -2.2571 -1.5041
  323SOL     OW 2409   0.127   1.167   2.045 -0.6462 -0.5044  0.0680
  323SOL    HW1 2410   0.081   1.239   2.087  0.4583 -0.6612  1.6310
  323SOL    HW2 2411   0.145   1.105   2.117  1.6145 -0.6216 -0.5384
  324SOL     OW 2412   0.648   1.960   4.843  0.6430 -0.0147  0.3526
  324SOL    HW1 2413   0.615   1.884   4.891  1.6760  0.2072  1.4904
  324SOL    HW2 2414   0.584   2.029   4.860 -0.4225 -0.6576 -0.8779
  325SOL     OW 2415   0.779   0.082   1.666  0.4592 -0.0412  0.1193
  325SOL    HW1 2416   0.832   0.151   1.625  0.4359 -0.5492 -0.8048
  325SOL    HW2 2417   0.735   0.126   1.739 -0.3414  1.2065 -1.0511
  326SOL     OW 2418   2.324   1.115   2.390 -0.1981 -0.1937 -0.2351
  326SOL    HW1 2419   2.348   1.066   2.469 -0.4640  2.4618  1.6332
  326SOL    HW2 2420   2.228   1.112   2.388 -0.2347  0.4859  0.0963
  327SOL     OW 2421   1.754   7.817   1.903  0.3179 -0.0620  0.0788
  327SOL    HW1 2422   1.826   7.841   1.844 -0.7367  1.2174 -0.7580
  327SOL    HW2 2423   1.778   7.731   1.936  3.7395  1.4648  2.1946
  328SOL     OW 2424   2.929   7.966   4.804 -0.2020  0.3267 -0.6220
  328SOL    HW1 2425   2.957   7.971   4.896  1.1355  0.0302 -0.9900
  328SOL    HW2 2426   2.862   7.898   4.804 -0.0682  0.1754  0.1062
  329SOL     OW 2427   5.617   6.815   1.612 -0.0585 -0.7576 -0.0908
  329SOL    HW1 2428   5.642   6.907   1.611  0.0845 -0.7990 -0.2872
  329SOL    HW2 2429   5.521   6.816   1.609 -0.0503 -0.6193 -0.3045
  330SOL     OW 2430   2.762   7.284   2.901 -0.1008  0.5858  0.8957
  330SOL    HW1 2431   2.707   7.356   2.872  0.1687  0.5865  0.3559
  330SOL    HW2 2432   2.789   7.241   2.819 -3.2685 -2.4442  1.2178
  331SOL     OW 2433   2.354   1.395   4.340 -0.3578 -0.4266 -0.6163
  331SOL    HW1 2434   2.318   1.331   4.402 -2.0392  0.2376 -0.8607
  331SOL    HW2 2435   2.363   1.346   4.259 -0.7098 -0.6168 -0.5463
  332SOL     OW 2436   7.949   0.141   3.310  0.1506 -0.2476  0.0117
  332SOL    HW1 2437   7.935   0.154   3.216 -2.2921  0.0104  0.3430
  332SOL    HW2 2438   7.927   0.226   3.349 -0.2519 -0.7559  0.9121
  333SOL     OW 2439   0.501   1.349   3.082 -0.3481 -0.1386  0.1101
  333SOL    HW1 2440   0.540   1.429   3.116 -0.0606 -0.8958  1.6008
  333SOL    HW2 2441   0.538   1.340   2.994  0.3073  0.8821  0.2667
  334SOL     OW 2442   3.266   1.951   3.386 -0.2149  0.4643  0.0707
  334SOL    HW1 2443   3.318   2.030   3.395 -0.9929  1.1498 -1.1462
  334SOL    HW2 2444   3.186   1.980   3.343 -0.6075 -0.9432 -0.1969
  335SOL     OW 2445   2.052   2.215   2.651  0.6768  0.3315 -0.2080
  335SOL    HW1 2446   1.987   2.246   2.588 -0.0828 -1.4307 -0.3412
  335SOL    HW2 2447   2.129   2.269   2.633  0.1008  0.6909 -1.8452
  336SOL     OW 2448   0.686   0.159   2.840  0.3211 -0.1999 -0.3329
  336SOL    HW1 2449   0.621   0.210   2.889  0.3037 -2.0434  1.7102
  336SOL    HW2 2450   0.771   0.190   2.872  0.4559  1.0462 -1.7918
  337SOL     OW 2451   1.765   7.828   4.034  0.0174 -0.5582 -0.1161
  337SOL    HW1 2452   1.838   7.800   3.979  1.2861 -1.1828  1.8131
  337SOL    HW2 2453   1.701   7.864   3.972  1.8538 -0.1652 -1.8745
  338SOL     OW 2454   1.230   1.451   1.825 -0.8032  0.0790  0.2474
  338SOL    HW1 2455   1.247   1.483   1.737 -2.5486  0.1048 -0.1090
  338SOL    HW2 2456   1.301   1.389   1.842 -1.3498 -1.1987 -1.8479
  339SOL     OW 2457   1.168   0.177   2.911 -0.3501 -0.2056 -0.2766
  339SOL    HW1 2458   1.084   0.223   2.908 -1.3525 -1.9579 -0.5310
  339SOL    HW2 2459   1.170   0.135   2.997  0.1556 -0.3830 -0.3708
  340SOL     OW 2460   1.276   0.374   4.220  0.3912 -0.1662 -0.0056
  340SOL    HW1 2461   1.349   0.421   4.260 -0.5941  1.0205  0.4688
  340SOL    HW2 2462   1.214   0.361   4.292  1.1556 -3.4271  0.2129
  341SOL     OW 2463   1.177   0.486   3.142 -0.1943 -0.5052  0.4973
  341SOL    HW1 2464   1.173   0.421   3.212  1.6450  0.0276  1.1468
  341SOL    HW2 2465   1.232   0.445   3.074  0.9393  0.3055  0.8904
  342SOL     OW 2466   2.673   0.191   4.156  0.1490  0.5035 -0.1237
  342SOL    HW1 2467   2.638   0.244   4.227 -0.8000 -0.7728  0.4104
  342SOL    HW2 2468   2.612   0.117   4.149  2.5603 -1.7316  0.7022
  343SOL     OW 2469   0.176   0.867   1.548  0.0600  0.3291  0.0516
  343SOL    HW1 2470   0.158   0.958   1.527  1.3565  0.3857 -0.9380
  343SOL    HW2 2471   0.269   0.855   1.526  0.3642 -0.7859  1.7464
  344SOL     OW 2472   1.683   1.255   2.879 -0.2438  0.2615  1.0449
  344SOL    HW1 2473   1.768   1.286   2.847 -0.7198  0.1101 -0.4409
  344SOL    HW2 2474   1.662   1.312   2.952 -0.2323  2.2860 -0.4468
  345SOL     OW 2475   1.664   1.960   2.290 -0.5858  0.6644  0.3866
  345SOL    HW1 2476   1.694   2.002   2.371  0.0801  1.3159 -0.1879
  345SOL    HW2 2477   1.676   1.866   2.307  1.4451  0.8677  0.3407
  346SOL     OW 2478   1.201   7.853   2.426  0.5567  0.4333 -0.2708
  346SOL    HW1 2479   1.220   7.947   2.432 -0.9925  0.7326  0.3442
  346SOL    HW2 2480   1.157   7.843   2.341  2.4401 -0.0884 -1.2310
  347SOL     OW 2481   7.791   0.928   3.261 -0.1454  0.1285 -0.4628
  347SOL    HW1 2482   7.801   0.964   3.349  1.9411 -0.8664 -0.2251
  347SOL    HW2 2483   7.697   0.925   3.247 -0.7136 -1.8572  2.6782
  348SOL     OW 2484   0.117   2.693   3.440  0.5097 -0.1057 -0.1053
  348SOL    HW1 2485   0.130   2.774   3.490  0.9193 -0.7476  0.8713
  348SOL    HW2 2486   0.044   2.649   3.483  1.3204 -1.0043  0.4116
  349SOL     OW 2487   2.511   0.485   4.259 -0.8705  0.4400  0.2480
  349SOL    HW1 2488   2.451   0.425   4.214 -0.0711 -1.1645  1.2472
  349SOL    HW2 2489   2.465   0.508   4.340 -0.3515 -0.4579  0.8156
  350SOL     OW 2490   1.632   0.894   4.047  0.2871  0.2367 -0.2908
  350SOL    HW1 2491   1.712   0.947   4.039  0.5833  0.0073  0.8951
  350SOL    HW2 2492   1.592   0.925   4.129  0.8064 -1.7664  0.7857
  351SOL     OW 2493   0.970   1.161   2.386  0.0152 -0.3478 -0.0133
  351SOL    HW1 2494   0.888   1.115   2.368 -0.2114  0.4930 -1.2474
  351SOL    HW2 2495   0.943   1.246   2.419  0.3987 -0.2643  0.0924
  352SOL     OW 2496   0.145   7.629   2.866  0.4608 -0.4538 -0.1731
  352SOL    HW1 2497   0.052   7.643   2.884  0.4155 -1.1042  0.1670
  352SOL    HW2 2498   0.166   7.547   2.912  1.4691  0.2646  0.7119
  353SOL     OW 2499   0.316   0.247   2.622  0.5563  0.4182 -0.6022
  353SOL    HW1 2500   0.297   0.234   2.715 -0.5999 -0.9491 -0.9864
  353SOL    HW2 2501   0.411   0.257   2.617  0.6633  0.1443  0.6927
  354SOL     OW 2502   0.561   0.869   2.264  0.1662  0.7341  0.2780
  354SOL    HW1 2503   0.528   0.859   2.175  0.3196  0.8371  0.2092
  354SOL    HW2 2504   0.492   0.832   2.320  0.2756  0.2294  0.0910
  355SOL     OW 2505   7.946   1.476   2.766  0.1840 -0.7693  0.1474
  355SOL    HW1 2506   8.012   1.505   2.704 -2.0094  0.7440 -1.6433
  355SOL    HW2 2507   7.943   1.545   2.832 -0.8965  0.1825 -0.8517
  356SOL     OW 2508   1.408   0.759   4.945  0.5772 -0.6885 -0.8152
  356SOL    HW1 2509   1.339   0.808   4.900  0.9780  0.0916 -0.5890
  356SOL    HW2 2510   1.488   0.807   4.924  0.8229 -0.5774  0.3577
  357SOL     OW 2511   0.433   1.244   3.579 -0.2646 -0.3153 -0.1147
  357SOL    HW1 2512   0.352   1.256   3.629 -1.1156  2.0534 -1.8560
  357SOL    HW2 2513   0.427   1.308   3.508  3.4687  0.4452  0.0475
  358SOL     OW 2514   7.351   1.683   1.942  0.5485  0.6601 -0.0046
  358SOL    HW1 2515   7.305   1.758   1.980 -1.0206  0.2141 -0.9442
  358SOL    HW2 2516   7.318   1.607   1.991  0.7056  0.3841 -0.3231
  359SOL     OW 2517   1.250   1.757   4.073  0.3532  0.0501  0.3409
  359SOL    HW1 2518   1.307   1.829   4.046  0.3915  0.5527  1.6851
  359SOL    HW2 2519   1.161   1.792   4.061  0.3489 -0.0679  0.0050
  360SOL     OW 2520   1.617   2.394   2.542  0.8273 -0.2387  0.3478
  360SOL    HW1 2521   1.712   2.388   2.543  0.7540 -3.5512  0.4127
  360SOL    HW2 2522   1.593   2.374   2.451  0.2134 -1.1924  0.6950
  361SOL     OW 2523   1.754   2.055   3.519 -0.2497 -0.2500 -0.1224
  361SOL    HW1 2524   1.740   1.990   3.450 -0.5973  0.6033 -0.8650
  361SOL    HW2 2525   1.685   2.038   3.582 -0.9337  0.0106 -0.7878
  362SOL     OW 2526   2.484   1.075   2.970  0.7935 -0.6706 -0.1389
  362SOL    HW1 2527   2.575   1.067   2.943  1.2340  0.4309  0.9711
  362SOL    HW2 2528   2.479   1.029   3.054  0.7619  0.7505  0.6735
  363SOL     OW 2529   0.551   1.779   2.757 -0.3354 -0.1200 -0.0027
  363SOL    HW1 2530   0.579   1.802   2.845 -0.8826  0.1913  0.0976
  363SOL    HW2 2531   0.463   1.815   2.750  0.3177  1.3248 -1.2497
  364SOL     OW 2532   0.562   0.555   2.361  0.2775  0.1964  0.0579
  364SOL    HW1 2533   0.496   0.624   2.368  1.7862  1.7150  0.0066
  364SOL    HW2 2534   0.626   0.576   2.428  1.1783 -0.6981 -0.4950
  365SOL     OW 2535   2.419   0.519   3.310  0.1329 -0.2352 -0.1978
  365SOL    HW1 2536   2.391   0.610   3.319 -1.4928 -0.8166  1.0318
  365SOL    HW2 2537   2.490   0.509   3.373 -0.2391 -0.0198  0.2630
  366SOL     OW 2538   2.337   6.152   2.799  0.4016 -0.5666 -0.4381
  366SOL    HW1 2539   2.389   6.178   2.723  0.2166  0.0311 -0.3699
  366SOL    HW2 2540   2.248   6.144   2.764 -0.2877  2.6535  0.2356
  367SOL     OW 2541   0.964   0.619   4.509 -0.1652  0.1725 -0.0565
  367SOL    HW1 2542   0.937   0.694   4.562  0.3968 -0.0122  0.4943
  367SOL    HW2 2543   0.895   0.553   4.524 -0.3744  0.3758 -0.1148
  368SOL     OW 2544   0.553   0.675   4.338  0.3971  0.2310  0.7128
  368SOL    HW1 2545   0.613   0.641   4.271 -0.7610 -0.5823  0.0651
  368SOL    HW2 2546   0.526   0.760   4.305  0.6219  0.2813  0.6540
  369SOL     OW 2547   1.933   7.785   3.198 -0.7592  0.8437 -0.2551
  369SOL    HW1 2548   1.852   7.770   3.247  0.2969 -0.8041  1.0764
  369SOL    HW2 2549   1.991   7.828   3.261  0.3827 -0.6730 -0.2317
  370SOL     OW 2550   1.890   7.844   0.834 -0.4506  0.1998 -0.2185
  370SOL    HW1 2551   1.948   7.784   0.881  0.9313  0.0801 -1.9810
  370SOL    HW2 2552   1.802   7.808   0.848  0.1556 -1.1391  0.3388
  371SOL     OW 2553   7.579   7.555   5.318  0.1182 -0.0464  0.4248
  371SOL    HW1 2554   7.668   7.519   5.320  0.1415  0.0009  0.2653
  371SOL    HW2 2555   7.586   7.641   5.360 -0.1332 -0.6480  1.7512
  372SOL     OW 2556   7.439   0.914   2.837 -0.1340 -0.0524 -0.3998
  372SOL    HW1 2557   7.410   0.948   2.921  0.7776  0.3839 -0.2520
  372SOL    HW2 2558   7.535   0.921   2.839 -0.1236  0.4903 -1.6800
  373SOL     OW 2559   0.037   1.360   3.021  0.7679  0.1181 -0.4731
  373SOL    HW1 2560   0.031   1.288   2.958  2.1664 -0.9647  0.5510
  373SOL    HW2 2561   0.074   1.432   2.970  0.9188 -0.4148 -1.1462
  374SOL     OW 2562   3.197   0.282   4.078 -0.5392 -0.3772 -0.3423
  374SOL    HW1 2563   3.251   0.323   4.010  0.2068 -0.5659  0.1155
  374SOL    HW2 2564   3.153   0.355   4.121  0.5620 -0.0546  0.2838
  375SOL     OW 2565   0.434   7.608   0.740  0.1240 -0.0053 -0.2142
  375SOL    HW1 2566   0.373   7.660   0.792  0.3344  1.1019 -1.0386
  375SOL    HW2 2567   0.505   7.588   0.800 -0.3322 -0.0047  0.3337
  376SOL     OW 2568   2.200   0.859   2.736 -0.1191 -0.0061  0.0796
  376SOL    HW1 2569   2.131   0.896   2.681  1.4085  1.3488 -1.0413
  376SOL    HW2 2570   2.276   0.916   2.720  0.8569 -0.5443  2.3708
  377SOL     OW 2571   7.172   1.045   3.180 -0.2157 -0.2733  0.2445
  377SOL    HW1 2572   7.261   1.037   3.147 -0.4951 -0.2924 -0.5174
  377SOL    HW2 2573   7.167   1.134   3.214 -0.2706  0.1586 -0.8514
  378SOL     OW 2574   7.796   3.237   2.707 -0.0005 -0.6156  0.2675
  378SOL    HW1 2575   7.821   3.327   2.687  0.7363 -0.7500  0.5529
  378SOL    HW2 2576   7.874   3.185   2.687 -0.6011 -1.2740 -0.4568
  379SOL     OW 2577   0.300   7.589   4.811 -0.2693  0.2498 -0.6121
  379SOL    HW1 2578   0.313   7.495   4.811  0.8446  0.3934 -0.4806
  379SOL    HW2 2579   0.354   7.622   4.739  0.7231  0.9413  0.4021
  380SOL     OW 2580   1.400   0.654   3.300 -0.2172  0.2105 -0.1787
  380SOL    HW1 2581   1.345   0.699   3.364 -1.4264 -0.4150 -0.7500
  380SOL    HW2 2582   1.339   0.604   3.247  0.7455  0.7268 -1.8516
  381SOL     OW 2583   1.385   2.435   0.317 -0.1775  0.0933  0.0794
  381SOL    HW1 2584   1.342   2.357   0.282  0.9816 -0.2924 -0.5298
  381SOL    HW2 2585   1.320   2.473   0.376 -2.4050  0.9533 -2.6828
  382SOL     OW 2586   0.476   2.386   3.949  0.2327 -0.1966 -0.0724
  382SOL    HW1 2587   0.562   2.352   3.972 -0.7449 -1.6999  1.5893
  382SOL    HW2 2588   0.440   2.418   4.032 -0.7994  0.4760 -0.7521
  383SOL     OW 2589   0.211   1.559   3.947  0.5446  0.1400  0.0002
  383SOL    HW1 2590   0.187   1.624   4.014  1.7054  0.7617 -0.1543
  383SOL    HW2 2591   0.192   1.475   3.987  0.8233  0.5168  0.9599
  384SOL     OW 2592   6.160   0.327   1.840  0.4284  0.6116 -0.2059
  384SOL    HW1 2593   6.245   0.366   1.862  0.5075  0.0174  0.5723
  384SOL    HW2 2594   6.121   0.306   1.924 -0.4954  0.8671 -0.5617
  385SOL     OW 2595   1.549   2.043   4.584 -0.4634  0.2243 -0.1679
  385SOL    HW1 2596   1.500   1.972   4.542 -1.4024  1.1627 -0.7044
  385SOL    HW2 2597   1.529   2.121   4.532 -0.3599  1.1119  1.0610
  386SOL     OW 2598   0.857   7.626   2.374 -0.3632 -0.0253  0.1847
  386SOL    HW1 2599   0.824   7.665   2.455 -1.8687 -0.0011 -0.3986
  386SOL    HW2 2600   0.861   7.532   2.393  0.4033  0.0899  0.6393
  387SOL     OW 2601   6.918   1.203   3.728  0.5921 -0.0073 -0.0260
  387SOL    HW1 2602   6.972   1.155   3.790  1.4022  0.4659 -0.3497
  387SOL    HW2 2603   6.947   1.172   3.642  1.8723  1.7650 -0.2979
  388SOL     OW 2604   0.012   0.940   3.100 -0.3826  0.0569 -0.2801
  388SOL    HW1 2605  -0.070   0.962   3.144 -1.0558 -0.7170 -1.1129
  388SOL    HW2 2606   0.055   0.879   3.159 -0.6937 -0.0097 -0.1205
  389SOL     OW 2607   1.858   0.806   2.466 -0.1356  0.3988  0.5175
  389SOL    HW1 2608   1.886   0.730   2.415 -1.1646 -0.3584  1.0287
  389SOL    HW2 2609   1.793   0.850   2.410  1.4235  1.7169 -0.3490
  390SOL     OW 2610   2.528   0.872   3.510 -0.3936  0.0270  0.1916
  390SOL    HW1 2611   2.499   0.962   3.493  2.1629  1.3991  2.4714
  390SOL    HW2 2612   2.464   0.818   3.463 -1.7123  2.9910 -1.7510
  391SOL     OW 2613   7.578   1.092   4.958 -0.7134  0.1808 -0.3371
  391SOL    HW1 2614   7.603   1.144   4.881  1.3041 -1.1737 -0.6633
  391SOL    HW2 2615   7.602   1.002   4.935  0.1390 -0.2350  1.9403
  392SOL     OW 2616   7.945   1.617   3.232  0.1742  0.5691 -0.1556
  392SOL    HW1 2617   8.000   1.659   3.297  0.6824 -1.2728  0.6884
  392SOL    HW2 2618   7.859   1.610   3.274  0.1647  0.5342 -0.1807
  393SOL     OW 2619   2.370   1.316   4.683 -0.2046  0.0988  0.4485
  393SOL    HW1 2620   2.388   1.268   4.764 -0.0953  0.1049  0.4281
  393SOL    HW2 2621   2.382   1.252   4.613 -0.1148  0.1404  0.4250
  394SOL     OW 2622   1.805   2.749   3.860 -0.1357  0.3591  0.1771
  394SOL    HW1 2623   1.777   2.676   3.805  0.5985  1.1170 -1.2505
  394SOL    HW2 2624   1.745   2.821   3.838  0.0806  0.6335  0.4705
  395SOL     OW 2625   2.709   6.251   4.098  0.3801 -0.4672 -0.1985
  395SOL    HW1 2626   2.799   6.272   4.124 -0.3277  0.9209  1.2875
  395SOL    HW2 2627   2.680   6.185   4.162  0.3206 -0.9145 -0.6753
  396SOL     OW 2628   0.715   0.647   3.279 -0.6070  0.2599 -0.3433
  396SOL    HW1 2629   0.729   0.706   3.352  0.8267 -1.3035  0.7243
  396SOL    HW2 2630   0.646   0.588   3.309  1.1306 -1.4498  0.5363
  397SOL     OW 2631   1.933   1.418   4.105 -0.0259 -0.7679 -0.7492
  397SOL    HW1 2632   1.994   1.388   4.037  1.6084  1.6128 -0.4699
  397SOL    HW2 2633   1.888   1.492   4.065 -0.3438 -0.4616  0.1686
  398SOL     OW 2634   1.221   0.768   1.517 -0.2583  0.0338  0.0737
  398SOL    HW1 2635   1.230   0.689   1.463 -1.4925 -1.2162  1.5922
  398SOL    HW2 2636   1.167   0.740   1.591  0.4841  1.9546  1.4135
  399SOL     OW 2637   7.700   7.572   2.586 -0.7039 -0.6292 -0.3152
  399SOL    HW1 2638   7.695   7.603   2.676  0.6964  0.8414 -0.6950
  399SOL    HW2 2639   7.627   7.512   2.577 -0.9835 -0.6560  1.7413
  400SOL     OW 2640   0.449   0.762   3.584  0.7862  0.9884 -0.4504
  400SOL    HW1 2641   0.454   0.679   3.536 -4.2989 -0.0091  0.2311
  400SOL    HW2 2642   0.405   0.822   3.525  1.0121  2.0345  0.4172
  401SOL     OW 2643   1.885   0.676   3.646  0.3743 -1.1635 -0.0180
  401SOL    HW1 2644   1.896   0.745   3.581 -0.3791  0.9075  1.9056
  401SOL    HW2 2645   1.960   0.619   3.634  0.6992 -0.3734 -2.1048
  402SOL     OW 2646   1.455   1.302   3.820 -0.1538 -0.5799  0.1317
  402SOL    HW1 2647   1.404   1.381   3.805 -1.4202 -1.4216 -0.0774
  402SOL    HW2 2648   1.421   1.239   3.758  0.3351 -1.5288  0.8021
  403SOL     OW 2649   1.840   1.517   2.654  0.0947  0.0051 -0.1246
  403SOL    HW1 2650   1.916   1.459   2.652 -0.3757 -0.6221 -1.6828
  403SOL    HW2 2651   1.866   1.592   2.601  0.7797  1.4009  2.0608
  404SOL     OW 2652   7.310   7.424   3.443 -0.1670  0.1130  0.0392
  404SOL    HW1 2653   7.350   7.473   3.515  1.4886  0.9778 -1.3959
  404SOL    HW2 2654   7.339   7.469   3.364  1.7464 -3.3185 -1.4227
  405SOL     OW 2655   2.681   2.488   2.748  0.2762  0.0585  0.1391
  405SOL    HW1 2656   2.633   2.411   2.717 -0.3932  0.8202 -0.7675
  405SOL    HW2 2657   2.745   2.506   2.680 -1.2615  1.7861 -0.9509
  406SOL     OW 2658   0.754   1.422   3.873 -0.7518 -0.7181  0.0069
  406SOL    HW1 2659   0.736   1.378   3.791 -0.7844 -1.7152  0.5355
  406SOL    HW2 2660   0.848   1.407   3.888 -0.5794  0.0912 -0.2035
  407SOL     OW 2661   2.106   0.586   0.498 -0.0029 -0.0556  0.0716
  407SOL    HW1 2662   2.093   0.601   0.591  0.1718  2.3433 -0.2215
  407SOL    HW2 2663   2.182   0.639   0.475 -0.1445 -0.4574 -1.4611
  408SOL     OW 2664   1.528   7.789   1.777  0.3070 -0.5224 -0.1923
  408SOL    HW1 2665   1.529   7.834   1.693  0.1182 -1.9617 -1.0046
  408SOL    HW2 2666   1.619   7.789   1.806  0.7745 -1.9708 -1.5231
  409SOL     OW 2667   1.703   2.634   4.087  0.1477 -0.1220  1.1682
  409SOL    HW1 2668   1.744   2.548   4.085  0.2079 -0.0759  0.0989
  409SOL    HW2 2669   1.737   2.679   4.010 -0.3917  0.6270  1.3564
  410SOL     OW 2670   2.151   7.286   3.792 -0.1738  0.8590 -0.0639
  410SOL    HW1 2671   2.175   7.200   3.758  0.2227  0.3537  1.3940
  410SOL    HW2 2672   2.212   7.347   3.752 -0.4388  0.4647 -1.0879
  411SOL     OW 2673   2.605   2.370   3.666 -0.3093  0.0373  0.1746
  411SOL    HW1 2674   2.597   2.341   3.757 -0.8573 -1.0751 -0.2135
  411SOL    HW2 2675   2.519   2.353   3.628  0.1870 -0.3661 -0.7972
  412SOL     OW 2676   7.760   2.325   2.700 -0.4427  0.2568  0.1259
  412SOL    HW1 2677   7.787   2.286   2.616 -0.9692 -0.0559  0.0956
  412SOL    HW2 2678   7.755   2.419   2.682  1.6647  0.4765  0.4241
  413SOL     OW 2679   1.691   0.969   2.632  0.3172 -0.2026  0.1172
  413SOL    HW1 2680   1.622   1.027   2.598  0.4299 -0.5779 -0.7878
  413SOL    HW2 2681   1.735   0.937   2.553 -0.8148 -2.8716  0.4822
  414SOL     OW 2682   1.225   6.738   4.999  0.5105  0.1919 -0.4664
  414SOL    HW1 2683   1.281   6.663   4.977  0.5159  0.5120 -1.6273
  414SOL    HW2 2684   1.143   6.722   4.951  0.4579  0.8391 -0.6125
  415SOL     OW 2685   7.555   0.004   2.714  0.3791  0.3820 -0.3988
  415SOL    HW1 2686   7.493  -0.069   2.724 -0.3777  0.9269 -0.9791
  415SOL    HW2 2687   7.500   0.078   2.686  0.6666  1.9683  2.8272
  416SOL     OW 2688   0.558   2.864   2.948 -0.3721  0.4419 -0.1819
  416SOL    HW1 2689   0.554   2.797   3.017  0.8802  0.8011  0.2575
  416SOL    HW2 2690   0.574   2.814   2.868  0.2792  0.1920  0.1022
  417SOL     OW 2691   3.198   7.564   4.654 -0.0404  0.0688  0.5044
  417SOL    HW1 2692   3.218   7.657   4.645 -0.8872  0.3201  1.0141
  417SOL    HW2 2693   3.112   7.562   4.697 -0.2039 -0.9463  0.1690
  418SOL     OW 2694   7.219   1.287   3.290 -0.5856 -0.3874  0.6702
  418SOL    HW1 2695   7.224   1.281   3.385 -0.4098 -0.6267  0.6458
  418SOL    HW2 2696   7.283   1.355   3.266 -0.1931 -0.7534  0.6732
  419SOL     OW 2697   0.988   1.787   2.210 -0.0912  0.3328 -0.0184
  419SOL    HW1 2698   1.079   1.796   2.237 -0.2474  1.3837  0.2230
  419SOL    HW2 2699   0.938   1.788   2.292 -0.2872 -0.7983 -0.1163
  420SOL     OW 2700   0.268   2.287   3.807 -0.5437  0.2431  0.1988
  420SOL    HW1 2701   0.224   2.368   3.781  0.8079  0.3351 -2.1727
  420SOL    HW2 2702   0.356   2.315   3.834  0.0563 -0.4052 -0.9781
  421SOL     OW 2703   2.339   0.642   2.400 -0.1851  0.2461 -0.6655
  421SOL    HW1 2704   2.431   0.662   2.383  0.0710 -0.1192  0.2208
  421SOL    HW2 2705   2.328   0.656   2.494 -1.0473  0.3222 -0.7673
  422SOL     OW 2706   1.236   0.476   2.859  0.2938  0.0516 -0.2177
  422SOL    HW1 2707   1.205   0.464   2.769  1.2191  0.3613 -0.6011
  422SOL    HW2 2708   1.179   0.543   2.896  0.4302  0.5339 -0.8613
  423SOL     OW 2709   1.694   0.963   2.902  1.0043 -0.4036 -0.0736
  423SOL    HW1 2710   1.714   0.959   2.808 -0.6075  0.0028 -0.4644
  423SOL    HW2 2711   1.672   1.055   2.918  1.3294 -0.4580  0.7232
  424SOL     OW 2712   0.613   0.457   1.846  0.0623 -0.5232 -0.0331
  424SOL    HW1 2713   0.547   0.493   1.787  0.6139 -0.3553 -0.5589
  424SOL    HW2 2714   0.571   0.457   1.932 -0.8193 -0.9472 -0.4451
  425SOL     OW 2715   2.642   7.510   3.651  0.1733 -0.2323  0.3350
  425SOL    HW1 2716   2.640   7.458   3.571  0.9343  0.2605 -0.0076
  425SOL    HW2 2717   2.642   7.601   3.621 -0.3346 -0.0291  0.9150
  426SOL     OW 2718   2.707   7.582   2.893 -0.2672  0.1881  0.3145
  426SOL    HW1 2719   2.735   7.650   2.954 -2.3397 -0.4365  2.1056
  426SOL    HW2 2720   2.621   7.612   2.862 -0.4153 -0.7753 -0.2400
  427SOL     OW 2721   0.675   0.419   4.004  0.0579 -0.7556  0.4168
  427SOL    HW1 2722   0.757   0.371   3.989  0.4817 -0.0723  0.5406
  427SOL    HW2 2723   0.695   0.482   4.073 -0.1956  0.3387 -0.4768
  428SOL     OW 2724   1.575   0.080   3.688  0.0337  0.0894  0.1737
  428SOL    HW1 2725   1.671   0.077   3.696  0.1466  2.0650 -0.0410
  428SOL    HW2 2726   1.555   0.171   3.668 -2.0079 -0.0450  1.3495
  429SOL     OW 2727   0.047   0.021   1.817  0.0616 -0.0837  0.3836
  429SOL    HW1 2728   0.035   0.111   1.789  0.0170  0.1098  1.0141
  429SOL    HW2 2729   0.142   0.007   1.813 -0.0455 -0.6008 -1.4806
  430SOL     OW 2730   0.877   1.557   4.671 -0.4483  0.1692 -0.5519
  430SOL    HW1 2731   0.904   1.630   4.727  1.6910  0.2914 -1.6116
  430SOL    HW2 2732   0.843   1.492   4.732  0.7823  0.7297  0.8163
  431SOL     OW 2733   7.792   1.121   3.515 -0.3327  0.1487 -0.4751
  431SOL    HW1 2734   7.878   1.153   3.543  0.3490 -1.1614 -1.0170
  431SOL    HW2 2735   7.782   1.037   3.559 -1.9349  0.8707  0.6236
  432SOL     OW 2736   0.234   0.002   2.549 -0.3700 -0.1974 -0.0187
  432SOL    HW1 2737   0.230  -0.041   2.635  1.1261 -3.5920 -1.4312
  432SOL    HW2 2738   0.245   0.095   2.569 -0.0641 -0.8277  3.4494
  433SOL     OW 2739   0.799   1.683   3.913  0.7997 -0.6797 -0.0969
  433SOL    HW1 2740   0.769   1.592   3.913 -1.0293 -0.1167 -0.3778
  433SOL    HW2 2741   0.760   1.722   3.834  1.3221  0.4232  0.1612
  434SOL     OW 2742   2.386   1.046   3.895 -0.3756 -0.3946  0.4189
  434SOL    HW1 2743   2.308   0.993   3.914 -0.8840 -0.1899 -0.9735
  434SOL    HW2 2744   2.444   0.987   3.846 -0.7396  0.1519 -0.7161
  435SOL     OW 2745   1.988   7.602   4.006 -0.1056 -0.2798 -0.5527
  435SOL    HW1 2746   1.948   7.550   3.936 -0.2657 -1.1570  0.1533
  435SOL    HW2 2747   1.951   7.564   4.086 -0.8893  1.5093 -0.0352
  436SOL     OW 2748   0.953   2.074   3.539 -0.2220  0.1569 -0.1107
  436SOL    HW1 2749   0.907   2.036   3.614 -0.0046 -1.1303 -0.6142
  436SOL    HW2 2750   0.890   2.067   3.467  0.2577 -0.3718 -0.4827
  437SOL     OW 2751   1.053   0.464   2.431  0.2038 -0.5673  0.2309
  437SOL    HW1 2752   1.105   0.519   2.373  0.9820 -2.0722 -0.5523
  437SOL    HW2 2753   1.045   0.515   2.511  0.4284  0.9029 -0.6528
  438SOL     OW 2754   2.012   0.551   1.825  0.0836 -0.2077  0.1274
  438SOL    HW1 2755   1.933   0.500   1.806 -1.6346  2.5540 -0.8272
  438SOL    HW2 2756   2.084   0.496   1.797 -1.5792 -2.2707 -0.3710
  439SOL     OW 2757   3.964   0.454   3.936 -0.2769 -0.1370 -0.0792
  439SOL    HW1 2758   4.012   0.509   3.874 -2.0610  1.0218 -0.5188
  439SOL    HW2 2759   4.024   0.383   3.957  1.0656  0.4514 -1.7034
  440SOL     OW 2760   1.933   1.735   4.318  0.2160  0.1222  0.5870
  440SOL    HW1 2761   1.850   1.699   4.350  0.0328  0.6701  0.7320
  440SOL    HW2 2762   1.998   1.669   4.341 -0.2559 -0.5759 -0.0354
  441SOL     OW 2763   0.061   2.378   2.552  0.1634  0.4882  0.1389
  441SOL    HW1 2764   0.141   2.428   2.568  0.9604 -0.4202 -0.8638
  441SOL    HW2 2765   0.083   2.289   2.578  0.1376 -0.1647 -1.8584
  442SOL     OW 2766   1.698   2.285   3.399 -0.5452  0.9421 -0.0310
  442SOL    HW1 2767   1.682   2.337   3.477 -0.8161 -0.4522  0.8654
  442SOL    HW2 2768   1.725   2.200   3.431 -0.2621  0.4508 -1.4705
  443SOL     OW 2769   0.835   1.455   3.138 -0.2358  0.0647  0.1397
  443SOL    HW1 2770   0.869   1.394   3.204  1.5599 -0.1235 -0.8868
  443SOL    HW2 2771   0.747   1.476   3.168 -0.1318 -1.4068  1.6307
  444SOL     OW 2772   0.529   1.394   2.451  0.0096  0.2946 -0.2030
  444SOL    HW1 2773   0.577   1.474   2.473 -0.8497  0.9446 -0.5999
  444SOL    HW2 2774   0.577   1.357   2.377  1.0288 -0.1492  0.6627
  445SOL     OW 2775   1.057   0.724   2.865  0.6345 -0.5320 -0.0230
  445SOL    HW1 2776   1.020   0.735   2.952  0.0495  0.1878 -0.3515
  445SOL    HW2 2777   1.128   0.788   2.861 -0.0295  0.2050 -0.4358
  446SOL     OW 2778   0.637   0.061   3.234 -0.2087 -0.1637  0.0107
  446SOL    HW1 2779   0.558   0.029   3.279 -0.5348  0.1256 -0.3524
  446SOL    HW2 2780   0.628   0.030   3.144 -1.0052  1.7264 -0.5987
  447SOL     OW 2781   0.233   0.571   4.316  0.2307 -0.2169 -0.2799
  447SOL    HW1 2782   0.223   0.524   4.233 -1.0141 -0.9835  0.2580
  447SOL    HW2 2783   0.290   0.515   4.368 -0.1109 -0.4491 -0.1445
  448SOL     OW 2784   1.572   2.113   3.957 -0.2597 -0.3850  0.2661
  448SOL    HW1 2785   1.559   2.132   4.050 -1.1200  0.1203  0.0603
  448SOL    HW2 2786   1.484   2.091   3.925 -0.0191 -0.2860 -0.4782
  449SOL     OW 2787   2.431   7.999   4.229 -0.1940  0.2219 -0.4591
  449SOL    HW1 2788   2.345   7.997   4.187 -0.6448  0.4251  0.4158
  449SOL    HW2 2789   2.412   8.016   4.321  0.7883  0.2475 -0.2459
  450SOL     OW 2790   0.771   7.722   1.558  0.1487 -0.0195  0.5179
  450SOL    HW1 2791   0.858   7.686   1.578  0.1756 -0.0388  0.3680
  450SOL    HW2 2792   0.753   7.693   1.469  0.1111  0.2247  0.4453
  451SOL     OW 2793   1.656   2.237   2.941  0.3120  0.1853 -0.2679
  451SOL    HW1 2794   1.708   2.238   3.021  0.9678  1.2732 -0.6815
  451SOL    HW2 2795   1.594   2.310   2.953 -0.6194 -0.6169 -0.1059
  452SOL     OW 2796   1.811   7.555   1.953 -1.0463 -0.2384 -0.6069
  452SOL    HW1 2797   1.730   7.546   2.003 -2.1886 -0.4058 -2.4010
  452SOL    HW2 2798   1.877   7.512   2.007 -2.1708 -0.3039  0.7929
  453SOL     OW 2799   2.068   2.166   1.808 -0.8888  0.3603 -0.1644
  453SOL    HW1 2800   2.153   2.207   1.799  0.2659 -1.8408  0.0798
  453SOL    HW2 2801   2.008   2.238   1.829  0.7761  2.0191 -0.8683
  454SOL     OW 2802   1.664   6.930   3.487 -0.9420  0.6870  0.2764
  454SOL    HW1 2803   1.759   6.922   3.482 -1.0636 -0.6109 -1.0846
  454SOL    HW2 2804   1.642   6.907   3.577 -0.1573 -2.6894 -0.2384
  455SOL     OW 2805   2.742   7.905   4.242 -0.2446  0.0150  0.8798
  455SOL    HW1 2806   2.751   7.964   4.317  1.5023  2.2405 -0.9415
  455SOL    HW2 2807   2.823   7.917   4.192  0.2840 -4.0472  0.3894
  456SOL     OW 2808   1.252   0.586   2.295 -0.2602 -0.0820 -0.2594
  456SOL    HW1 2809   1.246   0.665   2.242  1.0541  0.8787  0.9492
  456SOL    HW2 2810   1.334   0.545   2.268  0.8043  0.8048  1.4638
  457SOL     OW 2811   2.030   1.251   3.894 -1.0444 -0.7109  0.2159
  457SOL    HW1 2812   2.051   1.177   3.838  1.9719 -0.3744  0.7467
  457SOL    HW2 2813   2.024   1.326   3.834  2.4464 -0.2989  0.2219
  458SOL     OW 2814   1.438   0.579   4.017  0.0624  0.0380 -0.6975
  458SOL    HW1 2815   1.411   0.511   3.955  1.0239 -0.5042 -0.5321
  458SOL    HW2 2816   1.525   0.553   4.046 -0.2279  0.4569  0.6488
  459SOL     OW 2817   2.330   0.734   0.403 -0.4393 -0.6222  0.2887
  459SOL    HW1 2818   2.308   0.801   0.338  2.0388  0.7882  0.7949
  459SOL    HW2 2819   2.358   0.659   0.352  1.7884  0.5744 -0.3706
  460SOL     OW 2820   2.521   7.204   3.055 -0.0746  0.1047  0.1422
  460SOL    HW1 2821   2.615   7.203   3.073 -0.1994  0.0843  0.8208
  460SOL    HW2 2822   2.515   7.204   2.959  0.5997 -4.9157 -0.1395
  461SOL     OW 2823   6.690   1.863   2.424 -0.2130 -0.0804 -0.0049
  461SOL    HW1 2824   6.651   1.840   2.508  0.3707 -1.6941 -0.1419
  461SOL    HW2 2825   6.617   1.860   2.362 -0.4139 -0.0804  0.2278
  462SOL     OW 2826   7.679   2.425   2.462 -0.1725 -0.3998 -0.0132
  462SOL    HW1 2827   7.722   2.509   2.449 -2.0730  0.8166  1.0918
  462SOL    HW2 2828   7.690   2.379   2.378  0.7255  1.0285 -0.7075
  463SOL     OW 2829   7.613   0.278   3.513  0.8197  0.3910  0.5930
  463SOL    HW1 2830   7.541   0.243   3.566 -0.6413  0.6604 -1.1282
  463SOL    HW2 2831   7.665   0.201   3.492 -0.6240 -0.3203 -0.5561
  464SOL     OW 2832   0.823   0.286   4.910 -0.0980  0.0389  0.7894
  464SOL    HW1 2833   0.763   0.298   4.836  1.8866  1.2123 -0.7401
  464SOL    HW2 2834   0.853   0.375   4.931  1.4967 -0.5416  1.1244
  465SOL     OW 2835   7.739   0.932   4.015 -0.3103  0.2122  0.5019
  465SOL    HW1 2836   7.650   0.907   4.039  0.0325 -0.8440  0.7264
  465SOL    HW2 2837   7.788   0.928   4.097  0.2360 -0.5491  0.1517
  466SOL     OW 2838   0.961   7.483   3.189 -0.0536  0.1404 -0.9079
  466SOL    HW1 2839   1.043   7.493   3.237 -0.6781  2.8110 -0.2306
  466SOL    HW2 2840   0.911   7.562   3.209 -2.9915 -1.5300 -1.0032
  467SOL     OW 2841   7.837   1.795   4.665 -0.3164 -0.5690  0.0535
  467SOL    HW1 2842   7.828   1.840   4.749  0.3890 -0.2619 -0.0363
  467SOL    HW2 2843   7.838   1.865   4.600 -0.8311 -0.8062 -0.2132
  468SOL     OW 2844   1.334   2.743   6.013  0.1306 -0.3880  0.1537
  468SOL    HW1 2845   1.316   2.703   6.097 -1.3154  1.6165  0.8858
  468SOL    HW2 2846   1.314   2.675   5.949 -0.0831 -1.5084  1.3765
  469SOL     OW 2847   1.381   0.023   4.491 -0.5504 -0.7790 -0.4757
  469SOL    HW1 2848   1.344  -0.034   4.422 -0.2324 -0.0656 -1.2523
  469SOL    HW2 2849   1.372  -0.029   4.571  0.6680 -2.3709 -1.3111
  470SOL     OW 2850   1.151   1.458   3.611 -0.5865  0.3693 -0.3432
  470SOL    HW1 2851   1.179   1.397   3.680 -1.5463  0.8091  0.4578
  470SOL    HW2 2852   1.055   1.454   3.613 -0.6511  1.5594 -0.6025
  471SOL     OW 2853   0.413   0.911   5.284  0.4101  0.3315  0.0010
  471SOL    HW1 2854   0.422   0.896   5.190  0.5135  0.7823 -0.0635
  471SOL    HW2 2855   0.404   1.006   5.292  0.8876  0.3405  0.4893
  472SOL     OW 2856   0.687   1.527   4.207 -0.4430 -0.0960  0.2097
  472SOL    HW1 2857   0.741   1.554   4.281  1.0817  0.6799 -1.1009
  472SOL    HW2 2858   0.742   1.466   4.158 -1.1873 -0.1577 -0.5846
  473SOL     OW 2859   0.484   1.380   4.011 -0.6071 -0.7444  0.1087
  473SOL    HW1 2860   0.558   1.324   3.989 -1.0912 -1.0522 -0.8166
  473SOL    HW2 2861   0.523   1.464   4.035  0.0064 -0.4062 -1.8782
  474SOL     OW 2862   1.719   3.202   2.955 -0.0213  0.2188 -0.3216
  474SOL    HW1 2863   1.628   3.212   2.981  0.0542 -1.1068  0.5874
  474SOL    HW2 2864   1.718   3.132   2.889  0.4512 -0.6260  0.5505
  475SOL     OW 2865   7.910   0.078   5.832 -0.5078  0.4988  0.2516
  475SOL    HW1 2866   7.996   0.099   5.796 -0.7593 -0.5294 -1.0432
  475SOL    HW2 2867   7.860   0.159   5.823  0.0025  0.7950  0.0066
  476SOL     OW 2868   2.326   2.598   3.828  0.3029  0.3790  0.3724
  476SOL    HW1 2869   2.412   2.634   3.807  0.3443 -0.9116 -1.9518
  476SOL    HW2 2870   2.287   2.576   3.744 -1.6446 -0.6342  1.4436
  477SOL     OW 2871   0.037   2.211   4.385  0.2673  0.0464 -0.5138
  477SOL    HW1 2872   0.103   2.172   4.327 -0.5327  0.0994 -1.4828
  477SOL    HW2 2873   0.088   2.259   4.450  1.2613 -1.7911  0.1538
  478SOL     OW 2874   2.213   3.308   4.214  0.2734 -0.4072  0.2406
  478SOL    HW1 2875   2.264   3.387   4.234  1.8656 -1.9367  2.7655
  478SOL    HW2 2876   2.252   3.273   4.134  2.0936 -0.5814  1.1542
  479SOL     OW 2877   7.756   2.146   3.831  0.0095  0.0817  0.2236
  479SOL    HW1 2878   7.700   2.137   3.909 -1.1020  2.1928 -0.2250
  479SOL    HW2 2879   7.787   2.237   3.835  0.1324  0.1596 -1.6394
  480SOL     OW 2880   0.928   0.583   6.214  0.6962  0.2145  0.3777
  480SOL    HW1 2881   0.959   0.659   6.263  0.1705  0.2096  0.7289
  480SOL    HW2 2882   1.002   0.557   6.160  1.2836  0.2377  1.1559
  481SOL     OW 2883   1.186   3.553   5.533 -0.1540  0.6266 -0.2314
  481SOL    HW1 2884   1.250   3.490   5.500 -2.3400 -1.7557 -0.2784
  481SOL    HW2 2885   1.193   3.627   5.474  0.9676 -0.5507 -1.6641
  482SOL     OW 2886   0.699   1.797   3.697 -0.5461  0.3078  0.2154
  482SOL    HW1 2887   0.691   1.767   3.607 -1.2346 -0.5238  0.5430
  482SOL    HW2 2888   0.609   1.806   3.728 -0.4129 -2.3897  1.7491
  483SOL     OW 2889   0.534   7.281   6.317  0.2121  0.5394 -0.3975
  483SOL    HW1 2890   0.483   7.200   6.326 -0.4385  1.0422  0.5878
  483SOL    HW2 2891   0.551   7.287   6.223  2.1479 -1.8522 -0.3035
  484SOL     OW 2892   1.607   0.165   4.439 -0.5949 -0.0141 -0.6685
  484SOL    HW1 2893   1.672   0.108   4.396 -0.9894 -0.2509 -0.9638
  484SOL    HW2 2894   1.525   0.116   4.431 -1.1125  0.9698 -1.7046
  485SOL     OW 2895   0.285   0.392   4.671  0.5835  0.5116  0.6317
  485SOL    HW1 2896   0.312   0.479   4.643  1.3381 -0.3065 -1.3456
  485SOL    HW2 2897   0.189   0.397   4.677  0.6961  1.8002  1.8395
  486SOL     OW 2898   1.855   7.944   4.975 -0.0401 -0.2271 -0.9605
  486SOL    HW1 2899   1.908   8.018   5.006 -0.7649 -0.7622  1.8396
  486SOL    HW2 2900   1.909   7.867   4.992 -0.6865 -0.5814 -0.4595
  487SOL     OW 2901   2.168   0.130   4.666  0.4178 -0.2524  0.1669
  487SOL    HW1 2902   2.074   0.121   4.681  0.2429  0.8998 -0.0703
  487SOL    HW2 2903   2.206   0.136   4.754  0.2657 -0.6792  0.2627
  488SOL     OW 2904   0.312   7.404   5.449 -0.9716 -0.0455  0.0661
  488SOL    HW1 2905   0.376   7.409   5.378  1.1152 -1.1911  1.7516
  488SOL    HW2 2906   0.275   7.316   5.443 -3.0446  0.8576 -1.3568
  489SOL     OW 2907   1.964   7.492   4.328 -0.2803  0.0032  0.2704
  489SOL    HW1 2908   1.931   7.422   4.272  0.6510  1.2428 -1.9772
  489SOL    HW2 2909   1.909   7.567   4.307 -0.3550  0.3280  1.5754
  490SOL     OW 2910   7.052   7.574   3.750 -0.1630  0.3609  0.0900
  490SOL    HW1 2911   7.134   7.539   3.715  1.6313  2.0233  2.2463
  490SOL    HW2 2912   6.984   7.535   3.696  1.8734 -2.8312 -0.4739
  491SOL     OW 2913   7.902   1.499   4.383 -0.1417 -0.0164  0.3660
  491SOL    HW1 2914   7.975   1.494   4.321  0.3586 -0.7091  1.0034
  491SOL    HW2 2915   7.882   1.408   4.405 -2.1395  0.0607 -0.8678
  492SOL     OW 2916   1.456   1.944   5.040  0.2418  0.1910 -0.4836
  492SOL    HW1 2917   1.406   1.988   5.108  0.3931  0.9964 -0.8835
  492SOL    HW2 2918   1.530   1.905   5.086  0.9076  1.5960 -0.3059
  493SOL     OW 2919   0.766   2.823   4.431  0.3050 -0.1078 -0.2717
  493SOL    HW1 2920   0.706   2.757   4.396 -1.0527  0.6014  0.6499
  493SOL    HW2 2921   0.710   2.884   4.480  1.8443  0.2553  1.1300
  494SOL     OW 2922   7.810   5.596   5.614 -0.9092 -0.2100  0.2168
  494SOL    HW1 2923   7.734   5.649   5.592 -1.5815 -0.9275  0.7839
  494SOL    HW2 2924   7.825   5.542   5.536  0.7061  1.7961 -0.9900
  495SOL     OW 2925   2.653   0.030   3.732 -0.1537  0.5832  0.5062
  495SOL    HW1 2926   2.593   0.001   3.664 -0.0579  1.3852  0.0655
  495SOL    HW2 2927   2.700  -0.049   3.759  1.2492  0.5590 -1.7700
  496SOL     OW 2928   1.079   2.682   3.988 -0.1689  0.4544 -0.1607
  496SOL    HW1 2929   1.080   2.742   3.914  0.3664  0.2706 -0.3102
  496SOL    HW2 2930   1.066   2.596   3.949  1.0155  0.2444 -0.1404
  497SOL     OW 2931   7.925   7.846   5.658 -0.0864 -0.7818 -0.3986
  497SOL    HW1 2932   7.847   7.803   5.694 -0.2974  0.2261  0.3979
  497SOL    HW2 2933   7.927   7.932   5.701  0.5911 -0.1808 -1.5841
  498SOL     OW 2934   0.675   7.026   5.618  0.0593 -0.1785  0.5386
  498SOL    HW1 2935   0.718   6.942   5.630  0.3809 -0.2781 -1.0489
  498SOL    HW2 2936   0.680   7.042   5.524 -3.2595 -0.1567  0.2395
  499SOL     OW 2937   1.682   3.518   3.534  0.4450  0.4191 -0.2024
  499SOL    HW1 2938   1.729   3.574   3.472  0.3688  1.3355  0.5519
  499SOL    HW2 2939   1.714   3.430   3.516  1.0435  0.7889 -0.9768
  500SOL     OW 2940   7.838   1.409   6.478 -0.2213 -0.8279 -0.4614
  500SOL    HW1 2941   7.906   1.461   6.434 -0.8187 -0.5851 -1.1270
  500SOL    HW2 2942   7.834   1.328   6.427  0.8958 -1.6771  0.7350
  501SOL     OW 2943   1.440   0.292   4.878 -0.1253  0.0479 -0.2889
  501SOL    HW1 2944   1.520   0.255   4.839  0.4434  0.7855  0.1353
  501SOL    HW2 2945   1.375   0.222   4.872  0.5596 -0.5715 -0.6406
  502SOL     OW 2946   0.340   0.496   6.296  0.7431  0.4055  0.5431
  502SOL    HW1 2947   0.395   0.420   6.280 -0.9071 -0.6634 -0.3839
  502SOL    HW2 2948   0.335   0.541   6.212 -0.2175  0.1674  0.4558
  503SOL     OW 2949   7.566   7.096   6.063 -0.1632  0.0470 -0.6886
  503SOL    HW1 2950   7.564   7.063   5.973 -0.6898  1.9022 -1.3980
  503SOL    HW2 2951   7.486   7.060   6.103  0.1184 -0.8549 -0.9179
  504SOL     OW 2952   1.430   2.928   4.214 -0.3999  0.4550 -0.1078
  504SOL    HW1 2953   1.429   2.989   4.140 -1.9868  0.4164 -0.1401
  504SOL    HW2 2954   1.523   2.904   4.223 -0.0889  0.8995 -1.7103
  505SOL     OW 2955   0.774   0.584   4.821 -0.2613 -0.1098  0.0469
  505SOL    HW1 2956   0.805   0.674   4.824 -1.2015  0.1947  1.0604
  505SOL    HW2 2957   0.679   0.591   4.834 -0.4300 -1.2052 -0.4723
  506SOL     OW 2958   6.518   4.149   4.364 -0.4973 -0.1316  0.3721
  506SOL    HW1 2959   6.561   4.103   4.436  1.7879  2.8140  1.0906
  506SOL    HW2 2960   6.462   4.214   4.406 -0.1403  0.7778 -0.5102
  507SOL     OW 2961   0.174   1.083   3.313  0.2535  0.2125  0.8824
  507SOL    HW1 2962   0.100   1.065   3.254  0.3931  1.0588  0.4320
  507SOL    HW2 2963   0.165   1.176   3.334 -0.0770 -0.1890  2.6224
  508SOL     OW 2964   0.622   0.459   5.575 -0.2759 -0.5205 -0.2450
  508SOL    HW1 2965   0.665   0.447   5.660 -0.6684 -1.9274 -0.2211
  508SOL    HW2 2966   0.535   0.492   5.598 -0.7510 -1.8638 -0.0026
  509SOL     OW 2967   2.295   0.431   4.701  0.6755 -0.0673  0.0140
  509SOL    HW1 2968   2.377   0.403   4.662  0.0207 -1.5664 -0.3436
  509SOL    HW2 2969   2.235   0.358   4.687 -0.1862  0.1904  1.9927
  510SOL     OW 2970   7.991   7.848   4.469 -0.2384 -0.6656 -0.4933
  510SOL    HW1 2971   7.956   7.760   4.483  0.7454 -1.3750 -2.1668
  510SOL    HW2 2972   8.079   7.834   4.435  0.1090  0.9936 -0.3755
  511SOL     OW 2973   1.341   1.173   4.291 -0.2122  0.1881 -0.0728
  511SOL    HW1 2974   1.382   1.243   4.342  0.3684 -0.6037  0.5683
  511SOL    HW2 2975   1.410   1.107   4.281 -0.5569 -0.0234 -1.2130
  512SOL     OW 2976   0.645   0.033   5.721  0.1810  0.1547  0.3715
  512SOL    HW1 2977   0.658  -0.046   5.669  3.6077  0.2827  0.8278
  512SOL    HW2 2978   0.588   0.088   5.667  1.3073 -0.8582 -2.0010
  513SOL     OW 2979   1.839   0.212   3.600 -0.3594 -0.1732  0.0073
  513SOL    HW1 2980   1.784   0.289   3.610 -0.2502 -0.0209 -0.5211
  513SOL    HW2 2981   1.884   0.225   3.516  0.9494  0.0078  0.7069
  514SOL     OW 2982   1.718   3.642   7.505  0.3747 -0.5945 -0.2550
  514SOL    HW1 2983   1.790   3.615   7.447  0.5537  1.1773 -0.8995
  514SOL    HW2 2984   1.758   3.705   7.565 -0.6679  0.5770 -0.7589
  515SOL     OW 2985   2.030   0.179   3.361 -0.2637  0.6598 -0.0378
  515SOL    HW1 2986   2.070   0.092   3.369 -1.5805  0.1104  1.0833
  515SOL    HW2 2987   2.103   0.238   3.344  0.5031 -0.8661 -2.6739
  516SOL     OW 2988   1.562   7.982   3.933 -0.3121  0.5718 -0.8869
  516SOL    HW1 2989   1.557   8.006   3.840  0.1313  1.9136 -0.5911
  516SOL    HW2 2990   1.591   8.062   3.977 -0.3571 -0.0861  0.3977
  517SOL     OW 2991   7.280   1.776   5.471 -0.3252  0.2267  0.3668
  517SOL    HW1 2992   7.290   1.835   5.397  0.4766  1.6631  1.5583
  517SOL    HW2 2993   7.333   1.699   5.448 -1.4106 -0.0914 -1.2170
  518SOL     OW 2994   0.583   2.701   3.166  0.4886 -0.0515 -0.6432
  518SOL    HW1 2995   0.538   2.719   3.249 -1.5530 -0.8825 -1.5102
  518SOL    HW2 2996   0.602   2.607   3.169  0.4886 -0.0652 -1.0767
  519SOL     OW 2997   7.995   7.093   7.491 -0.3329  0.1682  0.1383
  519SOL    HW1 2998   7.917   7.042   7.470 -1.3031  1.2037  1.1191
  519SOL    HW2 2999   7.997   7.097   7.586  1.1424 -0.1599  0.1439
  520SOL     OW 3000   2.690   2.327   4.340  0.4725  0.0068 -0.0500
  520SOL    HW1 3001   2.609   2.349   4.294 -0.6289 -1.8759  0.8725
  520SOL    HW2 3002   2.730   2.412   4.359 -0.6261  0.9384 -1.6402
  521SOL     OW 3003   1.352   2.822   4.593 -0.4376  0.1857  0.4021
  521SOL    HW1 3004   1.285   2.857   4.651  1.0723  1.4016  1.4715
  521SOL    HW2 3005   1.434   2.840   4.637  0.5621 -3.1179  0.1202
  522SOL     OW 3006   0.367   7.315   4.820 -0.4439 -0.1629 -0.3740
  522SOL    HW1 3007   0.445   7.369   4.826 -0.3372 -0.3589  0.0163
  522SOL    HW2 3008   0.380   7.263   4.740  0.1670 -0.7281  0.0814
  523SOL     OW 3009   1.260   2.528   4.419  0.1380 -0.9534  0.8516
  523SOL    HW1 3010   1.193   2.506   4.485  0.3375  1.3990  1.9486
  523SOL    HW2 3011   1.238   2.474   4.344 -0.8246 -2.8903  2.4250
  524SOL     OW 3012   0.372   7.615   4.565  0.0607  0.0614 -0.9941
  524SOL    HW1 3013   0.314   7.539   4.550 -0.5477  0.3853 -0.3185
  524SOL    HW2 3014   0.362   7.668   4.486 -1.3552  0.6097 -0.4755
  525SOL     OW 3015   3.044   7.528   6.770 -0.0353  0.2074  0.2047
  525SOL    HW1 3016   3.006   7.488   6.692  1.5976 -1.7646  0.3097
  525SOL    HW2 3017   3.025   7.621   6.762 -0.3216  0.0029 -2.2989
  526SOL     OW 3018   2.095   7.541   2.805  0.0785 -0.2853 -0.0014
  526SOL    HW1 3019   2.103   7.599   2.882 -0.9796  0.4654 -0.4367
  526SOL    HW2 3020   2.025   7.480   2.827  0.6451 -0.9028  0.1285
  527SOL     OW 3021   0.986   0.629   3.889 -0.4229  0.0753  0.0828
  527SOL    HW1 3022   1.011   0.687   3.817  0.5384  0.7181  0.9004
  527SOL    HW2 3023   1.018   0.674   3.967  0.6725 -1.7225  0.7233
  528SOL     OW 3024   1.750   2.402   4.723 -0.4612 -0.1278  0.9316
  528SOL    HW1 3025   1.770   2.312   4.697  0.0175  0.7134 -2.0375
  528SOL    HW2 3026   1.816   2.424   4.788 -0.2618 -1.7341  1.3125
  529SOL     OW 3027   1.748   1.118   4.490  0.2833 -0.3899  0.2906
  529SOL    HW1 3028   1.735   1.206   4.453  1.7419 -0.5837 -0.7733
  529SOL    HW2 3029   1.733   1.130   4.584 -0.9779  0.6707 -0.0041
  530SOL     OW 3030   1.453   1.467   4.206 -0.7233 -0.0813  0.3223
  530SOL    HW1 3031   1.373   1.469   4.154 -0.3802 -0.3046 -0.2272
  530SOL    HW2 3032   1.512   1.410   4.157 -0.6864 -1.0213  1.4029
  531SOL     OW 3033   7.829   0.637   3.244 -0.6225 -0.0663  0.0901
  531SOL    HW1 3034   7.800   0.728   3.256 -1.5534 -0.3590  0.0964
  531SOL    HW2 3035   7.924   0.644   3.237 -0.8212  1.2271 -2.6965
  532SOL     OW 3036   6.533   0.540   5.196 -0.4755  0.1857  0.0157
  532SOL    HW1 3037   6.441   0.566   5.207 -0.0402  0.7968  2.8492
  532SOL    HW2 3038   6.550   0.479   5.267  1.3878  0.2544 -0.3185
  533SOL     OW 3039   2.032   7.186   3.283  0.1436 -0.0352 -0.0499
  533SOL    HW1 3040   2.095   7.257   3.282  1.2642 -0.8750  2.3954
  533SOL    HW2 3041   1.984   7.198   3.366 -1.1459 -0.8944 -0.6341
  534SOL     OW 3042   1.233   6.770   4.349 -0.4440 -0.5914  0.2661
  534SOL    HW1 3043   1.290   6.817   4.409  0.2677 -1.8093  0.5718
  534SOL    HW2 3044   1.163   6.832   4.329  1.1285  1.0491 -0.3745
  535SOL     OW 3045   1.244   7.646   4.629 -0.1641  0.0746 -0.2686
  535SOL    HW1 3046   1.233   7.651   4.534  0.9992 -1.7273 -0.5498
  535SOL    HW2 3047   1.337   7.628   4.641 -0.0999  1.2660  1.2893
  536SOL     OW 3048   0.304   7.744   4.124 -0.5145  0.4932  0.0403
  536SOL    HW1 3049   0.370   7.686   4.161  0.2435  1.5335  0.3688
  536SOL    HW2 3050   0.340   7.772   4.040 -1.0980  0.1286 -0.3475
  537SOL     OW 3051   7.892   2.356   4.609  0.1759 -0.1325  0.2560
  537SOL    HW1 3052   7.905   2.450   4.598 -0.3901 -0.2825 -2.1661
  537SOL    HW2 3053   7.980   2.319   4.601  0.2624  0.1027  0.1102
  538SOL     OW 3054   0.432   1.819   3.741  0.2567 -0.4634  0.5012
  538SOL    HW1 3055   0.441   1.898   3.688  3.2264  0.4440  2.0802
  538SOL    HW2 3056   0.339   1.800   3.741 -0.1538  0.7082 -3.1591
  539SOL     OW 3057   1.592   2.708   4.452  0.0257  0.6934  0.2418
  539SOL    HW1 3058   1.620   2.741   4.538 -0.4924 -0.9513  1.0780
  539SOL    HW2 3059   1.655   2.746   4.390  1.2602  0.8194  1.5110
  540SOL     OW 3060   7.571   1.466   5.213  0.0472 -0.6268  0.0597
  540SOL    HW1 3061   7.640   1.525   5.181 -1.2160 -0.4451 -2.6151
  540SOL    HW2 3062   7.550   1.500   5.300  1.6007  0.8640 -0.0849
  541SOL     OW 3063   7.944   0.012   6.094  0.2901 -0.7417  0.2640
  541SOL    HW1 3064   7.854   0.006   6.127 -0.0852  3.0362  0.4305
  541SOL    HW2 3065   7.934   0.028   6.000  0.7245  0.0206  0.3364
  542SOL     OW 3066   1.653   0.444   4.427  0.1937  0.1206 -0.4053
  542SOL    HW1 3067   1.562   0.466   4.450  0.9777  0.3708  3.0744
  542SOL    HW2 3068   1.648   0.356   4.389 -1.5899  0.7059 -1.6537
  543SOL     OW 3069   7.568   0.587   2.234 -0.0208 -0.2643  0.0783
  543SOL    HW1 3070   7.477   0.585   2.266 -0.8497 -0.5972 -2.0946
  543SOL    HW2 3071   7.596   0.495   2.235 -0.1577 -0.3163 -0.3566
  544SOL     OW 3072   1.871   0.666   6.629 -0.5314  0.0706 -0.1426
  544SOL    HW1 3073   1.800   0.664   6.692 -3.1410  1.5827 -2.7904
  544SOL    HW2 3074   1.903   0.756   6.631 -1.5698  0.5371 -1.7615
  545SOL     OW 3075   1.620   0.064   4.903  0.4384  0.1405 -0.4469
  545SOL    HW1 3076   1.666   0.122   4.843  0.6395  0.9374  0.4414
  545SOL    HW2 3077   1.687   0.001   4.932  0.4040 -0.0831 -0.8409
  546SOL     OW 3078   2.202   2.248   4.242 -0.1357 -0.4638  0.1818
  546SOL    HW1 3079   2.174   2.278   4.155  1.8293 -1.9797 -1.0488
  546SOL    HW2 3080   2.122   2.252   4.295 -1.1069  1.7622 -1.2945
  547SOL     OW 3081   2.993   0.032   3.850  0.1936 -0.0462  0.4366
  547SOL    HW1 3082   2.990   0.127   3.836 -0.5397 -0.2166 -0.6640
  547SOL    HW2 3083   2.954  -0.005   3.771  2.7778 -1.3593 -0.3486
  548SOL     OW 3084   0.881   1.302   4.534 -0.2308 -0.0357 -0.6365
  548SOL    HW1 3085   0.933   1.296   4.455 -0.0714  0.4044 -0.5670
  548SOL    HW2 3086   0.878   1.396   4.554 -2.1722  0.1065 -1.3904
  549SOL     OW 3087   1.592   0.833   5.362 -0.4016  0.8318  0.2483
  549SOL    HW1 3088   1.520   0.895   5.371 -1.3656 -0.0255 -1.1865
  549SOL    HW2 3089   1.550   0.749   5.343  0.9386  0.0433  0.5800
  550SOL     OW 3090   2.653   0.177   5.866  0.3778  0.3881 -0.0238
  550SOL    HW1 3091   2.649   0.144   5.956 -0.0357  1.4914  0.3819
  550SOL    HW2 3092   2.562   0.195   5.844  0.3760 -0.7215 -1.0100
  551SOL     OW 3093   1.550   1.985   5.328 -0.0220  0.2940 -0.3703
  551SOL    HW1 3094   1.484   1.926   5.363 -1.1429  1.7229  0.0357
  551SOL    HW2 3095   1.633   1.953   5.364 -0.5427 -1.1835 -0.4244
  552SOL     OW 3096   1.083   2.551   7.089  0.4386  0.7159 -0.1125
  552SOL    HW1 3097   1.035   2.474   7.060  0.6266  1.0000 -1.2016
  552SOL    HW2 3098   1.093   2.539   7.184  0.5057 -0.6094 -0.2820
  553SOL     OW 3099   1.030   1.813   4.462  0.3086  0.3930  0.1611
  553SOL    HW1 3100   1.102   1.783   4.518 -0.2505  0.8359  1.1448
  553SOL    HW2 3101   0.968   1.854   4.522  0.3843  2.2476 -0.9465
  554SOL     OW 3102   1.278   2.696   3.370 -0.3918  0.2586  0.2402
  554SOL    HW1 3103   1.370   2.718   3.388 -0.4198  0.6124 -0.0520
  554SOL    HW2 3104   1.266   2.610   3.411  0.3145 -0.1944 -0.4888
  555SOL     OW 3105   2.830   6.541   4.014 -0.0029 -0.1468  0.2523
  555SOL    HW1 3106   2.747   6.497   3.993  0.1215 -0.8733  1.2079
  555SOL    HW2 3107   2.885   6.526   3.937 -0.1687 -1.1779  0.3161
  556SOL     OW 3108   2.033   7.362   4.804 -0.2529  0.0181  0.5494
  556SOL    HW1 3109   1.997   7.300   4.741  0.2428 -0.2506  0.5224
  556SOL    HW2 3110   2.038   7.445   4.756  1.5071 -0.5129 -0.2823
  557SOL     OW 3111   1.288   7.881   4.284 -0.2993 -1.2554  1.0918
  557SOL    HW1 3112   1.294   7.900   4.191  0.7850 -0.3918  1.3224
  557SOL    HW2 3113   1.272   7.786   4.288  1.5070 -1.6485  0.0509
  558SOL     OW 3114   0.372   1.634   4.313 -0.3427 -0.7086  0.2429
  558SOL    HW1 3115   0.327   1.565   4.265  0.5951 -0.7720 -0.5889
  558SOL    HW2 3116   0.392   1.596   4.399 -1.6499 -0.7456  0.5414
  559SOL     OW 3117   2.249   7.513   4.958 -0.2190  0.3477 -0.1083
  559SOL    HW1 3118   2.272   7.563   4.880  1.3871  0.5113  0.4191
  559SOL    HW2 3119   2.282   7.567   5.031  2.2674 -1.7275  0.4536
  560SOL     OW 3120   7.765   1.278   5.565 -0.2790  1.0550  0.3027
  560SOL    HW1 3121   7.831   1.288   5.497 -1.1285  1.2526 -0.5283
  560SOL    HW2 3122   7.696   1.225   5.524  0.0621 -0.5016  1.6714
  561SOL     OW 3123   0.463   3.177   4.790 -0.2214 -0.1085 -0.7522
  561SOL    HW1 3124   0.498   3.106   4.735 -0.7894 -0.9887 -0.0074
  561SOL    HW2 3125   0.377   3.145   4.818  0.5172 -0.2135  1.5950
  562SOL     OW 3126   0.203   1.417   6.820 -0.5622  0.6249  0.1860
  562SOL    HW1 3127   0.209   1.416   6.724 -0.3373  0.4634  0.2003
  562SOL    HW2 3128   0.219   1.509   6.843 -0.2471  0.5961  0.0901
  563SOL     OW 3129   0.201   2.346   4.560  0.2884  0.0992  0.0335
  563SOL    HW1 3130   0.185   2.433   4.597  0.1956 -1.0518  2.9510
  563SOL    HW2 3131   0.283   2.318   4.601  0.9489 -0.7514 -1.7979
  564SOL     OW 3132   1.212   1.742   4.646  0.0978 -0.3216  0.1151
  564SOL    HW1 3133   1.246   1.824   4.681 -0.9189  0.5772 -0.9101
  564SOL    HW2 3134   1.218   1.680   4.719  2.5152  0.1521  0.4122
  565SOL     OW 3135   1.202   1.588   5.801  0.2339  0.6137 -0.0954
  565SOL    HW1 3136   1.216   1.496   5.779  1.8391  1.0763 -1.1938
  565SOL    HW2 3137   1.107   1.601   5.791 -0.1822 -1.1408  1.1289
  566SOL     OW 3138   7.095   1.870   5.655  0.0933 -0.1166  0.1315
  566SOL    HW1 3139   7.131   1.938   5.712 -0.3116  1.0791 -0.9649
  566SOL    HW2 3140   7.167   1.845   5.598  0.0263  0.0302 -0.0215
  567SOL     OW 3141   7.947   1.235   7.082  0.2537 -0.1059 -0.0409
  567SOL    HW1 3142   7.989   1.248   7.167 -1.1159 -1.3795  0.8908
  567SOL    HW2 3143   7.853   1.240   7.101 -0.0827  1.6841 -1.8852
  568SOL     OW 3144   0.755   7.462   5.341 -0.4734 -0.0590  0.2748
  568SOL    HW1 3145   0.724   7.399   5.275  0.7791 -0.1910 -0.2335
  568SOL    HW2 3146   0.711   7.543   5.319  0.4149  0.0772 -1.1998
  569SOL     OW 3147   1.767   7.030   4.878 -0.0788  0.1338  0.2250
  569SOL    HW1 3148   1.855   7.008   4.849  0.6391  1.5928  1.1680
  569SOL    HW2 3149   1.741   6.956   4.933 -0.0905 -1.0202 -1.2620
  570SOL     OW 3150   1.623   0.988   6.409  0.0743  0.2921 -0.3260
  570SOL    HW1 3151   1.601   1.081   6.413  0.6721  0.3970  0.8895
  570SOL    HW2 3152   1.717   0.985   6.395  0.0267 -0.1393 -0.5988
  571SOL     OW 3153   0.015   0.167   5.169 -0.0672  0.1612 -0.1095
  571SOL    HW1 3154  -0.079   0.170   5.183 -0.4583  0.6564 -2.4728
  571SOL    HW2 3155   0.049   0.238   5.224 -0.9869 -0.3322  1.1345
  572SOL     OW 3156   7.883   1.053   4.787  0.2881 -0.4257 -0.2639
  572SOL    HW1 3157   7.815   1.053   4.721 -1.3148  0.6276  1.2886
  572SOL    HW2 3158   7.856   0.986   4.850  0.8617 -0.2234  0.2108
  573SOL     OW 3159   1.304   0.963   3.169 -0.2105  0.4984  0.5473
  573SOL    HW1 3160   1.250   1.040   3.188  0.5600  0.6423  2.3513
  573SOL    HW2 3161   1.241   0.892   3.159 -0.8750  1.1590 -0.0737
  574SOL     OW 3162   7.237   7.757   4.353 -0.0767  0.2742  0.3315
  574SOL    HW1 3163   7.282   7.839   4.372  0.6735 -0.1353  0.3282
  574SOL    HW2 3164   7.221   7.718   4.439 -1.3314  0.8810  0.4017
  575SOL     OW 3165   7.162   1.617   4.593  0.2744 -0.5255 -0.1677
  575SOL    HW1 3166   7.116   1.533   4.592 -2.4324  0.8383 -1.8902
  575SOL    HW2 3167   7.209   1.620   4.510 -1.6697  0.6217 -1.2768
  576SOL     OW 3168   0.291   1.299   4.574 -0.1529  0.6684  0.2558
  576SOL    HW1 3169   0.311   1.233   4.640  0.1852 -0.7791 -1.2127
  576SOL    HW2 3170   0.220   1.261   4.523  1.8784  0.0934 -2.3548
  577SOL     OW 3171   2.431   7.545   4.437 -0.5386  0.0429  0.1958
  577SOL    HW1 3172   2.371   7.508   4.372  0.7309 -0.7358 -0.5693
  577SOL    HW2 3173   2.426   7.485   4.511  0.2852 -0.7896 -0.4003
  578SOL     OW 3174   7.309   0.683   3.330  0.3319 -0.3023  0.0125
  578SOL    HW1 3175   7.239   0.719   3.276  0.7406  0.5103  0.0151
  578SOL    HW2 3176   7.276   0.598   3.358 -2.1653  1.3975  2.8727
  579SOL     OW 3177   1.423   0.859   4.616 -0.0269 -0.1016  0.4664
  579SOL    HW1 3178   1.478   0.846   4.692  1.2154 -1.4425 -0.6035
  579SOL    HW2 3179   1.419   0.773   4.573  0.1994  0.8256 -1.5395
  580SOL     OW 3180   0.631   0.409   5.303  0.4899 -0.3589 -0.0751
  580SOL    HW1 3181   0.615   0.479   5.367  1.1434 -0.5328  0.2812
  580SOL    HW2 3182   0.543   0.385   5.272  0.2691  0.7850 -0.3849
  581SOL     OW 3183   2.176   1.975   6.235 -0.3300  0.4169 -0.3915
  581SOL    HW1 3184   2.225   1.976   6.153  1.6707 -1.6652  0.6628
  581SOL    HW2 3185   2.116   1.901   6.227 -0.5334  0.5557 -0.1754
  582SOL     OW 3186   2.616   7.857   5.453 -0.1055 -0.1707  0.3370
  582SOL    HW1 3187   2.576   7.943   5.447  2.1280  0.9510  0.6459
  582SOL    HW2 3188   2.551   7.798   5.414 -2.1764  1.4364  1.1333
  583SOL     OW 3189   0.747   7.769   5.299  0.4755  0.1069  0.3943
  583SOL    HW1 3190   0.696   7.809   5.369  0.1450  0.6247 -0.1352
  583SOL    HW2 3191   0.685   7.759   5.226  0.9748  0.1825 -0.0495
  584SOL     OW 3192   1.678   0.264   4.676 -0.1344  0.4350 -0.3074
  584SOL    HW1 3193   1.637   0.247   4.591 -1.0875  0.4475  0.1289
  584SOL    HW2 3194   1.658   0.356   4.694  0.8885  0.7042 -0.4930
  585SOL     OW 3195   2.607   0.516   3.759 -0.2387 -0.3859 -0.6534
  585SOL    HW1 3196   2.665   0.445   3.790 -1.5777 -1.8715 -1.4016
  585SOL    HW2 3197   2.624   0.522   3.665 -2.4660 -2.0786 -1.2443
  586SOL     OW 3198   0.762   0.810   5.165 -0.1509 -0.0498 -0.0787
  586SOL    HW1 3199   0.667   0.819   5.171 -0.1641 -0.6681  0.7132
  586SOL    HW2 3200   0.791   0.793   5.254  0.6147 -0.7340 -0.4456
  587SOL     OW 3201   6.631   1.437   4.717 -0.1844 -0.3897  0.0137
  587SOL    HW1 3202   6.706   1.397   4.674 -1.7406 -2.3468 -1.0610
  587SOL    HW2 3203   6.652   1.436   4.810  0.8535 -1.4913 -0.2184
  588SOL     OW 3204   0.888   2.083   6.319  0.1929  0.5975  0.1226
  588SOL    HW1 3205   0.905   2.056   6.409  0.8947  0.9050  0.0907
  588SOL    HW2 3206   0.908   2.006   6.266 -0.5862  0.2972  0.2527
  589SOL     OW 3207   1.864   1.013   5.807 -0.1242 -0.0265 -0.0331
  589SOL    HW1 3208   1.898   1.089   5.853 -0.9310 -0.2354  0.9291
  589SOL    HW2 3209   1.769   1.023   5.810 -0.2180 -0.0386 -1.6826
  590SOL     OW 3210   0.607   0.884   5.461  0.0987 -0.4495 -0.2639
  590SOL    HW1 3211   0.569   0.864   5.546  1.0372 -2.4230 -0.2330
  590SOL    HW2 3212   0.532   0.907   5.406 -0.3534  2.9388  1.5062
  591SOL     OW 3213   7.827   0.492   2.535  0.2068 -0.4809 -0.3381
  591SOL    HW1 3214   7.902   0.453   2.580  0.3708 -1.4214 -1.3700
  591SOL    HW2 3215   7.781   0.418   2.497 -1.0003  0.1284 -0.1234
  592SOL     OW 3216   0.396   2.689   4.506 -0.3829 -0.1967 -0.5878
  592SOL    HW1 3217   0.436   2.767   4.545 -0.0614 -1.0733  0.9080
  592SOL    HW2 3218   0.302   2.700   4.523 -0.2913 -0.3514  0.0328
  593SOL     OW 3219   1.210   2.382   3.667  0.6355  0.1738 -0.0119
  593SOL    HW1 3220   1.238   2.473   3.673 -0.1465  0.4537 -0.4733
  593SOL    HW2 3221   1.287   2.331   3.692  1.3965  0.9303 -0.7574
  594SOL     OW 3222   0.122   1.866   6.610 -0.3721  1.0464 -0.2160
  594SOL    HW1 3223   0.028   1.880   6.615 -0.5129 -0.0415  0.7863
  594SOL    HW2 3224   0.160   1.943   6.652 -0.9703  0.0765  2.2532
  595SOL     OW 3225   1.097   1.302   4.325 -0.1029  0.0874 -0.2462
  595SOL    HW1 3226   1.149   1.368   4.279  0.8760  1.0411  2.0240
  595SOL    HW2 3227   1.159   1.232   4.345 -0.2104  0.2149  0.5726
  596SOL     OW 3228   0.024   7.581   4.664 -0.5864  0.1874 -0.3412
  596SOL    HW1 3229  -0.043   7.567   4.732 -0.8848  1.8525 -0.2644
  596SOL    HW2 3230   0.088   7.638   4.705 -0.5770  0.9082 -1.3435
  597SOL     OW 3231   1.455   2.313   6.609 -0.0505 -0.0457 -0.0720
  597SOL    HW1 3232   1.515   2.382   6.581 -3.4069  2.3410 -2.0412
  597SOL    HW2 3233   1.459   2.248   6.538 -0.1521  0.3235 -0.4169
  598SOL     OW 3234   1.910   0.799   3.949 -0.1311  0.2373 -0.6065
  598SOL    HW1 3235   1.832   0.747   3.964  0.0036 -0.2995 -1.6744
  598SOL    HW2 3236   1.880   0.890   3.954 -0.0303  0.2326  3.1897
  599SOL     OW 3237   2.066   7.759   5.884 -0.3303  0.6180  0.4871
  599SOL    HW1 3238   2.076   7.797   5.796  0.1213 -0.9829 -0.1975
  599SOL    HW2 3239   2.150   7.777   5.927  0.7411 -1.4121 -0.6130
  600SOL     OW 3240   0.546   1.794   5.753 -0.1464  0.1199 -0.0963
  600SOL    HW1 3241   0.525   1.815   5.843  0.1726  0.0128  0.0058
  600SOL    HW2 3242   0.588   1.873   5.718  0.2852 -0.0469  0.0350
  601SOL     OW 3243   1.312   3.885   4.288  0.1671  0.6413 -0.2740
  601SOL    HW1 3244   1.294   3.955   4.351  0.3608  0.4819 -0.0406
  601SOL    HW2 3245   1.370   3.825   4.335  0.3236  0.5283 -0.6108
  602SOL     OW 3246   1.638   1.680   6.156  0.0097  0.3974 -0.6957
  602SOL    HW1 3247   1.554   1.682   6.110 -0.5640 -0.1584  0.2977
  602SOL    HW2 3248   1.684   1.759   6.126 -1.5922  1.6859  0.0754
  603SOL     OW 3249   6.418   0.689   4.244  0.0401  0.2525  0.0249
  603SOL    HW1 3250   6.488   0.730   4.295 -0.4758 -1.1869  2.0006
  603SOL    HW2 3251   6.459   0.611   4.207  0.0207  0.5326 -0.6021
  604SOL     OW 3252   2.135   0.977   6.546  0.0207  0.0623 -0.1826
  604SOL    HW1 3253   2.162   0.923   6.472 -0.9972 -2.5467  1.2129
  604SOL    HW2 3254   2.180   0.939   6.622  0.4364  2.1535  0.6964
  605SOL     OW 3255   3.116   7.393   5.152  0.3080  0.5151 -0.3808
  605SOL    HW1 3256   3.101   7.475   5.105  0.3665 -0.2323 -1.7479
  605SOL    HW2 3257   3.185   7.414   5.215 -0.0993  1.6565 -0.2841
  606SOL     OW 3258   1.291   3.507   3.734 -0.6925 -0.4799  0.2534
  606SOL    HW1 3259   1.229   3.552   3.676 -0.9165 -1.0082  0.0775
  606SOL    HW2 3260   1.290   3.416   3.704 -0.6564 -0.7152  0.9543
  607SOL     OW 3261   1.528   1.751   4.739 -0.0870  0.3185 -0.2358
  607SOL    HW1 3262   1.519   1.672   4.793  0.4484  1.4102  1.5674
  607SOL    HW2 3263   1.564   1.720   4.656 -0.3668 -1.3809  0.2320
  608SOL     OW 3264   1.676   0.259   5.066 -0.7648 -0.1314  0.7541
  608SOL    HW1 3265   1.667   0.171   5.029 -1.2846  0.3853 -0.3798
  608SOL    HW2 3266   1.589   0.281   5.098 -0.6658  0.0311  0.9120
  609SOL     OW 3267   3.746   0.294   3.068  0.3409  0.2468 -0.6987
  609SOL    HW1 3268   3.710   0.208   3.048  0.0618  0.2915 -0.3925
  609SOL    HW2 3269   3.829   0.275   3.111 -0.5016  0.0814  0.9324
  610SOL     OW 3270   1.107   2.233   3.964 -0.1707 -0.2275  0.1247
  610SOL    HW1 3271   1.063   2.261   4.044 -0.9279 -1.7822  0.2883
  610SOL    HW2 3272   1.043   2.249   3.895 -0.3143 -0.7963  0.1196
  611SOL     OW 3273   0.834   2.974   6.064 -0.1740 -0.3127 -0.1349
  611SOL    HW1 3274   0.883   2.954   5.984 -1.3046 -0.5023 -0.7942
  611SOL    HW2 3275   0.842   3.070   6.073  1.6799 -0.4862  0.6982
  612SOL     OW 3276   1.475   1.745   2.832  0.3259 -0.0238 -0.3596
  612SOL    HW1 3277   1.543   1.703   2.885 -0.3672 -0.2183  0.3870
  612SOL    HW2 3278   1.426   1.799   2.894  0.2549  0.7069 -1.0283
  613SOL     OW 3279   0.063   0.420   6.200  0.1303 -0.4363 -0.1137
  613SOL    HW1 3280   0.141   0.453   6.245 -0.2605  2.9591 -1.6017
  613SOL    HW2 3281   0.089   0.416   6.108 -0.7079 -1.7715 -0.3065
  614SOL     OW 3282   0.957   1.255   3.421 -0.1180 -0.0482 -0.1691
  614SOL    HW1 3283   0.916   1.339   3.444  0.3878 -0.0129  0.6278
  614SOL    HW2 3284   1.012   1.234   3.496  0.9391 -0.3437 -1.0011
  615SOL     OW 3285   1.838   3.558   7.909 -0.1843  0.5087 -0.7395
  615SOL    HW1 3286   1.791   3.475   7.915  1.2979 -0.2879  0.8964
  615SOL    HW2 3287   1.886   3.553   7.827 -0.0172 -0.3153 -0.5942
  616SOL     OW 3288   0.250   6.148   3.166  0.2838 -0.0498  0.0563
  616SOL    HW1 3289   0.345   6.158   3.162  0.2259  0.3240 -0.4267
  616SOL    HW2 3290   0.235   6.096   3.245  0.9648 -1.0633 -0.4550
  617SOL     OW 3291   0.153   0.245   2.844  0.0924  0.4678 -0.2992
  617SOL    HW1 3292   0.136   0.303   2.918 -1.4988 -0.8847  0.4661
  617SOL    HW2 3293   0.197   0.169   2.882 -1.5834 -0.6701 -0.5044
  618SOL     OW 3294   1.892   1.981   4.226  0.5511  0.0408  0.0024
  618SOL    HW1 3295   1.946   2.004   4.150 -0.8256  0.0537 -1.0121
  618SOL    HW2 3296   1.906   1.887   4.239  1.4843  0.2194  0.3009
  619SOL     OW 3297   1.143   0.484   6.393 -0.3502  0.0270  0.0834
  619SOL    HW1 3298   1.233   0.517   6.393 -0.9241  1.9230 -2.2587
  619SOL    HW2 3299   1.089   0.561   6.371 -2.1796 -1.6971 -1.9732
  620SOL     OW 3300   1.407   1.032   5.423  0.0683 -0.9879  0.1005
  620SOL    HW1 3301   1.338   1.036   5.490  1.2556 -0.8760  1.3654
  620SOL    HW2 3302   1.360   1.041   5.340 -1.3382  0.1491  0.9661
  621SOL     OW 3303   2.501   2.772   4.510  0.1750  0.6721 -0.0040
  621SOL    HW1 3304   2.420   2.750   4.465  0.5720  1.8188 -1.3752
  621SOL    HW2 3305   2.477   2.843   4.570 -0.1387 -0.0980  0.7926
  622SOL     OW 3306   7.633   2.073   7.084  0.1771 -0.2885 -0.2267
  622SOL    HW1 3307   7.586   2.072   7.001  0.5636  1.0237 -0.4831
  622SOL    HW2 3308   7.613   2.158   7.122 -0.5465 -1.1218  1.3792
  623SOL     OW 3309   0.531   2.219   5.080  0.1474  0.3837  0.3166
  623SOL    HW1 3310   0.453   2.174   5.111 -0.8491  1.0389 -1.1069
  623SOL    HW2 3311   0.514   2.235   4.987  2.3797 -0.2814 -0.2785
  624SOL     OW 3312   1.124   0.625   4.898  0.2322 -0.2487 -0.4247
  624SOL    HW1 3313   1.089   0.680   4.968 -0.1282  0.3810 -1.0849
  624SOL    HW2 3314   1.178   0.560   4.943 -0.1929 -0.0108  0.4539
  625SOL     OW 3315   7.850   7.161   4.247 -0.2239  0.6098 -0.9793
  625SOL    HW1 3316   7.767   7.132   4.286  0.0158 -0.0308 -0.9461
  625SOL    HW2 3317   7.905   7.083   4.246  0.5879  1.1548 -0.4793
  626SOL     OW 3318   0.450   2.659   3.408 -0.0048 -0.1160 -0.0953
  626SOL    HW1 3319   0.409   2.719   3.470  1.3120 -1.7889  2.6148
  626SOL    HW2 3320   0.534   2.637   3.448  0.1734 -2.6588 -1.6200
  627SOL     OW 3321   3.477   7.822   7.243 -0.4176 -0.1027  0.1204
  627SOL    HW1 3322   3.529   7.898   7.265 -1.2975  0.2888  0.9315
  627SOL    HW2 3323   3.386   7.852   7.250 -0.7717 -0.8475 -0.9375
  628SOL     OW 3324   0.464   0.917   5.004 -0.5716  0.7650  0.5050
  628SOL    HW1 3325   0.507   0.899   4.921 -1.2307  1.6933 -0.0478
  628SOL    HW2 3326   0.392   0.976   4.983 -1.0075  0.6952  1.6749
  629SOL     OW 3327   1.275   1.441   6.808 -0.5440  0.1464 -0.7141
  629SOL    HW1 3328   1.254   1.532   6.787 -1.1219  0.3624  0.6433
  629SOL    HW2 3329   1.222   1.422   6.885 -0.2350 -1.2680 -0.8247
  630SOL     OW 3330   7.820   7.421   4.328 -0.3242 -0.0693  0.5098
  630SOL    HW1 3331   7.818   7.337   4.283 -0.7178 -0.4347  1.2040
  630SOL    HW2 3332   7.911   7.450   4.322 -0.3472 -0.1465 -0.4387
  631SOL     OW 3333   6.224   1.581   3.224  0.1408 -0.4252  0.5077
  631SOL    HW1 3334   6.214   1.487   3.233  0.0050 -0.3072  1.7061
  631SOL    HW2 3335   6.138   1.616   3.249 -0.0119 -0.0088 -0.5437
  632SOL     OW 3336   1.163   0.900   5.872  0.2900  0.2232  0.3160
  632SOL    HW1 3337   1.192   0.869   5.958  0.5573 -1.1484 -0.2484
  632SOL    HW2 3338   1.083   0.851   5.856 -0.2223  1.1031  0.1363
  633SOL     OW 3339   7.662   0.381   3.112 -0.5273 -0.7426 -0.0679
  633SOL    HW1 3340   7.729   0.370   3.044  1.8538  0.1579  1.9415
  633SOL    HW2 3341   7.686   0.462   3.156 -2.6302 -0.7286  1.1693
  634SOL     OW 3342   2.001   0.508   4.535  0.4466 -0.2250 -0.4216
  634SOL    HW1 3343   2.039   0.427   4.503  0.2456 -0.8832  0.9289
  634SOL    HW2 3344   1.908   0.491   4.542  0.2987  0.3727 -0.8334
  635SOL     OW 3345   0.330   2.993   4.330  0.2180  0.1093  0.0354
  635SOL    HW1 3346   0.405   2.974   4.387 -0.8375 -2.0689  0.7930
  635SOL    HW2 3347   0.258   3.011   4.390  0.1411  2.6506 -0.6868
  636SOL     OW 3348   2.714   0.537   4.596  0.0977  0.2398 -0.3812
  636SOL    HW1 3349   2.693   0.630   4.606 -0.5409 -0.1118  2.4181
  636SOL    HW2 3350   2.760   0.532   4.512 -0.9805  2.8520 -1.2397
  637SOL     OW 3351   2.984   0.772   5.332 -0.7385 -0.7362 -0.0632
  637SOL    HW1 3352   2.927   0.834   5.287 -0.0750 -0.8303 -1.0489
  637SOL    HW2 3353   2.975   0.794   5.425 -0.1023  1.1741 -0.4245
  638SOL     OW 3354   2.039   1.990   6.469  0.2267 -0.6409 -0.4512
  638SOL    HW1 3355   1.955   2.015   6.430  0.0814 -2.0856 -1.1506
  638SOL    HW2 3356   2.102   1.998   6.397  0.3734 -1.1143 -0.3834
  639SOL     OW 3357   0.364   3.003   3.445 -0.2499 -0.1276 -0.0686
  639SOL    HW1 3358   0.394   3.066   3.380 -1.4132  0.5258 -0.0040
  639SOL    HW2 3359   0.412   3.025   3.524 -0.7759  0.8105  0.0012
  640SOL     OW 3360   2.706   1.346   4.772 -0.1552  0.2834 -0.2272
  640SOL    HW1 3361   2.703   1.279   4.704  0.0352  1.1802 -1.1514
  640SOL    HW2 3362   2.758   1.417   4.733 -1.3159  1.4379  0.2756
  641SOL     OW 3363   0.714   7.106   4.394 -0.2648  0.6712 -0.0409
  641SOL    HW1 3364   0.755   7.069   4.472  0.2088  0.8732 -0.1899
  641SOL    HW2 3365   0.749   7.055   4.321  0.9234  1.8332 -0.3108
  642SOL     OW 3366   0.251   7.478   5.754 -0.9502  0.0963  0.5321
  642SOL    HW1 3367   0.215   7.411   5.697 -0.3538 -0.5052  0.8512
  642SOL    HW2 3368   0.343   7.487   5.726 -0.3609 -0.9304  2.0190
  643SOL     OW 3369   2.298   7.224   7.708 -0.1135  0.4536 -0.4478
  643SOL    HW1 3370   2.234   7.262   7.767  0.7431  2.0888 -0.5299
  643SOL    HW2 3371   2.324   7.296   7.651  2.5144  0.1207  0.2131
  644SOL     OW 3372   2.714   6.833   4.833  0.0929 -0.2666 -0.8222
  644SOL    HW1 3373   2.653   6.904   4.815 -1.3296 -1.1354  0.4098
  644SOL    HW2 3374   2.772   6.867   4.901 -0.1806 -0.0909 -0.6804
  645SOL     OW 3375   1.358   1.153   3.619  0.3172  0.5507  0.2401
  645SOL    HW1 3376   1.265   1.159   3.598  0.3946  0.9866  0.0071
  645SOL    HW2 3377   1.403   1.174   3.537  0.6244 -0.0571  0.2482
  646SOL     OW 3378   7.994   2.882   2.731  0.4363  0.1091  0.4914
  646SOL    HW1 3379   7.919   2.822   2.726  0.6930 -0.1850  0.1185
  646SOL    HW2 3380   8.069   2.825   2.745  0.7719  0.2761 -0.5503
  647SOL     OW 3381   0.975   2.226   4.378  0.3278 -0.0226 -0.5913
  647SOL    HW1 3382   0.885   2.257   4.371  0.3138  0.0578 -0.0404
  647SOL    HW2 3383   0.974   2.140   4.336 -0.0011 -0.0129 -0.6037
  648SOL     OW 3384   1.679   2.729   3.104  0.0633 -0.2235  0.2248
  648SOL    HW1 3385   1.658   2.734   3.011 -0.8039  0.4742  0.4540
  648SOL    HW2 3386   1.766   2.689   3.106 -0.0528 -0.5653 -0.8638
  649SOL     OW 3387   1.764   3.397   6.727  0.0220 -0.0623  0.6356
  649SOL    HW1 3388   1.770   3.367   6.817  0.6588 -0.8253  0.3478
  649SOL    HW2 3389   1.691   3.346   6.690  0.5437 -0.6436  0.3897
  650SOL     OW 3390   0.706   0.767   6.445  0.9697  0.0084  0.7347
  650SOL    HW1 3391   0.694   0.738   6.355 -0.1391 -3.0883  1.7311
  650SOL    HW2 3392   0.736   0.858   6.438 -0.5730  0.3996 -2.6688
  651SOL     OW 3393   0.439   1.917   3.313  0.5604  0.0418 -0.3334
  651SOL    HW1 3394   0.487   1.976   3.255 -1.1232  0.1534 -1.6576
  651SOL    HW2 3395   0.356   1.900   3.268 -0.3445 -0.7504  1.5299
  652SOL     OW 3396   0.948   2.342   3.609 -0.6422  0.5306  0.2903
  652SOL    HW1 3397   1.034   2.363   3.644 -0.5067 -1.0763  1.0097
  652SOL    HW2 3398   0.953   2.249   3.587 -2.5884  0.0517  1.6146
  653SOL     OW 3399   2.283   0.020   4.445  0.7909 -0.1436 -0.3137
  653SOL    HW1 3400   2.207   0.041   4.391  0.0022 -1.6015  0.1690
  653SOL    HW2 3401   2.265   0.062   4.529  0.1685 -1.0488  0.0183
  654SOL     OW 3402   2.055   7.024   4.225 -0.5715  0.5162 -0.4196
  654SOL    HW1 3403   2.123   7.076   4.268 -0.5887  0.5706 -0.4580
  654SOL    HW2 3404   2.027   7.078   4.151 -0.0054  0.0949 -0.9558
  655SOL     OW 3405   1.009   2.411   4.903 -0.3131 -0.1577 -0.0901
  655SOL    HW1 3406   1.000   2.373   4.990 -0.9791 -0.4275 -0.2715
  655SOL    HW2 3407   0.925   2.453   4.885  0.2008  0.8865 -0.1510
  656SOL     OW 3408   7.928   6.906   6.670 -0.1788  0.2631  0.8233
  656SOL    HW1 3409   7.999   6.901   6.605  0.8167 -0.6078  1.9254
  656SOL    HW2 3410   7.964   6.962   6.739 -1.6856  2.1886  0.1217
  657SOL     OW 3411   7.586   2.345   4.646 -0.6018 -0.2106 -0.3148
  657SOL    HW1 3412   7.573   2.265   4.698 -0.1453 -0.0585  0.0356
  657SOL    HW2 3413   7.669   2.331   4.601 -1.7248 -1.0391 -2.3111
  658SOL     OW 3414   1.560   7.980   2.849  0.5197 -0.1872  0.3539
  658SOL    HW1 3415   1.558   7.941   2.936 -0.0890  0.0229  0.4459
  658SOL    HW2 3416   1.467   7.989   2.825  0.6236  1.5063  0.4867
  659SOL     OW 3417   1.854   0.087   3.161  0.2533  0.1103 -0.0495
  659SOL    HW1 3418   1.848   0.013   3.221  0.1822  0.0151 -0.1737
  659SOL    HW2 3419   1.929   0.137   3.192  0.8148 -0.4619 -0.4666
  660SOL     OW 3420   7.913   1.437   2.454  0.5157  0.4334 -0.2267
  660SOL    HW1 3421   7.983   1.502   2.450  0.9696 -0.0611 -0.5662
  660SOL    HW2 3422   7.959   1.354   2.471  0.0975 -0.0156 -1.2015
  661SOL     OW 3423   0.764   1.008   3.712  0.1921  0.3707  0.4640
  661SOL    HW1 3424   0.847   0.969   3.737 -0.2321  0.8241  2.7643
  661SOL    HW2 3425   0.788   1.088   3.665  1.0140 -0.4884 -0.6379
  662SOL     OW 3426   0.703   1.299   3.629  0.1072 -0.4077 -0.0762
  662SOL    HW1 3427   0.615   1.266   3.609 -0.0928  0.8790 -1.4913
  662SOL    HW2 3428   0.729   1.348   3.551 -0.1118  3.8477  2.2052
  663SOL     OW 3429   7.820   0.965   5.387  0.3510 -0.4934  0.2768
  663SOL    HW1 3430   7.860   1.007   5.312 -0.6192  0.6441  0.3747
  663SOL    HW2 3431   7.816   0.872   5.364 -0.3793 -0.0943 -1.2756
  664SOL     OW 3432   1.561   1.248   5.310 -0.2749  0.3085  0.5015
  664SOL    HW1 3433   1.536   1.167   5.353  0.1642  0.3213  0.7848
  664SOL    HW2 3434   1.656   1.243   5.302 -0.1756  1.0866  1.1116
  665SOL     OW 3435   1.306   1.534   5.228  0.2810  0.0456 -0.0350
  665SOL    HW1 3436   1.284   1.480   5.305  0.5841  1.3641  1.0186
  665SOL    HW2 3437   1.248   1.609   5.234 -1.2165 -0.8080 -2.3450
  666SOL     OW 3438   7.269   0.998   4.886 -0.1182 -0.2279 -0.1174
  666SOL    HW1 3439   7.238   1.048   4.962  0.6708  0.5779 -0.3109
  666SOL    HW2 3440   7.335   0.939   4.921  1.1603  1.0126 -0.3273
  667SOL     OW 3441   7.355   0.507   5.858  0.2025 -0.2422  0.0838
  667SOL    HW1 3442   7.439   0.466   5.879  0.3222  0.6463  1.5030
  667SOL    HW2 3443   7.317   0.529   5.943  0.4456  3.1120 -0.5469
  668SOL     OW 3444   2.235   5.871   6.466  0.0891 -0.3417 -0.0473
  668SOL    HW1 3445   2.278   5.882   6.381  0.8885  0.1711  0.4068
  668SOL    HW2 3446   2.259   5.949   6.515 -0.4268 -0.5979  0.6336
  669SOL     OW 3447   0.492   1.520   5.405  0.5139 -0.0293 -0.1856
  669SOL    HW1 3448   0.470   1.613   5.412 -1.9145 -0.6504  2.2178
  669SOL    HW2 3449   0.533   1.499   5.489  0.7791 -1.2092 -0.5871
  670SOL     OW 3450   0.601   1.640   7.036  0.1495  0.5893 -0.1132
  670SOL    HW1 3451   0.571   1.700   6.968  0.4285 -0.6153 -1.3511
  670SOL    HW2 3452   0.532   1.644   7.103 -0.2423  1.6417 -0.5453
  671SOL     OW 3453   1.454   1.491   4.841  0.0218  0.1620 -0.0453
  671SOL    HW1 3454   1.519   1.448   4.787 -1.3832 -1.9354 -0.1889
  671SOL    HW2 3455   1.483   1.475   4.931 -0.1248 -0.5400 -0.1150
  672SOL     OW 3456   0.810   7.775   6.747  0.0158  0.2548 -0.1075
  672SOL    HW1 3457   0.866   7.696   6.744  1.2213  1.1096 -1.2059
  672SOL    HW2 3458   0.837   7.819   6.827  1.5770  1.0773 -1.0345
  673SOL     OW 3459   1.584   7.053   5.312  0.2562 -0.3998  0.2550
  673SOL    HW1 3460   1.639   6.988   5.355 -0.9115 -0.6218  1.4938
  673SOL    HW2 3461   1.518   7.001   5.266 -0.6291 -0.1401  1.1796
  674SOL     OW 3462   0.001   7.851   4.987 -0.2012  0.8321  0.0341
  674SOL    HW1 3463  -0.059   7.782   4.959 -2.1786  1.1736  2.9713
  674SOL    HW2 3464   0.027   7.895   4.906 -3.4958  0.2808 -1.4846
  675SOL     OW 3465   1.660   1.039   8.167 -0.0330 -0.0814 -0.3167
  675SOL    HW1 3466   1.580   1.035   8.219 -0.9805 -0.5586 -1.7464
  675SOL    HW2 3467   1.629   1.045   8.076  1.5496 -0.2747 -0.8982
  676SOL     OW 3468   1.010   1.926   5.895 -0.4923  0.0369 -0.3381
  676SOL    HW1 3469   0.926   1.953   5.931 -0.2887  2.4460 -1.4759
  676SOL    HW2 3470   0.988   1.866   5.824 -1.1814 -0.1771  0.0501
  677SOL     OW 3471   1.312   1.000   6.745 -0.3302 -0.4005 -0.5639
  677SOL    HW1 3472   1.327   1.073   6.685  1.0437  0.4559  0.7248
  677SOL    HW2 3473   1.322   1.039   6.832 -1.8471 -1.6722  0.2431
  678SOL     OW 3474   6.828   2.434   6.077  0.0060 -0.1445  0.1700
  678SOL    HW1 3475   6.810   2.516   6.123  1.5934 -0.2291  1.0184
  678SOL    HW2 3476   6.752   2.379   6.093 -0.1973  0.4520  1.2891
  679SOL     OW 3477   2.234   1.223   6.679  0.2173 -0.1530  0.1087
  679SOL    HW1 3478   2.190   1.145   6.645 -0.2940 -0.3775  1.2326
  679SOL    HW2 3479   2.309   1.190   6.728 -0.3823 -0.0193  1.1668
  680SOL     OW 3480   0.905   0.821   7.342  0.3496  0.7698 -0.1531
  680SOL    HW1 3481   0.923   0.730   7.365  0.1869  0.2774 -1.8197
  680SOL    HW2 3482   0.885   0.864   7.425 -0.3216 -0.8931  0.5856
  681SOL     OW 3483   2.104   0.346   7.042 -0.4008 -0.3524  0.4224
  681SOL    HW1 3484   2.186   0.361   6.996 -0.2508 -0.7328  0.5637
  681SOL    HW2 3485   2.108   0.255   7.070 -1.4891 -0.8321 -0.8225
  682SOL     OW 3486   0.772   1.843   6.187  0.3951 -0.0402 -0.4166
  682SOL    HW1 3487   0.768   1.789   6.108  1.9646  0.4357 -0.8781
  682SOL    HW2 3488   0.682   1.853   6.215  0.0683 -3.5270  0.1356
  683SOL     OW 3489   1.834   1.169   7.214  0.0634 -0.3587  0.0180
  683SOL    HW1 3490   1.823   1.129   7.300  0.3203 -0.4664  0.0010
  683SOL    HW2 3491   1.747   1.205   7.193  0.1235  0.1062  0.5381
  684SOL     OW 3492   7.003   0.321   5.738  0.0087  0.5449 -0.4459
  684SOL    HW1 3493   7.061   0.385   5.698 -1.3834  0.4333 -2.8800
  684SOL    HW2 3494   6.916   0.360   5.733 -0.3832  0.0435  1.6055
  685SOL     OW 3495   0.385   7.988   6.327  0.5603  0.4909 -0.6647
  685SOL    HW1 3496   0.365   7.956   6.415  2.0113  2.2920  0.4105
  685SOL    HW2 3497   0.465   7.941   6.302 -1.0239 -1.6373 -2.0270
  686SOL     OW 3498   1.179   0.945   5.584  0.2230 -0.1507 -0.0988
  686SOL    HW1 3499   1.200   0.968   5.674  1.1327 -0.3596 -0.2435
  686SOL    HW2 3500   1.110   0.878   5.591  1.2714 -1.2054  0.5131
  687SOL     OW 3501   1.391   0.594   6.109  0.3086 -0.1514 -0.3225
  687SOL    HW1 3502   1.413   0.630   6.023  0.7360  1.5994  0.4786
  687SOL    HW2 3503   1.422   0.660   6.171 -0.6982 -1.0114  1.1516
  688SOL     OW 3504   1.272   0.227   9.014 -0.4772  0.1526  0.7012
  688SOL    HW1 3505   1.265   0.319   8.989  0.3946  0.0503  0.0310
  688SOL    HW2 3506   1.256   0.227   9.108  0.5517  1.1466  0.9067
  689SOL     OW 3507   0.158   0.159   6.360 -0.0525  0.1762 -0.6608
  689SOL    HW1 3508   0.201   0.226   6.414 -1.1758  0.4757 -0.0996
  689SOL    HW2 3509   0.228   0.100   6.335  0.6170  0.3844  0.6148
  690SOL     OW 3510   1.121   2.252   6.070 -0.2507 -0.4435 -0.4488
  690SOL    HW1 3511   1.107   2.270   5.977 -1.8711  0.4139 -0.0721
  690SOL    HW2 3512   1.070   2.319   6.116  0.9629 -0.5063  1.0716
  691SOL     OW 3513   6.957   2.223   5.703 -0.6277 -0.2852 -0.1391
  691SOL    HW1 3514   6.973   2.158   5.635  0.2945 -0.9404  0.6820
  691SOL    HW2 3515   6.875   2.265   5.676 -0.2052 -0.4041 -1.7349
  692SOL     OW 3516   1.661   0.116   6.590  0.0009 -0.0151  0.0749
  692SOL    HW1 3517   1.628   0.199   6.557  0.8267 -0.4475 -1.9594
  692SOL    HW2 3518   1.752   0.113   6.562  0.6616 -0.6432  2.0871
  693SOL     OW 3519   2.649   0.333   6.973 -0.1043  0.0069  0.2608
  693SOL    HW1 3520   2.621   0.384   7.049  0.3446 -0.2909  0.6319
  693SOL    HW2 3521   2.643   0.393   6.900 -0.0796  0.4429  0.6121
  694SOL     OW 3522   0.516   0.347   8.336  0.1192 -0.0277  0.3154
  694SOL    HW1 3523   0.486   0.284   8.270  2.1603 -0.5113 -0.2331
  694SOL    HW2 3524   0.593   0.305   8.375  0.9524  1.7101  0.6090
  695SOL     OW 3525   7.771   2.772   7.179  0.3941 -0.1831 -0.3270
  695SOL    HW1 3526   7.695   2.810   7.136  0.6266  0.3685 -0.2589
  695SOL    HW2 3527   7.783   2.824   7.258  1.5218  0.4984 -0.9138
  696SOL     OW 3528   1.106   1.557   6.565 -0.2276  0.2688  0.2262
  696SOL    HW1 3529   1.041   1.594   6.505 -0.1455  0.1453  0.0613
  696SOL    HW2 3530   1.168   1.629   6.580 -0.1041  0.2198 -0.0430
  697SOL     OW 3531   0.221   6.852   6.877  0.0672 -0.6338  0.2072
  697SOL    HW1 3532   0.254   6.881   6.792 -1.4894  0.8570  0.0508
  697SOL    HW2 3533   0.255   6.915   6.940 -0.6623 -0.3627  0.3435
  698SOL     OW 3534   7.306   1.508   6.953 -0.0847 -0.4499  0.0598
  698SOL    HW1 3535   7.356   1.585   6.980 -0.8229  0.1314 -0.1894
  698SOL    HW2 3536   7.223   1.516   7.000 -0.3066 -0.9079 -0.2480
  699SOL     OW 3537   2.386   0.150   5.735 -0.2285  0.5497 -0.3795
  699SOL    HW1 3538   2.331   0.083   5.694 -0.9193  1.1085 -0.3899
  699SOL    HW2 3539   2.336   0.178   5.812  0.1565  0.8959 -0.2507
  700SOL     OW 3540   1.232   2.782   7.897 -0.1314  0.3747 -0.7015
  700SOL    HW1 3541   1.257   2.698   7.860  0.7050  1.0662 -1.7944
  700SOL    HW2 3542   1.308   2.810   7.948 -0.2063  0.6798 -0.7515
  701SOL     OW 3543   7.336   7.699   5.744  0.7742 -0.0859  0.5962
  701SOL    HW1 3544   7.331   7.653   5.828  1.1384 -0.5149  0.3875
  701SOL    HW2 3545   7.390   7.643   5.689  0.6336  0.2491  0.1074
  702SOL     OW 3546   0.974   0.775   5.690 -0.1864  0.3342 -0.6948
  702SOL    HW1 3547   1.004   0.688   5.664 -1.4073  0.3512 -2.3874
  702SOL    HW2 3548   0.890   0.760   5.733  0.5025  0.5594  0.8007
  703SOL     OW 3549   1.002   0.758   6.419 -0.6043 -0.7005 -0.7553
  703SOL    HW1 3550   0.945   0.834   6.424  2.8227  2.2745 -2.5578
  703SOL    HW2 3551   1.040   0.750   6.506 -1.5125 -0.8550 -0.3649
  704SOL     OW 3552   1.622   7.680   6.116  0.4291  0.2372 -0.3950
  704SOL    HW1 3553   1.691   7.723   6.165 -0.6028  1.3219  0.1493
  704SOL    HW2 3554   1.593   7.609   6.173 -1.6412  2.2619  1.2590
  705SOL     OW 3555   2.612   7.343   9.289 -0.1825  0.0459  0.4603
  705SOL    HW1 3556   2.678   7.323   9.355 -0.9927  0.0156  1.2908
  705SOL    HW2 3557   2.604   7.439   9.292 -0.1039  0.0570  0.2954
  706SOL     OW 3558   0.339   1.066   7.276  0.1860 -0.6603  0.3520
  706SOL    HW1 3559   0.366   1.093   7.188  0.3529  1.0632  0.9118
  706SOL    HW2 3560   0.341   0.970   7.273 -1.2113 -0.6916 -1.9509
  707SOL     OW 3561   7.701   7.707   7.124  0.0479 -0.3077  0.2274
  707SOL    HW1 3562   7.795   7.721   7.127 -0.0920  0.5672  2.7219
  707SOL    HW2 3563   7.691   7.617   7.093  1.7334 -0.6384  0.5527
  708SOL     OW 3564   1.016   0.088   9.571 -0.1951 -0.2073 -0.3903
  708SOL    HW1 3565   0.924   0.108   9.587 -0.8899 -3.1359 -0.2437
  708SOL    HW2 3566   1.016   0.032   9.493  1.4168 -0.7255 -0.0566
  709SOL     OW 3567   0.535   3.018   7.172  0.2993  0.3546 -0.1192
  709SOL    HW1 3568   0.448   3.052   7.195  0.9126  1.2742  0.9377
  709SOL    HW2 3569   0.565   3.075   7.101  0.1013  0.1340 -0.3799
  710SOL     OW 3570   0.188   7.849   6.133  0.5292  0.5255  0.3222
  710SOL    HW1 3571   0.110   7.897   6.161 -0.0814  0.0919 -0.5915
  710SOL    HW2 3572   0.261   7.909   6.149 -0.1604  1.5571 -0.3068
  711SOL     OW 3573   3.671   7.018   6.093 -0.3146 -0.2608  0.3996
  711SOL    HW1 3574   3.626   6.944   6.131 -0.0081 -0.8547 -0.3549
  711SOL    HW2 3575   3.656   7.090   6.154 -0.9328 -0.8443  0.9484
  712SOL     OW 3576   1.027   0.498   5.777  0.3561 -0.4390 -0.2179
  712SOL    HW1 3577   1.016   0.455   5.692  0.4306  0.4128 -0.6659
  712SOL    HW2 3578   0.941   0.492   5.818 -0.1290  0.5690 -1.0434
  713SOL     OW 3579   0.205   3.485   6.864 -0.3993  0.2630 -0.1369
  713SOL    HW1 3580   0.228   3.508   6.954  0.8758  0.6211 -0.5256
  713SOL    HW2 3581   0.114   3.513   6.854 -0.3408  0.8397  0.8288
  714SOL     OW 3582   1.276   7.524   6.191 -0.1670  0.4769  0.3090
  714SOL    HW1 3583   1.316   7.562   6.270  0.6291 -1.0888  0.6978
  714SOL    HW2 3584   1.351   7.501   6.135 -0.6262 -0.4209  0.0481
  715SOL     OW 3585   3.450   6.685   8.829  0.2847  0.1517  0.1639
  715SOL    HW1 3586   3.492   6.771   8.819  0.2190  0.4259  1.9306
  715SOL    HW2 3587   3.439   6.675   8.923 -0.6640 -1.3587 -0.0790
  716SOL     OW 3588   2.008   0.701   5.666  0.3532 -0.2391 -0.5124
  716SOL    HW1 3589   1.976   0.616   5.698 -0.5545  0.2909  0.0352
  716SOL    HW2 3590   1.929   0.745   5.634  0.9135  0.1609 -1.3509
  717SOL     OW 3591   7.213   1.052   6.710  0.0645  0.3839  0.3520
  717SOL    HW1 3592   7.188   0.987   6.775 -0.4151  0.0932 -0.1142
  717SOL    HW2 3593   7.175   1.134   6.742 -2.8415 -0.2854 -1.0496
  718SOL     OW 3594   1.737   1.389   6.007  0.1806 -0.1616 -0.1682
  718SOL    HW1 3595   1.658   1.428   5.969  0.6060  0.9005 -0.0005
  718SOL    HW2 3596   1.706   1.341   6.083 -0.4357 -0.6968 -0.7446
  719SOL     OW 3597   0.746   1.227   5.374  0.6475 -0.1476  0.0632
  719SOL    HW1 3598   0.689   1.255   5.303 -1.2664 -1.1738  1.1033
  719SOL    HW2 3599   0.809   1.298   5.384  0.4394  0.3940 -2.0681
  720SOL     OW 3600   3.476   1.777   7.058  0.3438  0.4374 -0.1248
  720SOL    HW1 3601   3.459   1.808   6.969 -2.3780  0.6328  0.3852
  720SOL    HW2 3602   3.438   1.843   7.115  2.1008  0.3483  1.2436
  721SOL     OW 3603   1.092   2.598   7.622  0.2099  0.0931  0.4172
  721SOL    HW1 3604   1.174   2.591   7.670  0.8803 -0.5513 -0.7655
  721SOL    HW2 3605   1.026   2.567   7.683  1.2916 -2.7480  0.2737
  722SOL     OW 3606   2.342   6.643   6.763  0.1527 -0.2789  0.1655
  722SOL    HW1 3607   2.317   6.700   6.690 -0.2641  1.1472  1.3893
  722SOL    HW2 3608   2.436   6.631   6.752  0.3922  1.3069  0.3274
  723SOL     OW 3609   7.876   0.948   7.669  0.0111 -0.0920 -0.7760
  723SOL    HW1 3610   7.807   0.998   7.713 -2.0837 -1.8327 -1.8844
  723SOL    HW2 3611   7.917   1.011   7.610 -0.4204  1.0725  0.1305
  724SOL     OW 3612   7.502   7.980   8.930  0.2157 -0.3463 -0.3980
  724SOL    HW1 3613   7.578   7.928   8.905 -0.7952 -2.8109  1.3088
  724SOL    HW2 3614   7.426   7.931   8.898 -0.7740  0.3723  0.7159
  725SOL     OW 3615   0.352   2.053   7.176 -0.0803 -0.3988  0.1580
  725SOL    HW1 3616   0.445   2.048   7.197  0.0823  0.1296 -0.4016
  725SOL    HW2 3617   0.308   2.021   7.255  0.5960 -1.5991  0.0827
  726SOL     OW 3618   7.244   0.214   6.219 -0.5772  0.1040  0.6074
  726SOL    HW1 3619   7.156   0.248   6.202 -1.0043 -1.4392 -0.4454
  726SOL    HW2 3620   7.297   0.247   6.147 -0.8147 -0.7878  0.0146
  727SOL     OW 3621   1.753   2.602   5.718  0.5773 -0.4000 -0.4134
  727SOL    HW1 3622   1.766   2.534   5.783  2.3294  0.0736 -0.2239
  727SOL    HW2 3623   1.806   2.575   5.643 -2.0990 -1.3992 -2.0875
  728SOL     OW 3624   7.239   2.081   4.475 -0.2349 -0.2680  0.3018
  728SOL    HW1 3625   7.292   2.066   4.553 -0.4420  0.1924  0.5409
  728SOL    HW2 3626   7.150   2.096   4.509 -0.4835 -0.8489 -0.0771
  729SOL     OW 3627   1.267   0.772   6.620 -0.1103  0.0336 -0.7798
  729SOL    HW1 3628   1.289   0.855   6.663  0.2771  0.4918 -1.8180
  729SOL    HW2 3629   1.330   0.765   6.549  0.5394 -1.6860 -0.0815
  730SOL     OW 3630   0.219   1.433   6.549  0.6864 -0.2359 -0.3764
  730SOL    HW1 3631   0.297   1.409   6.499  0.8075  0.4085 -0.5168
  730SOL    HW2 3632   0.210   1.528   6.535  0.6182 -0.0748  0.6904
  731SOL     OW 3633   1.897   1.965   7.153 -0.1738  0.1786  0.4174
  731SOL    HW1 3634   1.839   1.890   7.137 -0.1153 -0.1124  1.4694
  731SOL    HW2 3635   1.841   2.030   7.196 -0.0838  0.5222  0.0246
  732SOL     OW 3636   1.483   7.016   6.491  0.3495 -0.0178 -0.2486
  732SOL    HW1 3637   1.500   7.102   6.530 -0.3224  0.2384 -0.4917
  732SOL    HW2 3638   1.557   7.000   6.433  1.2735 -0.3241  0.9783
  733SOL     OW 3639   7.847   7.062   7.182  0.2901  0.5278 -0.6022
  733SOL    HW1 3640   7.909   7.097   7.246 -0.2070 -2.0976  1.4386
  733SOL    HW2 3641   7.901   7.007   7.125  0.3525  0.9911 -0.9980
  734SOL     OW 3642   2.239   0.138   9.150 -0.4669  0.5714  0.2201
  734SOL    HW1 3643   2.204   0.049   9.140 -3.1787  1.5504  0.3375
  734SOL    HW2 3644   2.185   0.178   9.218  2.4445  1.5320  2.1815
  735SOL     OW 3645   0.777   1.723   6.628 -0.1640  0.4323 -0.7620
  735SOL    HW1 3646   0.747   1.642   6.668  0.2010  0.3183 -0.7128
  735SOL    HW2 3647   0.817   1.696   6.546  0.5734  0.4848 -0.4256
  736SOL     OW 3648   1.880   7.796   7.482  0.2634 -0.5512 -0.0054
  736SOL    HW1 3649   1.964   7.842   7.474 -0.2559  0.3351 -0.5180
  736SOL    HW2 3650   1.867   7.754   7.397 -0.7321  0.9699 -0.6577
  737SOL     OW 3651   0.284   3.203   7.098  0.1292  0.0171  0.6277
  737SOL    HW1 3652   0.305   3.258   7.174  1.7400  1.5953 -0.8623
  737SOL    HW2 3653   0.218   3.141   7.131 -2.1221  3.0269  2.3559
  738SOL     OW 3654   2.473   1.003   5.889 -0.0774 -0.7138 -0.3155
  738SOL    HW1 3655   2.466   0.958   5.805 -0.3285 -1.7571  0.2427
  738SOL    HW2 3656   2.565   1.030   5.894  0.3133 -1.9474 -0.3023
  739SOL     OW 3657   7.910   6.516   7.393  0.0050 -0.5332 -0.0374
  739SOL    HW1 3658   8.005   6.514   7.398  0.0464  0.7442  0.0230
  739SOL    HW2 3659   7.880   6.494   7.481  0.2220 -1.3246 -0.1535
  740SOL     OW 3660   7.975   3.792   5.024 -0.1916 -0.1055 -0.0664
  740SOL    HW1 3661   7.971   3.793   5.119 -1.5382  1.2778 -0.1019
  740SOL    HW2 3662   8.044   3.855   5.003 -2.1531  2.2156  0.0000
  741SOL     OW 3663   0.634   6.897   7.285 -0.4075 -0.2004  1.5045
  741SOL    HW1 3664   0.689   6.886   7.362 -0.6678 -2.3960  1.4475
  741SOL    HW2 3665   0.695   6.910   7.213  0.1157 -2.3713  1.4811
  742SOL     OW 3666   0.804   5.915   4.416  0.2826  0.4108 -0.3500
  742SOL    HW1 3667   0.821   5.952   4.502  0.7634  3.7450 -1.7282
  742SOL    HW2 3668   0.727   5.860   4.428 -0.4312  1.7913  1.9713
  743SOL     OW 3669   0.369   1.046   6.390 -1.5842 -0.1442  0.0100
  743SOL    HW1 3670   0.364   1.033   6.484 -0.5619 -0.0147  0.0949
  743SOL    HW2 3671   0.393   0.960   6.355 -1.4820 -0.0778 -0.0852
  744SOL     OW 3672   7.590   1.173   6.352  0.3036 -0.5746 -0.9454
  744SOL    HW1 3673   7.682   1.185   6.329  0.4497 -1.2029 -0.7026
  744SOL    HW2 3674   7.591   1.110   6.424 -0.1952  0.9431  0.4430
  745SOL     OW 3675   0.751   0.467   6.539  0.7679 -0.3766 -0.6920
  745SOL    HW1 3676   0.708   0.544   6.502 -1.8413 -0.4290  1.8944
  745SOL    HW2 3677   0.811   0.502   6.604 -0.8620 -0.4289  0.9210
  746SOL     OW 3678   1.307   7.641   5.769  0.1724 -0.7276 -0.1703
  746SOL    HW1 3679   1.301   7.718   5.827  0.3006 -2.5225  2.3789
  746SOL    HW2 3680   1.241   7.658   5.701 -0.9979  0.8847  1.2496
  747SOL     OW 3681   0.318   7.345   6.093 -0.7195  0.1957 -0.6256
  747SOL    HW1 3682   0.296   7.432   6.059  0.9434  0.0583 -2.2141
  747SOL    HW2 3683   0.266   7.336   6.172 -2.7535  1.6626 -1.7124
  748SOL     OW 3684   0.129   1.159   6.878  0.2154  0.4103  0.3697
  748SOL    HW1 3685   0.063   1.180   6.945 -0.3269  1.5976 -0.4870
  748SOL    HW2 3686   0.157   1.245   6.846  2.2514 -0.0740  0.7621
  749SOL     OW 3687   0.984   0.544   7.150 -0.5258  0.1623  0.5167
  749SOL    HW1 3688   0.998   0.567   7.058  0.5657  3.4349  1.3722
  749SOL    HW2 3689   0.891   0.560   7.165 -0.5066  0.5828  0.2018
  750SOL     OW 3690   3.229   0.195   7.146 -0.0289 -0.1683 -0.1934
  750SOL    HW1 3691   3.244   0.115   7.197  0.0468  0.2414  0.4476
  750SOL    HW2 3692   3.141   0.223   7.171  0.6492  0.9829  1.0851
  751SOL     OW 3693   1.495   1.693   6.441 -0.2892 -0.9013 -0.7997
  751SOL    HW1 3694   1.518   1.774   6.395 -0.8728 -0.4238 -0.2638
  751SOL    HW2 3695   1.576   1.665   6.483 -0.3760  0.1255  0.1013
  752SOL     OW 3696   0.126   7.921   6.982 -0.0711 -0.3507  0.0760
  752SOL    HW1 3697   0.126   7.937   6.888  0.1195  0.5249  0.2178
  752SOL    HW2 3698   0.052   7.972   7.016  1.5236  1.6795  0.7474
  753SOL     OW 3699   1.790   0.859   7.747 -0.4098  0.1303 -0.3671
  753SOL    HW1 3700   1.712   0.844   7.694  0.1828 -0.3390 -1.1282
  753SOL    HW2 3701   1.864   0.842   7.688  0.3070 -2.2098  1.0444
  754SOL     OW 3702   0.530   2.413   6.650 -0.4442 -0.0183 -0.1665
  754SOL    HW1 3703   0.473   2.394   6.575 -0.2847 -1.1088 -0.0266
  754SOL    HW2 3704   0.605   2.355   6.639 -0.4082 -0.1801  0.8359
  755SOL     OW 3705   1.611   1.441   6.829  0.0895  0.4566 -0.3033
  755SOL    HW1 3706   1.524   1.462   6.796 -0.2939  0.3281  0.6085
  755SOL    HW2 3707   1.668   1.509   6.792 -0.2856  0.2032 -1.3699
  756SOL     OW 3708   0.384   1.008   3.721 -0.2256 -0.0062 -0.0763
  756SOL    HW1 3709   0.304   1.057   3.739  0.4889  0.4547  2.1414
  756SOL    HW2 3710   0.441   1.069   3.675 -0.3347  0.4034  0.3258
  757SOL     OW 3711   7.881   1.025   5.107  0.0071 -0.0468  0.2959
  757SOL    HW1 3712   7.836   0.946   5.078  0.3030 -0.1431  0.1032
  757SOL    HW2 3713   7.813   1.093   5.105  0.2717  0.2119 -1.6834
  758SOL     OW 3714   1.333   2.730   7.420 -0.3507  0.3709  0.1251
  758SOL    HW1 3715   1.263   2.791   7.396 -0.0657  0.7046  0.1351
  758SOL    HW2 3716   1.290   2.664   7.474 -1.2955 -1.1107 -2.2826
  759SOL     OW 3717   0.953   1.497   7.260 -0.5512  0.0819  0.0550
  759SOL    HW1 3718   0.955   1.410   7.299 -1.1066  0.1490  0.2343
  759SOL    HW2 3719   0.883   1.543   7.306 -1.2043  0.1675 -0.9878
  760SOL     OW 3720   0.582   0.842   7.827 -0.4036  0.2086 -0.5598
  760SOL    HW1 3721   0.674   0.816   7.831 -0.2522  0.6924 -0.8740
  760SOL    HW2 3722   0.549   0.800   7.747 -0.8794 -1.2839  0.3775
  761SOL     OW 3723   1.232   1.801   6.533 -0.1769 -0.0205 -0.1731
  761SOL    HW1 3724   1.227   1.894   6.510  1.0703 -0.3265 -1.8715
  761SOL    HW2 3725   1.326   1.781   6.531 -0.4786 -1.4966 -0.7134
  762SOL     OW 3726   0.305   7.410   6.388 -0.1746  0.1974  0.1694
  762SOL    HW1 3727   0.357   7.489   6.376  0.1252  0.3050  1.9710
  762SOL    HW2 3728   0.370   7.341   6.400 -0.4236  0.2248  1.7972
  763SOL     OW 3729   1.740   7.801   9.030 -0.5373  0.1640  0.0084
  763SOL    HW1 3730   1.828   7.834   9.009 -0.3175  0.2208  0.9700
  763SOL    HW2 3731   1.745   7.778   9.123 -0.8913 -1.8847 -0.4381
  764SOL     OW 3732   0.845   1.553   7.669  0.3597 -0.9822 -0.4136
  764SOL    HW1 3733   0.804   1.522   7.589 -0.4428  0.1628 -0.4736
  764SOL    HW2 3734   0.782   1.530   7.738 -0.5883  1.0373 -0.5398
  765SOL     OW 3735   1.135   0.564   6.029 -0.4331  0.2782  0.2861
  765SOL    HW1 3736   1.121   0.547   5.936 -1.0243 -0.5514  0.5074
  765SOL    HW2 3737   1.228   0.580   6.037 -0.3797  0.3729 -0.4582
  766SOL     OW 3738   0.577   1.514   5.668 -0.0279 -0.1529  0.3551
  766SOL    HW1 3739   0.672   1.508   5.671  0.1224  0.1149 -1.8555
  766SOL    HW2 3740   0.555   1.590   5.721  1.0215 -0.0161  0.6074
  767SOL     OW 3741   0.491   0.107   7.371  0.2308  0.0082 -0.2236
  767SOL    HW1 3742   0.559   0.101   7.439 -1.3726 -1.1544  1.3642
  767SOL    HW2 3743   0.478   0.016   7.343 -2.0320 -0.0935  0.9712
  768SOL     OW 3744   7.606   3.303   7.604  0.1529 -0.9358  0.0589
  768SOL    HW1 3745   7.579   3.395   7.614  0.1262 -0.9008 -0.2941
  768SOL    HW2 3746   7.701   3.307   7.593 -0.1268 -0.6300 -3.1732
  769SOL     OW 3747   0.086   0.859   7.378 -0.2738  0.3156 -0.2787
  769SOL    HW1 3748   0.120   0.948   7.363  0.5679  0.4764  2.0679
  769SOL    HW2 3749   0.145   0.822   7.444 -0.6018 -2.0233 -1.2053
  770SOL     OW 3750   0.076   2.433   7.322  0.3700  0.1742  0.2091
  770SOL    HW1 3751   0.139   2.493   7.284 -0.1889  1.8712  1.7977
  770SOL    HW2 3752   0.124   2.389   7.392  0.2113  0.3561  0.4342
  771SOL     OW 3753   2.110   2.056   7.313  0.7775  0.0176  0.0403
  771SOL    HW1 3754   2.169   2.096   7.249  0.1649  0.2022 -0.4193
  771SOL    HW2 3755   2.041   2.015   7.260 -0.1671  0.8387  0.5916
  772SOL     OW 3756   0.498   1.448   7.913  0.3157  0.5739 -0.5020
  772SOL    HW1 3757   0.583   1.443   7.957 -0.7543  0.7184  1.7152
  772SOL    HW2 3758   0.519   1.468   7.821  2.6216  2.6477  0.3643
  773SOL     OW 3759   2.159   0.287   6.712 -0.5151  0.6170  0.6693
  773SOL    HW1 3760   2.134   0.197   6.734  0.3877 -0.3721 -2.0269
  773SOL    HW2 3761   2.239   0.302   6.763  0.0119 -0.5709  0.2363
  774SOL     OW 3762   0.656   2.463   7.987  0.1584 -0.0939  0.4828
  774SOL    HW1 3763   0.583   2.441   7.930  0.1574 -2.3178  1.2533
  774SOL    HW2 3764   0.728   2.407   7.958  0.2423 -1.0891  2.4253
  775SOL     OW 3765   0.946   7.891   6.940  0.4280  0.0399  0.0939
  775SOL    HW1 3766   0.955   7.986   6.944 -1.3474  0.2022  1.9612
  775SOL    HW2 3767   0.957   7.862   7.030  0.0251 -1.4290 -0.2996
  776SOL     OW 3768   0.890   0.150   7.192 -0.7374  0.3912 -0.5405
  776SOL    HW1 3769   0.908   0.085   7.260 -1.4741 -1.1530 -1.7438
  776SOL    HW2 3770   0.853   0.225   7.239  1.6650  0.6572  1.0860
  777SOL     OW 3771   0.080   0.137   7.595 -0.1911 -0.2269  0.2412
  777SOL    HW1 3772   0.058   0.207   7.657 -1.6426  1.3201 -1.8581
  777SOL    HW2 3773   0.004   0.078   7.598  0.7221 -1.3999  1.4925
  778SOL     OW 3774   0.088   0.146   7.312 -0.3395 -0.0075 -0.5215
  778SOL    HW1 3775   0.163   0.203   7.295  0.1645 -0.2264  0.8961
  778SOL    HW2 3776   0.083   0.140   7.407 -1.7280 -0.5760 -0.6090
  779SOL     OW 3777   7.029   0.792   7.814 -0.0483  0.2689 -0.2068
  779SOL    HW1 3778   7.022   0.887   7.803  1.4767  0.3208 -1.0562
  779SOL    HW2 3779   7.054   0.781   7.905 -2.2597  0.5152  0.4932
  780SOL     OW 3780   7.876   0.461   6.474  0.5532  0.7852 -0.2649
  780SOL    HW1 3781   7.941   0.530   6.489 -0.7960  1.9107  0.6318
  780SOL    HW2 3782   7.817   0.466   6.549 -0.4311 -0.3772 -0.9173
  781SOL     OW 3783   1.088   7.994   5.111 -0.5821  0.7216 -0.2933
  781SOL    HW1 3784   0.992   7.993   5.102 -0.5887  2.7089 -1.1631
  781SOL    HW2 3785   1.103   8.028   5.200 -0.6904  0.7232 -0.2749
  782SOL     OW 3786   0.896   1.474   6.159  0.1848 -0.3792  0.3852
  782SOL    HW1 3787   0.864   1.486   6.069 -0.6537  0.7669  0.8188
  782SOL    HW2 3788   0.989   1.498   6.155 -0.0175  0.3545 -0.0396
  783SOL     OW 3789   1.562   1.737   7.328  0.3383 -0.3846 -0.2114
  783SOL    HW1 3790   1.628   1.806   7.324 -0.8411  0.7359 -1.8594
  783SOL    HW2 3791   1.593   1.670   7.267  0.6985 -0.5474  0.1559
  784SOL     OW 3792   1.183   0.366   7.295 -0.1671  0.4928 -0.1342
  784SOL    HW1 3793   1.246   0.376   7.224  0.8463 -3.6777 -0.0760
  784SOL    HW2 3794   1.103   0.406   7.262  1.4142  2.5331 -1.7732
  785SOL     OW 3795   7.809   0.276   7.409  0.4552 -0.1260  0.6243
  785SOL    HW1 3796   7.860   0.210   7.362 -1.7185  0.7005 -3.2806
  785SOL    HW2 3797   7.868   0.351   7.418  0.4392  0.4351 -2.8326
  786SOL     OW 3798   2.156   0.262   6.422 -0.3094  0.1977 -0.1569
  786SOL    HW1 3799   2.242   0.227   6.443 -1.0214 -0.2469  2.3332
  786SOL    HW2 3800   2.127   0.305   6.502 -2.3034  0.5573 -1.0039
  787SOL     OW 3801   0.666   1.102   6.876  0.2993  0.8329  0.3207
  787SOL    HW1 3802   0.669   1.033   6.943 -1.0088 -0.4666 -0.8706
  787SOL    HW2 3803   0.749   1.148   6.885  0.5787  0.0757  2.1743
  788SOL     OW 3804   1.120   0.215   6.991 -0.2057 -1.1450  0.0603
  788SOL    HW1 3805   1.183   0.281   7.020 -0.6940 -0.4797 -0.3570
  788SOL    HW2 3806   1.053   0.216   7.060 -0.0114 -1.4945  0.2544
  789SOL     OW 3807   1.088   2.042   8.462  0.1384 -0.1795 -0.0095
  789SOL    HW1 3808   1.088   1.947   8.451 -1.0885 -0.3282  1.0966
  789SOL    HW2 3809   1.000   2.069   8.438  0.6090  0.7591 -0.7647
  790SOL     OW 3810   0.214   0.813   7.048 -0.0076 -0.3490  0.3234
  790SOL    HW1 3811   0.266   0.786   7.124  0.7593 -0.4699 -0.2352
  790SOL    HW2 3812   0.270   0.875   7.001  0.4879 -1.9691 -1.3603
  791SOL     OW 3813   0.927   6.976   5.978  0.4153  0.4420  0.1621
  791SOL    HW1 3814   0.845   6.935   5.949  0.2639  0.7076  0.2092
  791SOL    HW2 3815   0.994   6.911   5.959  0.0065 -0.4571  1.5780
  792SOL     OW 3816   2.697   0.195   5.176 -0.1512 -0.6073 -0.1265
  792SOL    HW1 3817   2.756   0.120   5.185 -1.7663 -1.8683  0.4366
  792SOL    HW2 3818   2.754   0.267   5.150  1.4809 -1.9824 -0.5410
  793SOL     OW 3819   2.036   0.573   7.849 -0.0398  0.3094 -0.2796
  793SOL    HW1 3820   1.987   0.568   7.767  0.5553  0.5368 -0.6512
  793SOL    HW2 3821   2.083   0.490   7.855  0.4733  0.5823 -0.5202
  794SOL     OW 3822   0.609   1.374   5.189  0.1799  0.4197 -0.1046
  794SOL    HW1 3823   0.554   1.380   5.111 -0.8676  0.5423  0.6371
  794SOL    HW2 3824   0.572   1.437   5.250  1.5953  1.0446  0.1483
  795SOL     OW 3825   0.302   1.143   5.703  0.3887  0.1544  0.0256
  795SOL    HW1 3826   0.225   1.198   5.689  0.1577 -0.3831 -0.9068
  795SOL    HW2 3827   0.271   1.072   5.759  0.2010 -0.0657 -0.3562
  796SOL     OW 3828   1.639   0.251   6.972  0.0602  0.2212  0.2905
  796SOL    HW1 3829   1.566   0.237   7.032  0.7227 -0.9230  0.8792
  796SOL    HW2 3830   1.717   0.249   7.028  0.8568 -2.6449 -0.7166
  797SOL     OW 3831   1.364   7.769   7.921 -0.0825 -0.0132  0.1357
  797SOL    HW1 3832   1.270   7.768   7.943 -0.5854 -1.3227 -1.8215
  797SOL    HW2 3833   1.389   7.677   7.918  0.8156  0.2571 -1.1704
  798SOL     OW 3834   1.045   3.136   7.049 -0.1049 -0.1956 -0.0710
  798SOL    HW1 3835   0.986   3.157   7.121 -4.0752 -1.6191 -2.6165
  798SOL    HW2 3836   1.055   3.219   7.001 -1.5264 -0.2668 -0.5385
  799SOL     OW 3837   1.267   0.844   6.105  0.5667 -0.1060 -0.6860
  799SOL    HW1 3838   1.265   0.934   6.137  2.2299  0.3610 -1.7536
  799SOL    HW2 3839   1.303   0.794   6.178 -0.8473 -0.0350  0.1004
  800SOL     OW 3840   0.956   2.973   6.845  0.2141  0.3027 -0.0660
  800SOL    HW1 3841   0.865   3.002   6.839 -0.5680 -1.3605  2.2327
  800SOL    HW2 3842   0.995   3.032   6.910  0.8815  1.1457 -1.1979
  801SOL     OW 3843   1.605   2.299   7.862 -0.3150 -0.0981 -0.2153
  801SOL    HW1 3844   1.526   2.349   7.883 -0.8571 -0.2142 -1.8139
  801SOL    HW2 3845   1.658   2.358   7.809  0.4119 -0.2343  0.3388
  802SOL     OW 3846   0.786   0.751   6.718 -0.3596  0.3445  0.3120
  802SOL    HW1 3847   0.786   0.760   6.623  1.2540 -0.4596  0.2066
  802SOL    HW2 3848   0.695   0.766   6.744 -0.6592  1.4948 -1.2539
  803SOL     OW 3849   7.574   0.139   6.490 -0.3347  0.5426 -0.1150
  803SOL    HW1 3850   7.617   0.066   6.535 -0.6942  0.3544 -0.0737
  803SOL    HW2 3851   7.646   0.189   6.452 -0.1731 -1.2884 -2.4400
  804SOL     OW 3852   0.794   0.109   4.639 -0.0781  0.6037 -0.6232
  804SOL    HW1 3853   0.881   0.134   4.608  0.4968 -0.4279  0.0754
  804SOL    HW2 3854   0.798   0.014   4.648 -0.8031  0.6719  0.7948
  805SOL     OW 3855   0.316   0.185   6.913 -0.3074 -0.0514  0.0112
  805SOL    HW1 3856   0.392   0.241   6.900 -0.3740  0.1334  0.3965
  805SOL    HW2 3857   0.315   0.128   6.836 -1.1475  1.5046 -1.1815
  806SOL     OW 3858   2.086   7.973   6.864 -0.5305 -0.1467  0.0141
  806SOL    HW1 3859   2.122   8.000   6.949 -0.2597  0.5470 -0.3093
  806SOL    HW2 3860   2.162   7.945   6.813 -0.5669  0.3413 -0.3179
  807SOL     OW 3861   1.452   4.049   8.022  0.0392  0.2821  0.2312
  807SOL    HW1 3862   1.395   3.978   8.052  0.9286 -0.2150  0.7956
  807SOL    HW2 3863   1.393   4.122   8.004 -0.7661 -0.2016  0.8669
  808SOL     OW 3864   1.139   7.732   7.604 -0.3476 -0.1242  0.1596
  808SOL    HW1 3865   1.078   7.736   7.678  0.0687  0.1778  0.4931
  808SOL    HW2 3866   1.185   7.649   7.615  2.0715  1.3594  2.1624
  809SOL     OW 3867   0.746   0.383   7.015 -0.0112 -0.1651 -0.6755
  809SOL    HW1 3868   0.711   0.429   7.091  0.8345 -0.4532 -0.0986
  809SOL    HW2 3869   0.795   0.449   6.967  0.5109 -0.2600 -0.2866
  810SOL     OW 3870   1.047   0.247   6.738 -0.2640 -0.3492 -0.2686
  810SOL    HW1 3871   1.107   0.318   6.720  0.6192 -1.2387 -0.9644
  810SOL    HW2 3872   1.045   0.240   6.833  1.9872 -1.3017 -0.2379
  811SOL     OW 3873   0.281   1.432   6.167  0.0868 -0.7697  0.1343
  811SOL    HW1 3874   0.351   1.373   6.140  0.7501 -0.2963  0.7859
  811SOL    HW2 3875   0.315   1.476   6.245 -0.1810  0.8473 -0.6168
  812SOL     OW 3876   0.690   1.353   6.482 -0.1173  0.8591  0.0960
  812SOL    HW1 3877   0.652   1.379   6.566 -0.3790 -0.0608  0.2748
  812SOL    HW2 3878   0.781   1.332   6.503 -0.4094 -0.2548  0.3549
  813SOL     OW 3879   2.872   2.035   4.520  0.1554 -0.3459 -0.0606
  813SOL    HW1 3880   2.856   2.037   4.426 -1.5552 -1.7809  0.1691
  813SOL    HW2 3881   2.931   2.110   4.536 -0.5681  0.7000 -2.0564
  814SOL     OW 3882   2.139   1.196   5.946 -0.3607 -0.1644  0.0065
  814SOL    HW1 3883   2.142   1.292   5.941 -1.0097 -0.2002 -1.7244
  814SOL    HW2 3884   2.206   1.167   5.884  1.5542 -0.8872  2.2674
  815SOL     OW 3885   1.133   3.023   6.622  0.2861 -0.0493  0.1856
  815SOL    HW1 3886   1.190   2.946   6.623  1.9685  1.0751  3.0098
  815SOL    HW2 3887   1.065   3.004   6.687  0.9000  0.9175  1.1438
  816SOL     OW 3888   1.122   1.369   7.050  0.1474  0.0912 -0.2455
  816SOL    HW1 3889   1.070   1.351   7.128  0.6349  0.4364  0.1695
  816SOL    HW2 3890   1.191   1.428   7.080 -0.4051  1.2624 -1.2020
  817SOL     OW 3891   1.372   6.783   5.976  0.3636 -0.1471  0.6774
  817SOL    HW1 3892   1.390   6.690   5.991 -0.6497 -0.8401 -1.8622
  817SOL    HW2 3893   1.422   6.804   5.897  0.0074  1.2784  0.8147
  818SOL     OW 3894   2.242   0.806   6.340  0.1634  0.5346  0.0962
  818SOL    HW1 3895   2.197   0.850   6.268 -1.8714 -2.3116 -0.5587
  818SOL    HW2 3896   2.227   0.713   6.324  0.9924 -0.2848  3.3543
  819SOL     OW 3897   1.776   1.470   9.989 -0.0021  0.4211 -0.0936
  819SOL    HW1 3898   1.701   1.441  10.040  0.1319 -0.6422 -0.4696
  819SOL    HW2 3899   1.846   1.481  10.053 -0.2204  0.4932  0.1343
  820SOL     OW 3900   2.683   7.817   6.414  0.0086 -0.3388  0.3673
  820SOL    HW1 3901   2.599   7.861   6.425  0.0711  0.1371 -0.9106
  820SOL    HW2 3902   2.664   7.742   6.357  0.2222 -1.0344  1.1699
  821SOL     OW 3903   1.627   1.497   7.515  0.0214 -0.2255 -0.0673
  821SOL    HW1 3904   1.722   1.498   7.499 -0.0303 -0.4129 -0.4038
  821SOL    HW2 3905   1.593   1.569   7.462 -0.0308 -0.1892  0.0160
  822SOL     OW 3906   1.646   1.023   6.924  0.4571 -0.3648  0.3406
  822SOL    HW1 3907   1.653   0.957   6.855 -0.1081  1.1888 -1.2752
  822SOL    HW2 3908   1.561   1.007   6.965 -0.1766 -0.0196 -0.7770
  823SOL     OW 3909   1.599   1.070   7.584 -0.4429 -0.0454  0.0286
  823SOL    HW1 3910   1.573   1.106   7.500 -1.5399 -1.2048 -0.1647
  823SOL    HW2 3911   1.566   0.980   7.583 -0.0781 -0.2289  1.5133
  824SOL     OW 3912   1.448   0.477   7.563 -0.5305 -0.0312  0.4915
  824SOL    HW1 3913   1.454   0.571   7.546  0.2099 -0.1268  0.1936
  824SOL    HW2 3914   1.529   0.456   7.610  0.4539 -0.9386 -1.4747
  825SOL     OW 3915   7.283   5.138   5.664 -0.1360  0.2865  0.5013
  825SOL    HW1 3916   7.222   5.106   5.730 -0.8576  0.2128 -0.1887
  825SOL    HW2 3917   7.294   5.065   5.604  0.4707  0.3746  0.4952
  826SOL     OW 3918   0.987   0.856   4.977  0.2088 -0.6541  0.2151
  826SOL    HW1 3919   0.944   0.879   4.895 -0.9861 -0.1172  0.9553
  826SOL    HW2 3920   0.917   0.819   5.031  0.8653 -0.5621  1.1594
  827SOL     OW 3921   2.221   7.453   6.951  0.2236 -0.6105 -0.0620
  827SOL    HW1 3922   2.205   7.527   7.009  0.4351 -0.1499 -0.5867
  827SOL    HW2 3923   2.309   7.467   6.917 -0.4212 -0.1014 -1.6025
  828SOL     OW 3924   2.129   7.252   6.005 -0.5475  0.4212 -0.0193
  828SOL    HW1 3925   2.091   7.201   5.934 -2.1530  0.4499  0.7711
  828SOL    HW2 3926   2.087   7.219   6.085  0.8479  0.7138  0.8820
  829SOL     OW 3927   1.921   0.108   6.511  0.8424  0.3773 -0.1751
  829SOL    HW1 3928   1.973   0.054   6.451  2.0013 -0.8314  1.7997
  829SOL    HW2 3929   1.971   0.189   6.520  0.3791  0.7918 -1.2361
  830SOL     OW 3930   6.962   0.945   6.393  0.0865  0.1767  0.5097
  830SOL    HW1 3931   6.925   0.894   6.465 -3.0274  0.4494 -0.7371
  830SOL    HW2 3932   6.968   1.034   6.427 -1.4491  0.3209  0.4718
  831SOL     OW 3933   2.347   0.879   7.693  0.5246 -0.6060 -0.4388
  831SOL    HW1 3934   2.313   0.966   7.672  0.4840 -0.7253 -0.8724
  831SOL    HW2 3935   2.403   0.856   7.619  0.2300 -1.1099 -0.5111
  832SOL     OW 3936   0.844   0.990   6.391  0.5438 -0.0152  0.1000
  832SOL    HW1 3937   0.799   1.053   6.447 -0.3476  1.4867 -2.1173
  832SOL    HW2 3938   0.880   1.044   6.320  0.9816 -1.8737 -1.1569
  833SOL     OW 3939   0.528   0.360   6.843  0.1354 -0.6290 -0.1581
  833SOL    HW1 3940   0.520   0.455   6.834  0.9937 -0.5424 -0.0784
  833SOL    HW2 3941   0.604   0.347   6.899 -1.7465 -1.3043  2.4316
  834SOL     OW 3942   0.274   2.607   7.175  0.1697 -0.4511 -0.3150
  834SOL    HW1 3943   0.352   2.553   7.188 -0.2199 -0.7215  1.0712
  834SOL    HW2 3944   0.280   2.675   7.243  0.1746  0.7017 -1.4396
  835SOL     OW 3945   7.162   0.705   7.086  0.5150  0.6830 -0.0773
  835SOL    HW1 3946   7.185   0.625   7.134 -0.6005  0.4013  0.0209
  835SOL    HW2 3947   7.212   0.774   7.130  1.8797 -0.0131 -0.4764
  836SOL     OW 3948   0.368   7.795   6.737 -0.0032 -0.1234  0.3690
  836SOL    HW1 3949   0.284   7.768   6.774 -0.4317 -0.1016 -0.5705
  836SOL    HW2 3950   0.350   7.879   6.696  0.8757  0.7025  1.5867
  837SOL     OW 3951   0.665   0.096   7.065  0.4065  0.0771 -0.3281
  837SOL    HW1 3952   0.645   0.185   7.037  1.5520 -0.4010 -3.0040
  837SOL    HW2 3953   0.752   0.102   7.104  0.7773  0.0666 -1.1247
  838SOL     OW 3954   7.443   7.332   5.869  0.2295 -0.0568  0.3433
  838SOL    HW1 3955   7.470   7.241   5.853  1.8602  0.1939  1.4147
  838SOL    HW2 3956   7.373   7.325   5.935  1.6848 -0.4925  1.9280
  839SOL     OW 3957   0.566   7.997   6.795  0.6446 -0.0747  0.3020
  839SOL    HW1 3958   0.519   7.915   6.780 -1.2132  0.8383  0.7899
  839SOL    HW2 3959   0.588   7.994   6.889  1.9717 -0.6681 -0.0023
  840SOL     OW 3960   1.115   1.329   5.389  0.0406 -0.1216 -0.0734
  840SOL    HW1 3961   1.051   1.304   5.323  0.9384 -0.7945 -0.7026
  840SOL    HW2 3962   1.164   1.249   5.407 -0.6614 -0.1525  1.9716
  841SOL     OW 3963   7.735   7.316   6.770 -0.1379 -0.5430  0.3559
  841SOL    HW1 3964   7.821   7.353   6.787 -0.1249 -0.8485  1.0029
  841SOL    HW2 3965   7.748   7.221   6.773 -0.7093 -0.6082  1.7269
  842SOL     OW 3966   1.509   2.180   7.521 -0.2857  0.1378 -0.3340
  842SOL    HW1 3967   1.462   2.256   7.554 -0.0481  0.2242 -0.1929
  842SOL    HW2 3968   1.449   2.106   7.536  0.4403 -0.0860  1.8008
  843SOL     OW 3969   7.664   0.104   7.694 -0.5162 -0.9842  0.1935
  843SOL    HW1 3970   7.640   0.106   7.787 -1.1048 -2.2077  0.0815
  843SOL    HW2 3971   7.648   0.193   7.664 -1.9184 -0.9762  0.8855
  844SOL     OW 3972   7.480   2.969   6.229  0.3904 -0.6647  0.0023
  844SOL    HW1 3973   7.553   2.999   6.174  0.4071 -0.2793  0.2354
  844SOL    HW2 3974   7.409   2.952   6.166  0.1430  0.5587 -0.0806
  845SOL     OW 3975   1.844   1.157   7.519 -0.1415 -0.0358 -0.2732
  845SOL    HW1 3976   1.881   1.071   7.499  0.9523 -0.2598  2.3670
  845SOL    HW2 3977   1.759   1.137   7.559 -0.7214  0.2418 -1.3186
  846SOL     OW 3978   1.731   0.657   7.416 -0.0769 -0.3490  0.2062
  846SOL    HW1 3979   1.801   0.711   7.453 -0.2504  1.4305 -1.8833
  846SOL    HW2 3980   1.656   0.674   7.474 -0.3883  2.4726 -0.8403
  847SOL     OW 3981   0.714   1.056   7.965 -0.1375 -0.4687  0.0656
  847SOL    HW1 3982   0.805   1.059   7.994 -0.3641 -1.2919  0.8737
  847SOL    HW2 3983   0.714   1.106   7.883  0.9462 -0.0696  0.2941
  848SOL     OW 3984   1.080   0.715   7.993  0.4466  0.6915 -0.0845
  848SOL    HW1 3985   1.141   0.648   8.024 -2.1936 -2.5512 -1.2104
  848SOL    HW2 3986   1.100   0.723   7.899  0.6808  1.4609  0.0245
  849SOL     OW 3987   1.498   0.067   5.691  0.2638  0.4998  0.0506
  849SOL    HW1 3988   1.441   0.143   5.706 -0.6002 -0.0233 -0.4353
  849SOL    HW2 3989   1.460   0.025   5.614  0.6126 -0.5252  0.4233
  850SOL     OW 3990   7.607   0.158   5.514  0.2516 -0.1610 -0.7507
  850SOL    HW1 3991   7.670   0.211   5.564  1.1617 -1.4647 -0.4766
  850SOL    HW2 3992   7.559   0.110   5.580 -0.2524 -0.0341 -1.0229
  851SOL     OW 3993   1.151   1.691   6.185  0.0044 -0.5334 -0.1157
  851SOL    HW1 3994   1.100   1.659   6.260 -2.3577 -0.6285 -1.6741
  851SOL    HW2 3995   1.141   1.786   6.188  2.3209 -0.2342  1.2378
  852SOL     OW 3996   0.249   0.330   6.552  0.7385  0.0498 -0.0680
  852SOL    HW1 3997   0.195   0.394   6.598 -1.0570 -0.2570 -1.6171
  852SOL    HW2 3998   0.317   0.382   6.509  0.2536  0.7147 -0.0368
  853SOL     OW 3999   1.179   3.479   4.001 -0.1802 -0.0820 -0.2080
  853SOL    HW1 4000   1.216   3.500   3.915 -1.8816  0.0508 -0.9502
  853SOL    HW2 4001   1.086   3.467   3.984 -0.3698 -1.2293  1.4345
  854SOL     OW 4002   1.802   2.012   6.315  0.6859 -0.3003  0.4676
  854SOL    HW1 4003   1.849   1.938   6.275  1.9099 -0.1949  1.6234
  854SOL    HW2 4004   1.774   2.065   6.241  2.7652 -0.1627 -0.3036
  855SOL     OW 4005   7.412   1.638   7.317 -0.7463 -0.0549 -0.4314
  855SOL    HW1 4006   7.392   1.726   7.286 -1.4031 -0.5644 -1.5394
  855SOL    HW2 4007   7.404   1.643   7.412 -2.0214  0.7979 -0.5628
  856SOL     OW 4008   6.910   0.790   5.825  0.1005 -0.6283 -0.0396
  856SOL    HW1 4009   6.844   0.801   5.893  1.3945 -1.3968  1.3899
  856SOL    HW2 4010   6.861   0.795   5.743 -1.4855  0.3914  0.9221
  857SOL     OW 4011   0.483   2.032   6.705  0.1944  0.8716  0.3043
  857SOL    HW1 4012   0.415   2.049   6.770  1.1641 -0.9021  1.8652
  857SOL    HW2 4013   0.461   2.090   6.632 -1.5342  2.1662  1.7689
  858SOL     OW 4014   2.161   7.220   7.090 -0.2529 -0.7226  0.4372
  858SOL    HW1 4015   2.242   7.174   7.111 -0.3129 -0.5376  1.0994
  858SOL    HW2 4016   2.185   7.277   7.016 -0.1701 -1.7590 -0.3671
  859SOL     OW 4017   0.941   2.616   4.344 -0.1246 -0.1582  0.4814
  859SOL    HW1 4018   0.937   2.564   4.424 -1.5293 -1.2924 -0.2793
  859SOL    HW2 4019   0.874   2.683   4.356 -3.0576 -2.5212 -1.1011
  860SOL     OW 4020   1.698   1.751   8.165  0.9327  0.0616  0.4539
  860SOL    HW1 4021   1.734   1.663   8.153  2.1999  0.5194  0.7832
  860SOL    HW2 4022   1.756   1.792   8.229 -0.6176  0.5896  1.5874
  861SOL     OW 4023   7.566   0.471   7.279 -0.3176 -0.5961 -0.1531
  861SOL    HW1 4024   7.657   0.449   7.297 -0.8317 -1.9023  1.0165
  861SOL    HW2 4025   7.556   0.561   7.310  0.8618  0.0421 -1.4727
  862SOL     OW 4026   0.606   2.492   7.202  0.1039  0.2363 -0.0647
  862SOL    HW1 4027   0.579   2.448   7.282  1.0124  0.0687  0.1670
  862SOL    HW2 4028   0.604   2.585   7.224  0.0689  0.2066  0.0598
  863SOL     OW 4029   1.533   0.790   8.356 -0.3776 -0.5172  0.2657
  863SOL    HW1 4030   1.482   0.865   8.327 -0.5761 -0.8356 -0.2283
  863SOL    HW2 4031   1.561   0.747   8.275 -0.8118 -1.3329  0.5399
  864SOL     OW 4032   1.277   0.143   6.529 -0.1601  0.0855 -0.5051
  864SOL    HW1 4033   1.317   0.173   6.448  0.1847 -1.4942 -0.9463
  864SOL    HW2 4034   1.336   0.174   6.598  0.4239  0.0083 -0.9642
  865SOL     OW 4035   7.882   2.982   3.518  0.2305  0.2882 -0.3227
  865SOL    HW1 4036   7.801   2.931   3.518 -1.6874  3.0800  0.4197
  865SOL    HW2 4037   7.923   2.963   3.602 -0.9421  0.6672  0.3500
  866SOL     OW 4038   1.141   2.073   8.148  0.4290  0.1779  0.6244
  866SOL    HW1 4039   1.144   2.168   8.153  0.0627  0.3020 -1.0648
  866SOL    HW2 4040   1.089   2.047   8.225 -1.8790  1.5415 -0.3845
  867SOL     OW 4041   7.543   1.278   6.067  0.3350 -0.0037  0.2264
  867SOL    HW1 4042   7.639   1.269   6.068  0.2577 -1.8557 -1.6858
  867SOL    HW2 4043   7.516   1.261   6.157  1.9163  3.4843  1.5500
  868SOL     OW 4044   7.507   7.970   4.740  0.2476 -0.2559  0.2926
  868SOL    HW1 4045   7.555   8.036   4.690 -0.0099  0.7121  1.2910
  868SOL    HW2 4046   7.548   7.887   4.715  0.7847  0.3000 -0.7461
  869SOL     OW 4047   2.291   7.727   8.002 -0.0464 -0.6191  0.5702
  869SOL    HW1 4048   2.355   7.678   8.053 -0.1520 -0.6873  0.6349
  869SOL    HW2 4049   2.341   7.801   7.966  0.4963 -1.6099 -0.8127
  870SOL     OW 4050   7.712   0.586   5.526 -0.3290 -0.3214  0.2936
  870SOL    HW1 4051   7.749   0.517   5.582 -0.6055 -0.0743  0.7911
  870SOL    HW2 4052   7.617   0.577   5.536 -0.4157 -0.8129 -0.8103
  871SOL     OW 4053   0.572   0.215   6.038  0.2939  0.7800  0.2572
  871SOL    HW1 4054   0.590   0.266   5.959 -0.1903 -0.2744 -0.5580
  871SOL    HW2 4055   0.483   0.181   6.025  0.5528 -0.1426  0.8559
  872SOL     OW 4056   0.229   7.539   8.248 -0.6890 -0.0870 -0.0308
  872SOL    HW1 4057   0.310   7.490   8.261 -1.8620 -2.2243 -0.3807
  872SOL    HW2 4058   0.203   7.519   8.158 -0.8708  1.7631 -0.4242
  873SOL     OW 4059   6.899   5.924   8.000 -0.0445  0.0516 -0.3413
  873SOL    HW1 4060   6.809   5.956   7.994 -0.2744 -0.5083  0.1351
  873SOL    HW2 4061   6.892   5.829   7.995  0.4422 -0.0422  0.5140
  874SOL     OW 4062   0.764   7.194   7.571 -0.6905 -0.0989  0.9366
  874SOL    HW1 4063   0.681   7.235   7.547 -0.3482  0.2022  0.2668
  874SOL    HW2 4064   0.755   7.103   7.542  0.3208  0.6233 -1.8569
  875SOL     OW 4065   0.260   0.196   9.207  0.2557 -0.4631 -0.5023
  875SOL    HW1 4066   0.214   0.269   9.167 -0.1954 -1.0364 -1.0472
  875SOL    HW2 4067   0.350   0.227   9.219 -0.1150  0.4406 -0.0161
  876SOL     OW 4068   1.800   0.403   9.584 -0.0736 -0.4408  0.1465
  876SOL    HW1 4069   1.779   0.492   9.558 -0.5702 -0.6933 -0.3487
  876SOL    HW2 4070   1.860   0.413   9.658 -3.0146  0.3927  2.6603
  877SOL     OW 4071   7.874   7.686   9.296  0.1357  0.2071 -0.0180
  877SOL    HW1 4072   7.892   7.636   9.216 -2.2342  0.6840 -0.9251
  877SOL    HW2 4073   7.796   7.738   9.275 -2.0232 -1.3428  3.2740
  878SOL     OW 4074   1.129   1.412   9.086  0.0778 -0.3229  0.7103
  878SOL    HW1 4075   1.155   1.332   9.040 -1.8445  1.0378 -3.2721
  878SOL    HW2 4076   1.210   1.463   9.092  0.4043 -0.3785 -1.9033
  879SOL     OW 4077   1.566   7.855  10.679  0.1688 -0.1851 -0.3142
  879SOL    HW1 4078   1.612   7.779  10.643 -0.3041 -0.7437  0.2304
  879SOL    HW2 4079   1.597   7.929  10.627  0.8350 -0.7131 -0.6836
  880SOL     OW 4080   2.436   0.103  10.391  0.0302  0.7729  0.4590
  880SOL    HW1 4081   2.395   0.132  10.310  0.9237  0.2010 -0.2181
  880SOL    HW2 4082   2.371   0.046  10.432 -0.7742  1.7672  0.5900
  881SOL     OW 4083   2.491   0.365  10.438  0.2001  0.2629 -0.4391
  881SOL    HW1 4084   2.412   0.418  10.448 -0.6088  0.1348 -4.4395
  881SOL    HW2 4085   2.460   0.275  10.435  0.2392  0.2710 -3.0698
  882SOL     OW 4086   1.096   7.787   7.970 -0.0654  0.2291 -0.1395
  882SOL    HW1 4087   1.012   7.762   7.932 -0.0535 -0.9318  0.5597
  882SOL    HW2 4088   1.082   7.784   8.064  1.2388 -1.9101  0.0535
  883SOL     OW 4089   0.555   0.976   8.256 -0.8071 -0.4967 -0.6725
  883SOL    HW1 4090   0.603   1.032   8.316  0.6113 -0.3716 -1.8636
  883SOL    HW2 4091   0.575   0.887   8.285 -0.8389 -0.4256 -0.4350
  884SOL     OW 4092   3.908   7.376   9.572  0.0978  0.3256  0.2307
  884SOL    HW1 4093   3.999   7.376   9.600  0.2017 -1.6356  0.0282
  884SOL    HW2 4094   3.866   7.311   9.627 -1.1525  1.0513  0.1739
  885SOL     OW 4095   1.671   7.899   8.762 -0.4056 -0.0704 -0.2551
  885SOL    HW1 4096   1.734   7.828   8.750 -0.0875  0.3143 -0.8594
  885SOL    HW2 4097   1.723   7.979   8.760 -0.8472  0.2203 -0.2273
  886SOL     OW 4098   0.076   0.931   7.945 -0.2475 -0.3273  0.3927
  886SOL    HW1 4099   0.127   0.907   7.869  0.4280  0.0682  0.7146
  886SOL    HW2 4100   0.067   1.027   7.939 -0.3669 -0.3172  0.7018
  887SOL     OW 4101   0.954   7.644  10.285 -0.3322 -0.3394  0.1566
  887SOL    HW1 4102   1.012   7.621  10.213 -1.7124 -2.0187 -0.4912
  887SOL    HW2 4103   1.006   7.629  10.364  1.1792  1.4577 -0.4048
  888SOL     OW 4104   0.784   7.011   8.763  0.1876 -0.0546 -0.2991
  888SOL    HW1 4105   0.774   6.924   8.723 -0.9650  0.0199 -0.1958
  888SOL    HW2 4106   0.760   7.072   8.694  1.3296  0.2197 -0.4813
  889SOL     OW 4107   0.957   7.387   8.712 -0.5609 -0.0109  0.1262
  889SOL    HW1 4108   0.975   7.462   8.655 -0.3617  0.8008  1.2258
  889SOL    HW2 4109   0.888   7.418   8.771  1.1092  0.1364  2.1060
  890SOL     OW 4110   2.557   1.525   9.655 -0.6627 -0.3124 -0.2806
  890SOL    HW1 4111   2.498   1.578   9.708  2.2522  1.2025  1.7629
  890SOL    HW2 4112   2.542   1.555   9.565  0.2176  3.5903  0.6569
  891SOL     OW 4113   1.528   0.262   7.387  0.2307  0.1790  0.5234
  891SOL    HW1 4114   1.480   0.309   7.456  0.3285  0.3725  0.4606
  891SOL    HW2 4115   1.577   0.330   7.342 -0.8556  0.2727 -0.5849
  892SOL     OW 4116   2.246   7.097   9.334  0.3099 -0.3334 -0.3632
  892SOL    HW1 4117   2.226   7.159   9.405 -0.7991 -0.0729 -0.8941
  892SOL    HW2 4118   2.310   7.144   9.280 -0.9594  0.6310 -1.0934
  893SOL     OW 4119   0.419   7.738   7.770 -0.0534 -0.3927  0.0319
  893SOL    HW1 4120   0.405   7.644   7.777  0.4543 -0.3884  1.2792
  893SOL    HW2 4121   0.345   7.770   7.718 -0.3824 -1.4304 -0.1418
  894SOL     OW 4122   2.164   1.095   7.779 -0.4414 -0.6142 -0.9169
  894SOL    HW1 4123   2.090   1.035   7.793 -0.8144  0.4253  2.3160
  894SOL    HW2 4124   2.223   1.079   7.852  1.9146 -0.3850 -2.6355
  895SOL     OW 4125   0.650   1.477   6.754 -0.3676  0.0101  0.5627
  895SOL    HW1 4126   0.579   1.458   6.815 -0.0585 -1.9421  0.3785
  895SOL    HW2 4127   0.730   1.467   6.806  0.0396 -3.9354 -0.4845
  896SOL     OW 4128   1.000   0.571   8.635  0.6446 -0.6123 -0.2148
  896SOL    HW1 4129   1.089   0.539   8.646  0.9219  0.1885 -0.0243
  896SOL    HW2 4130   0.946   0.513   8.688  1.1970 -0.4522  0.5420
  897SOL     OW 4131   2.336   0.686  10.038 -0.6231 -0.5028 -0.3995
  897SOL    HW1 4132   2.270   0.749  10.009 -0.5590 -0.1209  0.2757
  897SOL    HW2 4133   2.415   0.711   9.990  0.5984  2.6242  2.8047
  898SOL     OW 4134   7.893   0.968  10.477  0.4348  0.0759  0.1591
  898SOL    HW1 4135   7.917   0.895  10.533 -0.8323 -0.3179  0.2186
  898SOL    HW2 4136   7.890   1.044  10.535 -0.7436 -0.3064  0.6305
  899SOL     OW 4137   1.060   7.490  10.090 -0.4403 -0.3016  0.2609
  899SOL    HW1 4138   1.153   7.496  10.066 -0.2279  0.5428  1.2354
  899SOL    HW2 4139   1.013   7.499  10.007  0.2997  1.2620 -0.0202
  900SOL     OW 4140   1.785   2.358   8.412  0.2535  0.2227 -0.2114
  900SOL    HW1 4141   1.740   2.309   8.481  0.8239  0.4713  0.3407
  900SOL    HW2 4142   1.870   2.316   8.404 -0.1634 -0.4616 -1.4925
  901SOL     OW 4143   0.523   0.954  10.245 -0.2202  0.5651 -0.1664
  901SOL    HW1 4144   0.616   0.932  10.239 -0.1767  0.9310 -1.0870
  901SOL    HW2 4145   0.519   1.019  10.315 -0.1883 -1.3718  1.7391
  902SOL     OW 4146   7.260   1.414   9.158  0.5216  0.6990  0.1590
  902SOL    HW1 4147   7.234   1.402   9.249  0.4058 -0.1378  0.0187
  902SOL    HW2 4148   7.325   1.346   9.142  0.0316  0.3919 -0.5794
  903SOL     OW 4149   1.184   1.090   8.338 -0.2483 -0.8697  0.3136
  903SOL    HW1 4150   1.200   1.161   8.401  0.4164 -2.0103  1.4582
  903SOL    HW2 4151   1.270   1.050   8.325 -0.5673 -1.2943 -0.5592
  904SOL     OW 4152   0.503   2.205   8.419  0.2381  0.4217  0.2537
  904SOL    HW1 4153   0.509   2.167   8.332 -0.0682  0.9615 -0.0092
  904SOL    HW2 4154   0.409   2.222   8.432  0.5066  3.0796 -0.5337
  905SOL     OW 4155   7.957   6.825   9.484 -0.3920  0.4735 -0.6303
  905SOL    HW1 4156   7.992   6.851   9.570 -1.6082  2.2382 -0.6320
  905SOL    HW2 4157   8.026   6.848   9.422 -0.0808  0.4999 -0.2795
  906SOL     OW 4158   1.408   0.465   8.215  0.3649  1.2875  0.6928
  906SOL    HW1 4159   1.404   0.375   8.246  3.9498  0.5598 -0.4191
  906SOL    HW2 4160   1.344   0.470   8.145  0.4002 -0.5382  0.4819
  907SOL     OW 4161   2.105   1.362   7.659  0.2170 -0.2275 -0.1498
  907SOL    HW1 4162   2.154   1.342   7.580  0.1565 -0.9846 -0.0094
  907SOL    HW2 4163   2.106   1.280   7.709 -1.2097 -0.2703 -0.1568
  908SOL     OW 4164   2.289   1.065   9.224  0.3114 -0.0484 -0.7507
  908SOL    HW1 4165   2.367   1.118   9.203  1.6774 -1.5252  0.3488
  908SOL    HW2 4166   2.308   1.029   9.310 -1.6002 -0.5116 -0.4949
  909SOL     OW 4167   0.524   1.460   8.427 -0.1259 -0.2725 -0.1119
  909SOL    HW1 4168   0.554   1.395   8.490 -0.1075 -0.1257  0.0306
  909SOL    HW2 4169   0.532   1.416   8.342  1.7438  0.1864 -0.2214
  910SOL     OW 4170   2.446   0.710   8.248  0.0237  0.1159  0.2709
  910SOL    HW1 4171   2.476   0.650   8.317  1.5840  0.9565  0.3672
  910SOL    HW2 4172   2.483   0.795   8.272 -1.0200  0.8449 -0.5902
  911SOL     OW 4173   1.872   2.157   7.723 -0.2988  0.1148  0.0055
  911SOL    HW1 4174   1.874   2.195   7.635  0.2306 -2.3815 -1.1337
  911SOL    HW2 4175   1.957   2.178   7.760  0.7733 -1.5434 -1.3755
  912SOL     OW 4176   1.174   1.026  11.369 -0.3818  0.4661 -0.2342
  912SOL    HW1 4177   1.239   1.091  11.395 -0.4967  0.5955 -0.2690
  912SOL    HW2 4178   1.112   1.074  11.313 -0.6222  0.3930 -0.0329
  913SOL     OW 4179   0.246   0.703   9.642 -0.2846 -0.2178  0.6418
  913SOL    HW1 4180   0.237   0.610   9.624  1.4599 -0.6299  1.6920
  913SOL    HW2 4181   0.184   0.745   9.583 -1.3040 -2.0464  0.3462
  914SOL     OW 4182   1.152   6.959   7.268 -0.3876  0.2429  0.1185
  914SOL    HW1 4183   1.101   7.040   7.262  1.3412  1.3233 -0.6956
  914SOL    HW2 4184   1.227   6.981   7.323  0.0884 -0.8171 -0.0791
  915SOL     OW 4185   0.536   0.291   9.534  0.2708  0.2156  0.1071
  915SOL    HW1 4186   0.548   0.271   9.441  0.0770  0.0017  0.1259
  915SOL    HW2 4187   0.527   0.205   9.576 -0.1923  0.3257  0.2444
  916SOL     OW 4188   0.045   1.265   7.347 -0.0089  0.0861 -0.4741
  916SOL    HW1 4189  -0.045   1.288   7.371  0.5327  1.3222  0.4920
  916SOL    HW2 4190   0.087   1.242   7.431  0.5458 -0.6128 -0.9305
  917SOL     OW 4191   1.126   2.344   8.226 -0.8273  0.0176 -0.6115
  917SOL    HW1 4192   1.049   2.401   8.222 -1.5107 -0.7601  0.4790
  917SOL    HW2 4193   1.140   2.331   8.320  1.9340  1.7726 -0.6705
  918SOL     OW 4194   0.411   0.876   6.633 -0.3401 -0.8285 -0.7239
  918SOL    HW1 4195   0.337   0.894   6.691 -0.4682 -0.3405 -1.0314
  918SOL    HW2 4196   0.415   0.781   6.627 -1.6590 -0.8491 -1.6228
  919SOL     OW 4197   1.128   7.098   8.628 -0.3332 -0.0984  0.2735
  919SOL    HW1 4198   1.054   7.054   8.586 -0.8374 -0.1771  1.2227
  919SOL    HW2 4199   1.106   7.191   8.623  0.0635 -0.0408 -0.4803
  920SOL     OW 4200   0.139   1.462   7.704 -0.0351 -0.4462 -0.2555
  920SOL    HW1 4201   0.084   1.519   7.758  0.6424 -1.5494  1.6890
  920SOL    HW2 4202   0.182   1.521   7.643  0.9109  1.2143  1.9079
  921SOL     OW 4203   6.146   7.364   9.257  0.2194  0.6896 -0.7210
  921SOL    HW1 4204   6.106   7.306   9.193  0.8489  0.5068 -0.9557
  921SOL    HW2 4205   6.092   7.443   9.255 -0.8100  0.0249 -0.2028
  922SOL     OW 4206   0.463   7.495   8.606 -0.1876  0.4523 -0.2616
  922SOL    HW1 4207   0.488   7.460   8.692  0.7429 -0.0064 -0.7033
  922SOL    HW2 4208   0.497   7.585   8.606 -0.2894  0.4913 -0.1080
  923SOL     OW 4209   0.875   7.035   8.463  0.4347 -0.2157  0.0242
  923SOL    HW1 4210   0.914   7.056   8.378  1.7200  0.5944  0.7779
  923SOL    HW2 4211   0.850   6.943   8.456  0.1386 -0.0549 -1.3553
  924SOL     OW 4212   0.863   1.038   9.629 -0.2302  0.4379  0.5634
  924SOL    HW1 4213   0.936   1.097   9.645 -0.4614  0.4542  1.6361
  924SOL    HW2 4214   0.882   0.998   9.545  0.0099  1.9151 -0.1079
  925SOL     OW 4215   0.074   1.960  10.275 -0.2373 -0.0936 -0.0162
  925SOL    HW1 4216   0.148   1.902  10.255 -1.5682 -1.5740 -0.9608
  925SOL    HW2 4217   0.039   1.926  10.357 -0.9627 -0.6174 -0.5232
  926SOL     OW 4218   1.618   7.450   8.560  0.2938  0.4619  0.0501
  926SOL    HW1 4219   1.602   7.405   8.644 -1.4210 -1.1572 -1.0408
  926SOL    HW2 4220   1.695   7.407   8.524 -0.6346 -0.8674 -0.4370
  927SOL     OW 4221   0.902   1.339   9.190  0.1769  0.3802  0.5220
  927SOL    HW1 4222   0.820   1.379   9.161 -0.1657  0.2365  1.2918
  927SOL    HW2 4223   0.969   1.382   9.136 -0.5116 -0.3998 -0.9969
  928SOL     OW 4224   1.147   2.305   8.490 -0.3392 -0.1733  1.2278
  928SOL    HW1 4225   1.221   2.335   8.544  1.8527 -1.1996 -0.9848
  928SOL    HW2 4226   1.132   2.214   8.518 -0.5048 -0.0947  1.3978
  929SOL     OW 4227   0.534   1.941   8.482  0.2041 -0.8461  0.3096
  929SOL    HW1 4228   0.523   2.036   8.471  0.4897 -0.5437  2.2043
  929SOL    HW2 4229   0.581   1.932   8.565 -0.4997 -2.6838  0.5589
  930SOL     OW 4230   7.675   6.349   9.929  0.0809  0.1303  0.0088
  930SOL    HW1 4231   7.722   6.408   9.870  0.4366 -0.5432 -0.3928
  930SOL    HW2 4232   7.719   6.360  10.013 -0.7683  1.4995  0.3211
  931SOL     OW 4233   0.501   7.944   8.496 -0.1489  0.0972  0.1590
  931SOL    HW1 4234   0.445   7.940   8.574  0.1904  0.3287  0.4220
  931SOL    HW2 4235   0.478   7.867   8.445 -1.7954  0.9850 -0.4958
  932SOL     OW 4236   1.801   1.651   9.063 -0.5781 -0.5565  0.5741
  932SOL    HW1 4237   1.811   1.647   8.968 -0.1459 -0.2699  0.6033
  932SOL    HW2 4238   1.882   1.693   9.094 -0.6371 -0.8099  1.0818
  933SOL     OW 4239   1.502   7.775   7.613  0.5948 -0.1498  0.6397
  933SOL    HW1 4240   1.438   7.843   7.591  1.2975  0.5640  0.7558
  933SOL    HW2 4241   1.451   7.694   7.618 -0.0253  0.1059 -0.9608
  934SOL     OW 4242   0.149   0.257   7.877  0.9104  0.0653 -0.6535
  934SOL    HW1 4243   0.165   0.194   7.948  0.7782 -0.3572 -0.9912
  934SOL    HW2 4244   0.224   0.245   7.818  0.0907 -0.9355 -1.5361
  935SOL     OW 4245   6.790   3.080   9.936  0.5739  0.0177 -0.1457
  935SOL    HW1 4246   6.779   2.989   9.965  1.0096  0.2139  0.6582
  935SOL    HW2 4247   6.788   3.131  10.017 -0.1763  0.7854 -0.6359
  936SOL     OW 4248   1.363   7.900   8.794  0.5815 -0.5047  0.0722
  936SOL    HW1 4249   1.411   7.914   8.712  0.3984 -0.7132 -0.0738
  936SOL    HW2 4250   1.271   7.902   8.768  0.4730  0.7187  0.4785
  937SOL     OW 4251   0.870   0.774   7.812 -0.2225  0.2467  0.5030
  937SOL    HW1 4252   0.935   0.798   7.877  0.0639 -1.9777  1.1378
  937SOL    HW2 4253   0.883   0.836   7.740  2.5732 -0.0868  0.6233
  938SOL     OW 4254   1.554   0.737   8.096 -0.1362 -0.1943  0.6763
  938SOL    HW1 4255   1.639   0.743   8.052  0.9513  0.2693  2.7199
  938SOL    HW2 4256   1.492   0.775   8.034  1.0108 -1.0979 -1.1232
  939SOL     OW 4257   6.621   0.632   8.594  0.3059 -0.0412  0.6462
  939SOL    HW1 4258   6.654   0.676   8.516  1.1952 -0.0241  1.0140
  939SOL    HW2 4259   6.633   0.539   8.576 -1.3034 -0.1504 -0.0133
  940SOL     OW 4260   1.044   0.628  10.081 -0.1480  0.3748  0.1989
  940SOL    HW1 4261   1.040   0.548  10.133 -0.3214  1.0808  1.3095
  940SOL    HW2 4262   0.959   0.669  10.094 -1.6214 -1.0614 -3.4459
  941SOL     OW 4263   1.035   1.067   9.140  0.4487  0.3247 -0.1030
  941SOL    HW1 4264   0.986   1.142   9.174  0.3186  0.3763 -0.3981
  941SOL    HW2 4265   1.085   1.103   9.067  1.7087  0.4951  0.8139
  942SOL     OW 4266   7.443   7.460   9.864 -0.0399  0.3842  0.1553
  942SOL    HW1 4267   7.497   7.535   9.838  0.0631  0.6388  1.0926
  942SOL    HW2 4268   7.355   7.496   9.873 -0.3418  0.0200 -1.1259
  943SOL     OW 4269   0.913   0.946   7.620 -0.1160 -0.2100  0.0897
  943SOL    HW1 4270   0.837   0.996   7.590 -0.6644 -1.6124 -0.9108
  943SOL    HW2 4271   0.984   1.011   7.622 -0.3696  0.3125 -2.8797
  944SOL     OW 4272   0.569   0.523   7.904 -0.2033  0.3863 -0.7212
  944SOL    HW1 4273   0.575   0.544   7.810 -1.4503 -1.1877 -1.2057
  944SOL    HW2 4274   0.577   0.428   7.907  1.5623  0.5269  0.9824
  945SOL     OW 4275   1.208   0.450   7.668  0.1767  0.3955  0.2831
  945SOL    HW1 4276   1.278   0.454   7.603 -1.3688 -0.8629 -1.5833
  945SOL    HW2 4277   1.141   0.510   7.635  0.0621  1.0763  1.6752
  946SOL     OW 4278   1.108   2.025   7.834  0.2731  0.1289 -0.0015
  946SOL    HW1 4279   1.048   2.075   7.889 -1.3430 -0.8958 -0.7475
  946SOL    HW2 4280   1.057   1.949   7.806  1.4411 -0.0404 -1.8534
  947SOL     OW 4281   0.167   0.932   6.770  0.1423  0.0371  0.4666
  947SOL    HW1 4282   0.080   0.893   6.756 -0.2370  0.6810  0.9728
  947SOL    HW2 4283   0.151   1.003   6.832  0.7745  1.1315 -0.5899
  948SOL     OW 4284   7.559   0.211  10.009 -0.0893  0.1744 -0.5172
  948SOL    HW1 4285   7.516   0.236   9.927  0.8267 -1.2293 -1.4566
  948SOL    HW2 4286   7.614   0.287  10.030  1.8151 -0.4721 -2.7349
  949SOL     OW 4287   2.424   1.604   8.607 -0.3832 -0.4106  0.6273
  949SOL    HW1 4288   2.417   1.580   8.700  0.8689  0.2215  0.9021
  949SOL    HW2 4289   2.511   1.641   8.598 -0.5021 -0.4165 -0.8114
  950SOL     OW 4290   0.830   7.948   9.985 -0.1214 -0.3061  0.6290
  950SOL    HW1 4291   0.779   7.888  10.039 -0.2226 -0.7354  0.0728
  950SOL    HW2 4292   0.837   7.903   9.900  1.2052 -0.2647  0.6999
  951SOL     OW 4293   2.729   2.045   8.664  0.7642  0.6508  0.6768
  951SOL    HW1 4294   2.804   2.018   8.611 -0.4585  0.8478 -1.2736
  951SOL    HW2 4295   2.674   1.967   8.671 -0.5709  1.3551 -1.0771
  952SOL     OW 4296   0.559   1.758   7.536  0.3332 -0.1064  0.4608
  952SOL    HW1 4297   0.498   1.786   7.604  0.3318 -0.5606  0.6469
  952SOL    HW2 4298   0.563   1.833   7.476 -1.6255 -0.6565 -0.4172
  953SOL     OW 4299   6.861   0.215   9.786  0.2125  0.0037 -0.1179
  953SOL    HW1 4300   6.924   0.249   9.723  0.0966  1.0021  0.2859
  953SOL    HW2 4301   6.781   0.264   9.769  0.8851  2.2187  2.4696
  954SOL     OW 4302   1.313   0.110  11.257 -0.3132 -0.1954  0.5198
  954SOL    HW1 4303   1.314   0.015  11.267  0.4743 -0.0916  1.7180
  954SOL    HW2 4304   1.220   0.133  11.252 -0.4930 -1.0938 -0.7316
  955SOL     OW 4305   0.872   0.498  11.538  0.8351  0.3112  0.1728
  955SOL    HW1 4306   0.936   0.452  11.484 -0.0383 -0.2136 -0.4482
  955SOL    HW2 4307   0.799   0.437  11.545  0.7471  0.5649  1.5871
  956SOL     OW 4308   1.537   7.976   7.883  0.2907 -0.2996 -0.1869
  956SOL    HW1 4309   1.611   7.927   7.847  1.4691 -0.3608  2.1425
  956SOL    HW2 4310   1.469   7.910   7.898  0.3822 -0.5306 -0.7580
  957SOL     OW 4311   0.621   1.281   8.623 -1.0132  0.5497  0.4355
  957SOL    HW1 4312   0.665   1.350   8.673 -1.3262  1.3368 -0.3381
  957SOL    HW2 4313   0.565   1.237   8.686 -0.4360  0.6831  1.0496
  958SOL     OW 4314   0.858   0.100   7.884  0.2056  0.1180 -0.2573
  958SOL    HW1 4315   0.877   0.107   7.790  0.8892  0.2566 -0.1127
  958SOL    HW2 4316   0.941   0.121   7.927  0.5072 -2.0702  0.3480
  959SOL     OW 4317   1.074   0.429   8.282 -0.1304  0.3533  0.3512
  959SOL    HW1 4318   1.143   0.433   8.348 -0.9856  1.4466  1.2357
  959SOL    HW2 4319   1.027   0.348   8.300  1.9632 -1.3499 -1.4077
  960SOL     OW 4320   0.182   7.240   8.241  1.0385  0.3084  0.0384
  960SOL    HW1 4321   0.096   7.273   8.268 -0.4391 -0.9896 -2.6931
  960SOL    HW2 4322   0.239   7.257   8.317 -1.9288 -0.1329  2.5724
  961SOL     OW 4323   0.389   0.592  10.435 -0.2688  0.1706  0.3829
  961SOL    HW1 4324   0.449   0.620  10.505 -0.8793  0.8240  0.6550
  961SOL    HW2 4325   0.370   0.501  10.456  0.0598  0.1713  0.7078
  962SOL     OW 4326   2.153   0.066   8.762  0.0013  0.3656  0.3760
  962SOL    HW1 4327   2.143  -0.029   8.758 -0.2611  0.4289 -1.8976
  962SOL    HW2 4328   2.244   0.083   8.739  0.3157  0.6676  1.7180
  963SOL     OW 4329   7.444   0.020  10.549  0.0809 -0.6922 -0.0052
  963SOL    HW1 4330   7.496   0.098  10.533 -0.5389  0.0894  1.5384
  963SOL    HW2 4331   7.458  -0.035  10.472  1.7066  0.2801 -0.4447
  964SOL     OW 4332   1.167   2.828   8.498  0.2649 -0.2621  0.1314
  964SOL    HW1 4333   1.162   2.907   8.552 -0.0706 -0.3394  0.2177
  964SOL    HW2 4334   1.122   2.762   8.550 -1.1966 -0.0295 -0.8039
  965SOL     OW 4335   0.458   0.799   8.494 -0.0186  0.5258 -0.6288
  965SOL    HW1 4336   0.518   0.755   8.554  0.1876  0.6156 -0.7665
  965SOL    HW2 4337   0.448   0.887   8.530 -0.1035  0.4971 -0.5812
  966SOL     OW 4338   0.273   1.899   9.570 -0.1556  0.4105 -0.3676
  966SOL    HW1 4339   0.346   1.847   9.536  0.7236  0.3921  1.4485
  966SOL    HW2 4340   0.196   1.868   9.521  0.6596 -1.2573 -0.6561
  967SOL     OW 4341   0.291   1.270   9.174  0.0933  0.0355 -0.1428
  967SOL    HW1 4342   0.234   1.341   9.144 -0.7313 -1.4594 -2.3409
  967SOL    HW2 4343   0.379   1.308   9.176 -0.3037  1.0979 -1.4554
  968SOL     OW 4344   1.849   1.180   8.255 -0.4337  0.6673  0.0519
  968SOL    HW1 4345   1.791   1.111   8.224 -1.1818  0.5664  1.5530
  968SOL    HW2 4346   1.818   1.260   8.213  0.4189  0.1437 -1.6773
  969SOL     OW 4347   0.512   6.536  10.841 -0.3945  0.3062 -0.0348
  969SOL    HW1 4348   0.439   6.566  10.895 -0.0152  0.4027  0.4345
  969SOL    HW2 4349   0.474   6.471  10.783 -0.9570  0.7357 -0.1529
  970SOL     OW 4350   0.686   1.509   8.752 -0.3972  0.3776 -0.0387
  970SOL    HW1 4351   0.692   1.467   8.838 -0.6097 -2.6284 -1.3744
  970SOL    HW2 4352   0.765   1.564   8.747  0.3635 -0.4897  1.5122
  971SOL     OW 4353   7.239   7.682  10.217  0.4857 -0.5931  0.4938
  971SOL    HW1 4354   7.210   7.704  10.305  0.9752 -0.5005  0.6348
  971SOL    HW2 4355   7.305   7.613  10.230  0.5383 -0.5981  0.2039
  972SOL     OW 4356   6.548   0.624   9.050  0.1368  0.0414  0.4049
  972SOL    HW1 4357   6.460   0.609   9.016  0.7137  0.1468 -1.2713
  972SOL    HW2 4358   6.538   0.626   9.145 -1.7100  0.4149  0.2393
  973SOL     OW 4359   1.947   0.458   8.213  0.2511  1.2014  0.1963
  973SOL    HW1 4360   1.857   0.480   8.239  0.2697  0.7363  0.6649
  973SOL    HW2 4361   1.937   0.396   8.141  0.1828 -0.1040  1.3084
  974SOL     OW 4362   0.394   1.725   8.376  0.0216  0.1087 -0.3693
  974SOL    HW1 4363   0.446   1.647   8.398  0.3178  0.4063 -0.0131
  974SOL    HW2 4364   0.441   1.797   8.416  0.8269  0.7279 -2.3061
  975SOL     OW 4365   7.610   0.632   8.433  0.2263 -0.2439  0.0598
  975SOL    HW1 4366   7.652   0.697   8.489 -0.5014 -0.6203  1.0823
  975SOL    HW2 4367   7.626   0.548   8.478 -0.9881 -0.4695  0.1039
  976SOL     OW 4368   1.041   0.467   9.368  0.0390  0.4776  0.9396
  976SOL    HW1 4369   0.991   0.403   9.319 -0.4745  0.6664  1.2010
  976SOL    HW2 4370   0.974   0.527   9.404  0.5130  1.2241  0.5947
  977SOL     OW 4371   0.824   1.501   7.020  0.0726  0.1177 -0.4267
  977SOL    HW1 4372   0.734   1.524   7.044 -0.2396 -1.1095 -0.3690
  977SOL    HW2 4373   0.873   1.510   7.101  0.3780  2.3742 -0.7800
  978SOL     OW 4374   1.394   0.203   7.981  0.0973  0.2510 -0.0635
  978SOL    HW1 4375   1.441   0.122   7.962  1.5972  0.1422  3.2825
  978SOL    HW2 4376   1.397   0.210   8.077 -1.9472  3.1433 -0.0826
  979SOL     OW 4377   0.252   1.500   8.243 -0.1266  0.0144 -0.2417
  979SOL    HW1 4378   0.326   1.507   8.303  0.6954 -0.2023 -1.1831
  979SOL    HW2 4379   0.268   1.569   8.178 -1.8232  1.2902  0.6024
  980SOL     OW 4380   7.898   1.971   8.155  0.1014  0.1927  0.6448
  980SOL    HW1 4381   7.832   2.023   8.109  1.0405 -0.0125 -0.9804
  980SOL    HW2 4382   7.979   1.988   8.109  0.6300 -1.9347  0.6880
  981SOL     OW 4383   5.612   1.408   8.897  0.0632 -0.7959 -0.3959
  981SOL    HW1 4384   5.614   1.501   8.919 -0.7597 -0.7908 -0.3226
  981SOL    HW2 4385   5.590   1.364   8.979  1.9036 -1.1991 -0.0667
  982SOL     OW 4386   1.911   0.845   8.964 -0.3071  0.3178  0.4174
  982SOL    HW1 4387   1.958   0.846   8.881 -2.0569 -2.0414 -0.7469
  982SOL    HW2 4388   1.903   0.937   8.989  3.3822  0.9159 -0.1091
  983SOL     OW 4389   0.177   0.021   8.787 -0.7154 -0.3165 -0.4745
  983SOL    HW1 4390   0.111   0.011   8.856 -0.4591  0.4141 -0.1044
  983SOL    HW2 4391   0.258  -0.009   8.827 -0.7700 -0.9458 -0.8347
  984SOL     OW 4392   0.072   7.769   9.798  0.2284  0.0327 -0.2538
  984SOL    HW1 4393   0.149   7.721   9.766 -0.3209 -0.2511 -1.1618
  984SOL    HW2 4394   0.036   7.811   9.720  0.0360  0.9854  0.3406
  985SOL     OW 4395   7.606   7.942   9.703 -0.3340 -0.2570  0.4594
  985SOL    HW1 4396   7.701   7.942   9.694 -0.3473  0.0092  0.3186
  985SOL    HW2 4397   7.573   7.930   9.614 -0.4531  1.5396  0.2261
  986SOL     OW 4398   2.513   1.006   8.318  0.6419 -0.0219 -0.3776
  986SOL    HW1 4399   2.452   1.076   8.341  0.0618 -0.9032  0.9739
  986SOL    HW2 4400   2.578   1.007   8.388  0.0374 -1.4543  0.2559
  987SOL     OW 4401   2.732   7.552   7.384  0.4291  0.4664  0.3839
  987SOL    HW1 4402   2.813   7.547   7.333 -0.2388 -1.0853 -0.5811
  987SOL    HW2 4403   2.730   7.471   7.435 -0.1730  0.8263  0.9485
  988SOL     OW 4404   0.301   7.187   6.662  0.2305 -0.1937  0.4501
  988SOL    HW1 4405   0.281   7.266   6.612 -0.0952 -0.5619 -0.0235
  988SOL    HW2 4406   0.217   7.162   6.701  0.1971 -0.6396  0.0975
  989SOL     OW 4407   7.503   2.807   9.714  0.2906 -0.4821  0.5286
  989SOL    HW1 4408   7.493   2.867   9.640 -2.2377  0.6398  1.6880
  989SOL    HW2 4409   7.438   2.738   9.699  1.9466 -2.0428  0.1390
  990SOL     OW 4410   2.145   0.619   8.135 -0.3041 -0.1430  0.0536
  990SOL    HW1 4411   2.133   0.598   8.043 -1.5865 -0.3435  0.2469
  990SOL    HW2 4412   2.073   0.574   8.180 -1.0967  1.8112  0.8715
  991SOL     OW 4413   7.861   0.706   7.393  0.1140 -0.0205 -0.2842
  991SOL    HW1 4414   7.943   0.748   7.368  0.4126 -0.6375 -0.3788
  991SOL    HW2 4415   7.795   0.745   7.334  0.4635 -0.0194 -0.6802
  992SOL     OW 4416   2.174   7.555   8.207 -0.0729 -0.3459 -0.1780
  992SOL    HW1 4417   2.218   7.606   8.275 -0.5889 -0.2759  0.1105
  992SOL    HW2 4418   2.173   7.612   8.131  1.8582 -0.9850 -0.7253
  993SOL     OW 4419   6.768   6.933   8.394 -0.5386  0.4143 -0.2566
  993SOL    HW1 4420   6.809   6.935   8.481 -1.2828  2.5900  0.1163
  993SOL    HW2 4421   6.693   6.993   8.402 -1.1266 -0.0103 -2.1700
  994SOL     OW 4422   1.327   7.985   7.482  0.0638 -0.6304  0.0414
  994SOL    HW1 4423   1.401   8.039   7.455  0.3048 -1.1329 -0.3180
  994SOL    HW2 4424   1.302   7.937   7.403 -0.8069 -0.2791  0.0978
  995SOL     OW 4425   1.910   0.701   8.405 -0.4275 -0.2677  0.4119
  995SOL    HW1 4426   1.968   0.645   8.457  1.7889  0.5845 -0.9753
  995SOL    HW2 4427   1.867   0.642   8.344  1.1593 -0.6401 -0.3995
  996SOL     OW 4428   0.978   7.539  10.972  0.1886  0.0252 -0.6648
  996SOL    HW1 4429   1.073   7.552  10.981  0.1442 -0.1115  0.0654
  996SOL    HW2 4430   0.954   7.488  11.049  0.2083 -3.6106 -2.8299
  997SOL     OW 4431   2.477   7.476   6.626 -0.2846 -0.5705 -0.4293
  997SOL    HW1 4432   2.475   7.511   6.715  0.3262 -1.0897 -0.2044
  997SOL    HW2 4433   2.543   7.406   6.629  0.0621 -0.2960 -1.3994
  998SOL     OW 4434   3.175   7.783   9.459  0.3092 -0.2867  0.4030
  998SOL    HW1 4435   3.143   7.766   9.371  1.1007  0.2885 -0.0039
  998SOL    HW2 4436   3.223   7.704   9.484 -0.6038 -0.7753  0.6473
  999SOL     OW 4437   1.221   3.178   8.137 -0.3876 -0.4497  0.6212
  999SOL    HW1 4438   1.235   3.105   8.076  0.6795  0.7796 -0.6807
  999SOL    HW2 4439   1.307   3.193   8.176 -0.4599  0.4520  0.4568
 1000SOL     OW 4440   7.650   1.012   7.829 -0.5706 -0.2057 -0.0806
 1000SOL    HW1 4441   7.569   1.062   7.829  0.5060  1.6883  1.1520
 1000SOL    HW2 4442   7.651   0.968   7.915  0.4241  1.1200  0.6203
 1001SOL     OW 4443   7.110   0.499   8.312  0.1493 -0.3493 -0.2355
 1001SOL    HW1 4444   7.126   0.527   8.222  0.8342  1.1566  0.3302
 1001SOL    HW2 4445   7.190   0.452   8.336  0.8171  0.9680  0.2154
 1002SOL     OW 4446   1.549   7.879   9.893  0.0959  0.3752  0.1221
 1002SOL    HW1 4447   1.492   7.803   9.905 -0.9452  0.4575 -3.0751
 1002SOL    HW2 4448   1.555   7.919   9.979  0.4111 -3.0889  1.8639
 1003SOL     OW 4449   7.531   2.139   6.600  0.2834 -0.5721 -0.3811
 1003SOL    HW1 4450   7.464   2.206   6.590  0.9987  0.4829  1.3390
 1003SOL    HW2 4451   7.485   2.057   6.585 -1.4686  0.0907  0.9818
 1004SOL     OW 4452   6.228   1.696   8.121  0.0776 -0.4001 -0.6531
 1004SOL    HW1 4453   6.268   1.713   8.036  0.0707  1.4156 -0.3327
 1004SOL    HW2 4454   6.243   1.777   8.172 -1.0649 -0.9361  0.6087
 1005SOL     OW 4455   0.718   1.200   9.382  0.0325 -0.2656  0.1866
 1005SOL    HW1 4456   0.639   1.254   9.380  1.9980  2.9745  1.2971
 1005SOL    HW2 4457   0.790   1.264   9.378  2.6102 -3.0177 -0.5795
 1006SOL     OW 4458   0.094   7.799   8.659 -0.4890 -0.2581 -0.8767
 1006SOL    HW1 4459   0.135   7.805   8.573  0.3153  0.5426 -0.4615
 1006SOL    HW2 4460   0.132   7.871   8.709 -2.9015  0.9632 -0.6357
 1007SOL     OW 4461   1.022   6.911   7.877  0.3852  0.7027 -0.3617
 1007SOL    HW1 4462   0.940   6.865   7.859  1.2432 -1.4469  0.8101
 1007SOL    HW2 4463   1.089   6.853   7.841  1.6108  0.1223  2.5805
 1008SOL     OW 4464   6.161   7.925   8.829  0.2225  0.3888 -0.4216
 1008SOL    HW1 4465   6.199   8.012   8.815  1.4129 -0.4720 -3.3570
 1008SOL    HW2 4466   6.237   7.868   8.842 -0.4057 -0.5614 -0.8595
 1009SOL     OW 4467   7.551   0.110   7.392 -0.2737  0.2268  0.1887
 1009SOL    HW1 4468   7.566   0.016   7.379  0.8611  0.5960 -1.3285
 1009SOL    HW2 4469   7.627   0.140   7.441 -0.0752  0.5654 -0.3241
 1010SOL     OW 4470   0.443   0.826   7.571 -0.2642  1.1529  0.1772
 1010SOL    HW1 4471   0.461   0.808   7.479  2.4415  0.6332  0.7225
 1010SOL    HW2 4472   0.453   0.920   7.579 -0.7936  1.2383 -0.0886
 1011SOL     OW 4473   0.075   1.303   8.228 -0.0077 -0.6896  0.0797
 1011SOL    HW1 4474   0.138   1.375   8.231 -0.4395 -0.2191 -1.2609
 1011SOL    HW2 4475   0.108   1.239   8.290  2.5953 -1.0931 -1.5613
 1012SOL     OW 4476   7.499   1.012   7.178 -0.0505  0.5729 -0.9710
 1012SOL    HW1 4477   7.419   1.065   7.179 -0.0006  0.6426 -0.7482
 1012SOL    HW2 4478   7.569   1.074   7.196 -0.1279  0.1916  0.8972
 1013SOL     OW 4479   0.669   0.172   7.595  0.3417  0.3952  0.2333
 1013SOL    HW1 4480   0.704   0.087   7.623  0.8697  0.2909 -0.7078
 1013SOL    HW2 4481   0.742   0.232   7.606  0.5954  0.3292 -1.0094
 1014SOL     OW 4482   0.617   2.039   7.125 -0.2607  0.4680 -0.3234
 1014SOL    HW1 4483   0.682   2.065   7.060 -1.4993  1.5797 -1.1563
 1014SOL    HW2 4484   0.537   2.023   7.075 -0.8187 -0.2376  0.7517
 1015SOL     OW 4485   1.593   7.988  11.405 -0.5701 -0.1874  0.3318
 1015SOL    HW1 4486   1.521   7.931  11.377 -0.4748 -0.8465  1.3711
 1015SOL    HW2 4487   1.671   7.945  11.371 -0.5490 -0.3463  0.5758
 1016SOL     OW 4488   7.416   2.479   8.591 -0.0176  0.0956  0.1707
 1016SOL    HW1 4489   7.447   2.567   8.614 -2.0909  1.0574 -0.4826
 1016SOL    HW2 4490   7.423   2.475   8.496  2.0257 -1.2980  0.3085
 1017SOL     OW 4491   0.948   1.036   8.209  0.1915 -0.1269  0.6453
 1017SOL    HW1 4492   1.042   1.037   8.228  0.1068  0.7966  1.0608
 1017SOL    HW2 4493   0.920   1.127   8.222 -0.6086 -0.2376 -0.2412
 1018SOL     OW 4494   1.215   0.708   8.254 -0.2048 -0.4923  0.1305
 1018SOL    HW1 4495   1.302   0.670   8.266  0.2585  0.6444  0.4732
 1018SOL    HW2 4496   1.160   0.663   8.317  0.4322 -0.2984  0.8413
 1019SOL     OW 4497   0.659   2.428   8.504  0.0944 -0.0621 -0.0073
 1019SOL    HW1 4498   0.622   2.340   8.490 -0.6589  0.4192 -1.1758
 1019SOL    HW2 4499   0.643   2.445   8.597  0.7866 -1.3850  0.3896
 1020SOL     OW 4500   0.026   2.029   8.867  0.8647 -0.1899  0.4576
 1020SOL    HW1 4501  -0.015   2.086   8.932 -0.8348 -0.0749 -0.6516
 1020SOL    HW2 4502   0.059   1.955   8.917 -0.5046 -0.1621  1.4564
 1021SOL     OW 4503   7.352   1.378   8.186 -0.5582  1.0392 -0.5101
 1021SOL    HW1 4504   7.281   1.315   8.198  0.1176  0.4516  0.5979
 1021SOL    HW2 4505   7.386   1.359   8.098  0.1667 -0.7364  0.1061
 1022SOL     OW 4506   1.429   0.427   9.718  0.3881  0.3847  0.2200
 1022SOL    HW1 4507   1.488   0.352   9.717  2.0896  1.6674  0.5430
 1022SOL    HW2 4508   1.471   0.490   9.776 -1.1614  1.4852  0.2197
 1023SOL     OW 4509   1.120   0.067   6.199  0.2013  0.1370 -0.6621
 1023SOL    HW1 4510   1.093   0.153   6.168  0.6190 -0.2145 -2.0283
 1023SOL    HW2 4511   1.146   0.019   6.121 -0.3258 -1.3537  0.0270
 1024SOL     OW 4512   7.765   2.401   6.199  0.3754 -0.7099 -0.7281
 1024SOL    HW1 4513   7.851   2.371   6.170  0.4113 -2.1315  0.6927
 1024SOL    HW2 4514   7.703   2.360   6.138  0.4230 -3.9513  1.1437
 1025SOL     OW 4515   6.528   7.731   9.750  0.0520  0.3550 -0.2405
 1025SOL    HW1 4516   6.529   7.788   9.827 -1.7811  1.0421 -0.6658
 1025SOL    HW2 4517   6.496   7.787   9.679  0.9558 -0.4730 -1.3395
 1026SOL     OW 4518   0.534   1.799   9.451  0.0831  0.3312  0.6586
 1026SOL    HW1 4519   0.553   1.890   9.425  0.9240  0.0727  0.3402
 1026SOL    HW2 4520   0.526   1.752   9.368  1.0035 -0.1522  0.8423
 1027SOL     OW 4521   7.658   0.354   8.592  0.6885  0.3021  0.3018
 1027SOL    HW1 4522   7.599   0.280   8.604  0.9395  0.2093  1.0539
 1027SOL    HW2 4523   7.744   0.314   8.578  0.5953  0.4367 -0.7491
 1028SOL     OW 4524   0.287   7.249   7.977  0.1805  0.1271 -0.2976
 1028SOL    HW1 4525   0.355   7.182   7.986 -0.1275 -0.0840  0.5848
 1028SOL    HW2 4526   0.249   7.256   8.065  0.6281  1.9233 -0.2184
 1029SOL     OW 4527   0.453   1.724  10.327 -0.8086 -0.0899  0.2966
 1029SOL    HW1 4528   0.415   1.737  10.240 -0.1179  0.0677  0.0054
 1029SOL    HW2 4529   0.449   1.629  10.341 -1.4136 -0.0642  0.3306
 1030SOL     OW 4530   2.198   7.621  10.166  0.0202 -0.0306  0.0347
 1030SOL    HW1 4531   2.287   7.656  10.169  0.7620 -1.9010  1.8117
 1030SOL    HW2 4532   2.179   7.614  10.072  1.8596  0.1048 -0.3909
 1031SOL     OW 4533   0.113   7.865   8.150 -0.4765  1.0724 -0.3107
 1031SOL    HW1 4534   0.028   7.881   8.109 -1.0418 -0.6023  0.1249
 1031SOL    HW2 4535   0.136   7.776   8.124 -0.1701  0.4746  1.7778
 1032SOL     OW 4536   0.264   1.696   6.897  0.0661  0.1896 -0.1572
 1032SOL    HW1 4537   0.348   1.716   6.855  0.4471  0.5571  0.7513
 1032SOL    HW2 4538   0.237   1.778   6.938 -0.9359  0.1756 -0.7455
 1033SOL     OW 4539   1.050   0.012  10.650  0.4641 -0.1269  0.1414
 1033SOL    HW1 4540   1.019  -0.008  10.739  0.4261  1.6326  0.5657
 1033SOL    HW2 4541   1.144  -0.005  10.653  0.1047 -2.4953 -0.2481
 1034SOL     OW 4542   0.074   0.523   7.904  0.1856  0.4838 -0.3469
 1034SOL    HW1 4543   0.103   0.437   7.933 -0.1094  0.8124  0.9988
 1034SOL    HW2 4544   0.147   0.581   7.924 -0.8126  1.0935  1.8926
 1035SOL     OW 4545   1.752   2.811   7.667  0.2650 -0.2863  0.2929
 1035SOL    HW1 4546   1.842   2.787   7.645  0.1933 -0.5836  0.3103
 1035SOL    HW2 4547   1.761   2.878   7.735  0.4748 -0.0879  0.0717
 1036SOL     OW 4548   0.352   0.795   8.810  0.4961 -0.0302  0.2778
 1036SOL    HW1 4549   0.375   0.887   8.797  1.6666 -0.3051  0.2869
 1036SOL    HW2 4550   0.327   0.764   8.723 -2.1043  0.8322  0.6318
 1037SOL     OW 4551   2.755   2.192   9.224  0.0673 -0.5748 -0.0155
 1037SOL    HW1 4552   2.750   2.253   9.150 -0.0697  0.7978  1.0690
 1037SOL    HW2 4553   2.670   2.200   9.267  0.1562 -1.3357  0.3159
 1038SOL     OW 4554   7.802   7.545   7.653 -0.0209 -0.2393  0.2664
 1038SOL    HW1 4555   7.786   7.481   7.723  0.2364 -1.1509 -0.4894
 1038SOL    HW2 4556   7.879   7.513   7.608  0.5482  1.0124  0.3048
 1039SOL     OW 4557   1.016   7.067   8.189  0.8118  0.0114 -0.2743
 1039SOL    HW1 4558   1.034   7.089   8.098  0.1529  2.1146  0.0509
 1039SOL    HW2 4559   1.061   7.134   8.239 -0.1667 -0.1677  0.8906
 1040SOL     OW 4560   1.462   1.778   8.347  0.0202 -0.0374 -0.3604
 1040SOL    HW1 4561   1.510   1.841   8.294 -1.2599  0.4122 -1.0315
 1040SOL    HW2 4562   1.496   1.692   8.320  0.2236  0.2526 -1.0290
 1041SOL     OW 4563   3.280   1.844   7.489 -0.1103 -0.1243  0.2279
 1041SOL    HW1 4564   3.343   1.826   7.558  0.9227  1.8010 -0.1472
 1041SOL    HW2 4565   3.195   1.842   7.534  0.4874  0.4889  1.4561
 1042SOL     OW 4566   1.610   1.401   8.433  0.1548  0.1891 -0.2436
 1042SOL    HW1 4567   1.610   1.487   8.474 -0.9039  0.1695 -0.1679
 1042SOL    HW2 4568   1.644   1.416   8.345 -2.1693  1.1449 -1.0654
 1043SOL     OW 4569   0.161   0.552   8.980  0.5007 -0.6952  0.5278
 1043SOL    HW1 4570   0.112   0.491   9.035 -0.5853 -1.6077 -1.3149
 1043SOL    HW2 4571   0.244   0.508   8.963 -0.1586 -1.6005 -0.5438
 1044SOL     OW 4572   0.958   6.845   9.985  0.9002  0.1428 -0.0799
 1044SOL    HW1 4573   1.023   6.910  10.013  1.2946  0.2926 -1.3030
 1044SOL    HW2 4574   0.931   6.802  10.066  2.2833  0.3081  0.4928
 1045SOL     OW 4575   0.110   0.515   8.374  0.0355 -0.2177  0.1189
 1045SOL    HW1 4576   0.158   0.435   8.354 -0.5080 -0.6127  0.3434
 1045SOL    HW2 4577   0.039   0.517   8.309  0.1969  0.2144 -0.0456
 1046SOL     OW 4578   0.650   0.755   8.076 -0.3426  0.1827  0.0861
 1046SOL    HW1 4579   0.708   0.702   8.132  1.5000  2.3442  0.3752
 1046SOL    HW2 4580   0.651   0.710   7.992  2.9972  0.8004 -0.3590
 1047SOL     OW 4581   7.239   1.578  10.117  0.0366  0.1082 -0.1160
 1047SOL    HW1 4582   7.209   1.658  10.073  2.6360  0.4382 -1.4991
 1047SOL    HW2 4583   7.267   1.608  10.204 -2.8213 -0.1159  0.9852
 1048SOL     OW 4584   1.967   1.199   9.001  0.3888  0.6394  0.3306
 1048SOL    HW1 4585   2.022   1.232   9.072  0.9887 -2.4416  1.4836
 1048SOL    HW2 4586   1.886   1.172   9.043  0.8083 -1.3711 -0.0137
 1049SOL     OW 4587   1.068   0.287  11.365 -0.3642  0.1203  0.3702
 1049SOL    HW1 4588   1.027   0.245  11.289 -1.0169 -0.4526  1.0255
 1049SOL    HW2 4589   1.110   0.366  11.329 -2.3408  0.9261 -0.2876
 1050SOL     OW 4590   2.357   1.696   8.110  0.1105  0.1465  0.6182
 1050SOL    HW1 4591   2.417   1.746   8.056  0.4567  0.1712  1.0181
 1050SOL    HW2 4592   2.385   1.605   8.100  0.3108  0.1732  0.9195
 1051SOL     OW 4593   7.549   7.604   6.424 -0.2763 -0.3075 -0.5000
 1051SOL    HW1 4594   7.506   7.604   6.509  2.1380 -0.3556  0.8239
 1051SOL    HW2 4595   7.639   7.576   6.443  0.1975 -0.8461 -3.1581
 1052SOL     OW 4596   1.513   1.103   8.378  1.0955  0.1116 -0.0738
 1052SOL    HW1 4597   1.547   1.056   8.454 -2.0574 -1.6270  0.4368
 1052SOL    HW2 4598   1.507   1.194   8.407 -0.3402 -0.5500  1.9720
 1053SOL     OW 4599   1.492   0.514   6.747  0.2472  0.2805  0.8298
 1053SOL    HW1 4600   1.452   0.498   6.833 -0.8359  2.9348  0.9399
 1053SOL    HW2 4601   1.576   0.555   6.767  0.2539  0.3596  0.6409
 1054SOL     OW 4602   0.842   7.419   8.379 -0.1484 -0.1725  0.0809
 1054SOL    HW1 4603   0.877   7.459   8.299 -1.2612 -0.6253 -0.6554
 1054SOL    HW2 4604   0.792   7.343   8.348 -0.1148 -0.6886  1.2580
 1055SOL     OW 4605   3.147   6.917   8.964  0.0577 -0.3439  0.2020
 1055SOL    HW1 4606   3.054   6.934   8.946  0.5402  0.6088 -1.6916
 1055SOL    HW2 4607   3.187   7.004   8.962  0.8397 -0.6247  2.1627
 1056SOL     OW 4608   2.733   0.425   9.310 -0.1725 -0.4466 -0.1021
 1056SOL    HW1 4609   2.798   0.439   9.241 -0.2242  0.7047  0.0659
 1056SOL    HW2 4610   2.649   0.438   9.266 -0.2841 -1.3619 -0.1854
 1057SOL     OW 4611   0.803   2.136   7.587  0.2192 -0.2577  0.3062
 1057SOL    HW1 4612   0.769   2.047   7.599 -1.0686  0.4006  1.9734
 1057SOL    HW2 4613   0.732   2.182   7.542 -0.0162  0.4360  1.3493
 1058SOL     OW 4614   0.076   2.168   6.674 -0.2256 -0.2005  0.2778
 1058SOL    HW1 4615   0.066   2.205   6.587  3.3460 -0.1629 -0.2732
 1058SOL    HW2 4616   0.044   2.237   6.733  1.3553  1.6611 -0.9091
 1059SOL     OW 4617   2.101   1.405   8.097  0.1941 -0.1690  0.1750
 1059SOL    HW1 4618   2.190   1.409   8.063  0.2558 -1.7454  0.0702
 1059SOL    HW2 4619   2.090   1.314   8.127 -1.7738 -0.3728 -0.9682
 1060SOL     OW 4620   7.321   0.299   6.677 -0.7898  0.2232 -0.1513
 1060SOL    HW1 4621   7.257   0.263   6.615 -1.4930  1.3612 -0.1047
 1060SOL    HW2 4622   7.268   0.340   6.745 -0.0790  2.8179 -1.0524
 1061SOL     OW 4623   1.702   0.499   8.305 -0.5939  0.5279 -0.3239
 1061SOL    HW1 4624   1.647   0.452   8.367 -0.6534  1.0263  0.0121
 1061SOL    HW2 4625   1.641   0.552   8.253 -0.5059  0.4387 -0.5224
 1062SOL     OW 4626   7.731   2.012   8.954  0.1709  0.2016  0.0837
 1062SOL    HW1 4627   7.804   2.070   8.975  0.4033 -0.7891  2.2681
 1062SOL    HW2 4628   7.662   2.072   8.924  1.1758  1.3668  0.0062
 1063SOL     OW 4629   7.886   7.327   8.363  0.4834 -0.5761 -0.1056
 1063SOL    HW1 4630   7.857   7.236   8.373 -1.5082 -0.0056 -0.1287
 1063SOL    HW2 4631   7.847   7.372   8.438  2.0929  0.1399  0.3350
 1064SOL     OW 4632   0.829   2.227   8.587 -0.5114 -0.2206  0.5169
 1064SOL    HW1 4633   0.832   2.319   8.559 -1.0162 -0.1436  0.7108
 1064SOL    HW2 4634   0.846   2.178   8.507  1.5984  0.0654  0.7308
 1065SOL     OW 4635   1.018   0.037   9.269 -0.3512  0.1443 -0.0616
 1065SOL    HW1 4636   0.934  -0.008   9.277  0.3110 -1.2819 -0.7272
 1065SOL    HW2 4637   1.084  -0.031   9.287  0.6684  1.2230  0.4179
 1066SOL     OW 4638   1.296   7.726   9.938 -0.0810 -0.4561 -0.1561
 1066SOL    HW1 4639   1.231   7.756  10.001 -1.5857 -2.0012 -0.9015
 1066SOL    HW2 4640   1.265   7.757   9.853  1.8713  1.5160 -0.2546
 1067SOL     OW 4641   3.440   2.200   7.908  0.5453  0.2159 -0.9171
 1067SOL    HW1 4642   3.483   2.243   7.834 -1.0352  0.7448 -1.5759
 1067SOL    HW2 4643   3.380   2.266   7.942 -1.6916 -1.2837 -1.7418
 1068SOL     OW 4644   7.927   0.438   9.320 -0.4731  0.1223  0.1683
 1068SOL    HW1 4645   7.891   0.526   9.333  0.5716  0.7165 -0.7165
 1068SOL    HW2 4646   7.983   0.447   9.243 -1.0333 -1.5503 -0.4639
 1069SOL     OW 4647   1.462   1.813   8.619  0.4467  0.3796  0.0690
 1069SOL    HW1 4648   1.472   1.824   8.524  1.5714 -0.1103  0.1181
 1069SOL    HW2 4649   1.484   1.899   8.655  1.1928  0.2427 -0.0467
 1070SOL     OW 4650   0.728   0.719   8.757 -0.0120 -0.2680 -0.0257
 1070SOL    HW1 4651   0.723   0.780   8.830  2.6216 -0.8349  0.7098
 1070SOL    HW2 4652   0.694   0.637   8.792 -0.5664 -0.0490 -0.0431
 1071SOL     OW 4653   7.121   0.112   6.792  0.2654 -0.3632 -0.0132
 1071SOL    HW1 4654   7.139   0.206   6.787 -0.4191 -0.2335 -0.2338
 1071SOL    HW2 4655   7.204   0.072   6.816  1.0728  0.0964 -1.8349
 1072SOL     OW 4656   0.912   1.634   6.384 -0.0446 -0.1003 -0.2805
 1072SOL    HW1 4657   0.881   1.547   6.360 -0.1834 -0.5324  1.3640
 1072SOL    HW2 4658   0.864   1.693   6.326 -1.5956 -0.9719  0.0660
 1073SOL     OW 4659   1.016   1.252   7.808 -0.3767 -0.4119  0.2296
 1073SOL    HW1 4660   0.927   1.289   7.810 -1.1529 -2.1851  2.2969
 1073SOL    HW2 4661   1.008   1.167   7.852  2.0900 -1.2675 -0.8047
 1074SOL     OW 4662   2.316   7.886   6.766  0.2592 -0.3547  0.1454
 1074SOL    HW1 4663   2.331   7.867   6.673 -0.0658 -0.2069  0.0610
 1074SOL    HW2 4664   2.403   7.885   6.805  0.3723 -0.7056 -0.1081
 1075SOL     OW 4665   2.539   7.423  10.678  0.0810 -0.1537  0.2133
 1075SOL    HW1 4666   2.591   7.364  10.733  0.8125 -1.7019 -2.0137
 1075SOL    HW2 4667   2.464   7.370  10.650  0.1661  0.3195 -0.9409
 1076SOL     OW 4668   6.847   1.979   8.333  0.2863  0.1336 -0.0507
 1076SOL    HW1 4669   6.826   1.888   8.349  0.2585  0.3104  0.9686
 1076SOL    HW2 4670   6.774   2.012   8.281 -0.0634 -0.2445  0.1980
 1077SOL     OW 4671   0.624   0.245   7.909  0.2380 -0.2576  0.0619
 1077SOL    HW1 4672   0.702   0.205   7.871  0.5736  0.4303  0.0044
 1077SOL    HW2 4673   0.551   0.208   7.860  0.4369 -1.7254  0.8273
 1078SOL     OW 4674   7.974   7.612   9.972  0.5433 -0.3716  0.3310
 1078SOL    HW1 4675   8.031   7.535   9.968  2.5853  1.0210  0.8259
 1078SOL    HW2 4676   8.007   7.669   9.902 -1.5179 -0.3020 -0.6293
 1079SOL     OW 4677   0.904   6.653  11.762  0.9753  0.0212  0.6151
 1079SOL    HW1 4678   0.835   6.664  11.697  1.2243  0.2329  0.3842
 1079SOL    HW2 4679   0.863   6.674  11.845  0.3994 -1.1541  0.6479
 1080SOL     OW 4680   0.726   7.768  10.162  0.2127 -0.3423 -0.1113
 1080SOL    HW1 4681   0.785   7.751  10.235  0.0896 -0.3287 -0.0088
 1080SOL    HW2 4682   0.713   7.682  10.121  0.1375 -0.3802 -0.0082
 1081SOL     OW 4683   1.520   1.661  10.508  0.0462  0.1035 -0.1447
 1081SOL    HW1 4684   1.576   1.663  10.586 -0.9831  0.0199  0.6197
 1081SOL    HW2 4685   1.560   1.596  10.451 -0.6762 -1.8923  1.4987
 1082SOL     OW 4686   0.603   1.842  11.867 -0.8993 -0.4462  0.0374
 1082SOL    HW1 4687   0.597   1.795  11.950  0.1032 -0.0932  0.3284
 1082SOL    HW2 4688   0.552   1.922  11.880  1.4229  0.9374  1.3065
 1083SOL     OW 4689   3.566   0.710   8.697  0.0945 -0.5838 -0.4850
 1083SOL    HW1 4690   3.498   0.649   8.668  0.2162 -0.8776 -0.1593
 1083SOL    HW2 4691   3.519   0.778   8.744 -0.2274  0.4643 -2.2447
 1084SOL     OW 4692   2.083   1.245   8.734  0.5092 -0.0469  0.4572
 1084SOL    HW1 4693   2.019   1.233   8.665  0.6859  1.4915 -0.0104
 1084SOL    HW2 4694   2.032   1.245   8.815  0.4797 -3.7056  0.6005
 1085SOL     OW 4695   0.217   1.060  10.166  0.5404  0.4241 -0.5467
 1085SOL    HW1 4696   0.197   1.145  10.125 -1.5506 -0.1654 -0.8739
 1085SOL    HW2 4697   0.294   1.028  10.118 -0.6159  0.6799 -2.7277
 1086SOL     OW 4698   0.151   0.877  11.080  0.0810 -0.0266  0.0704
 1086SOL    HW1 4699   0.141   0.790  11.041 -1.3196  0.5328 -0.8806
 1086SOL    HW2 4700   0.142   0.938  11.007  0.4265  0.9555  0.8213
 1087SOL     OW 4701   7.710   0.809  10.291 -0.0165 -0.3293 -0.1347
 1087SOL    HW1 4702   7.780   0.873  10.303 -0.7813  1.1377 -2.6639
 1087SOL    HW2 4703   7.629   0.859  10.300 -0.7232 -1.5623  0.7017
 1088SOL     OW 4704   7.966   1.520  11.601  0.2957 -0.1660 -0.1879
 1088SOL    HW1 4705   8.002   1.608  11.602  2.4896 -0.9923  0.7562
 1088SOL    HW2 4706   7.892   1.523  11.661  0.0903  1.1027 -0.4790
 1089SOL     OW 4707   7.017   2.002   9.877  0.2789  0.4795  0.0481
 1089SOL    HW1 4708   6.933   2.027   9.916  0.8991  0.9103  1.1348
 1089SOL    HW2 4709   7.004   2.016   9.783 -0.8561  0.5623  0.1944
 1090SOL     OW 4710   1.034   1.409  11.612 -0.2694  0.2505  0.0267
 1090SOL    HW1 4711   1.056   1.474  11.679 -1.6660  0.4110  0.3712
 1090SOL    HW2 4712   0.978   1.346  11.657  2.8194 -2.5672  0.3128
 1091SOL     OW 4713   2.350   1.207  11.547  1.1585 -0.3772 -0.5438
 1091SOL    HW1 4714   2.282   1.267  11.577 -0.1182 -1.9086 -0.2570
 1091SOL    HW2 4715   2.424   1.224  11.605  0.0195 -0.6889  1.0428
 1092SOL     OW 4716   0.392   1.697  11.688 -0.0244 -0.2535  0.0950
 1092SOL    HW1 4717   0.452   1.751  11.637  0.5796 -1.4395 -0.4739
 1092SOL    HW2 4718   0.334   1.760  11.731  1.5848  0.9207  0.6268
 1093SOL     OW 4719   1.637   2.470  11.298 -0.7720 -0.5010 -0.0790
 1093SOL    HW1 4720   1.691   2.545  11.324  0.1545 -1.2176  0.1096
 1093SOL    HW2 4721   1.639   2.412  11.374 -0.8282 -1.0800 -0.5157
 1094SOL     OW 4722   7.622   3.107   9.743 -0.2746  0.3965 -0.2507
 1094SOL    HW1 4723   7.536   3.124   9.781 -0.4171 -0.8905  0.0363
 1094SOL    HW2 4724   7.640   3.184   9.689 -2.4849 -0.1697 -1.9385
 1095SOL     OW 4725   0.667   0.889   9.867 -0.1253 -0.5904  0.2256
 1095SOL    HW1 4726   0.702   0.804   9.841  0.8119  0.1306 -0.9992
 1095SOL    HW2 4727   0.672   0.889   9.963 -1.9147 -2.6099  0.3983
 1096SOL     OW 4728   1.253   1.808   9.549  0.0522  0.1267  0.0974
 1096SOL    HW1 4729   1.257   1.722   9.508 -1.5588  0.8195 -1.6924
 1096SOL    HW2 4730   1.200   1.795   9.628  0.7329 -0.7113  0.4236
 1097SOL     OW 4731   1.720   7.281  10.346  0.2259 -0.1781  0.1738
 1097SOL    HW1 4732   1.752   7.217  10.410  1.8860  0.5196  0.0809
 1097SOL    HW2 4733   1.637   7.312  10.383 -0.5867 -2.2697  0.2691
 1098SOL     OW 4734   3.084   0.570  10.808  0.1877 -0.3945 -0.3596
 1098SOL    HW1 4735   3.176   0.582  10.830  0.4758 -1.6573 -0.8297
 1098SOL    HW2 4736   3.072   0.620  10.727  0.4803 -0.3217 -0.3593
 1099SOL     OW 4737   0.312   7.666   9.688 -0.0052 -0.0068  0.0399
 1099SOL    HW1 4738   0.306   7.584   9.640  0.2945 -0.0734  0.1082
 1099SOL    HW2 4739   0.387   7.653   9.747  0.4804  0.5636 -0.4318
 1100SOL     OW 4740   0.547   1.206   9.802  0.0324  0.7652 -0.2481
 1100SOL    HW1 4741   0.473   1.259   9.834 -0.8107  0.0187 -0.9075
 1100SOL    HW2 4742   0.618   1.225   9.863 -0.6126  1.7334  0.2291
 1101SOL     OW 4743   0.649   2.001   9.303 -0.0809  0.1384  0.4853
 1101SOL    HW1 4744   0.597   2.025   9.226  1.0943  1.5491  0.0654
 1101SOL    HW2 4745   0.731   1.968   9.267  0.1685  0.0437  1.1285
 1102SOL     OW 4746   1.519   1.024   9.875 -0.2509 -0.4694  0.0055
 1102SOL    HW1 4747   1.496   1.045   9.784  0.4840  0.0550 -0.0710
 1102SOL    HW2 4748   1.497   0.932   9.885 -0.9096 -0.3782 -0.5200
 1103SOL     OW 4749   1.534   1.370   7.727  0.1996  0.1296 -0.1576
 1103SOL    HW1 4750   1.441   1.385   7.712  0.0133  1.3888  1.9105
 1103SOL    HW2 4751   1.577   1.407   7.649 -0.9287  1.3268 -0.2376
 1104SOL     OW 4752   7.167   2.267  11.196  0.4539 -0.6763 -0.0593
 1104SOL    HW1 4753   7.196   2.233  11.111  1.7350 -1.5039  0.6681
 1104SOL    HW2 4754   7.198   2.358  11.197  1.1507 -0.9057 -0.1728
 1105SOL     OW 4755   0.728   1.485  10.426 -0.0847 -0.0117  0.2499
 1105SOL    HW1 4756   0.716   1.551  10.493  0.7239 -0.2485  0.6456
 1105SOL    HW2 4757   0.706   1.529  10.344  0.1911  0.6682  0.5376
 1106SOL     OW 4758   2.085   2.567  11.113  0.0819  0.4785  0.5314
 1106SOL    HW1 4759   2.046   2.566  11.025  0.8239 -2.8307  0.1294
 1106SOL    HW2 4760   2.178   2.549  11.098 -0.1281 -2.4255  1.9967
 1107SOL     OW 4761   1.595   7.050  10.493 -0.1966 -0.5041 -0.0139
 1107SOL    HW1 4762   1.521   7.082  10.441  0.6053  0.2637 -0.7239
 1107SOL    HW2 4763   1.630   6.977  10.442 -0.7588 -1.2064  0.5787
 1108SOL     OW 4764   0.437   7.818  11.219  0.0083 -0.1220  0.0116
 1108SOL    HW1 4765   0.441   7.899  11.168 -1.2758 -1.0549 -1.6584
 1108SOL    HW2 4766   0.447   7.846  11.310 -2.9350  2.2634 -0.2418
 1109SOL     OW 4767   0.086   7.906  10.685 -0.3857 -0.0147 -0.2157
 1109SOL    HW1 4768   0.040   7.914  10.602 -1.4332  0.4669  0.3961
 1109SOL    HW2 4769   0.031   7.847  10.737  0.9147 -1.3704 -0.2936
 1110SOL     OW 4770   0.155   3.331  10.522  0.2224 -0.5389  0.0741
 1110SOL    HW1 4771   0.179   3.317  10.613  0.9227  0.2520  0.0268
 1110SOL    HW2 4772   0.238   3.327  10.474  0.0023  0.1003 -0.3822
 1111SOL     OW 4773   7.198   6.935  11.827  0.2381  0.3996  0.7613
 1111SOL    HW1 4774   7.244   6.904  11.905 -0.0146 -0.8158  0.4389
 1111SOL    HW2 4775   7.261   6.921  11.756  0.5512  1.7034  0.7502
 1112SOL     OW 4776   0.826   2.135   8.336 -0.5875  0.4744 -0.7764
 1112SOL    HW1 4777   0.852   2.195   8.265 -0.7056  1.2028 -0.2207
 1112SOL    HW2 4778   0.732   2.126   8.326 -0.4188 -0.6300 -1.6148
 1113SOL     OW 4779   3.074   1.628   9.025 -0.3055 -0.4729  0.2657
 1113SOL    HW1 4780   3.169   1.637   9.037 -0.3769 -1.1459  1.4722
 1113SOL    HW2 4781   3.063   1.538   8.993 -0.6410 -0.9414  1.6464
 1114SOL     OW 4782   2.816   7.183  11.511  0.2828 -0.8257 -0.2442
 1114SOL    HW1 4783   2.802   7.140  11.427  0.8666 -0.7251 -0.3950
 1114SOL    HW2 4784   2.868   7.261  11.490 -0.4925 -0.2003  0.0623
 1115SOL     OW 4785   1.012   0.804   9.827  0.0442 -0.1284  0.5284
 1115SOL    HW1 4786   0.923   0.772   9.812  0.5929 -0.7128 -1.8867
 1115SOL    HW2 4787   1.056   0.732   9.871 -0.5196 -0.0564  1.2189
 1116SOL     OW 4788   0.967   2.506   8.604  0.4779  0.0460  0.3224
 1116SOL    HW1 4789   1.013   2.505   8.688  1.1819  0.0610 -0.0502
 1116SOL    HW2 4790   0.992   2.424   8.562 -0.7533 -0.4717  0.5796
 1117SOL     OW 4791   1.373   7.232  10.735  0.1618  0.1760 -0.4866
 1117SOL    HW1 4792   1.330   7.182  10.666 -2.7153  1.9734 -0.1790
 1117SOL    HW2 4793   1.329   7.203  10.815  2.4246 -0.8005  0.5045
 1118SOL     OW 4794   0.954   2.003  10.341  0.2119 -0.6417  0.8208
 1118SOL    HW1 4795   1.023   1.983  10.404  0.7901 -0.0941  0.3744
 1118SOL    HW2 4796   1.001   2.029  10.261 -0.5055 -0.0465  0.5786
 1119SOL     OW 4797   1.761   1.893   9.920  0.2260  0.2347  0.5504
 1119SOL    HW1 4798   1.692   1.871   9.982  0.7664  0.2605  1.1724
 1119SOL    HW2 4799   1.810   1.811   9.908 -1.0541 -0.3112 -1.4002
 1120SOL     OW 4800   7.963   7.970  10.456 -0.1446  0.5813 -1.1508
 1120SOL    HW1 4801   7.974   7.885  10.414  0.8663  0.5975 -0.9436
 1120SOL    HW2 4802   7.892   8.012  10.407 -0.2271 -0.1221 -1.6525
 1121SOL     OW 4803   0.975   0.517  10.676  0.6893  0.4076 -0.6438
 1121SOL    HW1 4804   0.984   0.599  10.725  0.6285 -0.1030  0.2374
 1121SOL    HW2 4805   0.881   0.502  10.672  0.6243  0.9874 -1.8582
 1122SOL     OW 4806   0.761   0.844  11.050 -0.1384  0.1052 -0.1435
 1122SOL    HW1 4807   0.723   0.810  10.969  1.3265 -0.5120 -0.6166
 1122SOL    HW2 4808   0.686   0.861  11.106 -1.3697  2.3969 -2.2851
 1123SOL     OW 4809   2.782   2.646  11.422  0.0455 -0.3019  0.4637
 1123SOL    HW1 4810   2.710   2.697  11.458 -0.7176 -0.8084 -0.3027
 1123SOL    HW2 4811   2.809   2.588  11.493 -0.9707 -0.8038  0.4555
 1124SOL     OW 4812   0.874   1.266  10.642 -0.6207  0.8001  0.2653
 1124SOL    HW1 4813   0.922   1.348  10.630 -2.1646  1.4727 -1.6627
 1124SOL    HW2 4814   0.943   1.201  10.656  0.8943  1.7796 -2.0707
 1125SOL     OW 4815   2.538   1.184  11.744 -0.4880 -0.1095  0.4146
 1125SOL    HW1 4816   2.510   1.122  11.811  2.1119 -2.0453 -0.1534
 1125SOL    HW2 4817   2.593   1.247  11.790  0.4438 -0.8268  0.2997
 1126SOL     OW 4818   1.117   1.340  10.425 -0.1945 -0.0756 -0.1133
 1126SOL    HW1 4819   1.186   1.273  10.430  0.4854  0.5547 -0.7356
 1126SOL    HW2 4820   1.045   1.297  10.379  0.1722 -0.4317 -0.3667
 1127SOL     OW 4821   2.578   0.530  11.326  0.1267 -0.0917  0.3218
 1127SOL    HW1 4822   2.514   0.578  11.377  1.0262  2.8370 -1.0866
 1127SOL    HW2 4823   2.662   0.545  11.370  0.5649  0.5046 -0.6652
 1128SOL     OW 4824   0.245   2.068  11.044 -0.0028  0.4283 -0.0610
 1128SOL    HW1 4825   0.300   2.003  10.999 -1.4247 -0.5410 -0.4587
 1128SOL    HW2 4826   0.224   2.132  10.976 -0.9293 -0.2409 -0.4216
 1129SOL     OW 4827   0.021   2.985   9.247  0.8912  0.0288  0.4545
 1129SOL    HW1 4828  -0.000   2.892   9.255 -1.6245  0.5331  0.4681
 1129SOL    HW2 4829   0.037   3.013   9.337 -1.0419  0.1381  0.8000
 1130SOL     OW 4830   1.221   0.674  11.681 -0.1409  0.1945 -0.4588
 1130SOL    HW1 4831   1.272   0.745  11.642  0.3667 -0.5623 -1.2041
 1130SOL    HW2 4832   1.129   0.698  11.666  0.0400  0.1384 -1.7461
 1131SOL     OW 4833   2.984   2.185  10.845  0.0289 -0.1751 -0.0770
 1131SOL    HW1 4834   2.985   2.126  10.920  3.1443 -2.1284 -1.4412
 1131SOL    HW2 4835   3.064   2.237  10.854 -1.5349  2.4073 -0.0923
 1132SOL     OW 4836   7.651   0.056   8.616  0.2928  0.0774 -0.2680
 1132SOL    HW1 4837   7.613  -0.029   8.596 -0.2873 -0.0842  1.3406
 1132SOL    HW2 4838   7.667   0.053   8.711 -0.2822  1.9641 -0.0731
 1133SOL     OW 4839   0.651   0.668  11.841  0.2323  0.1969  0.6857
 1133SOL    HW1 4840   0.719   0.722  11.881  0.6186 -0.3012  0.7120
 1133SOL    HW2 4841   0.666   0.580  11.876  1.5563 -0.6150 -1.6543
 1134SOL     OW 4842   2.513   0.077  11.998 -0.5745  0.2359  0.0288
 1134SOL    HW1 4843   2.499   0.171  11.999 -0.8610  0.1934  0.7495
 1134SOL    HW2 4844   2.425   0.040  12.010 -0.1201 -0.0622  3.3116
 1135SOL     OW 4845   7.238   2.178  10.112 -0.0869 -0.6192 -0.4237
 1135SOL    HW1 4846   7.170   2.132  10.161  0.4008 -0.1807  0.7165
 1135SOL    HW2 4847   7.305   2.197  10.178 -0.4043  1.9685 -0.7453
 1136SOL     OW 4848   0.224   1.601  11.021  0.2728  0.1489 -0.8298
 1136SOL    HW1 4849   0.294   1.536  11.022 -0.3859 -0.5798  0.1426
 1136SOL    HW2 4850   0.153   1.561  11.071  0.0393  1.8375  0.2859
 1137SOL     OW 4851   0.909   1.037   8.680 -0.6529  0.3775 -0.0031
 1137SOL    HW1 4852   0.860   1.090   8.617 -0.4907 -1.0365 -1.3863
 1137SOL    HW2 4853   1.000   1.064   8.669 -0.5607 -0.2013 -0.7606
 1138SOL     OW 4854   7.874   1.253   7.721 -0.0588  0.2483 -0.1570
 1138SOL    HW1 4855   7.807   1.202   7.765  0.6169 -0.7431 -0.2511
 1138SOL    HW2 4856   7.847   1.344   7.734  0.4616  0.0661  2.8969
 1139SOL     OW 4857   0.682   7.976   8.110 -0.7034  0.3036 -0.2254
 1139SOL    HW1 4858   0.633   7.898   8.085 -1.3493  0.4949  0.4017
 1139SOL    HW2 4859   0.720   8.008   8.028 -1.0261 -0.2629 -0.6002
 1140SOL     OW 4860   0.823   1.434   9.488 -0.0532  0.3591  0.1564
 1140SOL    HW1 4861   0.740   1.423   9.536  0.2375  1.3875  0.9079
 1140SOL    HW2 4862   0.846   1.526   9.499  0.0439  0.6392 -1.9651
 1141SOL     OW 4863   1.534   2.873   9.219  0.6734 -0.3445  0.4003
 1141SOL    HW1 4864   1.616   2.917   9.195  0.5462 -0.5404 -0.4372
 1141SOL    HW2 4865   1.469   2.910   9.160  0.0349  0.1854  1.4081
 1142SOL     OW 4866   0.504   7.907  10.283  0.2670 -0.4942  0.5405
 1142SOL    HW1 4867   0.560   7.846  10.237  0.1853 -0.6638  0.6655
 1142SOL    HW2 4868   0.433   7.926  10.222  0.9365  0.4348  0.0204
 1143SOL     OW 4869   1.707   0.539  11.538 -0.1065 -0.4565  0.7268
 1143SOL    HW1 4870   1.627   0.537  11.590  0.2298  0.5373  1.3197
 1143SOL    HW2 4871   1.678   0.525  11.448 -1.1052  0.9828  0.7882
 1144SOL     OW 4872   7.853   1.120  11.055  0.2795 -0.5479 -0.3236
 1144SOL    HW1 4873   7.937   1.106  11.010  1.0335  0.4801  0.7052
 1144SOL    HW2 4874   7.836   1.213  11.044 -1.5618 -1.0072 -1.8676
 1145SOL     OW 4875   7.743   7.646  11.932 -0.2625  0.5111 -0.1699
 1145SOL    HW1 4876   7.827   7.669  11.971 -1.0047  0.0560  1.8133
 1145SOL    HW2 4877   7.702   7.730  11.912 -0.1115  0.7745  0.6132
 1146SOL     OW 4878   1.437   2.232   9.106 -0.1655  0.5229  0.6529
 1146SOL    HW1 4879   1.364   2.249   9.166 -0.5232  0.8907  0.1176
 1146SOL    HW2 4880   1.446   2.136   9.107 -0.0007  0.5439  1.4896
 1147SOL     OW 4881   0.733   7.348  10.729  0.1443 -0.1501 -0.7197
 1147SOL    HW1 4882   0.782   7.424  10.696 -0.8942  0.9418  0.1551
 1147SOL    HW2 4883   0.766   7.335  10.818 -0.3090 -0.1476 -0.5483
 1148SOL     OW 4884   1.052   2.362  11.061 -0.2758 -0.3903  0.0585
 1148SOL    HW1 4885   1.141   2.388  11.040 -0.3136 -0.0868  0.2635
 1148SOL    HW2 4886   1.029   2.296  10.995 -0.0716 -0.1206 -0.2808
 1149SOL     OW 4887   1.318   7.442  10.059  0.0666  0.1963 -0.4807
 1149SOL    HW1 4888   1.342   7.510   9.997  1.1864  1.0677  0.8675
 1149SOL    HW2 4889   1.304   7.488  10.142 -2.1965 -0.8224 -0.2046
 1150SOL     OW 4890   7.064   7.327  11.466 -0.2973 -0.4699  0.2097
 1150SOL    HW1 4891   7.043   7.265  11.397 -0.0892  0.3353 -0.5903
 1150SOL    HW2 4892   7.100   7.403  11.421 -0.7106  0.3160  1.1540
 1151SOL     OW 4893   0.591   0.491  10.893 -0.0666 -0.1012 -0.1996
 1151SOL    HW1 4894   0.586   0.427  10.964 -0.7476 -1.2804 -1.2762
 1151SOL    HW2 4895   0.518   0.550  10.909 -0.7685 -0.8982 -0.4087
 1152SOL     OW 4896   6.971   0.610   8.501  0.3942 -0.0193  0.0097
 1152SOL    HW1 4897   7.021   0.571   8.430  1.0323  0.4585  0.1848
 1152SOL    HW2 4898   6.892   0.645   8.460  1.5111  1.7310 -0.7783
 1153SOL     OW 4899   0.354   1.409  10.262 -0.0569  0.1217 -0.2492
 1153SOL    HW1 4900   0.278   1.408  10.204  1.3034 -1.7501 -2.1473
 1153SOL    HW2 4901   0.320   1.376  10.346 -1.9702  2.4686  0.0198
 1154SOL     OW 4902   0.970   7.650   9.882 -0.3831  0.1840  0.1268
 1154SOL    HW1 4903   0.913   7.696   9.821 -1.7549 -0.0113  1.2043
 1154SOL    HW2 4904   0.996   7.717   9.946 -1.6174 -0.2991  1.1611
 1155SOL     OW 4905   1.784   2.863   9.425  0.0458 -0.3290  0.5743
 1155SOL    HW1 4906   1.792   2.802   9.499 -0.3215 -0.2895  0.6455
 1155SOL    HW2 4907   1.760   2.946   9.464  2.4317  0.3866  0.6916
 1156SOL     OW 4908   1.111   1.332   9.387 -0.4315 -0.5778 -0.1847
 1156SOL    HW1 4909   1.136   1.335   9.295 -1.0095 -1.2595 -0.3749
 1156SOL    HW2 4910   1.015   1.334   9.386 -0.4422 -0.6169  0.3981
 1157SOL     OW 4911   2.072   2.245   8.724  1.1116  0.2692 -0.4138
 1157SOL    HW1 4912   2.160   2.250   8.686  1.0045  0.0564 -0.6894
 1157SOL    HW2 4913   2.045   2.155   8.710  0.5232  0.5398 -1.0560
 1158SOL     OW 4914   1.184   0.880   9.257  0.3214 -0.0000  0.3577
 1158SOL    HW1 4915   1.269   0.924   9.265  0.5595 -0.3058 -0.3839
 1158SOL    HW2 4916   1.120   0.950   9.256  0.3737  0.1920  2.8557
 1159SOL     OW 4917   2.471   0.481  11.656 -0.0153 -0.0111  0.5676
 1159SOL    HW1 4918   2.471   0.563  11.607  0.0196 -0.5389 -0.3453
 1159SOL    HW2 4919   2.387   0.479  11.701 -1.4251 -0.8664 -1.8757
 1160SOL     OW 4920   1.769   0.436  10.212  0.9768  0.2709 -0.4183
 1160SOL    HW1 4921   1.727   0.520  10.195  0.6488  0.0700 -0.6187
 1160SOL    HW2 4922   1.734   0.378  10.144  1.9324  0.2192 -0.8732
 1161SOL     OW 4923   2.274   7.304  10.241  0.2518 -0.1260  0.3339
 1161SOL    HW1 4924   2.330   7.253  10.182  0.2601 -0.1781  0.3864
 1161SOL    HW2 4925   2.304   7.281  10.329  0.6861  0.4728  0.3437
 1162SOL     OW 4926   1.700   1.782  10.714  0.3648  0.2510 -0.0555
 1162SOL    HW1 4927   1.669   1.701  10.754  0.4986 -0.1709 -0.7859
 1162SOL    HW2 4928   1.653   1.851  10.760 -0.9413 -0.3198 -0.4966
 1163SOL     OW 4929   1.328   0.264  11.946 -0.1129 -0.0519 -0.0398
 1163SOL    HW1 4930   1.354   0.354  11.926  2.0876 -0.1921  1.7885
 1163SOL    HW2 4931   1.325   0.261  12.041  0.3341 -2.0256 -0.0601
 1164SOL     OW 4932   3.402   0.487  10.291  0.6485  0.1257 -0.1681
 1164SOL    HW1 4933   3.494   0.506  10.313  0.0307  0.2139  2.6662
 1164SOL    HW2 4934   3.358   0.571  10.301  0.0401 -0.1774 -0.3025
 1165SOL     OW 4935   1.243   0.860  10.031  0.4218  0.2233  0.4252
 1165SOL    HW1 4936   1.186   0.784  10.049 -0.6242  0.9288  0.1806
 1165SOL    HW2 4937   1.285   0.839   9.947  2.4083 -1.3723  1.7288
 1166SOL     OW 4938   1.097   0.966  10.559 -0.0397 -0.5099  0.0401
 1166SOL    HW1 4939   1.117   0.877  10.588  1.7412 -0.1480 -0.0017
 1166SOL    HW2 4940   1.099   1.018  10.639  0.0363 -0.3159 -0.0883
 1167SOL     OW 4941   0.740   1.113   8.449 -0.4986  0.0387  0.0956
 1167SOL    HW1 4942   0.772   1.182   8.390 -2.6909 -0.0663 -1.3522
 1167SOL    HW2 4943   0.686   1.159   8.513 -1.1170 -0.2072 -0.2406
 1168SOL     OW 4944   7.987   2.266   7.931 -0.7266  0.0924 -0.5266
 1168SOL    HW1 4945   7.937   2.244   7.853  1.1032  1.2121 -2.1034
 1168SOL    HW2 4946   8.038   2.187   7.949 -0.3502  0.1909 -1.1357
 1169SOL     OW 4947   1.466   1.678   9.940 -0.3963  0.1636 -0.1503
 1169SOL    HW1 4948   1.392   1.639   9.894 -0.0214 -0.6899 -0.0565
 1169SOL    HW2 4949   1.537   1.677   9.876  0.3562 -1.7795  0.6444
 1170SOL     OW 4950   2.968   2.822  11.266  0.2604  0.2180 -0.3708
 1170SOL    HW1 4951   2.908   2.756  11.301 -1.0978  1.9704  0.7213
 1170SOL    HW2 4952   3.026   2.843  11.339  0.1196  0.8743 -0.4476
 1171SOL     OW 4953   1.851   0.646  10.669  0.1877 -0.2461 -0.0855
 1171SOL    HW1 4954   1.842   0.571  10.727  0.2088 -1.0945 -1.1327
 1171SOL    HW2 4955   1.785   0.631  10.601 -0.7705  1.4244  0.4502
 1172SOL     OW 4956   2.377   2.550  11.151  0.3736 -0.1478 -0.2607
 1172SOL    HW1 4957   2.371   2.507  11.237  1.5831  0.1439 -0.0098
 1172SOL    HW2 4958   2.446   2.503  11.106  0.2616  0.1932 -0.7904
 1173SOL     OW 4959   2.036   2.437  10.572  0.0444 -0.0708 -0.0055
 1173SOL    HW1 4960   2.072   2.372  10.633  0.7261  0.2048 -0.1039
 1173SOL    HW2 4961   1.974   2.387  10.519  0.4507 -0.6221  0.0178
 1174SOL     OW 4962   0.212   0.055  11.282 -0.4604 -0.1913  0.5898
 1174SOL    HW1 4963   0.274   0.023  11.218 -1.3128 -0.1373 -0.2880
 1174SOL    HW2 4964   0.177   0.136  11.244 -2.0571 -0.9273  0.4041
 1175SOL     OW 4965   7.697   0.909  11.057  0.1546  0.4009 -0.3671
 1175SOL    HW1 4966   7.606   0.939  11.053  0.1428  0.4599  0.2407
 1175SOL    HW2 4967   7.749   0.988  11.041  0.1288  0.8188  1.4505
 1176SOL     OW 4968   7.630   0.922   8.096 -0.1748  0.0042 -0.0297
 1176SOL    HW1 4969   7.566   0.876   8.152 -0.4226  0.5188  0.1157
 1176SOL    HW2 4970   7.715   0.891   8.127 -0.2971  0.5346  0.8654
 1177SOL     OW 4971   2.747   0.785  11.138  0.2719  0.2191  0.4204
 1177SOL    HW1 4972   2.816   0.793  11.073 -0.0591 -1.1302 -0.1318
 1177SOL    HW2 4973   2.788   0.811  11.221  0.8311  1.4746 -0.2205
 1178SOL     OW 4974   0.740   7.738  11.166 -0.7050  0.2243  0.3182
 1178SOL    HW1 4975   0.724   7.656  11.120  0.5957  0.3083 -0.3407
 1178SOL    HW2 4976   0.656   7.761  11.205 -0.9666 -1.6884  0.9629
 1179SOL     OW 4977   0.439   1.881  10.975 -0.1516 -0.0101 -0.0193
 1179SOL    HW1 4978   0.430   1.896  10.881 -1.5594  1.3466  0.2875
 1179SOL    HW2 4979   0.495   1.803  10.982  1.1855  0.7005 -1.9330
 1180SOL     OW 4980   0.816   1.889   8.566  0.5750 -0.5751 -0.2730
 1180SOL    HW1 4981   0.868   1.858   8.492  1.2175 -1.3419  0.4762
 1180SOL    HW2 4982   0.810   1.813   8.625 -1.4939 -0.5682 -0.3720
 1181SOL     OW 4983   3.725   0.475  10.026  0.5414 -0.2421  0.2008
 1181SOL    HW1 4984   3.648   0.503   9.977  1.2133 -0.9268 -1.2890
 1181SOL    HW2 4985   3.796   0.530   9.994  0.6869  0.4311  1.6164
 1182SOL     OW 4986   0.304   1.012   9.063  0.3910 -0.3916  0.1620
 1182SOL    HW1 4987   0.394   1.007   9.029 -0.4564  0.7261 -2.5139
 1182SOL    HW2 4988   0.298   1.099   9.101  0.3988 -0.4334  0.2598
 1183SOL     OW 4989   0.753   1.825  10.332 -0.0104 -0.0024 -0.1805
 1183SOL    HW1 4990   0.825   1.887  10.327 -0.0715 -0.0117 -1.3068
 1183SOL    HW2 4991   0.722   1.816  10.242  0.2105 -1.9096 -0.1166
 1184SOL     OW 4992   0.718   0.982  10.677  0.3032 -0.4804  0.4631
 1184SOL    HW1 4993   0.803   0.959  10.715  0.9933 -1.4267 -1.5292
 1184SOL    HW2 4994   0.739   1.018  10.591 -1.2597  0.5223  0.4550
 1185SOL     OW 4995   0.920   1.128   0.065  0.0648  0.2856 -0.2062
 1185SOL    HW1 4996   0.924   1.198   0.000  0.2691  0.0472 -0.4540
 1185SOL    HW2 4997   0.989   1.067   0.039  0.8852  0.7209  0.8603
 1186SOL     OW 4998   1.535   7.446  12.016 -0.0499  0.4867  0.2553
 1186SOL    HW1 4999   1.511   7.376  11.955 -0.3633  1.3060 -0.5733
 1186SOL    HW2 5000   1.630   7.444  12.019 -0.0803 -0.7095  1.1191
 1187SOL     OW 5001   2.657   0.051  12.220 -0.1768 -0.3049 -0.3165
 1187SOL    HW1 5002   2.605   0.036  12.140 -0.0298 -0.5977 -0.3567
 1187SOL    HW2 5003   2.631  -0.020  12.279 -1.5990  0.8942  0.5725
 1188SOL     OW 5004   1.999   2.193  11.741 -0.4830 -0.3056 -0.2872
 1188SOL    HW1 5005   2.079   2.197  11.794 -1.5717 -1.4765  1.5745
 1188SOL    HW2 5006   2.029   2.203  11.651  1.7447 -0.6040  0.3586
 1189SOL     OW 5007   1.325   0.487  12.153  0.6601  0.4610 -0.1289
 1189SOL    HW1 5008   1.310   0.564  12.208  0.2342  1.3011 -1.4049
 1189SOL    HW2 5009   1.260   0.423  12.184  0.4051  0.9352  0.3296
 1190SOL     OW 5010   2.598   0.314   9.759 -0.2997 -0.2765  0.4509
 1190SOL    HW1 5011   2.627   0.232   9.719 -1.4912 -1.2646  1.5221
 1190SOL    HW2 5012   2.610   0.380   9.691  2.4411 -0.9710  0.1612
 1191SOL     OW 5013   2.092   1.841  10.637  0.0675  0.4909  0.3756
 1191SOL    HW1 5014   2.102   1.874  10.727  1.4326 -0.1288  0.4811
 1191SOL    HW2 5015   2.113   1.748  10.643  0.3743  0.4819 -0.6217
 1192SOL     OW 5016   0.332   0.271  10.852  0.0142 -0.0762  0.3043
 1192SOL    HW1 5017   0.386   0.223  10.916  0.3896 -1.0354 -0.7058
 1192SOL    HW2 5018   0.246   0.230  10.857 -0.1040  0.1942  0.5494
 1193SOL     OW 5019   6.809   2.518  10.632 -0.3248 -0.0033 -0.5537
 1193SOL    HW1 5020   6.853   2.436  10.609  1.6008  0.7637  0.2045
 1193SOL    HW2 5021   6.791   2.560  10.548  0.8117 -0.1573 -0.8953
 1194SOL     OW 5022   0.663   1.164  11.000 -0.0575  0.1838 -0.4127
 1194SOL    HW1 5023   0.620   1.083  11.026  0.4727  0.1546  0.4310
 1194SOL    HW2 5024   0.687   1.206  11.083 -0.7003  1.4070 -0.8233
 1195SOL     OW 5025   1.604   0.568  11.905  0.1244  0.2330  0.5622
 1195SOL    HW1 5026   1.645   0.482  11.909 -1.0830 -0.3553  0.7627
 1195SOL    HW2 5027   1.552   0.566  11.824 -0.1389  0.6639  0.7182
 1196SOL     OW 5028   1.314   1.608  10.666  0.1559  0.5555  0.0657
 1196SOL    HW1 5029   1.232   1.588  10.621 -0.4501 -0.7286  1.6200
 1196SOL    HW2 5030   1.375   1.631  10.597 -1.3746  1.0599 -1.1795
 1197SOL     OW 5031   6.649   7.738   9.344 -0.0399  0.7102  0.5749
 1197SOL    HW1 5032   6.623   7.723   9.435  0.5558 -0.1916  0.6062
 1197SOL    HW2 5033   6.567   7.732   9.295 -0.3333  0.9780  1.0181
 1198SOL     OW 5034   2.039   0.050  10.525 -0.0364  0.1807  0.1524
 1198SOL    HW1 5035   2.078   0.011  10.446  0.4204 -1.0624  0.9648
 1198SOL    HW2 5036   2.062   0.143  10.519  0.6837 -0.0327 -0.7730
 1199SOL     OW 5037   2.653   7.655  10.951  0.4250  0.0879  0.2208
 1199SOL    HW1 5038   2.625   7.668  10.861  0.0060  2.6032  0.6357
 1199SOL    HW2 5039   2.748   7.641  10.946  0.2698 -0.6977 -0.6485
 1200SOL     OW 5040   0.273   2.085  10.084  0.0370 -0.0431  0.3532
 1200SOL    HW1 5041   0.192   2.081  10.135 -0.7580  0.0701 -0.8703
 1200SOL    HW2 5042   0.290   1.995  10.058  0.2375 -0.0455  0.4817
 1201SOL     OW 5043   1.836   0.230  11.126 -0.2657 -0.1030  0.4345
 1201SOL    HW1 5044   1.898   0.250  11.056 -1.1749  2.0192  0.1596
 1201SOL    HW2 5045   1.891   0.205  11.200  0.8871  0.9160 -0.0402
 1202SOL     OW 5046   6.823   1.767  12.313  0.4056 -0.0871  0.2134
 1202SOL    HW1 5047   6.803   1.829  12.243 -0.6428 -1.8489 -1.1367
 1202SOL    HW2 5048   6.891   1.711  12.277 -0.2199 -1.0773  0.5301
 1203SOL     OW 5049   4.087   7.602   8.925  0.0668  0.2456  0.1070
 1203SOL    HW1 5050   4.126   7.554   8.852 -1.3697 -0.7466 -0.0414
 1203SOL    HW2 5051   4.051   7.534   8.982 -1.3634  1.1064  0.2777
 1204SOL     OW 5052   0.115   1.708   7.256  0.0214 -0.4277 -0.1296
 1204SOL    HW1 5053   0.032   1.660   7.257 -0.8727  1.0682  0.7440
 1204SOL    HW2 5054   0.102   1.777   7.191  0.5004 -0.0390  0.1861
 1205SOL     OW 5055   0.298   7.988   9.672  0.6762  0.3228  0.1055
 1205SOL    HW1 5056   0.393   7.991   9.673  0.7763 -1.6323  1.2720
 1205SOL    HW2 5057   0.276   7.898   9.651 -0.8508  0.2299  1.7605
 1206SOL     OW 5058   0.507   0.900  10.835 -0.0820 -0.4745 -0.1974
 1206SOL    HW1 5059   0.464   0.959  10.898  0.9090 -1.5325  1.5673
 1206SOL    HW2 5060   0.563   0.958  10.783 -1.0490  0.4601 -0.2191
 1207SOL     OW 5061   1.777   7.273  11.249  0.2761  0.0404  0.0687
 1207SOL    HW1 5062   1.793   7.195  11.195 -1.6532  1.2694 -2.5383
 1207SOL    HW2 5063   1.861   7.318  11.252  1.1725 -1.5825  0.7636
 1208SOL     OW 5064   0.721   1.034  12.134  0.2390 -0.1621 -0.1666
 1208SOL    HW1 5065   0.628   1.049  12.115 -0.2181 -2.8106 -0.4086
 1208SOL    HW2 5066   0.747   1.109  12.187 -1.9587  0.7788 -0.3065
 1209SOL     OW 5067   6.991   1.284  10.691  0.3955  0.1944  0.5394
 1209SOL    HW1 5068   7.009   1.236  10.610  0.1038  1.7413 -0.5006
 1209SOL    HW2 5069   7.058   1.353  10.693  0.5003  0.0826  1.7155
 1210SOL     OW 5070   0.274   0.509   9.379  0.1495 -0.1231  0.5846
 1210SOL    HW1 5071   0.357   0.466   9.359  0.1298  0.0415  0.1368
 1210SOL    HW2 5072   0.251   0.478   9.467 -0.1534 -1.4927  0.0459
 1211SOL     OW 5073   1.268   1.534   9.484 -0.0917 -0.3265 -0.7944
 1211SOL    HW1 5074   1.276   1.518   9.578  0.4118  0.1620 -0.7454
 1211SOL    HW2 5075   1.215   1.461   9.451  0.5274 -1.0159 -0.2892
 1212SOL     OW 5076   7.123   1.289  11.428  0.1224  0.1158  0.0231
 1212SOL    HW1 5077   7.134   1.266  11.335 -0.4388 -0.9036  0.1931
 1212SOL    HW2 5078   7.031   1.268  11.447  0.3089  0.0542  0.8769
 1213SOL     OW 5079   0.570   0.851  11.253 -0.4507  0.1584  0.1151
 1213SOL    HW1 5080   0.613   0.875  11.335  0.7074 -0.0162 -0.4182
 1213SOL    HW2 5081   0.508   0.782  11.277 -0.0156  0.0077  0.8212
 1214SOL     OW 5082   0.787   1.070   0.635 -0.5034 -0.0318 -0.4425
 1214SOL    HW1 5083   0.697   1.062   0.667 -1.0594  1.9328 -1.3713
 1214SOL    HW2 5084   0.823   0.982   0.643 -2.2984 -0.7264  0.5485
 1215SOL     OW 5085   2.904   0.200  11.113 -0.0027 -0.0990  0.4198
 1215SOL    HW1 5086   2.990   0.233  11.087 -0.0452  0.0055  0.4103
 1215SOL    HW2 5087   2.858   0.277  11.146  0.3803 -0.4115  1.7111
 1216SOL     OW 5088   6.322   6.235   7.615  0.1895  0.2180  0.1004
 1216SOL    HW1 5089   6.326   6.220   7.521  1.1678  1.5185 -0.0939
 1216SOL    HW2 5090   6.410   6.265   7.638  0.3133 -1.2087  1.6538
 1217SOL     OW 5091   1.776   0.463   8.665 -0.2480  0.7550 -0.3097
 1217SOL    HW1 5092   1.792   0.557   8.671  2.6058  0.3482 -0.0584
 1217SOL    HW2 5093   1.759   0.436   8.755 -0.4473  0.9474 -0.2889
 1218SOL     OW 5094   7.753   2.083  11.354  0.2664 -0.1054  0.1818
 1218SOL    HW1 5095   7.781   2.173  11.369  1.0545 -0.7073  2.9042
 1218SOL    HW2 5096   7.675   2.072  11.408  1.1772 -1.4768  1.3080
 1219SOL     OW 5097   1.001   7.825  11.231 -0.0736 -0.3045  0.3798
 1219SOL    HW1 5098   1.068   7.762  11.207 -0.2179 -0.3247  0.0153
 1219SOL    HW2 5099   0.919   7.785  11.201 -0.2041 -0.1119  0.4804
 1220SOL     OW 5100   1.526   5.020  10.928  0.1097  0.3858 -0.5058
 1220SOL    HW1 5101   1.501   4.928  10.930  2.1197 -0.2066 -1.0145
 1220SOL    HW2 5102   1.609   5.022  10.882  0.8969  2.2651  0.8500
 1221SOL     OW 5103   2.363   1.771  10.480 -0.1498 -0.1454  0.3134
 1221SOL    HW1 5104   2.387   1.678  10.483 -1.6197 -0.5265  0.9332
 1221SOL    HW2 5105   2.353   1.796  10.572  1.0841  0.8786  0.1916
 1222SOL     OW 5106   1.172   7.886   9.741 -0.5324 -0.5016  0.1129
 1222SOL    HW1 5107   1.097   7.938   9.714 -1.0647 -0.4980  1.5244
 1222SOL    HW2 5108   1.245   7.948   9.742  0.0036 -0.8854 -3.1187
 1223SOL     OW 5109   1.657   1.980   8.942 -0.1897 -0.2924  0.1540
 1223SOL    HW1 5110   1.732   2.039   8.940 -0.9897  0.9033  2.2812
 1223SOL    HW2 5111   1.621   1.989   9.030 -2.9714 -0.6231 -0.8245
 1224SOL     OW 5112   1.311   2.462   9.848 -0.5758  0.0226 -0.1041
 1224SOL    HW1 5113   1.394   2.419   9.831  0.7601  2.0128  0.9070
 1224SOL    HW2 5114   1.307   2.534   9.785 -1.6669 -0.1805 -0.2959
 1225SOL     OW 5115   0.859   1.007  10.445  0.1016 -0.1162  0.2987
 1225SOL    HW1 5116   0.846   0.940  10.379 -3.7439 -0.6055  1.2835
 1225SOL    HW2 5117   0.950   0.997  10.473  0.9163 -1.9557 -2.5888
 1226SOL     OW 5118   0.878   1.697   9.588 -0.5041  0.2599 -0.1486
 1226SOL    HW1 5119   0.964   1.699   9.632 -0.6127 -1.5454  0.1970
 1226SOL    HW2 5120   0.815   1.705   9.659 -0.6500  0.6863 -0.3211
 1227SOL     OW 5121   2.058   7.545   8.565 -0.1742  0.1515 -0.0199
 1227SOL    HW1 5122   1.983   7.577   8.515  0.1675  0.3651 -0.4024
 1227SOL    HW2 5123   2.123   7.615   8.559 -0.4920  0.6277  1.5841
 1228SOL     OW 5124   1.107   2.823  10.420 -0.2381  0.3156  0.2999
 1228SOL    HW1 5125   1.029   2.808  10.474 -0.6806  0.2009 -0.3627
 1228SOL    HW2 5126   1.175   2.769  10.460 -0.9394 -0.8922 -0.1083
 1229SOL     OW 5127   0.922   1.254  10.243  0.4306  0.4659 -0.2939
 1229SOL    HW1 5128   0.944   1.332  10.192  1.7630  1.2530  1.3547
 1229SOL    HW2 5129   0.964   1.182  10.197  1.0829  1.0610 -0.6541
 1230SOL     OW 5130   0.819   0.638   9.379 -0.7959 -0.1726 -0.1819
 1230SOL    HW1 5131   0.775   0.630   9.295 -3.5298 -1.7838  1.2819
 1230SOL    HW2 5132   0.835   0.732   9.389 -2.3788  0.2806 -1.5539
 1231SOL     OW 5133   1.732   1.088  10.167 -0.0273 -0.1471  0.3125
 1231SOL    HW1 5134   1.757   1.122  10.253 -1.3455 -0.2197  0.7358
 1231SOL    HW2 5135   1.645   1.122  10.152  0.1077 -0.3081 -0.9202
 1232SOL     OW 5136   1.234   2.724   9.069  0.2000 -0.1692  0.1893
 1232SOL    HW1 5137   1.208   2.649   9.015  0.4265  0.2739 -0.5417
 1232SOL    HW2 5138   1.309   2.761   9.024 -0.9309  1.5169 -0.3977
 1233SOL     OW 5139   2.360   2.016   9.516 -0.1966 -0.1059 -0.0414
 1233SOL    HW1 5140   2.387   2.013   9.607 -0.4533 -0.5841  0.0232
 1233SOL    HW2 5141   2.287   1.954   9.510  1.9812 -2.7391 -1.2876
 1234SOL     OW 5142   0.697   1.532  10.148  0.1007  0.3635 -0.5111
 1234SOL    HW1 5143   0.790   1.533  10.129  0.9942 -1.2644  2.9841
 1234SOL    HW2 5144   0.674   1.439  10.153 -1.1031  0.6995  1.0339
 1235SOL     OW 5145   0.972   1.426   9.802  0.7141  0.0263  0.6280
 1235SOL    HW1 5146   0.939   1.479   9.729  1.3219 -0.5308 -0.0638
 1235SOL    HW2 5147   1.068   1.435   9.797  0.7561  0.2347  1.5556
 1236SOL     OW 5148   1.127   1.117  10.801 -0.8962  0.3523  0.0126
 1236SOL    HW1 5149   1.051   1.096  10.856  0.8026 -3.0398  1.3638
 1236SOL    HW2 5150   1.203   1.092  10.854  1.1100  1.7451 -2.0084
 1237SOL     OW 5151   2.808   1.554  11.228  0.5945  0.3571 -0.2682
 1237SOL    HW1 5152   2.774   1.486  11.286  1.0835  0.3661  0.0328
 1237SOL    HW2 5153   2.825   1.509  11.145 -0.0312  0.3286 -0.3874
 1238SOL     OW 5154   0.192   0.123   8.176 -0.2628 -0.0487  0.2539
 1238SOL    HW1 5155   0.179   0.028   8.165  0.2713  0.1367 -3.4323
 1238SOL    HW2 5156   0.287   0.134   8.177 -0.2427  0.5296 -2.0431
 1239SOL     OW 5157   0.142   1.795  10.832  0.8507 -0.1905  0.0602
 1239SOL    HW1 5158   0.158   1.742  10.910 -1.1247 -1.5702 -0.3809
 1239SOL    HW2 5159   0.192   1.752  10.763  0.6153 -0.4783  0.0652
 1240SOL     OW 5160   1.098   1.783  11.697 -0.2089 -0.7960  0.3539
 1240SOL    HW1 5161   1.008   1.789  11.667 -0.4918 -1.2506  1.0816
 1240SOL    HW2 5162   1.095   1.719  11.769  0.4600  0.1707  1.2666
 1241SOL     OW 5163   0.359   0.719   0.249  0.2031  0.8480 -0.3638
 1241SOL    HW1 5164   0.301   0.645   0.232  0.8820  0.2604 -0.1811
 1241SOL    HW2 5165   0.304   0.797   0.236 -0.6061  0.3069 -0.2108
 1242SOL     OW 5166   1.927   2.768   9.947 -0.0981  0.0295 -0.3829
 1242SOL    HW1 5167   1.906   2.860   9.958 -0.2940  0.0231 -0.7039
 1242SOL    HW2 5168   1.977   2.745  10.026  1.0185  0.7146 -0.8658
 1243SOL     OW 5169   0.950   6.896  11.939 -0.1695 -0.6724 -0.8635
 1243SOL    HW1 5170   0.956   6.984  11.903  0.2776  0.1894  1.2189
 1243SOL    HW2 5171   0.863   6.865  11.912 -2.2292  2.1075  1.9590
 1244SOL     OW 5172   3.094   6.935  11.299  0.3522 -0.3929  0.0891
 1244SOL    HW1 5173   3.086   6.999  11.370  0.4781 -0.5616  0.2566
 1244SOL    HW2 5174   3.088   6.851  11.343  2.1085 -0.5328  0.1143
 1245SOL     OW 5175   7.308   1.115   7.752 -0.1207  0.3096  0.3656
 1245SOL    HW1 5176   7.313   1.130   7.658  1.4959 -0.0679  0.3601
 1245SOL    HW2 5177   7.224   1.070   7.766 -0.4118  0.4579 -0.8707
 1246SOL     OW 5178   7.039   0.412  11.535  0.2817 -0.3595 -0.2558
 1246SOL    HW1 5179   6.989   0.473  11.589  1.9149  1.8197 -1.0563
 1246SOL    HW2 5180   7.020   0.325  11.572 -2.4494  0.5437  0.6854
 1247SOL     OW 5181   0.294   0.212  10.342  0.1145 -0.2318  0.0611
 1247SOL    HW1 5182   0.352   0.168  10.405  2.1068  2.0808  0.0038
 1247SOL    HW2 5183   0.226   0.252  10.396  0.3940 -0.3400  0.5006
 1248SOL     OW 5184   6.863   7.960   9.416 -0.5132  0.6149 -0.4207
 1248SOL    HW1 5185   6.831   7.977   9.505 -0.6744 -0.2293 -0.3146
 1248SOL    HW2 5186   6.789   7.918   9.372  0.4843 -1.5511 -0.1200
 1249SOL     OW 5187   2.561   0.731   9.845  0.6294 -0.8652  0.1952
 1249SOL    HW1 5188   2.512   0.688   9.775 -0.4994  2.2968 -1.1315
 1249SOL    HW2 5189   2.636   0.771   9.802 -0.0268  1.0567  0.6840
 1250SOL     OW 5190   7.137   6.426  10.068  0.2218  0.1988 -0.5633
 1250SOL    HW1 5191   7.215   6.470  10.036  0.1548 -0.2693 -1.3965
 1250SOL    HW2 5192   7.087   6.405   9.989 -0.1869 -0.5295 -0.1223
 1251SOL     OW 5193   0.863   0.828   9.143  0.1039 -0.5925  0.6596
 1251SOL    HW1 5194   0.800   0.824   9.072 -0.2346 -0.7463  0.9639
 1251SOL    HW2 5195   0.935   0.881   9.109  1.1944 -2.8508 -0.7607
 1252SOL     OW 5196   1.666   0.842  11.883 -0.4409  0.5861  0.5112
 1252SOL    HW1 5197   1.626   0.757  11.901  0.7054 -0.3315 -0.9876
 1252SOL    HW2 5198   1.760   0.827  11.892 -0.1727  1.4842 -0.5680
 1253SOL     OW 5199   1.571   1.404  10.746  0.1917 -0.0304  0.1097
 1253SOL    HW1 5200   1.481   1.376  10.728 -0.5741  2.1912  0.1722
 1253SOL    HW2 5201   1.621   1.377  10.669 -1.0844  1.0026 -1.1235
 1254SOL     OW 5202   2.512   2.008  11.170 -0.0142 -0.6163  0.0708
 1254SOL    HW1 5203   2.543   2.086  11.125  0.1903 -0.6100  0.2233
 1254SOL    HW2 5204   2.586   1.948  11.169  1.0691  0.4689  3.0305
 1255SOL     OW 5205   0.291   2.247  10.671 -0.1098  0.0433 -0.1855
 1255SOL    HW1 5206   0.269   2.158  10.644  0.3364 -0.4485  0.9732
 1255SOL    HW2 5207   0.383   2.259  10.645 -0.2920  0.3118 -0.7026
 1256SOL     OW 5208   1.528   1.269  11.989  0.6761 -0.3202  0.2762
 1256SOL    HW1 5209   1.559   1.310  11.908 -0.6704 -1.2475 -0.7553
 1256SOL    HW2 5210   1.554   1.330  12.058  1.3191  0.8030 -0.9140
 1257SOL     OW 5211   1.312   0.459   9.452 -0.6960 -0.9058  0.0136
 1257SOL    HW1 5212   1.353   0.378   9.483  0.3624 -0.8711 -1.1982
 1257SOL    HW2 5213   1.250   0.431   9.385 -0.2779 -0.7375 -0.4580
 1258SOL     OW 5214   0.503   0.982   0.255  0.0926 -0.1427  0.0477
 1258SOL    HW1 5215   0.488   0.979   0.350 -2.3140 -1.0261 -0.2872
 1258SOL    HW2 5216   0.591   1.020   0.246 -0.5089  2.1836  2.5281
 1259SOL     OW 5217   3.308   2.463  10.190 -0.0822  0.0673 -0.0104
 1259SOL    HW1 5218   3.234   2.516  10.218 -1.0829 -1.3194  0.0571
 1259SOL    HW2 5219   3.329   2.496  10.103 -0.4350  0.8277  0.1866
 1260SOL     OW 5220   2.059   2.021  11.231  0.0274 -0.0415  0.0884
 1260SOL    HW1 5221   1.993   1.953  11.247 -0.0368 -0.2127 -0.8655
 1260SOL    HW2 5222   2.049   2.043  11.139  1.4253 -0.1867 -0.1176
 1261SOL     OW 5223   7.975   1.062   9.415  0.8949 -0.2084  0.3519
 1261SOL    HW1 5224   7.994   0.979   9.373  2.1608 -0.0809  0.6305
 1261SOL    HW2 5225   7.901   1.044   9.474 -1.2890 -0.2842 -2.1933
 1262SOL     OW 5226   1.635   2.214  10.434 -0.1250  0.0578 -0.5436
 1262SOL    HW1 5227   1.571   2.145  10.449  0.2709 -0.1007  0.5139
 1262SOL    HW2 5228   1.599   2.265  10.362 -1.0768 -0.4584 -0.4498
 1263SOL     OW 5229   7.782   1.034  10.001 -0.2881  0.2425  0.2329
 1263SOL    HW1 5230   7.762   1.125   9.980 -2.0150 -0.2405 -0.3541
 1263SOL    HW2 5231   7.699   0.988   9.991  1.0683 -1.9349 -2.2381
 1264SOL     OW 5232   0.542   1.417   9.561 -0.0482 -0.2824  0.0951
 1264SOL    HW1 5233   0.451   1.426   9.534 -0.1928 -0.1036  0.6334
 1264SOL    HW2 5234   0.542   1.345   9.624 -0.0537  0.5934  1.1326
 1265SOL     OW 5235   2.639   1.606  10.104 -0.5905 -0.8253 -0.4942
 1265SOL    HW1 5236   2.705   1.548  10.067 -0.6071  0.3142 -2.4439
 1265SOL    HW2 5237   2.585   1.550  10.159 -0.2101 -2.5054 -1.7742
 1266SOL     OW 5238   7.840   1.253  12.028 -0.2374  0.3535 -0.1929
 1266SOL    HW1 5239   7.828   1.180  11.967  0.8838  0.4268 -0.5103
 1266SOL    HW2 5240   7.769   1.314  12.007 -0.2525  0.0722 -0.9652
 1267SOL     OW 5241   7.285   2.828   8.892  0.0241  0.5720 -0.2286
 1267SOL    HW1 5242   7.232   2.840   8.814 -1.2627  0.3237  0.5755
 1267SOL    HW2 5243   7.315   2.737   8.887 -0.5559  0.3728 -0.1387
 1268SOL     OW 5244   2.142   0.458  11.112  0.0477 -0.2891  0.7143
 1268SOL    HW1 5245   2.165   0.550  11.101 -0.1706  0.1158  3.1075
 1268SOL    HW2 5246   2.225   0.414  11.132  0.1500 -0.6430 -0.4107
 1269SOL     OW 5247   1.363   6.776  10.961  0.0341  0.2962 -0.1124
 1269SOL    HW1 5248   1.427   6.709  10.936 -0.9136 -1.0859  1.0539
 1269SOL    HW2 5249   1.299   6.775  10.889  1.4654  1.9908 -1.5053
 1270SOL     OW 5250   1.150   0.192   9.801  0.1814 -0.1923  0.4063
 1270SOL    HW1 5251   1.097   0.152   9.732  0.9238 -0.8238  0.1875
 1270SOL    HW2 5252   1.236   0.151   9.792  0.3344 -0.1694  1.6078
 1271SOL     OW 5253   2.253   1.033  10.256 -0.3116  0.4204  0.4456
 1271SOL    HW1 5254   2.175   1.010  10.307 -1.0938 -0.8697 -1.2210
 1271SOL    HW2 5255   2.303   0.951  10.250 -0.4628  0.4090 -1.1759
 1272SOL     OW 5256   1.651   1.622  12.423 -0.0801  0.0194 -0.7504
 1272SOL    HW1 5257   1.567   1.588  12.452 -1.0165  2.1172 -0.8749
 1272SOL    HW2 5258   1.708   1.611  12.499 -1.1672  0.9218  0.2258
 1273SOL     OW 5259   0.077   1.313   9.490 -0.1277 -0.4348  0.1045
 1273SOL    HW1 5260   0.089   1.315   9.585 -1.4192 -1.3729  0.3104
 1273SOL    HW2 5261   0.052   1.223   9.471 -2.4465  0.3104 -0.7612
 1274SOL     OW 5262   0.404   0.234  12.422  0.0662 -1.1546  0.0236
 1274SOL    HW1 5263   0.489   0.193  12.406  0.7668 -0.1215  0.9243
 1274SOL    HW2 5264   0.422   0.302  12.487 -1.2195 -0.0358 -0.7341
 1275SOL     OW 5265   0.705   5.502  11.229 -0.4462  0.3188  0.5266
 1275SOL    HW1 5266   0.774   5.565  11.250  1.2612 -0.8228 -1.3277
 1275SOL    HW2 5267   0.721   5.429  11.289 -0.0620  0.0797  0.1385
 1276SOL     OW 5268   6.555   0.925   9.225  0.2335 -0.2805  0.5967
 1276SOL    HW1 5269   6.484   0.970   9.269  0.1802  0.1998  0.0395
 1276SOL    HW2 5270   6.616   0.901   9.295 -0.2900 -0.3579  1.0288
 1277SOL     OW 5271   7.887   2.594  10.953  0.6466  0.1648 -0.0285
 1277SOL    HW1 5272   7.884   2.553  10.867 -1.6902  0.4139 -0.1274
 1277SOL    HW2 5273   7.907   2.686  10.935  2.3284 -0.1794 -0.0864
 1278SOL     OW 5274   2.188   7.293   9.528 -0.2031 -0.0465  0.0876
 1278SOL    HW1 5275   2.241   7.365   9.494 -1.3304  0.8562  0.1654
 1278SOL    HW2 5276   2.117   7.336   9.575 -1.7641 -1.1664 -1.1252
 1279SOL     OW 5277   2.306   7.536   9.095 -0.4754  0.4720  0.0633
 1279SOL    HW1 5278   2.339   7.621   9.068 -1.4094  0.3795 -1.4685
 1279SOL    HW2 5279   2.357   7.473   9.044 -0.6555  0.1750  0.2479
 1280SOL     OW 5280   0.767   7.436  12.187  0.1622  0.6544  0.6336
 1280SOL    HW1 5281   0.771   7.427  12.092  0.1021  0.7212  0.6253
 1280SOL    HW2 5282   0.772   7.346  12.220  2.0553  0.7034  0.6239
 1281SOL     OW 5283   0.131   2.024   8.002 -0.1059  0.1338 -0.1426
 1281SOL    HW1 5284   0.186   1.989   8.072  1.2508  0.9959 -0.7370
 1281SOL    HW2 5285   0.172   1.994   7.921 -1.9367 -1.2795 -0.6395
 1282SOL     OW 5286   0.166   0.747  10.343  0.3534  0.0253  0.2755
 1282SOL    HW1 5287   0.244   0.698  10.371 -0.3739 -1.2715  0.0901
 1282SOL    HW2 5288   0.121   0.688  10.283 -0.3363  1.1100 -0.3049
 1283SOL     OW 5289   7.354   1.840  11.781  0.2631 -0.4129 -0.6850
 1283SOL    HW1 5290   7.399   1.836  11.866  0.1323  0.5027 -0.5578
 1283SOL    HW2 5291   7.292   1.912  11.791 -0.3869 -0.8876 -1.2682
 1284SOL     OW 5292   0.306   0.598   0.856 -0.5256 -0.1330 -0.0979
 1284SOL    HW1 5293   0.246   0.668   0.832 -0.0994  0.4435  0.4858
 1284SOL    HW2 5294   0.262   0.551   0.927 -1.7130 -1.7372 -1.7870
 1285SOL     OW 5295   1.415   0.624  11.401  0.3569  0.1626  0.2014
 1285SOL    HW1 5296   1.330   0.594  11.370  0.2496 -2.3250  2.5507
 1285SOL    HW2 5297   1.396   0.704  11.451 -0.7384 -0.6865  1.2053
 1286SOL     OW 5298   2.118   1.166  12.178 -0.4359 -0.3227 -0.2816
 1286SOL    HW1 5299   2.108   1.111  12.256  0.7260 -2.0939 -1.3121
 1286SOL    HW2 5300   2.077   1.115  12.108  0.8156  0.0366 -1.2973
 1287SOL     OW 5301   2.876   6.684  10.076  0.3399 -0.1918  0.1936
 1287SOL    HW1 5302   2.889   6.769  10.118 -0.4302 -0.0186  0.1036
 1287SOL    HW2 5303   2.943   6.680  10.008  0.3085  0.4028  0.1222
 1288SOL     OW 5304   7.852   0.536  11.947 -0.0265  0.4751  0.4849
 1288SOL    HW1 5305   7.939   0.519  11.982 -0.5836  1.0924  2.2806
 1288SOL    HW2 5306   7.851   0.630  11.930 -0.1986  0.3939  0.0297
 1289SOL     OW 5307   0.242   7.860   0.447  0.4870  0.9701  0.3443
 1289SOL    HW1 5308   0.203   7.854   0.359  1.6153  0.2177 -0.1366
 1289SOL    HW2 5309   0.332   7.828   0.435 -0.2291 -2.2376  2.3822
 1290SOL     OW 5310   2.323   1.147   0.048 -0.5288 -0.2068  0.2101
 1290SOL    HW1 5311   2.381   1.085   0.003 -0.9621  0.1271 -0.8384
 1290SOL    HW2 5312   2.238   1.134   0.007 -0.8629  0.3611  0.7029
 1291SOL     OW 5313   3.681   0.096  10.961 -0.2014 -0.3740  0.5281
 1291SOL    HW1 5314   3.674   0.109  10.866 -0.6889  2.4985  0.8627
 1291SOL    HW2 5315   3.629   0.017  10.978 -1.8081  0.1843 -1.3807
 1292SOL     OW 5316   7.605   2.436  11.670  0.4338  0.1180 -0.5097
 1292SOL    HW1 5317   7.533   2.380  11.642  0.0567  1.0148 -1.4156
 1292SOL    HW2 5318   7.657   2.381  11.728 -0.1413 -1.0291 -1.0382
 1293SOL     OW 5319   0.888   2.017  11.737  0.1555  0.3183 -0.1421
 1293SOL    HW1 5320   0.799   2.030  11.769  1.0014  0.9942  2.1307
 1293SOL    HW2 5321   0.906   1.925  11.753 -0.5216 -0.1398 -1.7963
 1294SOL     OW 5322   7.255   7.870  12.464  0.2346  0.5399 -0.0618
 1294SOL    HW1 5323   7.267   7.960  12.435  0.1713  0.1377 -1.3723
 1294SOL    HW2 5324   7.180   7.875  12.524  0.5854  1.4294  0.3271
 1295SOL     OW 5325   0.225   0.942   0.063  0.3042 -0.6234 -0.6308
 1295SOL    HW1 5326   0.132   0.935   0.039  0.2685 -1.2268 -0.3261
 1295SOL    HW2 5327   0.272   0.909  -0.013  0.2875  0.0260 -0.9309
 1296SOL     OW 5328   0.657   1.910  10.096 -0.1887 -0.6728  0.1409
 1296SOL    HW1 5329   0.652   2.005  10.086 -0.4202 -0.3216  2.8771
 1296SOL    HW2 5330   0.566   1.880  10.087 -0.1706 -0.5800 -0.3407
 1297SOL     OW 5331   2.390   2.728  10.487  0.3649 -0.3880  0.5940
 1297SOL    HW1 5332   2.447   2.783  10.433  1.1507 -2.1705 -0.4868
 1297SOL    HW2 5333   2.427   2.734  10.575  0.5798  0.5689  0.4563
 1298SOL     OW 5334   0.048   1.566  12.134  0.0895 -0.1308  0.2270
 1298SOL    HW1 5335  -0.030   1.577  12.188 -1.0551 -2.3170 -0.8335
 1298SOL    HW2 5336   0.068   1.473  12.141  2.8437  0.4054  0.6935
 1299SOL     OW 5337   0.625   1.336  10.783  0.8960 -0.2222  0.0432
 1299SOL    HW1 5338   0.641   1.281  10.707  0.3209 -1.1102  0.5486
 1299SOL    HW2 5339   0.640   1.278  10.858 -0.4304  0.0919  0.5733
 1300SOL     OW 5340   0.093   0.811   0.798 -0.0806 -0.2522  0.5088
 1300SOL    HW1 5341   0.005   0.774   0.789 -0.4104  0.6291 -0.0850
 1300SOL    HW2 5342   0.101   0.870   0.723  0.4811  0.7300  1.3137
 1301SOL     OW 5343   1.600   7.969  11.922  0.2472  0.0836  0.3970
 1301SOL    HW1 5344   1.579   7.949  11.831  0.5286 -2.1139  0.7587
 1301SOL    HW2 5345   1.536   7.920  11.973 -0.7203  2.2964  1.4293
 1302SOL     OW 5346   1.174   0.218  12.192 -0.3157  0.2630  0.6465
 1302SOL    HW1 5347   1.176   0.147  12.128 -0.0560  0.7622  0.0947
 1302SOL    HW2 5348   1.088   0.257  12.182  0.0281  0.8714  0.0100
 1303SOL     OW 5349   5.897   1.077  12.052 -0.3556  0.1181 -0.0660
 1303SOL    HW1 5350   5.887   1.061  12.146 -1.6706  2.3845  0.2243
 1303SOL    HW2 5351   5.967   1.016  12.026  1.4116  0.7489  2.7397
 1304SOL     OW 5352   1.474   1.232  10.466  0.4941 -0.1705 -0.1481
 1304SOL    HW1 5353   1.512   1.152  10.502 -0.8836  0.1547  2.2128
 1304SOL    HW2 5354   1.383   1.209  10.447  0.3907  0.5318 -0.5366
 1305SOL     OW 5355   0.249   0.243  12.173 -0.0363  0.0306  0.1827
 1305SOL    HW1 5356   0.269   0.158  12.136  1.6472  0.5159 -0.1105
 1305SOL    HW2 5357   0.317   0.258  12.239 -0.7145  0.8444  0.7298
 1306SOL     OW 5358   0.845   0.816  11.932 -0.3687  0.2162 -0.4354
 1306SOL    HW1 5359   0.814   0.871  12.004 -0.1080 -1.9206  1.4235
 1306SOL    HW2 5360   0.909   0.870  11.886 -1.5872  2.1500  0.0283
 1307SOL     OW 5361   5.957   1.127  11.467 -0.1941 -0.1282  0.5786
 1307SOL    HW1 5362   5.885   1.141  11.528 -0.1866 -0.0325  0.5651
 1307SOL    HW2 5363   5.987   1.215  11.444  0.3928 -0.1742  1.1385
 1308SOL     OW 5364   1.093   0.978   0.866  0.1417  0.4898 -0.1949
 1308SOL    HW1 5365   1.166   0.974   0.928  0.2622 -0.2383 -0.3761
 1308SOL    HW2 5366   1.048   1.060   0.888  0.9359  0.8906 -0.0058
 1309SOL     OW 5367   0.480   2.041   0.000 -0.4082 -0.2422 -0.1150
 1309SOL    HW1 5368   0.463   2.112   0.062 -0.7269  0.3019 -0.8146
 1309SOL    HW2 5369   0.571   2.054  -0.026 -1.1410  1.4362 -2.1066
 1310SOL     OW 5370   1.326   7.072  12.026 -0.3788 -0.3254  0.0107
 1310SOL    HW1 5371   1.264   7.011  12.067 -0.2933 -0.1014  0.4717
 1310SOL    HW2 5372   1.354   7.130  12.097 -1.0174  0.7240 -0.5554
 1311SOL     OW 5373   6.549   0.695  11.120  0.1614  0.0370 -0.3077
 1311SOL    HW1 5374   6.632   0.680  11.165  0.6641 -0.9341 -1.5032
 1311SOL    HW2 5375   6.560   0.780  11.078 -0.0347  0.6087  0.7671
 1312SOL     OW 5376   7.442   7.845   0.252 -0.3910  0.1575  0.7625
 1312SOL    HW1 5377   7.464   7.878   0.164  0.8453 -1.0580  0.5736
 1312SOL    HW2 5378   7.426   7.752   0.239 -1.2691  0.1631  1.6841
 1313SOL     OW 5379   0.407   0.922  11.491 -0.6052 -0.4609 -0.3986
 1313SOL    HW1 5380   0.422   0.839  11.534  0.5705  0.0007  0.1152
 1313SOL    HW2 5381   0.479   0.979  11.520 -2.6870  1.5229  1.2492
 1314SOL     OW 5382   0.581   7.889  10.721 -0.1555 -0.1906  0.0892
 1314SOL    HW1 5383   0.626   7.820  10.673 -0.8723 -0.4454 -0.2173
 1314SOL    HW2 5384   0.635   7.903  10.799 -0.3755 -1.5836  0.5189
 1315SOL     OW 5385   0.759   0.901   0.103  0.2489  0.3628  0.1527
 1315SOL    HW1 5386   0.802   0.981   0.072  1.2806 -1.3512 -3.2432
 1315SOL    HW2 5387   0.720   0.862   0.025  0.4517 -2.8791  1.5115
 1316SOL     OW 5388   1.707   0.181  11.656  0.2839  0.0450  0.0363
 1316SOL    HW1 5389   1.649   0.199  11.581 -0.6311 -1.1367  0.4261
 1316SOL    HW2 5390   1.770   0.118  11.623  1.3578  1.3038 -0.3761
 1317SOL     OW 5391   1.485   1.376   0.088  0.4598  0.1329  0.4186
 1317SOL    HW1 5392   1.462   1.457   0.043  0.0636 -0.0019  0.3704
 1317SOL    HW2 5393   1.416   1.365   0.154  0.7080  0.0226  0.6622
 1318SOL     OW 5394   2.798   0.955  10.441 -0.0574 -0.1517  0.3268
 1318SOL    HW1 5395   2.843   1.021  10.492 -0.3270  0.2559  0.0431
 1318SOL    HW2 5396   2.849   0.875  10.455  0.1021  0.0435  0.9047
 1319SOL     OW 5397   0.428   0.646   0.539  0.4058  0.3170 -0.0706
 1319SOL    HW1 5398   0.409   0.737   0.515  0.6831  0.4024  0.0304
 1319SOL    HW2 5399   0.362   0.595   0.492  2.0356  0.3160 -2.5711
 1320SOL     OW 5400   1.022   7.975   0.512 -0.0260  0.1896  0.5126
 1320SOL    HW1 5401   1.071   8.052   0.540  0.8948 -0.2690  0.2046
 1320SOL    HW2 5402   1.001   7.928   0.593  0.3460  0.2087  0.6180
 1321SOL     OW 5403   1.011   1.026   0.342  0.1548  0.1036  0.3938
 1321SOL    HW1 5404   1.104   1.041   0.324  0.0857  1.0137  0.7325
 1321SOL    HW2 5405   1.009   0.993   0.432  0.1951 -0.5477  0.1591
 1322SOL     OW 5406   1.624   0.678  10.134 -0.2121  0.2192  0.3458
 1322SOL    HW1 5407   1.577   0.663  10.052 -0.2758  1.2791  0.1725
 1322SOL    HW2 5408   1.648   0.771  10.131 -0.0239  0.2147  1.4284
 1323SOL     OW 5409   2.536   2.780  11.024  0.4548  0.8531 -0.1279
 1323SOL    HW1 5410   2.572   2.786  11.112  0.9322  0.6832 -0.3081
 1323SOL    HW2 5411   2.448   2.743  11.036  0.9144 -0.1844  0.1942
 1324SOL     OW 5412   0.743   0.058  11.790 -0.2141 -0.5368  0.6350
 1324SOL    HW1 5413   0.694   0.052  11.707 -1.3289 -1.7473  1.3395
 1324SOL    HW2 5414   0.835   0.059  11.764 -0.5641  0.4326 -0.6740
 1325SOL     OW 5415   7.683   0.533   1.798 -0.2003 -0.1956  0.1896
 1325SOL    HW1 5416   7.699   0.587   1.875  1.9307 -0.3605 -0.0739
 1325SOL    HW2 5417   7.764   0.484   1.785 -1.4364 -2.1940 -0.6000
 1326SOL     OW 5418   0.943   2.510  10.569  0.0130 -0.4642  0.2894
 1326SOL    HW1 5419   0.995   2.563  10.629  0.4060 -0.5006 -0.0101
 1326SOL    HW2 5420   0.975   2.421  10.583  2.4363 -0.1403 -2.2070
 1327SOL     OW 5421   0.839   2.043   9.840 -0.0508  0.5132  0.7455
 1327SOL    HW1 5422   0.817   2.090   9.759 -0.7932 -0.1472  0.5454
 1327SOL    HW2 5423   0.753   2.020   9.877  0.2972 -0.8482  0.7325
 1328SOL     OW 5424   1.161   7.984  11.983 -0.4036  0.1777 -0.1955
 1328SOL    HW1 5425   1.237   7.997  11.926  0.6964  1.7466  1.5191
 1328SOL    HW2 5426   1.156   7.889  11.995  1.9059  0.0709  0.4071
 1329SOL     OW 5427   7.668   1.138   0.051  0.0188  0.5180  0.6777
 1329SOL    HW1 5428   7.708   1.057   0.084 -2.5070 -0.8035  0.8109
 1329SOL    HW2 5429   7.665   1.125  -0.044  0.6928  1.0050  0.5887
 1330SOL     OW 5430   1.032   0.974  11.763  0.2623  0.2199 -0.1555
 1330SOL    HW1 5431   1.122   0.992  11.787  0.2230 -1.8044  1.8607
 1330SOL    HW2 5432   1.037   0.934  11.676  1.0862  1.7290 -0.8301
 1331SOL     OW 5433   0.253   1.313  10.482 -0.2572  0.2471  0.4316
 1331SOL    HW1 5434   0.268   1.319  10.576 -0.7544  1.3982  0.4515
 1331SOL    HW2 5435   0.203   1.231  10.471  0.8259 -0.5209  1.0113
 1332SOL     OW 5436   0.137   0.621  11.795  0.6483 -0.0386 -0.7796
 1332SOL    HW1 5437   0.152   0.530  11.770 -0.1178  0.2641 -2.4743
 1332SOL    HW2 5438   0.223   0.653  11.822  0.6593 -1.6456  1.3047
 1333SOL     OW 5439   1.819   7.801  11.363  0.1189  0.4448  0.7446
 1333SOL    HW1 5440   1.862   7.809  11.277 -0.4414  0.7130  0.4821
 1333SOL    HW2 5441   1.869   7.860  11.420  1.8134 -1.2982  1.1533
 1334SOL     OW 5442   1.984   1.652  12.092  0.4502 -0.0571 -0.6718
 1334SOL    HW1 5443   1.947   1.598  12.021 -1.3951 -0.5976  0.6346
 1334SOL    HW2 5444   1.908   1.695  12.131  1.5384  0.8915  0.4599
 1335SOL     OW 5445   7.810   0.802  11.850  0.1088  0.7046 -0.0492
 1335SOL    HW1 5446   7.885   0.859  11.865 -0.0018  1.3165 -1.6672
 1335SOL    HW2 5447   7.733   0.858  11.863 -0.0598  0.3958  0.3469
 1336SOL     OW 5448   1.727   1.042  12.115 -0.6240  0.1230 -0.1451
 1336SOL    HW1 5449   1.773   0.968  12.153 -1.2931  0.1200  0.7070
 1336SOL    HW2 5450   1.756   1.045  12.024  0.2872 -0.4669  0.1136
 1337SOL     OW 5451   0.944   5.882  10.857  0.1079 -0.4731 -0.1218
 1337SOL    HW1 5452   0.934   5.890  10.762 -0.8139 -0.7748 -0.0591
 1337SOL    HW2 5453   1.034   5.910  10.874  0.8122 -1.9150 -1.2581
 1338SOL     OW 5454   2.052   1.012  12.418 -0.0030  0.1619 -0.0691
 1338SOL    HW1 5455   2.058   1.040  12.510 -0.6591  2.2098 -0.5908
 1338SOL    HW2 5456   1.961   1.027  12.395 -0.1123 -1.3883 -0.7884
 1339SOL     OW 5457   7.967   0.175  12.205 -0.3148 -0.1610 -0.2722
 1339SOL    HW1 5458   8.059   0.199  12.195  0.2030 -1.4262  1.1675
 1339SOL    HW2 5459   7.944   0.204  12.293 -0.9707 -0.8183 -0.2183
 1340SOL     OW 5460   2.675   0.121   0.545  0.9615  0.1692  0.3719
 1340SOL    HW1 5461   2.613   0.106   0.616 -0.3490 -0.4007 -0.8353
 1340SOL    HW2 5462   2.736   0.186   0.579 -0.6005  1.1323  1.4551
 1341SOL     OW 5463   1.520   1.461  10.106 -0.3705 -0.4188 -0.0335
 1341SOL    HW1 5464   1.498   1.547  10.071 -1.3478  0.0020  1.4705
 1341SOL    HW2 5465   1.438   1.412  10.101  0.1600 -1.2599 -0.8078
 1342SOL     OW 5466   0.537   1.519   0.685  0.1467  0.6721  0.2001
 1342SOL    HW1 5467   0.478   1.544   0.615 -2.2069  2.0551  2.5054
 1342SOL    HW2 5468   0.557   1.601   0.730  2.0087 -0.1015  0.8754
 1343SOL     OW 5469   2.053   1.282  10.811 -0.3178  0.5917  0.8701
 1343SOL    HW1 5470   2.088   1.282  10.899 -0.3339 -0.0746  0.8818
 1343SOL    HW2 5471   1.967   1.323  10.819 -0.8260 -0.5436  1.3804
 1344SOL     OW 5472   0.422   1.759   0.062 -0.2602  0.0378 -0.3473
 1344SOL    HW1 5473   0.431   1.852   0.039  0.9316  0.8184  2.6960
 1344SOL    HW2 5474   0.330   1.749   0.087 -0.3752  0.4238 -0.6111
 1345SOL     OW 5475   3.812   2.584  10.513  0.5418  1.0810  0.4649
 1345SOL    HW1 5476   3.883   2.646  10.526  0.3941  1.6694 -1.2757
 1345SOL    HW2 5477   3.751   2.628  10.454  0.4295 -0.6669 -0.8342
 1346SOL     OW 5478   1.133   0.469   9.761 -0.0334 -0.8726  0.3939
 1346SOL    HW1 5479   1.039   0.483   9.745 -0.2235 -1.7213  0.7062
 1346SOL    HW2 5480   1.143   0.374   9.761  0.5805 -0.8286  1.7304
 1347SOL     OW 5481   7.416   0.223  10.262 -0.0764  0.5562 -0.0376
 1347SOL    HW1 5482   7.444   0.253  10.175 -1.7099 -0.2271 -0.8895
 1347SOL    HW2 5483   7.367   0.143  10.245 -2.1839  1.4504  1.3521
 1348SOL     OW 5484   0.470   1.413   1.422 -0.0802 -0.1066  0.7957
 1348SOL    HW1 5485   0.421   1.353   1.365  2.0500  0.5503 -1.9608
 1348SOL    HW2 5486   0.430   1.499   1.406  0.8063  0.1522 -0.1292
 1349SOL     OW 5487   2.553   7.278  11.218  1.0134  0.3119 -0.1262
 1349SOL    HW1 5488   2.541   7.289  11.313  1.8424 -1.0770  0.1616
 1349SOL    HW2 5489   2.558   7.367  11.184 -0.6896  0.8608  0.9355
 1350SOL     OW 5490   7.896   1.275  11.299  0.1687 -0.3511 -0.3023
 1350SOL    HW1 5491   7.805   1.297  11.317  0.3850  0.5767 -0.3053
 1350SOL    HW2 5492   7.902   1.181  11.317 -0.7936 -0.4301 -0.3492
 1351SOL     OW 5493   0.510   6.637  11.679  0.1504 -0.9910 -0.5071
 1351SOL    HW1 5494   0.454   6.591  11.741 -0.7249 -0.5370 -0.9415
 1351SOL    HW2 5495   0.552   6.568  11.628  0.9538 -1.3725  0.6265
 1352SOL     OW 5496   4.240   2.447  11.060 -0.0383 -0.8144 -0.2848
 1352SOL    HW1 5497   4.187   2.478  11.133  2.7985  1.6874  0.9043
 1352SOL    HW2 5498   4.209   2.498  10.985 -0.7218 -0.9698 -0.1213
 1353SOL     OW 5499   7.858   7.092  11.790 -0.0335  0.6433  0.0394
 1353SOL    HW1 5500   7.848   7.099  11.695  0.0805  2.8880  0.1298
 1353SOL    HW2 5501   7.924   7.024  11.802  0.7922  1.0957 -1.5655
 1354SOL     OW 5502   0.732   0.030  10.957  0.4516  0.1978  0.1142
 1354SOL    HW1 5503   0.643   0.025  10.992 -0.2221  0.8085 -1.4124
 1354SOL    HW2 5504   0.742   0.122  10.931  1.0510 -0.1390 -0.8912
 1355SOL     OW 5505   3.079   0.147  11.980 -0.0406  0.4220 -0.3862
 1355SOL    HW1 5506   3.067   0.066  12.030  0.3339 -0.8471 -2.2482
 1355SOL    HW2 5507   3.154   0.190  12.022 -0.2935 -0.1362  0.6823
 1356SOL     OW 5508   1.026   2.086  12.226  0.2026  0.3370  0.3323
 1356SOL    HW1 5509   1.049   2.052  12.312  0.8033 -0.3480 -0.0896
 1356SOL    HW2 5510   1.107   2.122  12.191  0.2159 -0.3402 -0.3699
 1357SOL     OW 5511   2.113   2.008  12.326 -0.0183  0.4635  0.5653
 1357SOL    HW1 5512   2.173   1.936  12.341  0.1540  0.8470  1.8573
 1357SOL    HW2 5513   2.039   1.990  12.385 -0.1690  1.1094  0.5803
 1358SOL     OW 5514   7.444   0.538   0.579 -0.2439  0.0313  0.4127
 1358SOL    HW1 5515   7.476   0.555   0.491 -1.5522 -0.0304 -0.0889
 1358SOL    HW2 5516   7.501   0.469   0.613 -0.1367 -0.4014 -0.6250
 1359SOL     OW 5517   0.605   0.128   0.289  0.2253  0.4018  0.2190
 1359SOL    HW1 5518   0.591   0.146   0.382 -1.0218 -0.1403  0.1627
 1359SOL    HW2 5519   0.696   0.100   0.283 -0.2164 -1.5980  1.6510
 1360SOL     OW 5520   1.435   1.973   1.085 -0.4466 -0.5235 -0.1841
 1360SOL    HW1 5521   1.476   1.914   1.148 -0.8759 -0.6521 -0.0152
 1360SOL    HW2 5522   1.343   1.945   1.083 -0.9175  0.8326  0.7254
 1361SOL     OW 5523   0.668   7.618  11.520 -0.0763 -0.1416  0.4714
 1361SOL    HW1 5524   0.671   7.712  11.499  0.8941  0.4131  2.7285
 1361SOL    HW2 5525   0.760   7.590  11.515 -0.1370 -0.5422  1.4067
 1362SOL     OW 5526   7.703   1.632   0.075 -0.2356  0.2752  0.2160
 1362SOL    HW1 5527   7.747   1.548   0.064 -2.7059 -0.9242 -1.5574
 1362SOL    HW2 5528   7.692   1.641   0.170  2.8986  0.2604  0.6817
 1363SOL     OW 5529   0.496   0.008   0.789 -0.3963 -0.5800 -0.1076
 1363SOL    HW1 5530   0.470   0.087   0.837 -0.5512 -0.2360 -0.7476
 1363SOL    HW2 5531   0.450  -0.063   0.833  1.7372 -0.7128  2.1580
 1364SOL     OW 5532   7.430   1.718   0.018 -0.2825 -0.4267  0.1507
 1364SOL    HW1 5533   7.420   1.739  -0.074 -0.0554  0.5628  0.3454
 1364SOL    HW2 5534   7.514   1.673   0.024  1.0988  2.0339  0.2612
 1365SOL     OW 5535   1.402   1.071  10.865 -0.4226  0.2514  0.0161
 1365SOL    HW1 5536   1.398   1.012  10.940  1.0300 -1.4895 -1.1997
 1365SOL    HW2 5537   1.495   1.079  10.845 -0.7842  0.3542 -1.8389
 1366SOL     OW 5538   1.409   7.583  12.214  0.0595 -0.4139 -0.4416
 1366SOL    HW1 5539   1.452   7.541  12.289  0.6051  1.3529  0.2825
 1366SOL    HW2 5540   1.460   7.553  12.138  0.7637 -0.6267  0.1040
 1367SOL     OW 5541   3.521   0.943  10.631  0.4481  0.3426 -0.5498
 1367SOL    HW1 5542   3.567   0.870  10.591  0.4682  0.5179 -0.8476
 1367SOL    HW2 5543   3.584   1.015  10.630  0.4705  0.3285 -0.1454
 1368SOL     OW 5544   1.498   0.320  10.684 -0.1765 -0.1105  0.6206
 1368SOL    HW1 5545   1.444   0.241  10.677  2.4815 -1.9387 -1.7988
 1368SOL    HW2 5546   1.538   0.314  10.770  1.2561 -2.4294 -0.1171
 1369SOL     OW 5547   1.691   0.129   0.038  0.0209  0.3269 -0.2911
 1369SOL    HW1 5548   1.700   0.055   0.098 -0.2436  0.4372 -0.1131
 1369SOL    HW2 5549   1.616   0.178   0.072  0.5348  0.9819 -0.0907
 1370SOL     OW 5550   1.157   0.568   0.522  0.5440 -0.3678  0.0088
 1370SOL    HW1 5551   1.104   0.494   0.554 -0.3842  0.3232  0.1018
 1370SOL    HW2 5552   1.094   0.638   0.508  1.0741 -0.2662 -2.2149
 1371SOL     OW 5553   0.589   0.980   0.828 -0.2200  0.5852 -0.1286
 1371SOL    HW1 5554   0.587   0.884   0.838 -1.3502  0.6581  0.4971
 1371SOL    HW2 5555   0.646   1.010   0.899 -1.5848  0.4993  1.0567
 1372SOL     OW 5556   0.510   6.525   1.597  0.4531 -0.6690  0.4491
 1372SOL    HW1 5557   0.566   6.502   1.523 -0.5480 -0.6849 -0.3290
 1372SOL    HW2 5558   0.421   6.504   1.567 -0.1519  0.9324  1.0218
 1373SOL     OW 5559   1.336   1.248  11.363 -0.0238  0.3002  0.0170
 1373SOL    HW1 5560   1.300   1.281  11.446  0.4125  1.9332 -0.4162
 1373SOL    HW2 5561   1.294   1.302  11.296  0.4509 -0.2784 -0.7565
 1374SOL     OW 5562   0.681   6.879  11.873  0.4583 -0.4181 -0.6667
 1374SOL    HW1 5563   0.600   6.844  11.911  1.6825 -0.9630  1.5592
 1374SOL    HW2 5564   0.668   6.974  11.871 -1.2048 -0.5951 -2.8009
 1375SOL     OW 5565   0.965   0.295   0.355  0.5705  0.3388  0.9783
 1375SOL    HW1 5566   0.937   0.244   0.280 -1.9252  0.5055  1.7211
 1375SOL    HW2 5567   1.045   0.251   0.385  0.0221 -1.4434 -0.0381
 1376SOL     OW 5568   1.651   7.525   0.193 -0.0830  0.3687 -0.3347
 1376SOL    HW1 5569   1.735   7.541   0.150 -0.1458  1.2482 -0.1521
 1376SOL    HW2 5570   1.673   7.512   0.285  0.0204 -1.2175 -0.5540
 1377SOL     OW 5571   0.030   7.988   0.806 -1.0715  0.0534  0.0508
 1377SOL    HW1 5572  -0.001   7.969   0.895 -0.6067 -0.5313  0.0984
 1377SOL    HW2 5573   0.062   8.078   0.811  1.5859 -0.8250  1.2745
 1378SOL     OW 5574   7.374   1.530  11.910 -0.0760  0.2255  0.4417
 1378SOL    HW1 5575   7.351   1.597  11.846  0.5108 -0.9374 -1.0441
 1378SOL    HW2 5576   7.300   1.530  11.971 -1.6484  0.0336 -1.3508
 1379SOL     OW 5577   2.505   1.365  11.272 -0.5247  0.0372 -0.2716
 1379SOL    HW1 5578   2.427   1.311  11.289 -0.3233  0.0066  0.5630
 1379SOL    HW2 5579   2.469   1.448  11.239 -0.9760  0.4027  1.0763
 1380SOL     OW 5580   2.143   7.532   0.051 -0.4611  0.6745 -0.3084
 1380SOL    HW1 5581   2.187   7.514  -0.032 -0.0715 -0.2079  0.0740
 1380SOL    HW2 5582   2.215   7.551   0.112 -0.5712 -0.8726  0.3450
 1381SOL     OW 5583   0.041   0.785   0.326  0.1959  0.0076 -0.5922
 1381SOL    HW1 5584   0.081   0.870   0.344 -1.0137  0.4706  0.0161
 1381SOL    HW2 5585  -0.002   0.797   0.241 -1.3663  0.5738  0.2220
 1382SOL     OW 5586   0.163   0.186   9.795 -0.5234 -0.3618  0.4059
 1382SOL    HW1 5587   0.205   0.109   9.755 -1.8751 -0.9959  0.1449
 1382SOL    HW2 5588   0.151   0.161   9.887  0.9875  0.4095  0.8426
 1383SOL     OW 5589   0.164   0.579   0.436 -0.5607  0.3509 -0.2553
 1383SOL    HW1 5590   0.114   0.522   0.495  0.1021 -0.8873 -0.8587
 1383SOL    HW2 5591   0.104   0.651   0.416 -1.4743 -0.2023  0.4013
 1384SOL     OW 5592   0.431   0.310  11.620 -0.4405 -1.1642  0.2155
 1384SOL    HW1 5593   0.384   0.285  11.700 -1.7216 -0.2988 -0.2268
 1384SOL    HW2 5594   0.451   0.227  11.577  1.5057 -1.7331  2.0607
 1385SOL     OW 5595   1.962   0.525   1.205  0.1475  0.1136  0.0771
 1385SOL    HW1 5596   1.879   0.560   1.174  0.2709  2.0817  1.7277
 1385SOL    HW2 5597   1.938   0.461   1.272 -0.0594  0.7239  0.5960
 1386SOL     OW 5598   7.001   1.351   0.501  0.1618  0.9988  0.0131
 1386SOL    HW1 5599   6.995   1.256   0.486  0.4559  1.1002 -0.8134
 1386SOL    HW2 5600   7.094   1.371   0.491 -0.1544  1.7213 -2.2622
 1387SOL     OW 5601   1.868   1.316   9.363 -0.2523  0.9702 -0.6745
 1387SOL    HW1 5602   1.946   1.315   9.307 -0.1994  0.3227 -0.5877
 1387SOL    HW2 5603   1.903   1.321   9.452 -0.3413  2.4354 -0.6975
 1388SOL     OW 5604   1.770   0.978  11.164  0.4930  0.0056 -0.2800
 1388SOL    HW1 5605   1.743   0.896  11.206  0.8639 -1.2724 -2.3650
 1388SOL    HW2 5606   1.695   1.037  11.175  0.5645 -0.2557  2.0521
 1389SOL     OW 5607   1.760   7.876   0.103  0.0712  0.1689  0.4477
 1389SOL    HW1 5608   1.818   7.918   0.039  0.9835  0.1216  1.2211
 1389SOL    HW2 5609   1.810   7.800   0.134 -1.7268 -1.8451 -1.2692
 1390SOL     OW 5610   0.350   1.801  10.077  0.2981 -0.7923 -0.0700
 1390SOL    HW1 5611   0.271   1.749  10.063 -0.3983  0.7296 -2.2861
 1390SOL    HW2 5612   0.413   1.767  10.014  0.9524 -1.0166  0.6800
 1391SOL     OW 5613   1.491   2.349   0.756  0.0394 -0.3675  0.2666
 1391SOL    HW1 5614   1.425   2.408   0.792  1.0674  1.3533 -0.5537
 1391SOL    HW2 5615   1.572   2.374   0.800  1.1435  1.1587 -2.3954
 1392SOL     OW 5616   1.285   0.206  11.522 -0.0092  0.4818 -0.1300
 1392SOL    HW1 5617   1.193   0.211  11.498 -0.6325 -0.3666  1.8670
 1392SOL    HW2 5618   1.285   0.162  11.607  2.2412  0.5035 -0.0642
 1393SOL     OW 5619   0.195   0.103  11.859  0.7053  0.1216  0.2937
 1393SOL    HW1 5620   0.155   0.037  11.802 -1.0782  0.9838  0.4821
 1393SOL    HW2 5621   0.262   0.055  11.908  2.2956 -0.6655 -2.4344
 1394SOL     OW 5622   2.263   0.331  12.282 -0.0560 -0.0182  1.0264
 1394SOL    HW1 5623   2.306   0.282  12.352 -1.2247 -1.3325  0.8831
 1394SOL    HW2 5624   2.172   0.300  12.284 -0.5959  1.4220  0.2397
 1395SOL     OW 5625   1.948   7.339   0.092  0.2276  0.2637 -0.1954
 1395SOL    HW1 5626   2.019   7.403   0.091  0.7761 -0.1192  2.8326
 1395SOL    HW2 5627   1.967   7.283   0.168 -1.2258 -2.3445 -1.6009
 1396SOL     OW 5628   1.404   6.666  12.283  0.2454  0.0859 -0.1817
 1396SOL    HW1 5629   1.472   6.606  12.311  1.2255  0.9251 -0.6961
 1396SOL    HW2 5630   1.355   6.618  12.216  1.4644  0.0684 -1.1104
 1397SOL     OW 5631   4.008   1.914  10.903 -0.0213 -0.4287  0.3976
 1397SOL    HW1 5632   4.038   1.997  10.940  1.7871 -1.4238  1.2679
 1397SOL    HW2 5633   3.913   1.915  10.917 -0.3913  2.3857 -1.5125
 1398SOL     OW 5634   1.322   2.200   0.170  0.2717 -0.3343  0.0313
 1398SOL    HW1 5635   1.357   2.111   0.173 -1.1794 -0.9560 -0.7072
 1398SOL    HW2 5636   1.227   2.189   0.168  0.0264  1.2650  0.7977
 1399SOL     OW 5637   0.921   7.704  11.979  0.5513  0.2247 -0.2097
 1399SOL    HW1 5638   0.871   7.623  11.970  1.1447 -0.0394 -1.2237
 1399SOL    HW2 5639   1.013   7.676  11.973  0.7851  0.8819  0.2123
 1400SOL     OW 5640   7.953   1.741  11.941 -0.3549 -0.0119  0.4045
 1400SOL    HW1 5641   7.914   1.779  12.020 -3.0739 -0.4492 -0.6214
 1400SOL    HW2 5642   7.969   1.650  11.964  0.5059  0.2637  0.9593
 1401SOL     OW 5643   0.206   7.393   0.673  0.3525 -0.7159  0.2753
 1401SOL    HW1 5644   0.288   7.355   0.705  0.5750 -0.4111  0.0677
 1401SOL    HW2 5645   0.231   7.479   0.640 -0.2572 -0.0990  1.3598
 1402SOL     OW 5646   7.819   0.609   0.412 -0.3349  0.2700  0.9595
 1402SOL    HW1 5647   7.813   0.528   0.361 -0.6818 -0.0083  1.4298
 1402SOL    HW2 5648   7.892   0.657   0.373 -1.3734  0.6308 -0.6063
 1403SOL     OW 5649   7.810   7.360  11.479  0.2841  0.0785  0.1181
 1403SOL    HW1 5650   7.722   7.356  11.517  0.3981  1.8300  0.6438
 1403SOL    HW2 5651   7.861   7.410  11.543  1.7416 -1.0850 -0.0795
 1404SOL     OW 5652   1.128   7.246  11.506 -0.1794  0.3863  0.4831
 1404SOL    HW1 5653   1.168   7.321  11.549  1.1809  0.3850 -0.7375
 1404SOL    HW2 5654   1.169   7.242  11.420 -2.2619 -0.0825 -0.5544
 1405SOL     OW 5655   1.495   2.047  11.874  0.0304 -0.2096  0.0307
 1405SOL    HW1 5656   1.463   2.133  11.902  0.5354  1.1224 -3.0404
 1405SOL    HW2 5657   1.589   2.059  11.861  0.3091 -1.5818  0.5499
 1406SOL     OW 5658   3.881   1.121  11.548  0.0341  0.0843  0.4385
 1406SOL    HW1 5659   3.869   1.081  11.462  0.5025 -1.0121  0.8552
 1406SOL    HW2 5660   3.819   1.075  11.604  0.2121  0.3073  0.8222
 1407SOL     OW 5661   0.190   6.377  11.272 -0.3395 -0.7211  0.0006
 1407SOL    HW1 5662   0.100   6.408  11.284 -0.1603 -0.4749  0.7430
 1407SOL    HW2 5663   0.201   6.373  11.177 -0.5206  1.0557 -0.1256
 1408SOL     OW 5664   7.657   2.597  10.199 -0.0322 -0.0816  0.3337
 1408SOL    HW1 5665   7.622   2.685  10.206 -1.0060 -0.1453 -2.4616
 1408SOL    HW2 5666   7.708   2.597  10.118  0.4396 -1.9352  0.5676
 1409SOL     OW 5667   2.402   1.768  11.512 -0.2908 -0.3216  0.2906
 1409SOL    HW1 5668   2.363   1.822  11.444 -0.3405 -0.0006  0.5684
 1409SOL    HW2 5669   2.381   1.814  11.594  1.6719  0.4986  0.3917
 1410SOL     OW 5670   0.633   2.589   0.037 -0.1167  0.0925 -0.2491
 1410SOL    HW1 5671   0.702   2.561   0.097 -0.2018  1.5779  0.5932
 1410SOL    HW2 5672   0.563   2.526   0.050  0.5042 -0.5577 -0.0049
 1411SOL     OW 5673   0.332   3.331  11.973 -0.1111  0.2726  0.3460
 1411SOL    HW1 5674   0.385   3.300  12.046  1.1829 -1.1413 -1.1016
 1411SOL    HW2 5675   0.363   3.421  11.958 -0.8297  0.8036  1.8707
 1412SOL     OW 5676   0.399   7.653   1.182 -0.0606 -0.2513 -0.2772
 1412SOL    HW1 5677   0.361   7.722   1.127  0.2370  0.0236 -0.1377
 1412SOL    HW2 5678   0.344   7.653   1.260 -0.3339 -0.4758 -0.4674
 1413SOL     OW 5679   2.420   1.629  11.253 -0.2720 -0.1275 -0.2309
 1413SOL    HW1 5680   2.412   1.664  11.341  1.8194 -1.3324  0.5240
 1413SOL    HW2 5681   2.418   1.706  11.196  1.3945  1.0193  1.1432
 1414SOL     OW 5682   2.305   2.299  11.652 -0.0256  0.1684 -0.0856
 1414SOL    HW1 5683   2.295   2.344  11.569  1.2910  0.8446  0.0937
 1414SOL    HW2 5684   2.369   2.230  11.634 -1.7200 -1.4505 -0.2597
 1415SOL     OW 5685   7.661   0.358  12.092 -0.2076  0.2023  0.0139
 1415SOL    HW1 5686   7.731   0.346  12.028  0.1998  2.8895 -0.1687
 1415SOL    HW2 5687   7.670   0.449  12.120 -1.8320 -0.2254  2.1853
 1416SOL     OW 5688   1.651   1.182   1.269  0.6947  0.0857 -0.5799
 1416SOL    HW1 5689   1.740   1.206   1.244 -0.1538  0.3613 -3.7701
 1416SOL    HW2 5690   1.596   1.249   1.228 -1.0376 -0.0844  1.2909
 1417SOL     OW 5691   0.306   0.418   1.793 -0.3680 -0.2327 -0.3837
 1417SOL    HW1 5692   0.359   0.497   1.799  3.2042 -2.3523 -0.9099
 1417SOL    HW2 5693   0.224   0.447   1.753 -0.1232  3.4504  1.3585
 1418SOL     OW 5694   2.242   1.760  12.164  0.0985 -0.7025  0.3599
 1418SOL    HW1 5695   2.234   1.710  12.245 -0.3089 -0.8461  0.2303
 1418SOL    HW2 5696   2.159   1.748  12.119  0.0710 -0.0850  0.2258
 1419SOL     OW 5697   0.116   1.778   9.298  0.6306 -0.1904 -0.3968
 1419SOL    HW1 5698   0.144   1.792   9.208 -0.7840  0.3386 -0.7888
 1419SOL    HW2 5699   0.037   1.831   9.307  1.0135  0.1549  1.3181
 1420SOL     OW 5700   2.506   7.202   0.745 -0.1638  0.0497  0.4585
 1420SOL    HW1 5701   2.580   7.259   0.769  0.6231 -0.9267  0.4095
 1420SOL    HW2 5702   2.429   7.249   0.777  0.4092  1.3989 -0.0305
 1421SOL     OW 5703   1.068   6.741   0.966  0.1253 -0.8075  0.1284
 1421SOL    HW1 5704   1.007   6.681   0.923 -2.1869  1.0704  0.6185
 1421SOL    HW2 5705   1.091   6.804   0.897 -0.4300 -0.1040  0.5784
 1422SOL     OW 5706   7.853   1.800  11.252 -0.2135  0.3024  0.4086
 1422SOL    HW1 5707   7.868   1.720  11.203 -0.3757  0.9625 -0.7549
 1422SOL    HW2 5708   7.879   1.779  11.342 -0.4034 -1.0838  0.1559
 1423SOL     OW 5709   2.009   6.758   0.024  0.1830 -0.2174 -0.1817
 1423SOL    HW1 5710   2.053   6.809  -0.044 -1.6609  0.4801 -0.9326
 1423SOL    HW2 5711   1.996   6.671  -0.015  0.9430 -0.4582  0.0823
 1424SOL     OW 5712   1.251   7.834  12.409  0.2720 -0.0079  0.4005
 1424SOL    HW1 5713   1.327   7.854  12.354  1.1547 -1.3704  1.0749
 1424SOL    HW2 5714   1.212   7.756  12.370 -0.3770  0.2714  0.4725
 1425SOL     OW 5715   0.644   0.566   0.090 -0.3032 -0.7566  0.2633
 1425SOL    HW1 5716   0.581   0.502   0.123 -0.7381  0.0171  0.9714
 1425SOL    HW2 5717   0.725   0.516   0.080 -0.0973 -1.0164  2.6929
 1426SOL     OW 5718   0.766   1.875   0.172 -0.3586  0.1682 -0.1788
 1426SOL    HW1 5719   0.821   1.861   0.248  0.4373  2.0676 -0.3494
 1426SOL    HW2 5720   0.682   1.906   0.208  0.4366  2.3635 -0.0253
 1427SOL     OW 5721   7.227   1.862  12.351  0.0479 -0.1197  0.2475
 1427SOL    HW1 5722   7.184   1.927  12.295  1.4988  2.0478  1.5248
 1427SOL    HW2 5723   7.263   1.798  12.290 -0.9128  0.5703 -1.1038
 1428SOL     OW 5724   0.419   2.223  11.317 -0.1547 -0.1614 -0.3856
 1428SOL    HW1 5725   0.395   2.174  11.238  1.6785 -0.7333 -0.6336
 1428SOL    HW2 5726   0.502   2.185  11.344 -0.5157  0.3563  1.5707
 1429SOL     OW 5727   0.043   1.508   0.144 -0.1637 -0.5869 -0.2694
 1429SOL    HW1 5728   0.097   1.560   0.084  0.3199 -1.5720 -0.7088
 1429SOL    HW2 5729  -0.004   1.573   0.196 -0.0238  0.2890 -1.2080
 1430SOL     OW 5730   1.779   2.309   1.027 -0.5968  0.0093  0.5341
 1430SOL    HW1 5731   1.781   2.362   0.947  0.7460 -0.2393  0.3809
 1430SOL    HW2 5732   1.871   2.289   1.045 -1.0574 -2.6636  0.3324
 1431SOL     OW 5733   1.418   2.620   1.686  0.6628  0.2832 -0.2736
 1431SOL    HW1 5734   1.371   2.604   1.605 -0.9563 -1.1828  0.8735
 1431SOL    HW2 5735   1.420   2.716   1.694 -0.1358  0.4145 -1.4816
 1432SOL     OW 5736   0.777   2.777   0.384  0.6813  0.1388  0.0384
 1432SOL    HW1 5737   0.682   2.777   0.371  0.8254 -1.6213 -1.4832
 1432SOL    HW2 5738   0.806   2.862   0.353 -0.4538  1.0407  1.3201
 1433SOL     OW 5739   2.944   1.916   0.948 -0.3570 -0.3084  0.0310
 1433SOL    HW1 5740   3.000   1.946   0.876 -0.5910  2.8902  1.0227
 1433SOL    HW2 5741   2.883   1.989   0.963 -2.0828 -1.9862  1.7140
 1434SOL     OW 5742   2.676   1.139  11.154 -0.6279 -0.2849 -0.1206
 1434SOL    HW1 5743   2.620   1.163  11.228  1.2188  1.6764  0.7324
 1434SOL    HW2 5744   2.745   1.085  11.193 -1.5976 -2.2995 -1.0808
 1435SOL     OW 5745   0.306   3.064  11.751  0.8681  0.2850  0.1272
 1435SOL    HW1 5746   0.367   3.057  11.824  1.0787  2.0540  0.1490
 1435SOL    HW2 5747   0.359   3.049  11.673  0.5677 -2.0370  0.2795
 1436SOL     OW 5748   7.777   1.374   3.092 -0.2601  0.3155  0.1357
 1436SOL    HW1 5749   7.788   1.384   3.187 -0.7501 -0.4696  0.2834
 1436SOL    HW2 5750   7.865   1.381   3.056 -0.0377  0.3471  0.6765
 1437SOL     OW 5751   1.290   3.485   0.625  0.2447  0.5031 -0.0310
 1437SOL    HW1 5752   1.349   3.535   0.681  1.4946 -1.2489  0.3196
 1437SOL    HW2 5753   1.202   3.513   0.650  0.8699  1.6945  0.8946
 1438SOL     OW 5754   0.588   3.095   2.083 -0.0644 -0.1245  0.1061
 1438SOL    HW1 5755   0.520   3.120   2.021 -0.6381  0.2354  0.8656
 1438SOL    HW2 5756   0.544   3.042   2.149  0.4312 -0.0821  0.4838
 1439SOL     OW 5757   0.951   2.929  11.997  0.0243 -0.0504 -0.2859
 1439SOL    HW1 5758   0.982   2.851  11.952  1.0526  0.8605 -1.2230
 1439SOL    HW2 5759   0.901   2.977  11.930  0.1440  0.5159  0.0257
 1440SOL     OW 5760   1.231   3.616  12.152 -0.3906 -0.1027  0.1927
 1440SOL    HW1 5761   1.181   3.622  12.070 -1.4267  0.0870  0.8182
 1440SOL    HW2 5762   1.312   3.571  12.128  0.6302  2.4007 -1.5329
 1441SOL     OW 5763   2.328   1.826   1.683  0.3579 -0.0066  0.0050
 1441SOL    HW1 5764   2.292   1.846   1.770 -0.2155  4.2123 -0.9780
 1441SOL    HW2 5765   2.260   1.774   1.641  0.1185 -1.0848  1.6149
 1442SOL     OW 5766   0.779   2.526   0.262 -0.1827  0.6638 -0.0835
 1442SOL    HW1 5767   0.867   2.512   0.226 -0.5289  0.2940 -0.8070
 1442SOL    HW2 5768   0.779   2.617   0.293  0.2075  0.9136 -0.7996
 1443SOL     OW 5769   1.474   3.513   1.852 -0.3749  0.2317  0.2746
 1443SOL    HW1 5770   1.532   3.582   1.884 -2.0504  1.2624  1.2332
 1443SOL    HW2 5771   1.520   3.432   1.873  1.1738  1.0088  0.0642
 1444SOL     OW 5772   7.161   3.908  12.394 -0.1453  0.1026  0.0901
 1444SOL    HW1 5773   7.235   3.958  12.427  1.2481 -1.0331 -1.1770
 1444SOL    HW2 5774   7.151   3.836  12.457  0.2304 -0.0845 -0.0612
 1445SOL     OW 5775   1.739   1.867   0.457 -0.4667  0.0953 -0.1423
 1445SOL    HW1 5776   1.813   1.892   0.402 -0.7637 -0.0014 -0.5942
 1445SOL    HW2 5777   1.756   1.909   0.541  0.2937 -0.2476 -0.1222
 1446SOL     OW 5778   1.495   4.186   0.317 -0.4844  0.3107 -0.1304
 1446SOL    HW1 5779   1.404   4.170   0.343 -0.3046  0.8922  0.8976
 1446SOL    HW2 5780   1.524   4.259   0.372  0.6143  0.1160 -0.4176
 1447SOL     OW 5781   1.029   3.080  10.658  0.3158 -0.2997 -0.4732
 1447SOL    HW1 5782   1.014   3.118  10.745  1.5602 -2.1781  0.6288
 1447SOL    HW2 5783   0.966   3.009  10.652  0.0582 -0.0173 -1.2527
 1448SOL     OW 5784   7.269   1.324   0.883  0.1831 -0.2219  0.2096
 1448SOL    HW1 5785   7.333   1.253   0.892  1.8222  1.0241 -1.1512
 1448SOL    HW2 5786   7.219   1.300   0.805  0.8290  0.1703 -0.3323
 1449SOL     OW 5787   0.819   2.828   3.090  0.2439 -0.1827  0.1450
 1449SOL    HW1 5788   0.848   2.738   3.072 -0.6647 -0.4153 -0.2322
 1449SOL    HW2 5789   0.725   2.820   3.104 -0.0534  0.8597 -1.0623
 1450SOL     OW 5790   1.286   2.838   0.532  0.1376  0.6883 -0.0373
 1450SOL    HW1 5791   1.335   2.778   0.588  0.2805  1.5500  0.7905
 1450SOL    HW2 5792   1.340   2.849   0.454 -0.6335 -1.5074 -0.9750
 1451SOL     OW 5793   0.537   3.248   0.676 -0.1780 -0.1514 -0.5914
 1451SOL    HW1 5794   0.470   3.292   0.729 -0.9163 -2.0220  0.1217
 1451SOL    HW2 5795   0.492   3.229   0.593 -0.8758 -2.1452  0.1854
 1452SOL     OW 5796   0.435   1.929   1.360  0.1718 -0.4281  0.0797
 1452SOL    HW1 5797   0.350   1.952   1.397  0.3696  0.5355 -0.0256
 1452SOL    HW2 5798   0.485   2.011   1.363  0.3440 -0.4114 -1.8893
 1453SOL     OW 5799   7.029   2.456   1.487  0.1611 -0.6918  0.3415
 1453SOL    HW1 5800   7.105   2.452   1.545 -1.8082  0.8694  3.2435
 1453SOL    HW2 5801   7.054   2.518   1.419  1.6629 -0.6076  0.9352
 1454SOL     OW 5802   7.919   4.226   1.415  0.4087 -0.5830 -0.0120
 1454SOL    HW1 5803   7.920   4.256   1.324  1.4429  0.1425  0.2155
 1454SOL    HW2 5804   7.831   4.190   1.428 -0.4673  1.2286 -0.6676
 1455SOL     OW 5805   0.548   0.288   3.089  0.5952 -0.5445  0.3082
 1455SOL    HW1 5806   0.608   0.227   3.131  1.0551  0.4856  1.2285
 1455SOL    HW2 5807   0.517   0.343   3.161  1.1754  1.0938 -0.6400
 1456SOL     OW 5808   0.852   2.429  11.648  0.0587  0.1046 -0.6577
 1456SOL    HW1 5809   0.789   2.374  11.695  1.3171 -1.8392 -1.1492
 1456SOL    HW2 5810   0.923   2.443  11.710  1.3269 -1.7564 -1.6011
 1457SOL     OW 5811   7.988   3.750  10.767 -0.0869 -0.3068 -0.1198
 1457SOL    HW1 5812   7.970   3.789  10.852 -2.2176  0.8722 -1.0240
 1457SOL    HW2 5813   8.018   3.823  10.713 -2.0380 -0.2951 -1.2631
 1458SOL     OW 5814   0.930   4.751  11.201  0.5521  0.0580  0.1556
 1458SOL    HW1 5815   0.934   4.666  11.158  0.3808 -0.4064  1.0233
 1458SOL    HW2 5816   0.856   4.743  11.262 -0.5458  1.3881 -0.9123
 1459SOL     OW 5817   1.191   2.397  12.372  0.2240  0.3055 -0.7859
 1459SOL    HW1 5818   1.244   2.321  12.348 -1.0156 -1.1047  0.7149
 1459SOL    HW2 5819   1.249   2.472  12.357  2.1492 -1.0493 -0.5374
 1460SOL     OW 5820   7.011   2.905   1.199 -0.3796 -0.2657  0.5098
 1460SOL    HW1 5821   6.935   2.932   1.148 -1.8395 -0.2738  2.5396
 1460SOL    HW2 5822   7.034   2.819   1.164 -1.5248 -0.4181  0.0788
 1461SOL     OW 5823   7.331   1.585   1.180  0.2173 -0.6757  0.1347
 1461SOL    HW1 5824   7.368   1.669   1.154 -0.4005  0.2843  2.0783
 1461SOL    HW2 5825   7.394   1.520   1.150  1.4435  0.5935 -0.1558
 1462SOL     OW 5826   2.546   2.437   1.094 -0.3977 -0.0190 -0.0268
 1462SOL    HW1 5827   2.553   2.488   1.013  0.6139  1.4524  0.9380
 1462SOL    HW2 5828   2.610   2.367   1.084 -0.3017  0.1338 -0.4985
 1463SOL     OW 5829   7.568   1.715  12.258 -0.3776 -0.0298  0.1342
 1463SOL    HW1 5830   7.575   1.620  12.273 -0.2914  0.0619  0.7139
 1463SOL    HW2 5831   7.636   1.753  12.314 -2.3436  0.5557  2.3112
 1464SOL     OW 5832   0.653   2.198  11.755  0.0683  0.0898  0.0036
 1464SOL    HW1 5833   0.578   2.139  11.760 -0.3599  0.5787 -0.5055
 1464SOL    HW2 5834   0.666   2.228  11.844 -0.3090 -0.0409  0.1056
 1465SOL     OW 5835   1.775   2.735  12.063  0.3019 -0.1605  0.1226
 1465SOL    HW1 5836   1.813   2.716  11.977  1.7895  1.9650  0.2138
 1465SOL    HW2 5837   1.722   2.658  12.084 -0.5508 -0.5402 -2.9213
 1466SOL     OW 5838   0.324   3.217   2.229 -0.1635  0.2587 -0.0307
 1466SOL    HW1 5839   0.291   3.244   2.143 -0.7217  1.6564  0.5899
 1466SOL    HW2 5840   0.254   3.163   2.265 -0.2975  0.3664 -0.1236
 1467SOL     OW 5841   2.037   1.398   1.112  0.3768  0.1364 -0.3238
 1467SOL    HW1 5842   2.131   1.383   1.104  0.3908  0.3706 -0.5987
 1467SOL    HW2 5843   1.999   1.310   1.122  0.4685 -0.0923 -1.7783
 1468SOL     OW 5844   3.060   2.602   3.142  0.3488 -0.3552 -0.3570
 1468SOL    HW1 5845   3.130   2.565   3.089  0.0837 -1.1262 -0.1788
 1468SOL    HW2 5846   2.980   2.561   3.109 -0.2513  1.6823 -1.6304
 1469SOL     OW 5847   1.512   2.816   1.433  0.1226  0.2525 -0.1572
 1469SOL    HW1 5848   1.549   2.790   1.517 -1.3114 -0.3234  0.3336
 1469SOL    HW2 5849   1.484   2.734   1.393 -0.9996  0.6910 -0.3025
 1470SOL     OW 5850   0.461   2.686  10.998 -0.4603 -0.4690 -0.1791
 1470SOL    HW1 5851   0.510   2.757  11.039  0.1549 -0.1616 -1.4135
 1470SOL    HW2 5852   0.494   2.607  11.040  0.8073 -0.2283 -0.6853
 1471SOL     OW 5853   7.704   4.387   0.790 -0.5154  0.0146  0.1951
 1471SOL    HW1 5854   7.709   4.303   0.746  0.6246  0.5155 -0.6802
 1471SOL    HW2 5855   7.704   4.452   0.719 -0.3247  0.7833  0.8766
 1472SOL     OW 5856   7.389   2.944   1.326  0.0086 -0.6083 -0.8264
 1472SOL    HW1 5857   7.370   2.851   1.313 -0.4221 -0.5777 -0.4355
 1472SOL    HW2 5858   7.484   2.947   1.338 -0.2459 -1.3333  1.8346
 1473SOL     OW 5859   0.941   2.675  11.831  0.0149  0.0883  0.6438
 1473SOL    HW1 5860   0.879   2.630  11.888 -0.3135  1.6850  1.6287
 1473SOL    HW2 5861   1.014   2.614  11.821 -2.2461 -2.4967 -1.7914
 1474SOL     OW 5862   7.957   2.504   3.556  0.0319  0.1481  0.2273
 1474SOL    HW1 5863   7.944   2.525   3.648 -1.2455 -1.4122  0.4350
 1474SOL    HW2 5864   7.942   2.410   3.550  0.2405  0.1956 -1.5496
 1475SOL     OW 5865   1.700   4.495   0.315  0.1946 -0.3070 -0.2993
 1475SOL    HW1 5866   1.727   4.555   0.246 -1.4728  0.4098 -0.3707
 1475SOL    HW2 5867   1.780   4.449   0.339  1.0457  0.2942 -1.8532
 1476SOL     OW 5868   6.794   1.109   2.104  0.2681  0.2621  0.6671
 1476SOL    HW1 5869   6.754   1.026   2.079  1.7854 -0.3166  0.0450
 1476SOL    HW2 5870   6.739   1.142   2.175 -1.9070  0.0517 -0.8251
 1477SOL     OW 5871   7.448   3.552   1.188  0.1565  0.5246 -0.6432
 1477SOL    HW1 5872   7.519   3.554   1.253  1.3918  0.7616 -1.9438
 1477SOL    HW2 5873   7.425   3.460   1.180  0.1686  0.4684 -0.0561
 1478SOL     OW 5874   7.749   3.998  12.363  1.0502 -0.8097  0.3883
 1478SOL    HW1 5875   7.666   3.967  12.326  1.8329 -0.2470 -2.0466
 1478SOL    HW2 5876   7.735   4.092  12.377  1.0847 -0.8316  0.5753
 1479SOL     OW 5877   2.643   1.839   2.427  0.1926 -0.2454  0.1345
 1479SOL    HW1 5878   2.648   1.825   2.333  3.3771  2.0592 -0.1876
 1479SOL    HW2 5879   2.616   1.754   2.462  0.6658 -1.6897 -2.7259
 1480SOL     OW 5880   7.882   2.212   1.907 -0.0122 -0.4257 -0.1404
 1480SOL    HW1 5881   7.820   2.243   1.841 -0.3584  1.8878  1.1445
 1480SOL    HW2 5882   7.827   2.183   1.980  0.3759 -0.2862  0.2125
 1481SOL     OW 5883   7.609   4.010  11.920  0.0198  0.6128 -0.8969
 1481SOL    HW1 5884   7.669   4.056  11.861  0.8832  1.3044  0.4509
 1481SOL    HW2 5885   7.523   4.019  11.880  0.7069  0.1501 -2.5624
 1482SOL     OW 5886   0.812   2.500   1.698  0.1580 -0.4488 -0.3398
 1482SOL    HW1 5887   0.762   2.495   1.616 -1.0628  1.2773  0.2237
 1482SOL    HW2 5888   0.892   2.547   1.674 -0.8084  1.2940 -0.3529
 1483SOL     OW 5889   1.640   1.887   0.153  0.0116 -0.1558 -0.0448
 1483SOL    HW1 5890   1.619   1.952   0.220 -0.6823 -0.0674 -0.3304
 1483SOL    HW2 5891   1.640   1.803   0.199  2.5570  0.1749  0.6646
 1484SOL     OW 5892   7.963   1.995   1.697 -0.1253 -0.3804  0.2450
 1484SOL    HW1 5893   7.956   2.062   1.765 -0.1883 -0.6224  0.4789
 1484SOL    HW2 5894   7.878   1.951   1.698 -0.5190  0.3140 -0.7300
 1485SOL     OW 5895   0.210   3.880  12.470 -0.0707 -0.0108 -0.0309
 1485SOL    HW1 5896   0.286   3.889  12.411  0.3687  1.1168  0.6796
 1485SOL    HW2 5897   0.247   3.887  12.558 -0.7175 -1.7268  0.4108
 1486SOL     OW 5898   7.961   3.361   0.300 -0.1875 -0.0489  0.0115
 1486SOL    HW1 5899   7.889   3.349   0.363 -0.8628  0.1134 -0.7141
 1486SOL    HW2 5900   7.975   3.273   0.264 -0.6992  0.0922 -0.5553
 1487SOL     OW 5901   0.972   2.245   0.790  0.6628 -0.4866 -0.2405
 1487SOL    HW1 5902   1.009   2.296   0.717  0.3040  1.2886  0.7493
 1487SOL    HW2 5903   1.045   2.235   0.851  0.3603  0.1802  0.2434
 1488SOL     OW 5904   7.535   1.571   0.380  0.7873  0.0995 -0.3734
 1488SOL    HW1 5905   7.495   1.658   0.390 -1.3020 -0.5471 -2.2711
 1488SOL    HW2 5906   7.599   1.566   0.451  0.9149  3.1384 -0.1563
 1489SOL     OW 5907   0.308   2.074   2.279 -0.1964  0.1721  0.2026
 1489SOL    HW1 5908   0.375   2.140   2.261 -0.4042  0.2389 -0.3310
 1489SOL    HW2 5909   0.357   2.000   2.316  0.1622  0.2540 -0.1019
 1490SOL     OW 5910   0.895   0.831   0.654  0.3175 -0.1928  0.3431
 1490SOL    HW1 5911   0.988   0.844   0.638  0.1692  1.7661  0.7724
 1490SOL    HW2 5912   0.891   0.775   0.731  1.1379 -0.2852  0.3216
 1491SOL     OW 5913   7.816   1.839   2.791 -0.2177 -0.1793 -0.2743
 1491SOL    HW1 5914   7.728   1.842   2.827  0.2380  3.2823  0.8880
 1491SOL    HW2 5915   7.865   1.782   2.851 -1.3009 -1.0898 -0.2200
 1492SOL     OW 5916   0.379   2.455  11.819 -0.3267 -0.5285 -0.0479
 1492SOL    HW1 5917   0.291   2.439  11.853 -0.6394  0.5726 -0.3140
 1492SOL    HW2 5918   0.387   2.397  11.743 -1.2155  0.1382 -0.6575
 1493SOL     OW 5919   1.306   0.864   2.889  0.4946  0.1147 -0.3489
 1493SOL    HW1 5920   1.308   0.928   2.960  0.2709 -1.0727  0.7644
 1493SOL    HW2 5921   1.397   0.834   2.881  0.1483 -1.5556  1.1913
 1494SOL     OW 5922   1.365   3.188   0.284 -0.0912 -0.1329  0.2039
 1494SOL    HW1 5923   1.389   3.279   0.302 -0.1529  0.1258 -0.9377
 1494SOL    HW2 5924   1.276   3.180   0.318 -0.2025  0.3238  0.0280
 1495SOL     OW 5925   6.653   0.602   2.108 -0.6182 -0.2203 -0.0589
 1495SOL    HW1 5926   6.576   0.546   2.113 -0.6668 -0.1219  0.3019
 1495SOL    HW2 5927   6.727   0.541   2.106 -0.7521 -0.3648 -1.8745
 1496SOL     OW 5928   2.331   0.869  12.159 -0.1604 -0.5901 -0.0776
 1496SOL    HW1 5929   2.402   0.878  12.222 -0.3983 -2.2743  0.4852
 1496SOL    HW2 5930   2.308   0.776  12.162 -2.3123 -0.1093 -0.3379
 1497SOL     OW 5931   1.327   3.021  12.012 -0.4534  0.1924  0.4773
 1497SOL    HW1 5932   1.327   3.104  12.060  1.8284 -0.4200  1.7006
 1497SOL    HW2 5933   1.289   2.958  12.074 -2.3562  0.2928 -0.5145
 1498SOL     OW 5934   1.619   1.863   1.891 -0.0942 -0.3018 -0.3730
 1498SOL    HW1 5935   1.658   1.942   1.854 -1.7710 -0.1827 -2.0324
 1498SOL    HW2 5936   1.532   1.890   1.920 -0.3729 -1.3482 -0.1755
 1499SOL     OW 5937   1.306   2.346   1.508 -0.1427 -0.0224  0.0325
 1499SOL    HW1 5938   1.334   2.391   1.429  0.1065 -2.7227 -1.5222
 1499SOL    HW2 5939   1.352   2.262   1.506 -1.7143 -1.0253  1.9823
 1500SOL     OW 5940   0.155   1.561   2.613  0.5800  0.2843  0.4607
 1500SOL    HW1 5941   0.218   1.620   2.654  0.7820  0.5793 -0.2681
 1500SOL    HW2 5942   0.134   1.602   2.530  0.3018 -0.3965  0.1896
 1501SOL     OW 5943   1.823   3.229   0.691  0.0337 -0.2719 -0.6324
 1501SOL    HW1 5944   1.910   3.259   0.666  0.2990  0.7380  1.3458
 1501SOL    HW2 5945   1.768   3.248   0.615  1.6549 -1.7275 -2.2495
 1502SOL     OW 5946   0.262   4.895   0.451 -0.2430 -0.2068 -0.2293
 1502SOL    HW1 5947   0.173   4.930   0.458 -0.8024 -1.2656 -1.5113
 1502SOL    HW2 5948   0.252   4.816   0.397  1.2394 -1.2731  0.9795
 1503SOL     OW 5949   1.449   2.318   1.245  0.0230 -0.4967  0.4826
 1503SOL    HW1 5950   1.531   2.283   1.209  0.3942 -0.1457  0.9698
 1503SOL    HW2 5951   1.394   2.242   1.259 -0.7434 -0.5791 -2.2558
 1504SOL     OW 5952   1.002   1.403   0.022  0.1121  0.1942  0.7762
 1504SOL    HW1 5953   0.909   1.395   0.045 -0.1321  0.8979  0.0739
 1504SOL    HW2 5954   1.005   1.472  -0.044  0.9492 -0.8270 -0.3065
 1505SOL     OW 5955   7.498   1.861  12.020 -0.3266 -0.3174 -0.1075
 1505SOL    HW1 5956   7.589   1.891  12.014 -0.9416  1.6280 -0.4195
 1505SOL    HW2 5957   7.500   1.792  12.087  1.0992  0.8880  1.1767
 1506SOL     OW 5958   6.776   2.180   2.540  0.1145  0.1645  0.3733
 1506SOL    HW1 5959   6.785   2.120   2.613 -2.2859  0.0193  0.6456
 1506SOL    HW2 5960   6.717   2.135   2.479  2.4584  0.0344 -1.9765
 1507SOL     OW 5961   0.314   1.714  11.286 -0.2371  0.5568  0.4298
 1507SOL    HW1 5962   0.360   1.637  11.253  0.5549  0.6454  1.3027
 1507SOL    HW2 5963   0.295   1.766  11.207  3.3545  1.7181  0.1821
 1508SOL     OW 5964   1.355   0.847  11.529 -0.1963 -0.1643  0.5429
 1508SOL    HW1 5965   1.289   0.910  11.499 -1.7645 -1.3230  1.4138
 1508SOL    HW2 5966   1.401   0.891  11.600  0.3476  0.8487 -0.4102
 1509SOL     OW 5967   2.591   2.826   2.007 -0.2200 -0.1180  0.2365
 1509SOL    HW1 5968   2.674   2.795   1.970  0.2416 -0.9725  1.9302
 1509SOL    HW2 5969   2.529   2.818   1.934  0.7698 -1.2257 -0.5243
 1510SOL     OW 5970   0.146   1.435   1.200 -0.1681  0.0492 -0.3398
 1510SOL    HW1 5971   0.173   1.510   1.254  1.2289 -1.7964  1.7166
 1510SOL    HW2 5972   0.192   1.448   1.117  1.3214  0.7148  0.5318
 1511SOL     OW 5973   0.999   1.456   0.354  0.3109  0.0188 -0.3338
 1511SOL    HW1 5974   0.916   1.430   0.315  0.7816  0.2425 -1.5438
 1511SOL    HW2 5975   1.001   1.413   0.439 -0.3441 -1.2815 -0.9534
 1512SOL     OW 5976   6.578   2.578  11.541  0.3077  0.2208  0.7575
 1512SOL    HW1 5977   6.521   2.504  11.562  1.6831 -1.6440 -1.6184
 1512SOL    HW2 5978   6.665   2.549  11.566  0.9393  0.7972 -0.6855
 1513SOL     OW 5979   1.830   2.975   2.644  0.2401 -0.6891 -0.1048
 1513SOL    HW1 5980   1.749   3.014   2.610  0.7379  1.5060  0.9951
 1513SOL    HW2 5981   1.900   3.013   2.590  0.7439 -0.0896  0.9363
 1514SOL     OW 5982   0.692   1.692   1.328 -0.0459 -0.3140 -0.2397
 1514SOL    HW1 5983   0.749   1.761   1.291 -1.0777  0.3254 -0.6882
 1514SOL    HW2 5984   0.688   1.626   1.259  0.4542 -0.5464 -0.0527
 1515SOL     OW 5985   1.213   2.558   0.513 -0.3184  0.1911  0.2448
 1515SOL    HW1 5986   1.146   2.494   0.537 -1.1538  1.4229  1.3754
 1515SOL    HW2 5987   1.167   2.642   0.517  1.6633  1.2724  2.6860
 1516SOL     OW 5988   0.660   2.148  11.448 -0.0817  0.8769  0.5295
 1516SOL    HW1 5989   0.653   2.187  11.536 -0.2018 -0.1507  0.9947
 1516SOL    HW2 5990   0.754   2.141  11.432  0.1097 -2.0789  2.0971
 1517SOL     OW 5991   7.865   4.753   0.034 -0.1559  0.5465  0.5194
 1517SOL    HW1 5992   7.912   4.670   0.033  0.0741  0.6722  0.6950
 1517SOL    HW2 5993   7.802   4.745   0.105 -0.1839  0.4966  0.4890
 1518SOL     OW 5994   1.474   2.635   0.584 -0.1423 -0.0210 -0.0391
 1518SOL    HW1 5995   1.402   2.580   0.556 -0.6128  0.1229  0.8392
 1518SOL    HW2 5996   1.545   2.615   0.523 -1.0557  0.1679 -1.1994
 1519SOL     OW 5997   1.752   1.722  12.217 -0.6145  0.4067  0.2610
 1519SOL    HW1 5998   1.684   1.711  12.151 -0.9293  0.4374  0.5734
 1519SOL    HW2 5999   1.717   1.676  12.294 -0.2115  0.2885  0.3733
 1520SOL     OW 6000   1.145   4.612   1.281 -0.1874 -0.1617  0.2668
 1520SOL    HW1 6001   1.203   4.603   1.357  2.0707  1.0508 -1.2184
 1520SOL    HW2 6002   1.165   4.535   1.227 -0.3286  0.0107 -0.0311
 1521SOL     OW 6003   0.598   5.219   1.985 -0.3571  0.6574 -0.4394
 1521SOL    HW1 6004   0.586   5.136   2.032  0.2661  0.2713 -0.9465
 1521SOL    HW2 6005   0.639   5.277   2.050  1.3326 -0.1510 -0.7120
 1522SOL     OW 6006   0.816   2.704  12.370 -0.4553 -0.0030  0.2616
 1522SOL    HW1 6007   0.737   2.670  12.413 -1.1982  0.0745 -0.9993
 1522SOL    HW2 6008   0.860   2.755  12.438  0.3431 -2.8433  2.0560
 1523SOL     OW 6009   6.591   3.621   1.545  0.3466  0.0911 -0.2709
 1523SOL    HW1 6010   6.669   3.650   1.497 -0.9129  2.7692 -0.8589
 1523SOL    HW2 6011   6.562   3.543   1.498  2.4051 -0.7535 -0.2722
 1524SOL     OW 6012   1.851   1.647   2.414 -0.3302  0.0953  0.4795
 1524SOL    HW1 6013   1.804   1.711   2.468  0.4224  0.8002  0.3227
 1524SOL    HW2 6014   1.931   1.693   2.387 -0.2371 -0.5861 -0.4330
 1525SOL     OW 6015   0.465   2.869  12.426 -0.3349  0.0933  0.2763
 1525SOL    HW1 6016   0.372   2.854  12.412  0.3794 -3.3931 -2.1055
 1525SOL    HW2 6017   0.508   2.796  12.382  3.6785  2.7103 -0.7101
 1526SOL     OW 6018   7.481   2.527   0.831  0.1621 -0.2348  0.0546
 1526SOL    HW1 6019   7.500   2.612   0.793 -0.4357 -0.2784 -0.3619
 1526SOL    HW2 6020   7.529   2.526   0.913  0.4468  0.3685 -0.1001
 1527SOL     OW 6021   1.520   1.416   1.135  0.5167 -0.0847 -0.4837
 1527SOL    HW1 6022   1.605   1.454   1.114  0.5794  0.7305  1.0742
 1527SOL    HW2 6023   1.462   1.446   1.065  1.3660 -0.0912 -1.1921
 1528SOL     OW 6024   2.272   4.501   2.292  0.7559  0.5254 -0.0406
 1528SOL    HW1 6025   2.308   4.412   2.287  1.1149  0.7004 -0.7501
 1528SOL    HW2 6026   2.179   4.488   2.310  1.0877  0.0590  1.5173
 1529SOL     OW 6027   0.326   2.475   1.836  0.0526 -0.2784  0.2367
 1529SOL    HW1 6028   0.256   2.525   1.794  0.2589 -0.5358 -0.4219
 1529SOL    HW2 6029   0.406   2.509   1.797  0.2733 -0.3116  0.6489
 1530SOL     OW 6030   0.853   1.615   1.642 -0.0137  0.0749  0.2344
 1530SOL    HW1 6031   0.857   1.590   1.735 -1.4985 -0.9235  0.0701
 1530SOL    HW2 6032   0.781   1.562   1.607  0.3743  0.6170 -1.4392
 1531SOL     OW 6033   1.303   2.951   0.077  0.4199  0.5933 -0.1519
 1531SOL    HW1 6034   1.374   2.935   0.014  0.7648  1.7230 -0.0633
 1531SOL    HW2 6035   1.348   2.965   0.160  0.0575  0.8233  0.0025
 1532SOL     OW 6036   6.945   3.549   1.632 -0.2265  0.3269  0.3292
 1532SOL    HW1 6037   7.007   3.522   1.699 -0.5228 -2.1891 -0.3359
 1532SOL    HW2 6038   6.859   3.525   1.666 -0.3271 -1.6990 -1.1662
 1533SOL     OW 6039   0.732   1.498   1.114 -0.4060 -0.2462  0.0446
 1533SOL    HW1 6040   0.710   1.404   1.114 -0.2019 -0.3194  1.2912
 1533SOL    HW2 6041   0.682   1.534   1.041 -1.5428 -1.1075  0.3645
 1534SOL     OW 6042   7.920   2.920   2.149 -0.0658  0.2115 -0.7041
 1534SOL    HW1 6043   7.869   2.998   2.129 -1.6577  0.4562  3.4016
 1534SOL    HW2 6044   8.007   2.953   2.173 -0.5531  0.7042  0.4286
 1535SOL     OW 6045   1.144   2.549   2.715  0.4311  0.6494 -0.3288
 1535SOL    HW1 6046   1.181   2.617   2.659 -0.1479  0.2282 -1.2302
 1535SOL    HW2 6047   1.059   2.583   2.742  0.6430  0.7844  0.1775
 1536SOL     OW 6048   1.167   1.853   1.102 -0.3375 -0.1721 -0.1172
 1536SOL    HW1 6049   1.084   1.837   1.057 -1.4693  0.2273  1.6864
 1536SOL    HW2 6050   1.175   1.781   1.164  1.3907 -0.9391 -1.1484
 1537SOL     OW 6051   0.103   1.929   0.519  0.0246 -0.3996  0.2669
 1537SOL    HW1 6052   0.144   2.013   0.499 -0.6233  0.0065  0.6066
 1537SOL    HW2 6053   0.021   1.953   0.564  0.5636 -1.2379  1.7421
 1538SOL     OW 6054   7.925   1.704   0.305 -0.0087 -0.1437  0.0413
 1538SOL    HW1 6055   7.877   1.776   0.347  0.0137  0.7575 -1.4240
 1538SOL    HW2 6056   7.940   1.641   0.376 -2.2775  0.0941  0.8145
 1539SOL     OW 6057   7.998   3.391   1.521 -0.0551 -0.3199  0.0240
 1539SOL    HW1 6058   7.997   3.444   1.441 -0.8747 -0.4113 -0.0387
 1539SOL    HW2 6059   8.061   3.435   1.578  0.2468 -0.0306 -0.5268
 1540SOL     OW 6060   7.579   3.502   2.695  0.7162  0.0836  0.2200
 1540SOL    HW1 6061   7.526   3.440   2.745  1.0807  0.7308  1.4498
 1540SOL    HW2 6062   7.517   3.569   2.667  0.3089 -0.8197 -1.1649
 1541SOL     OW 6063   1.703   3.754   1.378 -0.4266  0.8448  0.0854
 1541SOL    HW1 6064   1.790   3.783   1.406 -0.1315 -0.7092  0.8815
 1541SOL    HW2 6065   1.650   3.834   1.376  1.2780  2.0371 -1.5836
 1542SOL     OW 6066   0.809   2.042   0.690  0.0218  0.3635 -0.1694
 1542SOL    HW1 6067   0.870   1.992   0.636  0.4928 -0.3303  0.9631
 1542SOL    HW2 6068   0.860   2.119   0.716 -0.2361  0.7444 -0.7719
 1543SOL     OW 6069   1.302   2.060  11.570 -0.0918  0.4795  0.3365
 1543SOL    HW1 6070   1.380   2.048  11.516 -1.0449 -1.0028 -0.7896
 1543SOL    HW2 6071   1.296   2.155  11.582  0.6117  0.8038 -1.5046
 1544SOL     OW 6072   7.799   2.608   2.147  0.0063  0.3005 -0.5256
 1544SOL    HW1 6073   7.835   2.543   2.088  1.0230 -0.2108  0.6155
 1544SOL    HW2 6074   7.707   2.583   2.157  0.3263 -0.8393 -0.2921
 1545SOL     OW 6075   0.686   4.998   1.264 -0.5278 -0.0459  0.5242
 1545SOL    HW1 6076   0.711   5.078   1.312  0.0020  0.2559 -0.2332
 1545SOL    HW2 6077   0.769   4.956   1.244 -0.5928  0.7763 -1.7128
 1546SOL     OW 6078   0.147   2.243   2.044  0.0334 -0.3721 -0.1484
 1546SOL    HW1 6079   0.070   2.250   1.989 -0.6630 -3.1664  0.3125
 1546SOL    HW2 6080   0.114   2.212   2.128  1.6292 -1.9425 -0.0317
 1547SOL     OW 6081   7.965   3.660   2.390 -0.3626  0.2180  0.1955
 1547SOL    HW1 6082   8.029   3.622   2.331 -1.8929 -3.2604  0.5310
 1547SOL    HW2 6083   7.882   3.652   2.344 -1.0449  1.3091  1.1710
 1548SOL     OW 6084   2.340   2.184   1.369  0.2862  0.8585 -1.1521
 1548SOL    HW1 6085   2.400   2.258   1.380 -0.7118  1.4409  0.7388
 1548SOL    HW2 6086   2.260   2.210   1.414 -0.3009 -1.1352 -0.9361
 1549SOL     OW 6087   1.931   0.778  11.872  0.2706  0.2320  0.3471
 1549SOL    HW1 6088   2.022   0.804  11.857  0.8385 -0.4152  2.3993
 1549SOL    HW2 6089   1.918   0.703  11.814  0.6157  1.0897 -0.8879
 1550SOL     OW 6090   2.712   1.853   0.647  0.0674  0.2869 -0.0893
 1550SOL    HW1 6091   2.703   1.763   0.615  0.1557 -0.0736  0.8649
 1550SOL    HW2 6092   2.806   1.872   0.640  0.4077 -0.4988  1.7213
 1551SOL     OW 6093   7.981   0.721   1.413  0.8393 -0.1416  0.0301
 1551SOL    HW1 6094   8.048   0.777   1.452  1.0199 -0.8491  0.7739
 1551SOL    HW2 6095   7.909   0.722   1.476  1.6436 -2.3256  1.0926
 1552SOL     OW 6096   1.111   1.476   1.473  0.0226  0.1953  0.2531
 1552SOL    HW1 6097   1.188   1.459   1.526 -0.6743 -1.7367  0.7254
 1552SOL    HW2 6098   1.043   1.500   1.536 -0.3710 -0.4744  0.0943
 1553SOL     OW 6099   1.153   2.121   0.964  0.7874  0.4624 -0.0011
 1553SOL    HW1 6100   1.084   2.057   0.983  3.6040 -3.0793 -0.4647
 1553SOL    HW2 6101   1.181   2.152   1.050  1.9681 -2.1056  0.6281
 1554SOL     OW 6102   7.804   3.157   2.381 -0.1123  0.3927  0.4578
 1554SOL    HW1 6103   7.865   3.231   2.375  0.9300 -0.5480 -1.6779
 1554SOL    HW2 6104   7.744   3.170   2.308 -0.3993 -0.4639  0.5282
 1555SOL     OW 6105   7.674   2.931   0.497  0.1146 -0.2620  0.4825
 1555SOL    HW1 6106   7.712   2.866   0.438 -0.1503 -1.1358  1.2554
 1555SOL    HW2 6107   7.684   2.893   0.585 -2.2217 -0.3976  0.7554
 1556SOL     OW 6108   0.027   4.042   0.527 -0.3858  0.5837  0.0045
 1556SOL    HW1 6109  -0.038   4.076   0.588 -1.3088 -0.9590 -0.0689
 1556SOL    HW2 6110   0.068   3.968   0.573 -0.9286 -0.4537 -1.1076
 1557SOL     OW 6111   0.371   2.975   0.362  0.4063  0.2773 -0.0435
 1557SOL    HW1 6112   0.425   2.904   0.329 -0.9816 -0.2647 -1.2694
 1557SOL    HW2 6113   0.433   3.044   0.386  1.7339 -1.0585  0.5241
 1558SOL     OW 6114   0.892   1.926   0.993  0.3105 -0.4400 -0.2299
 1558SOL    HW1 6115   0.815   1.978   0.968  1.6849  2.0458  0.3696
 1558SOL    HW2 6116   0.878   1.906   1.086  0.7182  0.7463  0.1097
 1559SOL     OW 6117   7.228   2.408   2.550 -0.4149 -0.6249  0.3185
 1559SOL    HW1 6118   7.229   2.357   2.470 -0.5895  1.1654 -0.8761
 1559SOL    HW2 6119   7.320   2.429   2.567 -0.5282  0.7576 -0.6288
 1560SOL     OW 6120   0.576   3.035   2.595 -0.2230  0.7862 -0.0257
 1560SOL    HW1 6121   0.487   3.026   2.630  1.0464  0.2617  3.3521
 1560SOL    HW2 6122   0.602   3.125   2.616  0.5444  0.4970  0.2869
 1561SOL     OW 6123   1.594   4.165   1.628 -0.9364 -0.2387  0.2972
 1561SOL    HW1 6124   1.522   4.208   1.582 -0.2737  1.1467  0.4900
 1561SOL    HW2 6125   1.672   4.190   1.578 -0.7003 -3.3642 -1.1430
 1562SOL     OW 6126   0.460   1.260   1.021  0.0760  0.1883  0.7401
 1562SOL    HW1 6127   0.408   1.179   1.016  1.0871 -0.6614  2.9658
 1562SOL    HW2 6128   0.395   1.330   1.011 -1.0842 -0.8628  0.6154
 1563SOL     OW 6129   2.215   2.283   0.552  0.0382  0.2772 -0.0693
 1563SOL    HW1 6130   2.260   2.199   0.558 -0.6813 -0.0463  1.0099
 1563SOL    HW2 6131   2.193   2.292   0.459  0.4506 -0.5443 -0.2531
 1564SOL     OW 6132   0.737   2.526   0.723 -0.0743  0.1167  0.2224
 1564SOL    HW1 6133   0.646   2.530   0.752  0.1122 -0.3317  0.8856
 1564SOL    HW2 6134   0.736   2.462   0.651 -0.3928  0.6057 -0.2123
 1565SOL     OW 6135   0.278   4.421   1.502  0.3970 -0.0688 -0.1875
 1565SOL    HW1 6136   0.185   4.431   1.522  0.2772 -0.2534 -0.6374
 1565SOL    HW2 6137   0.321   4.490   1.551 -0.0620  0.5350 -0.6194
 1566SOL     OW 6138   1.633   1.777   0.696  0.7416 -0.3166 -0.2079
 1566SOL    HW1 6139   1.681   1.733   0.626  0.8977  0.4764 -0.6102
 1566SOL    HW2 6140   1.700   1.829   0.741  1.0103 -2.1073  1.6380
 1567SOL     OW 6141   0.663   3.418   0.357 -0.1844 -0.1678 -0.4321
 1567SOL    HW1 6142   0.606   3.343   0.337 -0.0042 -0.3280 -0.3411
 1567SOL    HW2 6143   0.602   3.489   0.378 -0.3602 -0.2373 -0.7021
 1568SOL     OW 6144   0.875   2.216   1.230 -0.2175 -0.0952 -0.1026
 1568SOL    HW1 6145   0.801   2.258   1.184  0.2667 -0.4075 -1.2042
 1568SOL    HW2 6146   0.835   2.171   1.304 -1.0655  0.2207 -0.3548
 1569SOL     OW 6147   1.056   3.256  12.369  0.3717 -0.2598  0.5818
 1569SOL    HW1 6148   1.047   3.351  12.382 -1.8067 -0.3664  0.1997
 1569SOL    HW2 6149   0.988   3.234  12.305 -0.1115 -2.2997  1.7220
 1570SOL     OW 6150   1.541   4.953   2.686  0.2495 -0.0925  0.1531
 1570SOL    HW1 6151   1.519   5.016   2.617  0.6646 -0.5116 -0.3722
 1570SOL    HW2 6152   1.530   5.001   2.768  1.3081  0.8958 -0.2650
 1571SOL     OW 6153   0.695   2.989   0.688 -0.1485 -0.2232 -0.3246
 1571SOL    HW1 6154   0.622   2.935   0.717  0.0450  0.8393  2.3835
 1571SOL    HW2 6155   0.664   3.079   0.697  0.8044  0.2176 -1.1657
 1572SOL     OW 6156   1.246   5.302   1.597  0.4230  0.2878 -0.6073
 1572SOL    HW1 6157   1.251   5.337   1.686 -0.2470 -2.8508  0.7846
 1572SOL    HW2 6158   1.328   5.329   1.556  1.5002  0.4476  1.5312
 1573SOL     OW 6159   1.338   1.010   1.550  0.6445 -0.2830 -0.0897
 1573SOL    HW1 6160   1.281   0.935   1.537  1.5902 -1.3391  1.5791
 1573SOL    HW2 6161   1.279   1.081   1.575 -0.0835 -0.9276  0.0529
 1574SOL     OW 6162   1.398   0.861   0.309 -0.0501 -0.0561  0.3465
 1574SOL    HW1 6163   1.451   0.917   0.367  0.6924  0.2578 -0.6047
 1574SOL    HW2 6164   1.412   0.773   0.342  0.7597  0.0670  0.3541
 1575SOL     OW 6165   3.106   2.991  12.083  0.4110  0.2136 -0.4502
 1575SOL    HW1 6166   3.154   3.069  12.057  0.6816  0.2206  0.0635
 1575SOL    HW2 6167   3.016   3.009  12.058  0.2501  1.1944  0.7608
 1576SOL     OW 6168   7.289   4.733   1.721  0.3819  0.1170 -0.1120
 1576SOL    HW1 6169   7.238   4.793   1.666  2.1001 -0.5728 -2.6465
 1576SOL    HW2 6170   7.230   4.659   1.737 -0.7006  1.0627  0.4170
 1577SOL     OW 6171   7.908   2.919   2.458 -0.3433  0.1148 -0.2822
 1577SOL    HW1 6172   7.888   3.005   2.422  0.5043  0.4554  0.0140
 1577SOL    HW2 6173   7.969   2.938   2.530  0.9184 -0.8214 -1.0646
 1578SOL     OW 6174   0.667   2.471   1.471  0.0701 -0.1160  0.0247
 1578SOL    HW1 6175   0.628   2.557   1.487 -2.0194 -0.8801 -0.6116
 1578SOL    HW2 6176   0.664   2.461   1.376  0.5871 -0.7838  0.0732
 1579SOL     OW 6177   0.355   4.212   0.161 -0.2149 -0.8705  0.0212
 1579SOL    HW1 6178   0.404   4.137   0.197  0.8881 -0.6619 -1.0103
 1579SOL    HW2 6179   0.402   4.236   0.081 -0.0855  1.4281  0.7200
 1580SOL     OW 6180   0.557   2.263   1.657  0.6996  0.2068  0.0301
 1580SOL    HW1 6181   0.622   2.333   1.647  0.4345  0.3455 -0.7632
 1580SOL    HW2 6182   0.481   2.294   1.608 -0.3408  0.4874  1.7447
 1581SOL     OW 6183   2.441   2.145   0.106 -0.1183 -0.5071  0.2247
 1581SOL    HW1 6184   2.524   2.173   0.066 -0.2411  0.1410  0.4129
 1581SOL    HW2 6185   2.453   2.163   0.200 -1.9332  3.5499 -0.1217
 1582SOL     OW 6186   1.520   0.581   0.815 -0.3374  0.2099 -0.2471
 1582SOL    HW1 6187   1.558   0.567   0.728 -0.1195 -2.0696  0.1378
 1582SOL    HW2 6188   1.595   0.594   0.873 -0.3853  0.1801 -0.1776
 1583SOL     OW 6189   7.773   3.547  11.427 -0.1795  0.5604 -0.3277
 1583SOL    HW1 6190   7.684   3.578  11.444  0.0662  1.3367 -0.4052
 1583SOL    HW2 6191   7.768   3.452  11.440 -1.2614  0.4480 -1.4109
 1584SOL     OW 6192   0.944   2.667   0.599  0.1391 -0.1759  0.1498
 1584SOL    HW1 6193   0.875   2.609   0.631 -0.9632  0.9226 -0.1672
 1584SOL    HW2 6194   0.907   2.707   0.520  1.1501  0.4204 -0.0470
 1585SOL     OW 6195   1.792   2.250   1.285 -0.1154  0.2018  0.4719
 1585SOL    HW1 6196   1.816   2.329   1.334  3.1250 -0.2554 -0.1687
 1585SOL    HW2 6197   1.778   2.281   1.196 -0.0558  0.2277  0.4712
 1586SOL     OW 6198   6.907   4.170   1.056  0.0270  0.4113 -0.0330
 1586SOL    HW1 6199   6.971   4.147   0.988  2.0835  0.9100  1.6411
 1586SOL    HW2 6200   6.891   4.263   1.044 -1.7982 -0.0057 -1.4918
 1587SOL     OW 6201   2.124   5.004   1.905  0.0912 -0.1708 -0.2604
 1587SOL    HW1 6202   2.144   4.956   1.986  0.9903  0.3768 -0.1406
 1587SOL    HW2 6203   2.038   4.973   1.880  0.9508 -2.4769 -0.6438
 1588SOL     OW 6204   1.549   1.198   0.311 -0.1516 -0.5933  0.9413
 1588SOL    HW1 6205   1.541   1.143   0.389  0.8361  1.2317  2.4225
 1588SOL    HW2 6206   1.495   1.275   0.331  0.5149  0.1265  0.0507
 1589SOL     OW 6207   0.834   1.391   1.371  0.0464  0.3418 -0.6253
 1589SOL    HW1 6208   0.777   1.390   1.448  0.2909 -0.3562 -0.4502
 1589SOL    HW2 6209   0.775   1.373   1.297  0.1729 -1.4733 -0.3361
 1590SOL     OW 6210   2.629   2.552   0.873  0.4078  0.1824  0.0571
 1590SOL    HW1 6211   2.721   2.570   0.888  1.5389 -2.0707 -3.2422
 1590SOL    HW2 6212   2.628   2.473   0.819 -3.4876 -0.0131  0.1325
 1591SOL     OW 6213   0.603   3.855   1.479 -0.2032  0.0536  0.2558
 1591SOL    HW1 6214   0.632   3.783   1.535 -1.1504 -0.0626  0.6315
 1591SOL    HW2 6215   0.664   3.926   1.497  0.5818 -0.5620  0.0829
 1592SOL     OW 6216   7.498   1.802  11.328 -0.2724  0.6308  0.1722
 1592SOL    HW1 6217   7.537   1.746  11.395  3.1775  1.5889 -0.8198
 1592SOL    HW2 6218   7.498   1.748  11.249 -2.0370  0.3286  0.3311
 1593SOL     OW 6219   0.880   1.405   2.477 -0.5391  0.0297  0.3308
 1593SOL    HW1 6220   0.799   1.456   2.479 -0.2787  0.6071 -1.8058
 1593SOL    HW2 6221   0.948   1.468   2.500 -0.5638 -0.1904  1.0278
 1594SOL     OW 6222   7.899   3.312  11.650  0.1400 -0.2506 -0.3782
 1594SOL    HW1 6223   7.976   3.257  11.669 -0.2263 -1.3969 -2.0127
 1594SOL    HW2 6224   7.829   3.273  11.702  0.2267 -0.4171 -0.3836
 1595SOL     OW 6225   0.562   0.920   1.121  0.8173  0.0553  0.0292
 1595SOL    HW1 6226   0.635   0.923   1.060  1.6790  0.5556  1.0562
 1595SOL    HW2 6227   0.592   0.970   1.197 -0.1331 -0.7625  0.9674
 1596SOL     OW 6228   1.044   2.707   1.588  0.3001 -0.6286  0.3502
 1596SOL    HW1 6229   1.060   2.702   1.494  1.1215  0.3216  0.4188
 1596SOL    HW2 6230   1.079   2.625   1.623 -0.9998 -1.4878 -0.2748
 1597SOL     OW 6231   0.839   2.189   0.403  0.0579 -0.4071  0.0773
 1597SOL    HW1 6232   0.785   2.224   0.474 -0.1137 -2.2373  0.9091
 1597SOL    HW2 6233   0.796   2.107   0.378  0.1904  0.1109 -2.0837
 1598SOL     OW 6234   0.592   3.076   0.104  0.1760  0.3302 -0.1284
 1598SOL    HW1 6235   0.555   3.016   0.040 -0.2216  0.5937 -0.1474
 1598SOL    HW2 6236   0.621   3.151   0.053 -1.7370  1.3332  0.1552
 1599SOL     OW 6237   0.328   3.327   0.833 -0.0686  0.0247  0.2967
 1599SOL    HW1 6238   0.320   3.376   0.915  0.3492 -1.1298  1.0502
 1599SOL    HW2 6239   0.240   3.331   0.795 -0.6703 -0.6605  1.5397
 1600SOL     OW 6240   0.538   2.526   1.220  0.0989 -0.1467 -0.3128
 1600SOL    HW1 6241   0.554   2.462   1.150  0.0490  1.0296 -1.4435
 1600SOL    HW2 6242   0.443   2.533   1.225  0.1019  0.8068 -1.1534
 1601SOL     OW 6243   0.331   3.643   2.483  0.0318  0.3373  0.4052
 1601SOL    HW1 6244   0.283   3.564   2.459 -1.1884  0.6267  1.7249
 1601SOL    HW2 6245   0.277   3.683   2.551  2.2301  0.6040  2.0946
 1602SOL     OW 6246   1.375   4.017   1.792 -0.1802  0.4436 -0.3185
 1602SOL    HW1 6247   1.355   4.078   1.863  1.0737  0.1994  0.2669
 1602SOL    HW2 6248   1.452   4.054   1.749  0.0849 -0.2883 -0.4899
 1603SOL     OW 6249   7.384   3.088   1.683  0.0914 -0.1471  0.3497
 1603SOL    HW1 6250   7.401   3.068   1.591  0.9408 -1.9003  0.8591
 1603SOL    HW2 6251   7.298   3.130   1.683  0.2391  0.2018 -1.2750
 1604SOL     OW 6252   2.185   2.355   1.501  0.0744  0.0698  0.2252
 1604SOL    HW1 6253   2.241   2.423   1.464  1.1723 -0.7252  0.3943
 1604SOL    HW2 6254   2.098   2.396   1.507  0.6947  1.4186  0.2487
 1605SOL     OW 6255   1.207   1.635   2.045  0.5118 -0.8062  0.8831
 1605SOL    HW1 6256   1.208   1.574   1.971  0.6149  0.7966 -0.5002
 1605SOL    HW2 6257   1.132   1.608   2.097  0.6669 -2.2169  0.4238
 1606SOL     OW 6258   7.292   2.884  12.125  0.2187 -0.0790 -0.2109
 1606SOL    HW1 6259   7.313   2.837  12.205 -0.5160 -0.8699 -0.4628
 1606SOL    HW2 6260   7.214   2.935  12.146  1.9163  2.3605  0.5425
 1607SOL     OW 6261   1.060   2.384   1.938  0.0183  0.0581  0.7496
 1607SOL    HW1 6262   1.141   2.365   1.986  0.2208 -1.0789  0.0009
 1607SOL    HW2 6263   1.001   2.419   2.004  0.3653 -1.2430  1.8095
 1608SOL     OW 6264   0.885   4.244   0.607 -0.6838  0.0521 -0.0242
 1608SOL    HW1 6265   0.842   4.159   0.616  0.8645 -0.7196  0.4956
 1608SOL    HW2 6266   0.856   4.294   0.684  1.7969 -1.6429  2.1936
 1609SOL     OW 6267   0.882   3.765  11.007  0.3730  0.0616 -0.3531
 1609SOL    HW1 6268   0.884   3.807  11.093 -0.1738 -0.1581 -0.2287
 1609SOL    HW2 6269   0.835   3.682  11.022 -0.8534  0.5910 -1.1011
 1610SOL     OW 6270   0.335   3.818   0.440  0.1809  0.4458  0.7370
 1610SOL    HW1 6271   0.362   3.846   0.528  0.5769 -1.1842  1.1649
 1610SOL    HW2 6272   0.245   3.850   0.431  0.2020  0.7858  1.6626
 1611SOL     OW 6273   2.128   4.129   1.258  0.1380 -0.5946  0.0748
 1611SOL    HW1 6274   2.181   4.083   1.323  2.2306  0.4478 -0.7811
 1611SOL    HW2 6275   2.051   4.160   1.306  0.3988 -1.9408  1.4421
 1612SOL     OW 6276   7.996   2.497   0.296 -0.2065  0.0204  0.0191
 1612SOL    HW1 6277   7.987   2.402   0.289 -0.5564  0.0899 -0.5676
 1612SOL    HW2 6278   7.942   2.532   0.225 -0.4350  0.6739  0.4971
 1613SOL     OW 6279   7.748   2.108   2.475 -0.0849 -0.0920  0.2337
 1613SOL    HW1 6280   7.809   2.035   2.468  0.2882  0.2763 -0.4923
 1613SOL    HW2 6281   7.721   2.126   2.384 -0.6484  0.2739  0.4631
 1614SOL     OW 6282   7.148   4.313   1.138 -0.2563  0.3326  0.2535
 1614SOL    HW1 6283   7.193   4.312   1.053 -1.4974  0.8037 -0.4431
 1614SOL    HW2 6284   7.207   4.361   1.196  0.4368  0.3441 -0.4433
 1615SOL     OW 6285   7.338   4.470   1.260  0.5330  0.6515  0.3228
 1615SOL    HW1 6286   7.348   4.546   1.202 -0.4628  0.8674  0.4108
 1615SOL    HW2 6287   7.326   4.509   1.347  1.4093  0.3467  0.5842
 1616SOL     OW 6288   2.013   3.887   1.901 -0.5778 -0.2971 -0.2622
 1616SOL    HW1 6289   1.953   3.869   1.828 -2.5775 -1.5188  1.5412
 1616SOL    HW2 6290   2.090   3.833   1.883 -1.2855 -1.0402 -1.1817
 1617SOL     OW 6291   0.867   0.849   1.412 -0.2882  0.2231 -0.0190
 1617SOL    HW1 6292   0.930   0.794   1.365  0.4597  2.1039 -1.3334
 1617SOL    HW2 6293   0.861   0.809   1.499  0.1636 -1.9360 -0.8999
 1618SOL     OW 6294   0.456   0.542   1.510  0.2351  0.3032  0.6404
 1618SOL    HW1 6295   0.536   0.501   1.477  0.3508 -0.3022  1.6353
 1618SOL    HW2 6296   0.487   0.614   1.564  0.0611  0.9933 -0.1737
 1619SOL     OW 6297   0.489   5.127   1.084  0.1694 -0.1861 -0.4481
 1619SOL    HW1 6298   0.529   5.079   1.157 -0.1983  0.3588  0.1216
 1619SOL    HW2 6299   0.534   5.212   1.084 -0.3898  0.1121 -0.3448
 1620SOL     OW 6300   0.403   3.714   0.865 -0.2885  0.4128  0.5469
 1620SOL    HW1 6301   0.388   3.798   0.823 -1.3961  0.5836  1.2435
 1620SOL    HW2 6302   0.498   3.704   0.866 -0.1622  1.4903  0.1423
 1621SOL     OW 6303   0.487   3.140   0.981 -0.1491  0.2476 -0.1100
 1621SOL    HW1 6304   0.473   3.157   0.888 -0.8639 -1.5295 -0.3763
 1621SOL    HW2 6305   0.577   3.167   0.997 -0.5816  2.3131 -0.8431
 1622SOL     OW 6306   7.972   1.900   2.330 -0.1957 -0.0882  0.1640
 1622SOL    HW1 6307   8.015   1.923   2.248 -0.5183 -1.8791 -0.5420
 1622SOL    HW2 6308   8.021   1.948   2.397 -0.7072  2.4379 -1.1318
 1623SOL     OW 6309   1.263   0.285   1.567 -0.6937  0.0701 -0.3972
 1623SOL    HW1 6310   1.351   0.297   1.532 -0.4603 -1.6407 -0.4804
 1623SOL    HW2 6311   1.276   0.264   1.659 -0.8552 -1.9099 -0.7779
 1624SOL     OW 6312   0.523   2.444  11.109 -0.1841 -0.4348  0.1148
 1624SOL    HW1 6313   0.450   2.405  11.157 -1.2476  0.7258 -0.5311
 1624SOL    HW2 6314   0.578   2.482  11.178 -0.4569 -0.8416  0.5681
 1625SOL     OW 6315   0.249   2.759   2.085 -0.1395  0.1415 -1.0052
 1625SOL    HW1 6316   0.286   2.675   2.114  1.9251  0.8896 -1.2801
 1625SOL    HW2 6317   0.187   2.735   2.016  3.0310 -1.0963 -3.7078
 1626SOL     OW 6318   0.622   2.064   2.143 -0.2612  0.3398  0.7117
 1626SOL    HW1 6319   0.541   2.013   2.143 -1.6854  2.3884 -1.2268
 1626SOL    HW2 6320   0.592   2.155   2.146  2.1021  1.1565  2.5592
 1627SOL     OW 6321   0.511   2.742   0.232  0.2946  0.1229  0.1248
 1627SOL    HW1 6322   0.428   2.705   0.262  0.5940  0.7521  1.8775
 1627SOL    HW2 6323   0.532   2.693   0.153 -0.4761 -1.8053  1.0464
 1628SOL     OW 6324   1.455   2.087   2.185  0.2456 -0.7894  0.0250
 1628SOL    HW1 6325   1.447   2.081   2.090  3.0391  0.7570 -0.4102
 1628SOL    HW2 6326   1.539   2.047   2.205  1.3149  1.9083  1.3831
 1629SOL     OW 6327   7.767   1.864   0.465  0.1439 -0.2996 -0.4496
 1629SOL    HW1 6328   7.698   1.871   0.530 -0.2450 -0.2906 -0.8563
 1629SOL    HW2 6329   7.806   1.951   0.460  1.8756 -0.8712  1.5825
 1630SOL     OW 6330   0.753   4.447  12.327 -0.1608  0.2388 -0.1628
 1630SOL    HW1 6331   0.747   4.369  12.273 -1.6516 -0.0175  0.3262
 1630SOL    HW2 6332   0.787   4.416  12.411 -2.1086 -0.1743  0.5119
 1631SOL     OW 6333   5.551   3.928   2.669 -0.4381  0.3267 -0.0026
 1631SOL    HW1 6334   5.479   3.950   2.727 -0.8234 -0.7719 -0.0402
 1631SOL    HW2 6335   5.593   3.852   2.710  0.7116  0.9577  0.0268
 1632SOL     OW 6336   7.001   2.053   3.277 -0.0697  0.5095  0.1318
 1632SOL    HW1 6337   6.992   2.084   3.187  1.9660 -0.9236 -0.6294
 1632SOL    HW2 6338   6.958   1.967   3.278 -1.1973  1.0466  0.9051
 1633SOL     OW 6339   0.564   1.253   2.819 -0.6713  0.5513  0.5497
 1633SOL    HW1 6340   0.488   1.301   2.787 -1.4895 -1.0686 -0.0701
 1633SOL    HW2 6341   0.639   1.305   2.791 -1.4752  0.8809 -1.1531
 1634SOL     OW 6342   2.257   3.448   2.756  0.5665  0.6575  0.6225
 1634SOL    HW1 6343   2.178   3.494   2.728 -0.8127 -0.9858  1.6290
 1634SOL    HW2 6344   2.299   3.421   2.674 -0.1093  1.2292  0.0743
 1635SOL     OW 6345   0.847   1.675   2.947  0.2805 -0.0360  0.8093
 1635SOL    HW1 6346   0.890   1.613   3.006 -1.4767 -2.3558 -0.1435
 1635SOL    HW2 6347   0.832   1.753   3.000  1.9527 -0.6831  2.3247
 1636SOL     OW 6348   1.430   2.318   3.263 -0.8119  0.3296  0.4387
 1636SOL    HW1 6349   1.438   2.382   3.192  1.5795 -0.7936 -0.4199
 1636SOL    HW2 6350   1.515   2.321   3.307 -0.7926 -1.8933  0.6521
 1637SOL     OW 6351   1.186   1.481   4.148 -0.2408 -0.0204  0.0471
 1637SOL    HW1 6352   1.192   1.571   4.116  0.7059  0.6682  1.9815
 1637SOL    HW2 6353   1.151   1.432   4.075  0.0107  1.7717 -1.3530
 1638SOL     OW 6354   7.078   1.651   4.222 -0.0026 -0.0415  0.3700
 1638SOL    HW1 6355   7.003   1.663   4.164  0.7514  0.0457 -0.6055
 1638SOL    HW2 6356   7.040   1.646   4.310 -1.1299  0.1544 -0.0957
 1639SOL     OW 6357   7.724   2.929   3.749 -0.0898 -0.2647 -0.8213
 1639SOL    HW1 6358   7.806   2.902   3.792  0.1454 -3.1381 -2.8234
 1639SOL    HW2 6359   7.657   2.916   3.816  0.8260  0.1034  0.1974
 1640SOL     OW 6360   0.717   3.703   4.449 -0.3813 -0.0851  0.1593
 1640SOL    HW1 6361   0.629   3.735   4.428 -1.1695 -2.5356 -0.6342
 1640SOL    HW2 6362   0.703   3.633   4.512  1.2763  1.0878  1.9669
 1641SOL     OW 6363   7.586   1.776   2.883 -0.0749  0.1132 -0.2486
 1641SOL    HW1 6364   7.556   1.808   2.969 -0.4407  0.9389 -0.6701
 1641SOL    HW2 6365   7.582   1.681   2.890 -1.9311  0.1670  0.0261
 1642SOL     OW 6366   0.528   3.398   3.090  0.0692 -0.0685  0.6483
 1642SOL    HW1 6367   0.589   3.471   3.100 -0.0451  0.2526 -0.8509
 1642SOL    HW2 6368   0.480   3.418   3.010  0.0471 -1.8032  0.2008
 1643SOL     OW 6369   7.903   3.606   4.287  0.1635 -0.0542  0.2395
 1643SOL    HW1 6370   7.984   3.640   4.249  0.7521 -1.0311  0.5858
 1643SOL    HW2 6371   7.920   3.602   4.381 -0.0979 -0.7408  0.2633
 1644SOL     OW 6372   1.893   2.107   2.432 -0.2219  0.4443 -0.5820
 1644SOL    HW1 6373   1.911   2.019   2.464 -0.4736  0.2332 -1.0063
 1644SOL    HW2 6374   1.945   2.115   2.353 -0.6539  0.4568 -0.8688
 1645SOL     OW 6375   6.542   2.339   2.806 -0.3711  0.0783 -0.0073
 1645SOL    HW1 6376   6.545   2.350   2.901  1.5903  0.7743 -0.1008
 1645SOL    HW2 6377   6.530   2.428   2.772 -0.4680 -0.0951 -0.4349
 1646SOL     OW 6378   0.779   3.781   4.175  0.1731  0.8441  0.1671
 1646SOL    HW1 6379   0.735   3.865   4.167 -0.3805  0.5203 -0.2819
 1646SOL    HW2 6380   0.844   3.780   4.105 -0.5176  0.4861 -0.4742
 1647SOL     OW 6381   6.697   5.693   1.220  0.5801  0.0238 -0.4092
 1647SOL    HW1 6382   6.614   5.701   1.173 -0.2105 -0.8111  0.7753
 1647SOL    HW2 6383   6.693   5.606   1.261  2.5223 -0.5039 -1.1914
 1648SOL     OW 6384   7.619   2.762   2.337 -0.0239 -0.5546 -0.6630
 1648SOL    HW1 6385   7.569   2.833   2.378 -0.3507 -0.8028 -0.6236
 1648SOL    HW2 6386   7.562   2.686   2.344  0.4783 -0.9108 -0.3673
 1649SOL     OW 6387   0.173   2.903   3.219 -0.2022 -0.1641 -0.0534
 1649SOL    HW1 6388   0.209   2.939   3.300  0.1820  0.5331 -0.5198
 1649SOL    HW2 6389   0.161   2.810   3.237 -0.8370  0.1141  1.0525
 1650SOL     OW 6390   2.104   3.462   1.058  0.2302 -0.1557  0.0888
 1650SOL    HW1 6391   2.121   3.392   1.122  0.8010  0.2166  0.3546
 1650SOL    HW2 6392   2.077   3.415   0.979 -0.0457 -0.6463  0.4647
 1651SOL     OW 6393   1.344   1.599   3.781  0.2101 -0.3871 -0.5183
 1651SOL    HW1 6394   1.278   1.620   3.848  1.4936  0.9884  0.3717
 1651SOL    HW2 6395   1.311   1.642   3.702 -0.2503 -0.1957 -0.2328
 1652SOL     OW 6396   7.586   3.137   3.577  0.1312  0.4352 -0.7352
 1652SOL    HW1 6397   7.635   3.109   3.654  0.2064 -0.1368 -0.9830
 1652SOL    HW2 6398   7.613   3.076   3.508  1.5811  2.1262 -1.7555
 1653SOL     OW 6399   0.133   3.801   1.963  0.1233 -0.6514  0.8483
 1653SOL    HW1 6400   0.042   3.822   1.943  0.2406  0.7949  1.6994
 1653SOL    HW2 6401   0.146   3.832   2.053  1.4898 -0.7208  0.7028
 1654SOL     OW 6402   6.894   4.306   1.999  0.1733  0.1350 -0.0418
 1654SOL    HW1 6403   6.960   4.337   2.062  1.0091 -0.1174 -0.7639
 1654SOL    HW2 6404   6.946   4.261   1.932 -0.7490 -0.0504 -0.6366
 1655SOL     OW 6405   2.746   3.378   3.602 -0.6419 -0.2797 -0.2639
 1655SOL    HW1 6406   2.768   3.407   3.691 -0.1710  0.4650 -0.6118
 1655SOL    HW2 6407   2.830   3.349   3.565 -0.8267 -0.5332 -0.4885
 1656SOL     OW 6408   0.783   3.264   2.113  0.3228 -0.0538  0.1012
 1656SOL    HW1 6409   0.718   3.196   2.096  0.4088 -0.5223  1.4839
 1656SOL    HW2 6410   0.855   3.218   2.156  0.3743  0.8944  1.0744
 1657SOL     OW 6411   0.172   2.815   4.090  0.1168 -0.0768  0.0274
 1657SOL    HW1 6412   0.085   2.819   4.050 -0.2009  0.4214  0.7338
 1657SOL    HW2 6413   0.166   2.746   4.155  0.1930  0.0902  0.2122
 1658SOL     OW 6414   0.612   3.819   1.799  0.1197 -0.0851 -0.1525
 1658SOL    HW1 6415   0.656   3.904   1.806  2.2263 -1.1095 -0.2904
 1658SOL    HW2 6416   0.524   3.840   1.767  0.9798  1.9441 -1.3661
 1659SOL     OW 6417   0.887   2.695   2.768 -0.2934 -0.2448 -0.5064
 1659SOL    HW1 6418   0.892   2.791   2.771 -1.1286 -0.2280  0.5987
 1659SOL    HW2 6419   0.892   2.667   2.859 -0.7714 -1.2232 -0.7674
 1660SOL     OW 6420   7.817   2.108   2.910 -0.2099  0.2148  0.4007
 1660SOL    HW1 6421   7.846   2.022   2.880 -0.8478 -0.0143  0.4122
 1660SOL    HW2 6422   7.878   2.131   2.980 -1.6651 -1.4986  2.3443
 1661SOL     OW 6423   0.360   3.214   1.233  0.3538  0.3200  0.2036
 1661SOL    HW1 6424   0.427   3.177   1.176  0.4812  0.4957  0.2401
 1661SOL    HW2 6425   0.296   3.144   1.244  0.5819  0.1207  0.2526
 1662SOL     OW 6426   1.151   2.804   4.228  0.0484  0.3680 -0.0661
 1662SOL    HW1 6427   1.144   2.787   4.134  1.0210  0.9907 -0.2584
 1662SOL    HW2 6428   1.090   2.741   4.267 -0.4075  0.1313 -1.1076
 1663SOL     OW 6429   0.699   4.798   4.821 -0.1167  0.1532  0.5425
 1663SOL    HW1 6430   0.788   4.763   4.809 -0.5114 -0.9055  0.6175
 1663SOL    HW2 6431   0.662   4.797   4.733 -0.4137 -0.4157  0.6710
 1664SOL     OW 6432   7.626   2.842   3.295  0.1156 -0.0004  0.3855
 1664SOL    HW1 6433   7.719   2.821   3.286  0.3241  1.2081 -0.4061
 1664SOL    HW2 6434   7.601   2.800   3.377  1.2162 -0.8191  0.3332
 1665SOL     OW 6435   1.617   3.900   4.151  0.1175  0.1002  0.2266
 1665SOL    HW1 6436   1.594   3.934   4.238 -0.4628 -0.2912  0.2323
 1665SOL    HW2 6437   1.712   3.915   4.144 -0.0743  1.4593  0.3294
 1666SOL     OW 6438   2.639   4.299   0.543 -0.1492  0.3503  0.0912
 1666SOL    HW1 6439   2.704   4.229   0.543  2.2791  2.4418  1.0972
 1666SOL    HW2 6440   2.632   4.326   0.452 -1.3701 -1.3617 -0.3576
 1667SOL     OW 6441   1.876   3.610   2.348  0.7539 -0.4978 -0.1000
 1667SOL    HW1 6442   1.936   3.562   2.406  0.1355  0.0646  1.0231
 1667SOL    HW2 6443   1.905   3.585   2.260  0.5033 -2.9184  0.4101
 1668SOL     OW 6444   0.148   1.837   1.856  0.4786  0.2167 -0.2846
 1668SOL    HW1 6445   0.193   1.778   1.796  0.0898  0.0445 -0.4119
 1668SOL    HW2 6446   0.074   1.871   1.805  0.1611  0.0901  0.0891
 1669SOL     OW 6447   1.667   2.859   1.702  0.3298 -0.0971 -0.3785
 1669SOL    HW1 6448   1.622   2.882   1.783 -0.1765 -4.8261  0.9800
 1669SOL    HW2 6449   1.750   2.907   1.707 -0.1793  0.7050  2.2966
 1670SOL     OW 6450   7.529   3.802   3.110 -0.8873  0.0198 -0.0619
 1670SOL    HW1 6451   7.605   3.828   3.161 -0.1113 -1.2929 -0.4818
 1670SOL    HW2 6452   7.529   3.862   3.035 -0.1557 -0.0644 -0.1421
 1671SOL     OW 6453   1.710   2.867   4.265  0.3552 -0.0898 -0.2561
 1671SOL    HW1 6454   1.740   2.790   4.218 -0.2810 -0.2115 -0.4656
 1671SOL    HW2 6455   1.771   2.937   4.239  0.4446 -0.3289 -0.6851
 1672SOL     OW 6456   0.557   3.583   4.124  0.1217  0.1590  0.9592
 1672SOL    HW1 6457   0.644   3.618   4.109 -0.2599  1.3318  1.3779
 1672SOL    HW2 6458   0.508   3.654   4.164 -1.4898  0.0871 -0.6881
 1673SOL     OW 6459   0.434   1.541   3.564 -0.4144  0.2287  0.1967
 1673SOL    HW1 6460   0.432   1.490   3.483  0.5056 -1.2827  1.0935
 1673SOL    HW2 6461   0.377   1.494   3.624  0.6738  0.0633  1.1340
 1674SOL     OW 6462   1.537   2.318   4.170 -0.4659  0.0859  0.0513
 1674SOL    HW1 6463   1.456   2.335   4.122 -0.6060 -0.1669  0.1941
 1674SOL    HW2 6464   1.607   2.341   4.109 -0.6177  3.0049  0.8198
 1675SOL     OW 6465   7.265   3.009   2.884 -0.1003  0.2783  0.3442
 1675SOL    HW1 6466   7.290   3.043   2.970 -2.2400  2.6847  0.1435
 1675SOL    HW2 6467   7.193   2.949   2.901 -0.6937  0.9509  0.2299
 1676SOL     OW 6468   0.311   5.685   2.193 -0.1040  0.1633  0.6492
 1676SOL    HW1 6469   0.362   5.761   2.218  1.2311 -0.2271 -0.7184
 1676SOL    HW2 6470   0.375   5.624   2.155 -1.7183  0.3364 -2.7509
 1677SOL     OW 6471   7.408   2.677   3.116  0.3304  0.4185 -0.2269
 1677SOL    HW1 6472   7.336   2.633   3.070  1.0386  1.9858 -3.0578
 1677SOL    HW2 6473   7.371   2.760   3.146  0.5180  0.4799 -0.1606
 1678SOL     OW 6474   7.429   3.191   1.945 -0.6224 -0.5891 -0.7365
 1678SOL    HW1 6475   7.519   3.179   1.974 -0.9540 -2.6598 -0.3692
 1678SOL    HW2 6476   7.428   3.159   1.855 -0.8220  0.2550 -1.0422
 1679SOL     OW 6477   6.355   1.316   3.665  0.6116  0.1413  0.4892
 1679SOL    HW1 6478   6.353   1.363   3.748 -0.5090  0.7521  0.1435
 1679SOL    HW2 6479   6.393   1.378   3.603 -2.0369  1.1760 -0.2524
 1680SOL     OW 6480   0.650   4.703   1.424  0.4473  0.1891  0.2308
 1680SOL    HW1 6481   0.639   4.611   1.401  1.6498  0.1834 -0.4114
 1680SOL    HW2 6482   0.578   4.748   1.381 -0.9018 -0.5813  1.5881
 1681SOL     OW 6483   0.997   2.309   2.286  0.0188  0.6243  0.7493
 1681SOL    HW1 6484   0.991   2.232   2.230  0.6932  0.7297  0.5147
 1681SOL    HW2 6485   0.962   2.281   2.371 -0.6882  0.3685  0.3753
 1682SOL     OW 6486   1.703   2.746   2.100  0.0571  0.7871  0.1100
 1682SOL    HW1 6487   1.667   2.774   2.184 -1.3290 -0.0460 -0.1796
 1682SOL    HW2 6488   1.759   2.672   2.121  0.6708  1.3304  0.4249
 1683SOL     OW 6489   7.352   2.160   1.063 -0.2676 -0.5657 -0.6601
 1683SOL    HW1 6490   7.427   2.103   1.045  0.1532 -0.1796 -0.1531
 1683SOL    HW2 6491   7.383   2.248   1.043 -0.9870 -0.5180 -1.6594
 1684SOL     OW 6492   7.713   0.513   1.233  0.3703  0.5961 -0.0097
 1684SOL    HW1 6493   7.808   0.524   1.234  0.3721  0.8023 -1.2084
 1684SOL    HW2 6494   7.688   0.519   1.325  1.7792 -2.0368  0.6611
 1685SOL     OW 6495   0.622   5.095   4.186 -0.1005  0.9153  0.0383
 1685SOL    HW1 6496   0.647   5.069   4.274 -0.8353  1.6851  0.5009
 1685SOL    HW2 6497   0.538   5.052   4.171  0.5673 -0.1607 -0.7644
 1686SOL     OW 6498   1.417   5.145   1.192  0.0790 -0.4346  0.1591
 1686SOL    HW1 6499   1.480   5.074   1.205  0.9260  0.4615  1.1873
 1686SOL    HW2 6500   1.359   5.138   1.268 -0.1611 -0.3544 -0.0182
 1687SOL     OW 6501   7.536   2.798   4.023 -0.1577  0.1088  0.2609
 1687SOL    HW1 6502   7.493   2.746   4.090 -1.2777 -0.1071 -0.5901
 1687SOL    HW2 6503   7.526   2.747   3.943  0.7609  0.5605 -0.1516
 1688SOL     OW 6504   7.835   5.278   0.380 -0.8744  0.3740  0.1220
 1688SOL    HW1 6505   7.921   5.296   0.342 -1.1316 -0.1019 -0.7026
 1688SOL    HW2 6506   7.784   5.357   0.361 -0.2284  1.2985  1.9036
 1689SOL     OW 6507   0.155   5.199   0.675 -0.1582  0.2421  0.3004
 1689SOL    HW1 6508   0.175   5.163   0.762  0.9323 -0.2382 -0.1239
 1689SOL    HW2 6509   0.239   5.197   0.629 -0.0603  3.1598  0.1650
 1690SOL     OW 6510   0.973   2.695   3.432  0.3576 -0.2690  0.0968
 1690SOL    HW1 6511   1.013   2.771   3.391 -1.0190 -0.2541 -1.3445
 1690SOL    HW2 6512   1.035   2.624   3.417  0.9059  0.2214  0.0099
 1691SOL     OW 6513   0.003   4.413   1.572 -0.6738 -0.3161 -0.3395
 1691SOL    HW1 6514  -0.011   4.319   1.563  1.6434 -0.6873 -0.7931
 1691SOL    HW2 6515  -0.029   4.450   1.489 -1.1965 -0.7374 -0.3323
 1692SOL     OW 6516   2.501   4.096   4.109  0.2453 -0.5536  0.0488
 1692SOL    HW1 6517   2.507   4.045   4.028 -0.2265  0.8267 -0.8875
 1692SOL    HW2 6518   2.565   4.166   4.099 -1.0216  0.6483  0.0878
 1693SOL     OW 6519   7.701   1.365   2.716  0.1813 -0.1019 -0.0312
 1693SOL    HW1 6520   7.670   1.387   2.804 -0.4954 -1.0674 -0.0204
 1693SOL    HW2 6521   7.786   1.410   2.709 -1.7723  4.0056 -0.6422
 1694SOL     OW 6522   2.241   3.327   3.315  0.6030  0.1684 -0.0754
 1694SOL    HW1 6523   2.302   3.308   3.243  0.7410  0.2527  0.0200
 1694SOL    HW2 6524   2.192   3.245   3.326  0.8333  0.0381 -0.0198
 1695SOL     OW 6525   0.165   1.589   2.142  0.2524  0.1416  0.4650
 1695SOL    HW1 6526   0.239   1.556   2.091  0.4537  1.0361  0.1665
 1695SOL    HW2 6527   0.088   1.568   2.089  0.5466  2.3745 -1.0029
 1696SOL     OW 6528   1.186   3.760   3.809 -0.0140 -0.0072  0.3450
 1696SOL    HW1 6529   1.261   3.709   3.779  0.3351  0.1447  0.9422
 1696SOL    HW2 6530   1.128   3.765   3.732 -0.5168 -2.1015  0.5288
 1697SOL     OW 6531   0.398   1.367   3.338 -0.1982  0.0491 -0.0643
 1697SOL    HW1 6532   0.424   1.339   3.250 -2.0163 -0.8158 -0.3754
 1697SOL    HW2 6533   0.304   1.385   3.331 -0.1319  1.1444  1.4270
 1698SOL     OW 6534   3.447   1.090   4.006 -0.6386  0.0498 -0.4334
 1698SOL    HW1 6535   3.514   1.067   4.071 -1.6170 -1.2590  0.1579
 1698SOL    HW2 6536   3.488   1.073   3.922  0.6681  1.8183 -0.2109
 1699SOL     OW 6537   7.913   3.091   0.774 -0.5047 -0.2119  0.4550
 1699SOL    HW1 6538   8.002   3.056   0.773 -0.0710  0.6297 -2.6550
 1699SOL    HW2 6539   7.906   3.137   0.858  1.1284 -2.2237  1.7770
 1700SOL     OW 6540   1.995   3.904   3.603  0.5061  0.3643  0.2285
 1700SOL    HW1 6541   2.013   3.942   3.517 -0.0058  0.8668  0.3387
 1700SOL    HW2 6542   2.001   3.809   3.590  1.4084  0.4588 -0.1397
 1701SOL     OW 6543   5.852   1.933   1.695  0.1397 -0.3162  0.1710
 1701SOL    HW1 6544   5.776   1.890   1.735 -0.6109  0.3044 -0.5563
 1701SOL    HW2 6545   5.829   2.026   1.695  0.8656 -0.1343 -0.1405
 1702SOL     OW 6546   1.976   4.487   2.984 -0.3304  0.2608 -0.0222
 1702SOL    HW1 6547   2.040   4.455   2.920 -0.5950  0.3185 -0.3165
 1702SOL    HW2 6548   2.022   4.484   3.067  0.1995  0.6986 -0.2930
 1703SOL     OW 6549   0.444   1.854   2.381 -0.2392  0.2200 -0.4345
 1703SOL    HW1 6550   0.520   1.813   2.423  0.3000  0.6100 -1.0040
 1703SOL    HW2 6551   0.391   1.780   2.352 -0.5614 -0.0576  0.7975
 1704SOL     OW 6552   7.236   1.783   2.965  0.1194  0.1170  0.0661
 1704SOL    HW1 6553   7.243   1.830   2.882  0.2381  0.0240  0.0225
 1704SOL    HW2 6554   7.179   1.838   3.019 -1.7683 -0.8444 -0.8130
 1705SOL     OW 6555   1.423   4.196   4.178  0.1495 -0.3362  0.5494
 1705SOL    HW1 6556   1.346   4.210   4.232  0.0251 -1.8563  0.8138
 1705SOL    HW2 6557   1.444   4.103   4.189  1.5044 -0.1516 -0.1931
 1706SOL     OW 6558   6.740   3.706   2.494  0.0318  0.3479  0.1789
 1706SOL    HW1 6559   6.703   3.657   2.568 -0.2982 -0.3638 -0.4419
 1706SOL    HW2 6560   6.832   3.680   2.492 -0.3627 -1.1351 -0.7981
 1707SOL     OW 6561   7.065   4.697   2.770  0.0737 -0.8238 -0.0900
 1707SOL    HW1 6562   7.046   4.785   2.802 -0.0378 -0.9427  0.1690
 1707SOL    HW2 6563   6.990   4.644   2.799 -0.0403 -0.9270 -0.5637
 1708SOL     OW 6564   1.201   4.866   1.823 -0.0243 -0.9012  0.0365
 1708SOL    HW1 6565   1.244   4.829   1.900 -0.8073 -1.5946  0.1499
 1708SOL    HW2 6566   1.149   4.939   1.857  3.0617  1.7627 -0.4257
 1709SOL     OW 6567   7.538   1.280   4.491  0.1254 -0.2867  0.1397
 1709SOL    HW1 6568   7.449   1.248   4.474  0.7685 -2.0952 -0.1140
 1709SOL    HW2 6569   7.573   1.298   4.404  0.0775  0.2268  0.2266
 1710SOL     OW 6570   0.580   0.717   1.686 -0.0774  0.1044  0.0131
 1710SOL    HW1 6571   0.615   0.785   1.743 -0.8409  0.2784  0.2921
 1710SOL    HW2 6572   0.649   0.700   1.623  1.8038 -1.8222  2.3839
 1711SOL     OW 6573   0.864   4.161   4.002  0.0858  0.6476 -0.5668
 1711SOL    HW1 6574   0.799   4.110   4.050 -0.3228  2.1927  0.5876
 1711SOL    HW2 6575   0.948   4.121   4.026 -0.2889 -0.2809 -0.7325
 1712SOL     OW 6576   0.492   0.765   2.751 -0.0583 -0.6018 -0.0706
 1712SOL    HW1 6577   0.437   0.770   2.673 -1.0049 -0.4054  0.5835
 1712SOL    HW2 6578   0.493   0.672   2.774  0.8098 -0.7559 -0.7165
 1713SOL     OW 6579   1.120   2.981   2.935 -0.2836 -0.1086  0.0105
 1713SOL    HW1 6580   1.039   2.978   2.884 -0.6895 -3.7360  0.5999
 1713SOL    HW2 6581   1.113   2.907   2.995  3.2392 -0.2314  0.4511
 1714SOL     OW 6582   4.026   2.567   3.086 -0.1058  0.2936 -0.2361
 1714SOL    HW1 6583   3.991   2.485   3.054  1.0814 -0.5856  0.6133
 1714SOL    HW2 6584   4.062   2.610   3.008  0.4137 -0.5993 -0.5074
 1715SOL     OW 6585   2.244   3.150   2.536 -0.6485 -0.0420  0.2585
 1715SOL    HW1 6586   2.303   3.095   2.587 -0.1936 -0.2060 -0.4394
 1715SOL    HW2 6587   2.300   3.216   2.495 -0.8510 -0.5530 -0.8814
 1716SOL     OW 6588   7.441   2.978   2.392 -0.7170 -0.5033  0.3456
 1716SOL    HW1 6589   7.436   3.005   2.483 -0.3762 -1.8026  0.7677
 1716SOL    HW2 6590   7.471   3.057   2.346  0.5110 -0.2121  1.5619
 1717SOL     OW 6591   3.173   3.705   2.760  0.2100  0.3131  0.4027
 1717SOL    HW1 6592   3.223   3.785   2.778  1.5200  0.1595 -2.0626
 1717SOL    HW2 6593   3.240   3.639   2.743 -0.8717 -1.1221  1.5400
 1718SOL     OW 6594   1.134   1.772   2.745 -0.0531 -0.4928 -0.0371
 1718SOL    HW1 6595   1.190   1.779   2.823 -2.8356 -0.6135  2.1026
 1718SOL    HW2 6596   1.174   1.832   2.682  0.8909  1.6397  2.4048
 1719SOL     OW 6597   6.621   3.411   3.836  0.1534  0.1651  0.2289
 1719SOL    HW1 6598   6.575   3.328   3.826  0.8841 -0.1988 -0.1901
 1719SOL    HW2 6599   6.564   3.476   3.793 -0.7098  0.0004  1.0866
 1720SOL     OW 6600   2.039   3.066   3.289 -0.1236 -0.0626 -0.7488
 1720SOL    HW1 6601   1.959   3.088   3.337  0.1288 -0.0110 -0.3577
 1720SOL    HW2 6602   2.011   3.065   3.197 -0.4454  0.5224 -0.6582
 1721SOL     OW 6603   7.729   3.631   2.232  0.7140  0.1863 -0.3770
 1721SOL    HW1 6604   7.666   3.572   2.274  1.1331 -0.0106 -0.0079
 1721SOL    HW2 6605   7.775   3.576   2.168  0.4184  0.3618 -0.7384
 1722SOL     OW 6606   1.309   4.356   3.809  0.5455 -0.3721 -0.0918
 1722SOL    HW1 6607   1.382   4.296   3.827  1.4411  1.0343  1.2233
 1722SOL    HW2 6608   1.289   4.395   3.894 -1.0823  0.0223 -0.6290
 1723SOL     OW 6609   1.091   3.429   2.488 -0.3890 -0.3341  0.3285
 1723SOL    HW1 6610   1.023   3.487   2.454 -0.4155 -0.6766 -0.2286
 1723SOL    HW2 6611   1.147   3.412   2.412 -1.2664 -2.2940  0.0655
 1724SOL     OW 6612   1.581   4.356   4.456  0.1083  0.0104  0.2306
 1724SOL    HW1 6613   1.570   4.343   4.362  0.7077 -1.0845  0.2864
 1724SOL    HW2 6614   1.492   4.373   4.489 -0.4132 -1.4891 -0.2915
 1725SOL     OW 6615   0.696   2.579   2.606  0.2690 -0.0877 -0.5263
 1725SOL    HW1 6616   0.636   2.526   2.658  0.5056 -2.7401 -2.7291
 1725SOL    HW2 6617   0.759   2.613   2.670 -1.7724  0.2736  1.4126
 1726SOL     OW 6618   0.098   3.770   4.171 -0.0381  0.2625  0.1845
 1726SOL    HW1 6619   0.134   3.832   4.235 -0.9780  1.6335 -0.5488
 1726SOL    HW2 6620   0.162   3.770   4.099  0.7608 -0.8815  0.8709
 1727SOL     OW 6621   7.882   2.521   1.869  0.2217 -0.2581  0.4485
 1727SOL    HW1 6622   7.878   2.426   1.883 -0.6910 -0.4838 -1.0445
 1727SOL    HW2 6623   7.858   2.532   1.777  2.9758  1.2519 -0.1807
 1728SOL     OW 6624   0.622   2.926   2.316  0.8499  0.6366 -0.5443
 1728SOL    HW1 6625   0.610   2.964   2.403 -1.8910  0.4773 -0.7863
 1728SOL    HW2 6626   0.611   2.831   2.329  1.4590  0.5046 -0.9273
 1729SOL     OW 6627   3.503   2.119   3.330  0.0139 -0.4206 -0.0188
 1729SOL    HW1 6628   3.527   2.096   3.420  0.4095  0.3322  0.0762
 1729SOL    HW2 6629   3.499   2.215   3.330  2.5465 -0.2414 -1.4161
 1730SOL     OW 6630   0.667   2.286   1.063 -0.0784 -0.2601  0.5179
 1730SOL    HW1 6631   0.608   2.216   1.093  0.7858 -1.4995 -0.5729
 1730SOL    HW2 6632   0.662   2.282   0.968 -0.0777  1.2598  0.4366
 1731SOL     OW 6633   1.016   3.938   1.901 -0.2384 -0.3162  0.0306
 1731SOL    HW1 6634   1.060   3.895   1.975  1.1780  0.7642 -0.1402
 1731SOL    HW2 6635   1.057   3.898   1.823 -0.1823  0.0723 -0.1399
 1732SOL     OW 6636   7.597   0.096   2.136 -0.1724 -0.0435 -0.3431
 1732SOL    HW1 6637   7.515   0.140   2.162  0.1601  0.3098  0.1224
 1732SOL    HW2 6638   7.650   0.096   2.215  0.9930  1.3488 -1.0705
 1733SOL     OW 6639   2.370   2.296   3.570  0.2069  0.4963 -0.0638
 1733SOL    HW1 6640   2.312   2.222   3.589 -0.5935  1.3303  0.9032
 1733SOL    HW2 6641   2.339   2.329   3.485 -0.2980  0.5059  0.1182
 1734SOL     OW 6642   0.236   1.824   2.734 -0.2556  0.1292 -0.1653
 1734SOL    HW1 6643   0.215   1.841   2.826 -1.2760 -0.6292 -0.2423
 1734SOL    HW2 6644   0.185   1.888   2.685  1.2249  1.3526 -0.1844
 1735SOL     OW 6645   7.793   2.423   3.981  0.1198  0.2327  0.4980
 1735SOL    HW1 6646   7.704   2.459   3.976  0.4082  1.0008  0.6889
 1735SOL    HW2 6647   7.850   2.500   3.974  0.8369 -0.4289 -1.9448
 1736SOL     OW 6648   7.890   2.177   3.186  0.3501  0.6515 -0.2598
 1736SOL    HW1 6649   7.850   2.114   3.246  0.5095  0.3215 -0.4969
 1736SOL    HW2 6650   7.982   2.180   3.213  0.9528 -1.1702 -1.8572
 1737SOL     OW 6651   0.288   3.501   4.116  0.3370 -0.0373  0.3101
 1737SOL    HW1 6652   0.380   3.485   4.138  0.5073 -1.5260 -1.2508
 1737SOL    HW2 6653   0.290   3.571   4.052  0.2362  0.8692  1.2644
 1738SOL     OW 6654   0.553   4.051   3.590  0.4794  0.2738 -0.1819
 1738SOL    HW1 6655   0.623   4.104   3.627  0.8771  1.1735 -2.0743
 1738SOL    HW2 6656   0.597   3.979   3.546  0.0813 -0.2317  0.2270
 1739SOL     OW 6657   1.239   1.973   3.734  0.5000  0.1494 -0.0352
 1739SOL    HW1 6658   1.189   1.892   3.724  0.5150  0.3460 -2.1917
 1739SOL    HW2 6659   1.178   2.043   3.709  0.3979  0.8828  2.0659
 1740SOL     OW 6660   7.775   1.762   3.862  0.6239 -0.5350 -0.0641
 1740SOL    HW1 6661   7.742   1.771   3.952  1.7547  0.4290  0.2846
 1740SOL    HW2 6662   7.697   1.745   3.809 -0.3179  0.8215  0.8321
 1741SOL     OW 6663   0.701   2.399   2.839  0.3478 -0.1091 -0.4526
 1741SOL    HW1 6664   0.632   2.465   2.832 -0.5211 -0.8493  0.7387
 1741SOL    HW2 6665   0.767   2.439   2.896 -0.4663 -0.4550  0.7859
 1742SOL     OW 6666   1.447   1.649   3.218 -0.8542 -0.5003 -0.1599
 1742SOL    HW1 6667   1.418   1.634   3.308 -0.6031  0.3878  0.0709
 1742SOL    HW2 6668   1.386   1.714   3.184 -0.3032 -0.0547 -0.2966
 1743SOL     OW 6669   2.134   1.891   3.026  0.0372 -0.2402 -0.5974
 1743SOL    HW1 6670   2.174   1.962   2.977 -2.1175  0.9029 -0.8393
 1743SOL    HW2 6671   2.200   1.822   3.027  2.2118  1.7253 -0.3602
 1744SOL     OW 6672   0.297   1.026   4.315  0.1120 -0.0182 -0.3639
 1744SOL    HW1 6673   0.298   1.101   4.255 -2.0026  0.0828 -0.3743
 1744SOL    HW2 6674   0.226   0.971   4.283 -1.0741  0.0225  1.9566
 1745SOL     OW 6675   6.297   2.995   1.990  0.0475 -0.3131 -0.2247
 1745SOL    HW1 6676   6.246   2.985   1.910  0.2693  0.0551 -0.4127
 1745SOL    HW2 6677   6.314   2.905   2.019 -1.5554 -0.4420  0.3990
 1746SOL     OW 6678   7.126   1.358   2.214  0.3156  0.7194  0.2321
 1746SOL    HW1 6679   7.091   1.276   2.250  0.9370  0.1186 -0.4919
 1746SOL    HW2 6680   7.072   1.426   2.254 -1.9904 -0.1705 -1.1387
 1747SOL     OW 6681   2.481   2.983   2.827  0.0732  0.0490  0.2608
 1747SOL    HW1 6682   2.418   2.937   2.883 -1.3089 -0.6565 -1.7631
 1747SOL    HW2 6683   2.546   2.917   2.803  0.4523  0.2524  0.7211
 1748SOL     OW 6684   1.915   0.735   3.083  0.3322 -0.4017  0.1166
 1748SOL    HW1 6685   1.968   0.692   3.151  1.1129 -0.5859 -0.5912
 1748SOL    HW2 6686   1.965   0.814   3.060 -0.5505  0.3178  0.6334
 1749SOL     OW 6687   1.901   2.081   3.174  0.0221  0.2414 -0.2651
 1749SOL    HW1 6688   1.957   2.146   3.215  0.8993 -0.4715 -0.3016
 1749SOL    HW2 6689   1.933   2.073   3.085 -0.7316  0.4840 -0.5699
 1750SOL     OW 6690   1.216   3.487   2.246  0.0654  0.4058  0.3406
 1750SOL    HW1 6691   1.251   3.559   2.193  1.5235 -0.4880  0.0471
 1750SOL    HW2 6692   1.172   3.430   2.184 -0.5991  0.7266  0.4992
 1751SOL     OW 6693   0.330   3.584   2.014 -0.3001  0.2133  0.2872
 1751SOL    HW1 6694   0.413   3.622   2.040 -0.3637  1.0866 -0.7324
 1751SOL    HW2 6695   0.269   3.657   2.014 -0.1907  0.4398 -2.8109
 1752SOL     OW 6696   0.145   4.662   4.096 -0.3622  0.3792 -0.0870
 1752SOL    HW1 6697   0.119   4.695   4.182  0.0882  2.6463 -0.7655
 1752SOL    HW2 6698   0.230   4.703   4.080  0.1028 -0.9342 -1.1385
 1753SOL     OW 6699   0.942   3.595   2.050  0.3132  0.4714 -0.7664
 1753SOL    HW1 6700   0.985   3.679   2.068 -1.1010  0.8682  1.0746
 1753SOL    HW2 6701   1.003   3.529   2.085  0.0292  0.9579  0.7520
 1754SOL     OW 6702   2.183   2.089   2.864 -0.7332 -0.3678 -0.5875
 1754SOL    HW1 6703   2.138   2.134   2.791  1.9970  0.5239 -1.8366
 1754SOL    HW2 6704   2.221   2.160   2.915  0.0046 -1.1317 -0.0630
 1755SOL     OW 6705   1.663   1.410   0.779  0.7302 -0.9209 -0.3267
 1755SOL    HW1 6706   1.717   1.471   0.729 -0.4745  1.4152  1.0562
 1755SOL    HW2 6707   1.673   1.438   0.870  0.1028 -2.8150  0.3761
 1756SOL     OW 6708   7.191   0.561   1.972 -0.6503 -0.1564 -0.0442
 1756SOL    HW1 6709   7.221   0.509   2.047 -0.5063  0.2046  0.1562
 1756SOL    HW2 6710   7.186   0.499   1.900 -0.2235 -0.3956  0.1265
 1757SOL     OW 6711   1.546   0.924   3.249  0.2901 -0.1221 -0.7036
 1757SOL    HW1 6712   1.456   0.941   3.222 -0.9562 -0.4356  2.6972
 1757SOL    HW2 6713   1.555   0.829   3.250  1.0512 -0.0885 -1.9941
 1758SOL     OW 6714   0.188   2.726   2.765 -0.2696 -0.5869 -0.4045
 1758SOL    HW1 6715   0.239   2.688   2.694  1.0369  0.4850 -0.0642
 1758SOL    HW2 6716   0.173   2.653   2.826  0.0922 -1.1034 -0.9277
 1759SOL     OW 6717   6.746   4.081   2.822  0.1778 -0.6059 -0.1012
 1759SOL    HW1 6718   6.672   4.132   2.856  0.3530 -0.6103  0.2906
 1759SOL    HW2 6719   6.718   4.054   2.734 -0.8502 -1.7419  0.5331
 1760SOL     OW 6720   6.434   3.551   4.100 -0.1312 -0.2715  0.1895
 1760SOL    HW1 6721   6.424   3.602   4.180 -2.5558 -0.7511  0.2554
 1760SOL    HW2 6722   6.409   3.611   4.030  0.4169 -0.3446 -0.0784
 1761SOL     OW 6723   1.945   4.212   3.709  0.0464 -0.1621 -0.5261
 1761SOL    HW1 6724   1.879   4.276   3.737  1.1978  0.3132  1.2574
 1761SOL    HW2 6725   2.012   4.264   3.666 -0.8863 -0.7030 -2.7946
 1762SOL     OW 6726   1.046   2.773   3.736  0.1657 -0.4692  0.1235
 1762SOL    HW1 6727   0.995   2.769   3.655 -0.5124 -0.3145  0.5376
 1762SOL    HW2 6728   1.130   2.811   3.709 -1.5815  4.0445  0.1837
 1763SOL     OW 6729   7.520   2.143   2.639  0.4096  0.1308 -0.1878
 1763SOL    HW1 6730   7.599   2.154   2.587  0.2405  0.6791 -0.3404
 1763SOL    HW2 6731   7.449   2.140   2.575  0.0651  2.1342  0.0321
 1764SOL     OW 6732   6.896   2.914   2.090 -0.8363 -0.3637  0.1380
 1764SOL    HW1 6733   6.928   2.895   2.002 -1.5960  0.5432 -0.3494
 1764SOL    HW2 6734   6.946   2.855   2.147 -1.6022 -2.3142 -1.0775
 1765SOL     OW 6735   0.158   1.889   2.997 -0.4690 -0.3105  0.1543
 1765SOL    HW1 6736   0.136   1.869   3.088 -0.2325  1.6339  0.6843
 1765SOL    HW2 6737   0.226   1.956   3.003 -1.3053  0.7350 -1.4454
 1766SOL     OW 6738   1.904   0.448   4.218  0.2945  0.0561 -0.4012
 1766SOL    HW1 6739   1.942   0.382   4.275  0.3449 -0.1342 -0.6520
 1766SOL    HW2 6740   1.890   0.524   4.275  1.2825  0.2189 -0.3570
 1767SOL     OW 6741   0.320   4.289   3.377 -0.5693 -0.8392 -0.1778
 1767SOL    HW1 6742   0.400   4.268   3.330 -1.1303 -1.8064 -0.7326
 1767SOL    HW2 6743   0.342   4.277   3.469 -0.4042 -2.3566 -0.3837
 1768SOL     OW 6744   0.238   3.567   1.547  0.1888 -0.7507 -0.4011
 1768SOL    HW1 6745   0.259   3.659   1.531  0.2267 -0.8854 -1.1324
 1768SOL    HW2 6746   0.242   3.525   1.461 -0.9954 -1.2086 -0.2594
 1769SOL     OW 6747   7.517   2.107   3.345 -0.1369 -0.6223 -0.1181
 1769SOL    HW1 6748   7.547   2.145   3.428 -1.2609  1.2606 -0.5121
 1769SOL    HW2 6749   7.518   2.012   3.360  1.3008 -0.3958  1.4559
 1770SOL     OW 6750   7.694   3.309   3.002 -0.1863  0.1211  0.3532
 1770SOL    HW1 6751   7.746   3.303   3.083 -0.3058  0.4115  0.4506
 1770SOL    HW2 6752   7.747   3.262   2.937 -0.4472 -0.7833  0.7799
 1771SOL     OW 6753   7.872   4.440   2.495  0.1018  0.2936 -0.7626
 1771SOL    HW1 6754   7.777   4.439   2.483  0.0253 -0.8836 -0.1772
 1771SOL    HW2 6755   7.884   4.459   2.588  0.4062 -0.3123 -0.6714
 1772SOL     OW 6756   0.162   3.108   3.064 -0.8100 -0.1238 -0.0287
 1772SOL    HW1 6757   0.140   3.172   3.132 -2.2137 -1.1046  0.4679
 1772SOL    HW2 6758   0.184   3.028   3.112 -2.2982 -0.9781 -0.7032
 1773SOL     OW 6759   2.211   3.032   4.004  0.1387  0.2801 -0.1806
 1773SOL    HW1 6760   2.250   3.003   4.086 -1.2125 -1.0409  0.0403
 1773SOL    HW2 6761   2.199   2.952   3.954  0.8054  1.0567 -1.6326
 1774SOL     OW 6762   1.265   1.853   2.234  0.2155 -0.0053 -0.0267
 1774SOL    HW1 6763   1.255   1.796   2.157 -1.6314 -1.4000  1.1584
 1774SOL    HW2 6764   1.280   1.940   2.197  0.5691 -0.8288 -1.9414
 1775SOL     OW 6765   1.117   4.205   2.152  0.2535 -0.3677 -0.3856
 1775SOL    HW1 6766   1.130   4.280   2.210 -0.9054 -0.8749  0.5933
 1775SOL    HW2 6767   1.099   4.132   2.212 -1.2449 -0.8634 -1.3671
 1776SOL     OW 6768   7.846   4.351   1.142 -0.1431  0.2129 -0.5253
 1776SOL    HW1 6769   7.925   4.391   1.105  0.4893  0.3467  0.9089
 1776SOL    HW2 6770   7.803   4.422   1.189  0.5054 -0.5278  1.2615
 1777SOL     OW 6771   1.155   1.072   5.283  0.0540  0.0891  0.1131
 1777SOL    HW1 6772   1.081   1.082   5.223 -0.3385  1.7205  0.8256
 1777SOL    HW2 6773   1.186   0.982   5.268 -0.7834  0.0582 -1.6438
 1778SOL     OW 6774   0.593   3.606   3.662  0.1659  0.1428 -0.6127
 1778SOL    HW1 6775   0.511   3.581   3.621 -0.1499 -0.9498  0.6102
 1778SOL    HW2 6776   0.647   3.527   3.657  1.2612  0.9244 -1.6363
 1779SOL     OW 6777   1.944   1.464   3.463 -0.0743  0.6402  0.1177
 1779SOL    HW1 6778   1.932   1.411   3.385  0.3973  1.1374 -0.3032
 1779SOL    HW2 6779   1.862   1.514   3.471  0.1149  1.0373 -0.4101
 1780SOL     OW 6780   0.853   3.950   0.843  0.1730 -0.3343 -0.2193
 1780SOL    HW1 6781   0.800   4.030   0.836 -0.8634 -1.0518 -0.8955
 1780SOL    HW2 6782   0.903   3.961   0.924 -1.2818  0.2332  0.6361
 1781SOL     OW 6783   1.222   3.453   2.727 -0.3707  0.0243 -0.2787
 1781SOL    HW1 6784   1.172   3.516   2.777  0.9714  2.3158 -1.6573
 1781SOL    HW2 6785   1.184   3.456   2.639 -0.1984 -1.0325 -0.4094
 1782SOL     OW 6786   1.161   2.719   3.116  0.5675 -0.5748  0.1616
 1782SOL    HW1 6787   1.192   2.704   3.206  3.3039  0.3221 -0.5376
 1782SOL    HW2 6788   1.085   2.662   3.107  1.3022 -2.0609  2.4598
 1783SOL     OW 6789   0.830   2.285   2.533 -0.5006 -0.2654 -0.0888
 1783SOL    HW1 6790   0.823   2.279   2.628  2.3770  0.4607  0.2724
 1783SOL    HW2 6791   0.841   2.378   2.515  1.7350 -0.5933 -0.7767
 1784SOL     OW 6792   1.143   4.448   0.319  0.5407  0.3376 -0.4241
 1784SOL    HW1 6793   1.133   4.457   0.225 -1.8095 -0.9217 -0.3410
 1784SOL    HW2 6794   1.145   4.354   0.335 -2.3462  0.4048  0.9892
 1785SOL     OW 6795   1.704   3.977   3.725 -0.1011  0.0958  0.2892
 1785SOL    HW1 6796   1.711   3.882   3.735 -1.7008 -0.0821  0.0696
 1785SOL    HW2 6797   1.708   3.991   3.631  0.4582  0.2746  0.3417
 1786SOL     OW 6798   1.974   1.842   3.682 -0.8223 -0.7286 -0.2217
 1786SOL    HW1 6799   2.067   1.842   3.705 -0.5941  1.2473 -0.8793
 1786SOL    HW2 6800   1.973   1.862   3.588 -1.9049  1.9289  0.2730
 1787SOL     OW 6801   7.757   1.886   2.157  0.6656 -0.3047 -0.7203
 1787SOL    HW1 6802   7.849   1.888   2.184  0.3323  0.6318  0.4480
 1787SOL    HW2 6803   7.730   1.978   2.156 -0.6484 -0.6451  0.4243
 1788SOL     OW 6804   0.496   4.459   0.704  0.6312  1.1360  0.1580
 1788SOL    HW1 6805   0.572   4.484   0.652 -0.2579 -2.5608 -3.4561
 1788SOL    HW2 6806   0.526   4.385   0.757  0.2275  1.5380  0.9686
 1789SOL     OW 6807   1.931   3.524   1.718  0.5945 -0.1975  0.2452
 1789SOL    HW1 6808   2.000   3.531   1.783  0.7041  0.2391  0.0885
 1789SOL    HW2 6809   1.883   3.445   1.742  1.2532 -0.6059  0.2507
 1790SOL     OW 6810   0.275   4.511   2.818 -0.3091  0.2567 -0.7495
 1790SOL    HW1 6811   0.283   4.574   2.746 -0.8320  0.0776 -0.9693
 1790SOL    HW2 6812   0.288   4.426   2.776  1.4893  0.2646 -0.2747
 1791SOL     OW 6813   0.674   2.756   1.188 -0.2164 -0.4627  0.1635
 1791SOL    HW1 6814   0.697   2.771   1.096  2.9796 -2.5430  0.4492
 1791SOL    HW2 6815   0.616   2.679   1.186 -1.7305  0.6451 -0.1587
 1792SOL     OW 6816   0.790   3.039   4.114 -0.0499 -0.5302 -0.0119
 1792SOL    HW1 6817   0.775   3.103   4.184 -1.6752 -0.5533 -0.3003
 1792SOL    HW2 6818   0.804   3.093   4.036  1.0823 -0.5111  0.1990
 1793SOL     OW 6819   1.813   4.125   3.972  0.3009  0.2897  0.1413
 1793SOL    HW1 6820   1.823   4.218   3.991  3.1265 -0.2156  1.6572
 1793SOL    HW2 6821   1.845   4.081   4.051  0.2753 -1.9831 -1.0338
 1794SOL     OW 6822   1.949   0.138   3.906  0.6762  0.2567  0.3300
 1794SOL    HW1 6823   2.015   0.106   3.968  0.6023 -0.3641  0.0890
 1794SOL    HW2 6824   1.961   0.084   3.828 -0.7394 -0.4988  0.6085
 1795SOL     OW 6825   2.321   2.890   4.715 -0.1487 -0.1046 -0.0910
 1795SOL    HW1 6826   2.315   2.958   4.781  0.3168 -0.0545 -0.0990
 1795SOL    HW2 6827   2.286   2.931   4.635 -1.7419 -0.5100  0.3667
 1796SOL     OW 6828   1.186   3.831   1.728  0.3303  0.0097 -0.0905
 1796SOL    HW1 6829   1.271   3.868   1.752  1.2388 -0.3245 -2.5194
 1796SOL    HW2 6830   1.200   3.736   1.728 -0.0152 -0.0433 -0.6082
 1797SOL     OW 6831   2.132   3.135   3.661 -0.6486 -0.0816  0.3705
 1797SOL    HW1 6832   2.132   3.057   3.717  0.2762  0.1242  0.6674
 1797SOL    HW2 6833   2.176   3.108   3.581 -0.4931  0.0831  0.3999
 1798SOL     OW 6834   6.664   2.375   2.216 -0.5339  0.1332  0.4063
 1798SOL    HW1 6835   6.648   2.292   2.261 -1.0711  0.0395  0.0448
 1798SOL    HW2 6836   6.696   2.434   2.285  1.1115 -0.7308  0.4438
 1799SOL     OW 6837   1.043   1.108   2.638 -0.5974  0.6650 -0.2325
 1799SOL    HW1 6838   1.111   1.060   2.590 -0.4944  0.5001  0.0723
 1799SOL    HW2 6839   0.995   1.156   2.570 -0.6796  0.1573 -0.5366
 1800SOL     OW 6840   0.670   1.619   2.528  0.3804 -1.1304  0.3259
 1800SOL    HW1 6841   0.637   1.663   2.606 -0.6471  1.6059 -1.5193
 1800SOL    HW2 6842   0.726   1.684   2.486  0.5705 -2.3753 -1.4479
 1801SOL     OW 6843   7.494   2.061   1.933 -0.2987  0.2339  0.3421
 1801SOL    HW1 6844   7.422   2.120   1.915  0.0151  0.5126 -0.0330
 1801SOL    HW2 6845   7.530   2.090   2.017 -0.8157 -0.1022  0.6793
 1802SOL     OW 6846   1.083   3.392   1.149  0.1412  0.4296  0.0599
 1802SOL    HW1 6847   1.050   3.435   1.228  0.8192  2.2182 -0.5800
 1802SOL    HW2 6848   1.059   3.300   1.160 -0.3629  0.7526  2.0247
 1803SOL     OW 6849   6.786   2.116   2.089  0.0364 -0.2130  0.1560
 1803SOL    HW1 6850   6.820   2.166   2.015  1.1089  0.0851  0.8206
 1803SOL    HW2 6851   6.754   2.034   2.050 -2.5432  1.2657 -1.0677
 1804SOL     OW 6852   0.695   4.801   1.945 -0.3615  0.2587 -0.2246
 1804SOL    HW1 6853   0.624   4.863   1.923 -1.1692  0.2964  2.2164
 1804SOL    HW2 6854   0.739   4.786   1.862 -2.2622  1.4717 -1.5537
 1805SOL     OW 6855   1.000   1.663   3.355 -0.3625  0.2933 -0.2724
 1805SOL    HW1 6856   0.923   1.698   3.310 -1.8400 -0.9501  1.1849
 1805SOL    HW2 6857   1.065   1.734   3.348 -1.5844  1.3663 -1.5634
 1806SOL     OW 6858   2.286   4.695   3.837  0.0853 -0.1166 -0.2471
 1806SOL    HW1 6859   2.367   4.646   3.854  0.7624  0.7547 -0.8378
 1806SOL    HW2 6860   2.302   4.781   3.877  0.2077  0.6948 -1.9486
 1807SOL     OW 6861   0.601   4.741   4.580 -0.6115 -0.0192 -0.1950
 1807SOL    HW1 6862   0.507   4.758   4.588 -0.9526 -0.1623 -2.9222
 1807SOL    HW2 6863   0.607   4.647   4.563 -0.0502  0.0963 -0.6755
 1808SOL     OW 6864   3.572   2.076   3.593  0.0498 -0.1542 -0.1122
 1808SOL    HW1 6865   3.565   2.008   3.661  1.2211 -0.8336 -0.6361
 1808SOL    HW2 6866   3.657   2.117   3.610  1.0928 -1.3502 -2.0303
 1809SOL     OW 6867   1.213   5.050   2.667 -0.0984  0.3066  0.2550
 1809SOL    HW1 6868   1.296   5.092   2.643  0.4521 -1.0334 -0.2544
 1809SOL    HW2 6869   1.226   4.958   2.648 -1.5274 -0.0143  0.7106
 1810SOL     OW 6870   1.512   2.482   4.595 -0.2080  0.2839  0.5168
 1810SOL    HW1 6871   1.600   2.452   4.618  0.2854  0.9353 -0.4403
 1810SOL    HW2 6872   1.527   2.548   4.527 -1.5595 -1.3104 -1.4166
 1811SOL     OW 6873   0.103   1.981   2.112  0.4350  0.3106  0.1082
 1811SOL    HW1 6874   0.143   1.937   2.037 -0.2899  0.4799 -0.3930
 1811SOL    HW2 6875   0.176   2.024   2.157  1.0038 -0.5410  0.0210
 1812SOL     OW 6876   1.131   0.760   3.183  0.2916  0.6466 -0.0246
 1812SOL    HW1 6877   1.136   0.668   3.156  1.6613  1.0311 -1.2002
 1812SOL    HW2 6878   1.040   0.785   3.166 -0.4009 -0.7692  1.3604
 1813SOL     OW 6879   1.260   4.438   4.061 -0.2466  0.0828 -0.3307
 1813SOL    HW1 6880   1.181   4.491   4.049 -0.0298  0.3302 -0.6721
 1813SOL    HW2 6881   1.233   4.369   4.122 -0.6147  0.4043 -0.1203
 1814SOL     OW 6882   1.850   2.078   4.588  0.0599 -0.2144  0.0362
 1814SOL    HW1 6883   1.761   2.041   4.590  0.1482 -0.4724 -0.4725
 1814SOL    HW2 6884   1.907   2.002   4.577  0.3207 -0.0173  0.0332
 1815SOL     OW 6885   7.680   1.571   2.520  0.0445  0.2482  0.2083
 1815SOL    HW1 6886   7.667   1.513   2.595  0.0018  2.1384  1.7141
 1815SOL    HW2 6887   7.755   1.533   2.474 -0.1746 -1.1700  0.9534
 1816SOL     OW 6888   0.532   3.936   2.548  0.4169 -0.1464  0.3296
 1816SOL    HW1 6889   0.507   3.998   2.480 -0.3974 -0.6345  0.1685
 1816SOL    HW2 6890   0.449   3.912   2.590  0.8840 -0.0257  1.3395
 1817SOL     OW 6891   0.256   2.492   2.145 -0.1990 -0.1300 -0.0541
 1817SOL    HW1 6892   0.290   2.424   2.203  1.0908 -0.2195 -0.8500
 1817SOL    HW2 6893   0.214   2.444   2.074 -2.9055 -0.0144  1.3509
 1818SOL     OW 6894   1.404   2.539   0.934 -0.4261 -0.4639  0.7360
 1818SOL    HW1 6895   1.394   2.479   1.007 -0.5957 -3.2123 -1.3894
 1818SOL    HW2 6896   1.314   2.562   0.910 -0.3750  0.3120  1.2477
 1819SOL     OW 6897   2.323   4.848   1.779  0.9845  0.0542  0.1322
 1819SOL    HW1 6898   2.302   4.760   1.812 -2.3614  0.6616  0.0486
 1819SOL    HW2 6899   2.258   4.904   1.821  2.5454  2.3966 -0.4339
 1820SOL     OW 6900   6.647   3.158   4.523 -0.6654  0.6045 -0.0039
 1820SOL    HW1 6901   6.732   3.126   4.491 -1.2081  0.4140 -1.3299
 1820SOL    HW2 6902   6.588   3.084   4.510 -0.7451  0.1893  2.3647
 1821SOL     OW 6903   6.712   3.333   3.474  0.2631 -0.5595 -0.3799
 1821SOL    HW1 6904   6.643   3.397   3.491  0.4196 -0.1863 -1.1473
 1821SOL    HW2 6905   6.787   3.385   3.445  0.8927 -0.9575  0.4992
 1822SOL     OW 6906   1.653   1.140   4.736  0.3037  0.3627 -0.0541
 1822SOL    HW1 6907   1.570   1.129   4.690 -0.1020 -2.2901  1.0860
 1822SOL    HW2 6908   1.672   1.233   4.732 -2.4240  0.9481 -0.8653
 1823SOL     OW 6909   1.935   2.836   4.889 -0.4922 -0.5973  0.0588
 1823SOL    HW1 6910   1.849   2.803   4.865 -1.7784  1.6876  1.1774
 1823SOL    HW2 6911   1.941   2.821   4.983  1.4075 -2.8714 -0.3319
 1824SOL     OW 6912   1.242   0.088   3.773  0.7442 -0.2729  0.5833
 1824SOL    HW1 6913   1.238   0.127   3.860  0.3944  1.7434 -0.2959
 1824SOL    HW2 6914   1.292   0.007   3.786 -0.0552 -0.4750  2.7875
 1825SOL     OW 6915   2.145   0.955   3.010  0.3034  0.2089 -0.0279
 1825SOL    HW1 6916   2.162   0.921   2.922  3.2713  0.4592  0.3270
 1825SOL    HW2 6917   2.169   1.047   3.004  0.1737  0.3125  0.9681
 1826SOL     OW 6918   1.016   3.869   2.537  0.4163  0.0136  0.1696
 1826SOL    HW1 6919   0.928   3.836   2.557  0.1301 -0.5327 -1.7503
 1826SOL    HW2 6920   1.074   3.797   2.559  0.2620 -0.0442  0.3868
 1827SOL     OW 6921   0.761   3.183   3.112  0.0382  0.0719  0.6331
 1827SOL    HW1 6922   0.701   3.256   3.095 -0.5529 -0.9470 -2.2675
 1827SOL    HW2 6923   0.710   3.121   3.164 -0.8219  0.0549 -0.2064
 1828SOL     OW 6924   2.147   1.574   4.324  0.2387  0.5658  0.7069
 1828SOL    HW1 6925   2.205   1.497   4.323 -0.9442 -0.3700  0.8429
 1828SOL    HW2 6926   2.201   1.645   4.358  1.7940  0.1532 -0.7981
 1829SOL     OW 6927   7.833   3.575   3.398  0.4633  0.1015  0.0900
 1829SOL    HW1 6928   7.914   3.625   3.407  0.3881 -0.0428  1.8541
 1829SOL    HW2 6929   7.799   3.566   3.487 -1.2293 -0.3072 -0.5479
 1830SOL     OW 6930   0.488   3.579   1.290 -0.0892 -0.1817  0.2049
 1830SOL    HW1 6931   0.443   3.663   1.293 -3.1083 -1.6433 -0.2414
 1830SOL    HW2 6932   0.419   3.516   1.270  2.1448 -2.7186 -0.0352
 1831SOL     OW 6933   0.620   3.735  12.377  0.3430 -0.0651  0.2265
 1831SOL    HW1 6934   0.688   3.702  12.319 -0.8759 -3.2527  0.4214
 1831SOL    HW2 6935   0.624   3.679  12.454 -1.6703  0.4581  0.7819
 1832SOL     OW 6936   2.158   0.915   4.044  0.2593 -0.1120 -0.3810
 1832SOL    HW1 6937   2.074   0.882   4.012  0.5480  0.2205 -1.5278
 1832SOL    HW2 6938   2.192   0.845   4.100 -1.1868  0.1202  0.8635
 1833SOL     OW 6939   1.091   2.136   3.132 -0.1746  0.0778  0.5306
 1833SOL    HW1 6940   1.186   2.128   3.137 -0.0641  1.0048  0.0862
 1833SOL    HW2 6941   1.071   2.217   3.178 -0.6339  0.4792 -0.3460
 1834SOL     OW 6942   6.793   3.872   4.112  0.4046 -0.0484 -0.4723
 1834SOL    HW1 6943   6.867   3.930   4.133 -0.5463  0.3521  2.0307
 1834SOL    HW2 6944   6.826   3.784   4.129  0.8087 -0.0140 -1.0319
 1835SOL     OW 6945   1.216   3.713   2.890  0.5399 -0.2686  0.4171
 1835SOL    HW1 6946   1.263   3.751   2.816 -0.3529 -0.8535 -0.4834
 1835SOL    HW2 6947   1.281   3.707   2.960  0.7100  3.1359  0.7508
 1836SOL     OW 6948   0.750   2.373   4.354 -0.4702  0.1177 -0.6385
 1836SOL    HW1 6949   0.740   2.395   4.261 -3.6165 -0.8147 -0.6577
 1836SOL    HW2 6950   0.674   2.413   4.396 -0.6324 -1.8002  1.0286
 1837SOL     OW 6951   0.435   1.780   4.064 -0.4309 -0.4588 -0.0330
 1837SOL    HW1 6952   0.340   1.767   4.064 -0.3321 -1.3304 -0.5963
 1837SOL    HW2 6953   0.463   1.744   3.980  0.1871  1.5411 -0.7438
 1838SOL     OW 6954   6.238   0.663   4.816  0.1810  0.1602 -0.1808
 1838SOL    HW1 6955   6.162   0.713   4.785  0.7131  0.5626 -0.8814
 1838SOL    HW2 6956   6.248   0.593   4.752 -0.6679 -0.9815  0.8953
 1839SOL     OW 6957   7.291   3.711   4.787 -0.4111 -0.5578 -0.1723
 1839SOL    HW1 6958   7.274   3.683   4.697  1.1805  0.8166 -0.9635
 1839SOL    HW2 6959   7.347   3.642   4.823 -0.9804 -1.0675 -0.2308
 1840SOL     OW 6960   0.230   3.930   5.122 -0.6308  0.3864  0.1257
 1840SOL    HW1 6961   0.178   3.963   5.195  0.8856  0.4470  1.2174
 1840SOL    HW2 6962   0.222   3.996   5.054 -2.6537 -0.0106 -0.0733
 1841SOL     OW 6963   0.583   4.312   3.856  0.1465  0.1253  0.3752
 1841SOL    HW1 6964   0.658   4.290   3.800 -0.2723 -0.5653  0.0683
 1841SOL    HW2 6965   0.598   4.403   3.881  0.9206  0.0967  0.0503
 1842SOL     OW 6966   0.518   2.197   2.579  0.2220  0.4430 -0.0645
 1842SOL    HW1 6967   0.439   2.149   2.604 -0.3762  0.9608 -0.8836
 1842SOL    HW2 6968   0.576   2.130   2.542  0.0403  0.1018  0.2691
 1843SOL     OW 6969   0.791   3.432   3.591  0.1837  0.0216 -0.0336
 1843SOL    HW1 6970   0.856   3.416   3.523 -2.5725 -1.8415 -2.4542
 1843SOL    HW2 6971   0.796   3.355   3.648  0.9545  0.5391  0.6354
 1844SOL     OW 6972   0.309   2.874   6.903  0.2094  0.1614  0.3566
 1844SOL    HW1 6973   0.310   2.942   6.836 -1.0157  0.2237  0.3851
 1844SOL    HW2 6974   0.264   2.913   6.977  0.3791 -0.3540  0.7448
 1845SOL     OW 6975   7.887   3.152   4.825 -0.0474  0.3718  0.2566
 1845SOL    HW1 6976   7.954   3.185   4.884  0.4218 -0.6949  0.3345
 1845SOL    HW2 6977   7.895   3.206   4.746  0.7779  0.3749  0.3390
 1846SOL     OW 6978   0.943   1.325   6.567 -0.0066  0.2705 -0.5215
 1846SOL    HW1 6979   1.010   1.392   6.576  0.7275 -0.4052 -0.8667
 1846SOL    HW2 6980   0.938   1.285   6.654  0.2208  0.1555 -0.5602
 1847SOL     OW 6981   1.180   4.599   5.967 -0.1332 -0.4512 -0.2412
 1847SOL    HW1 6982   1.186   4.690   5.998  0.0148 -0.2714 -0.7931
 1847SOL    HW2 6983   1.093   4.571   5.994 -0.3897  0.0377 -0.5480
 1848SOL     OW 6984   0.762   3.303   5.362 -1.0916 -0.6289 -0.2652
 1848SOL    HW1 6985   0.818   3.379   5.349 -1.2057 -0.3538  0.7633
 1848SOL    HW2 6986   0.794   3.238   5.299 -0.5586  0.0280 -0.6824
 1849SOL     OW 6987   0.759   1.871   4.228 -0.3876 -0.3350 -0.2582
 1849SOL    HW1 6988   0.718   1.950   4.263 -3.3188  0.6450 -4.9628
 1849SOL    HW2 6989   0.842   1.901   4.191  0.0014 -0.1930  0.7001
 1850SOL     OW 6990   0.523   2.785   7.005  0.0057  0.1053  0.5445
 1850SOL    HW1 6991   0.462   2.825   6.943  0.5311  0.0237 -0.0363
 1850SOL    HW2 6992   0.552   2.858   7.060  1.6152  0.7287 -1.0547
 1851SOL     OW 6993   1.265   3.724   4.927 -0.1020  0.0867 -0.2367
 1851SOL    HW1 6994   1.260   3.713   4.832  0.8024 -1.9908 -0.1064
 1851SOL    HW2 6995   1.337   3.785   4.941  1.2887 -1.3309 -0.8798
 1852SOL     OW 6996   1.805   3.375   4.112  0.5016  0.4100  0.1609
 1852SOL    HW1 6997   1.844   3.439   4.171  0.4723 -0.1473  0.7994
 1852SOL    HW2 6998   1.866   3.301   4.112  0.8162  0.6518 -1.0113
 1853SOL     OW 6999   0.630   5.208   2.600  0.4781 -0.3109 -0.4318
 1853SOL    HW1 7000   0.683   5.135   2.631 -0.5496 -1.0797 -0.4390
 1853SOL    HW2 7001   0.562   5.168   2.545 -1.0477  0.4511  0.8045
 1854SOL     OW 7002   6.490   3.804   6.468 -0.3127 -0.6515 -0.3900
 1854SOL    HW1 7003   6.416   3.860   6.490  0.3544  0.2125 -0.2913
 1854SOL    HW2 7004   6.455   3.715   6.474 -1.0540 -0.3082  0.7240
 1855SOL     OW 7005   1.860   4.146   7.593 -0.0181 -0.4523  1.1780
 1855SOL    HW1 7006   1.771   4.115   7.576 -0.7686  1.3143  1.6663
 1855SOL    HW2 7007   1.909   4.123   7.514 -0.3558 -3.2234  1.6739
 1856SOL     OW 7008   0.738   3.608   3.885  0.0694 -0.6732  0.0497
 1856SOL    HW1 7009   0.771   3.695   3.908 -1.7110 -0.4402  1.9708
 1856SOL    HW2 7010   0.690   3.622   3.803  0.1280  0.0709  0.1330
 1857SOL     OW 7011   1.932   2.473   5.566  0.0169 -0.0660 -0.7088
 1857SOL    HW1 7012   1.871   2.454   5.495 -1.4131 -1.4681  0.8144
 1857SOL    HW2 7013   2.019   2.465   5.525 -0.5894  4.4311 -3.5761
 1858SOL     OW 7014   7.075   2.756   3.745 -0.8263  0.1429 -0.3330
 1858SOL    HW1 7015   7.110   2.783   3.830 -0.1639 -0.2597 -0.4701
 1858SOL    HW2 7016   6.981   2.746   3.760 -1.1024  2.3439 -0.2297
 1859SOL     OW 7017   2.520   3.472   6.034  0.6359  0.9100 -0.5264
 1859SOL    HW1 7018   2.506   3.385   6.070  1.1599  1.6904  1.7505
 1859SOL    HW2 7019   2.443   3.489   5.981  0.3629 -0.7826 -0.7319
 1860SOL     OW 7020   0.170   4.441   3.540 -0.2936  0.2163  0.1499
 1860SOL    HW1 7021   0.199   4.525   3.577 -1.6931  0.5792  0.4532
 1860SOL    HW2 7022   0.251   4.389   3.535  0.4099  1.1741  1.0127
 1861SOL     OW 7023   0.471   2.724   5.134 -0.6283  0.0897  0.8418
 1861SOL    HW1 7024   0.543   2.670   5.167  1.1643  1.5538 -0.4567
 1861SOL    HW2 7025   0.433   2.670   5.064  0.1786 -0.1242  0.5465
 1862SOL     OW 7026   0.432   3.742   4.368 -0.0098  0.0943  0.7792
 1862SOL    HW1 7027   0.410   3.697   4.451 -1.3308 -1.4597 -0.3350
 1862SOL    HW2 7028   0.352   3.788   4.345  0.0559 -0.1991 -0.0521
 1863SOL     OW 7029   1.153   2.668   5.277 -0.3235  0.2061 -0.0577
 1863SOL    HW1 7030   1.164   2.587   5.227  1.0261 -0.5554  1.3995
 1863SOL    HW2 7031   1.130   2.639   5.365 -2.1609  1.5012 -0.0462
 1864SOL     OW 7032   6.980   2.703   4.406  1.0118 -0.0488 -0.3212
 1864SOL    HW1 7033   6.912   2.733   4.346  0.0229  0.0186  0.7978
 1864SOL    HW2 7034   7.000   2.614   4.377 -1.3245 -1.0084  0.7813
 1865SOL     OW 7035   0.651   3.964   5.009 -0.4974 -0.0784  0.1281
 1865SOL    HW1 7036   0.646   4.026   4.937  0.9351  0.2292  0.2670
 1865SOL    HW2 7037   0.655   3.878   4.967  1.5273  0.1507 -0.2599
 1866SOL     OW 7038   0.545   2.874   4.103 -0.1009 -0.8888  0.1272
 1866SOL    HW1 7039   0.596   2.940   4.148 -1.6630  0.9754 -0.6897
 1866SOL    HW2 7040   0.609   2.825   4.051  0.8933  1.7596 -1.3548
 1867SOL     OW 7041   0.197   3.042   4.696 -0.3967 -0.3017  0.4165
 1867SOL    HW1 7042   0.143   3.051   4.617  1.2522  1.5211 -0.6078
 1867SOL    HW2 7043   0.277   3.000   4.666  0.3726  0.6726  1.0379
 1868SOL     OW 7044   0.462   1.907   6.013 -0.1965  0.5637 -0.1167
 1868SOL    HW1 7045   0.430   1.850   6.084 -0.4665 -4.2561 -3.5789
 1868SOL    HW2 7046   0.383   1.933   5.967  0.1354 -0.6025 -1.4051
 1869SOL     OW 7047   1.848   3.670   5.624  0.0794  0.0619  0.0152
 1869SOL    HW1 7048   1.918   3.728   5.594  0.7896 -0.3207  0.8643
 1869SOL    HW2 7049   1.833   3.611   5.550  0.3896  0.3954 -0.3185
 1870SOL     OW 7050   1.551   1.457   5.125 -0.6265  0.4710  0.5417
 1870SOL    HW1 7051   1.465   1.490   5.152 -0.4126 -0.8328  3.1116
 1870SOL    HW2 7052   1.554   1.368   5.159  1.1099 -0.0990 -0.9906
 1871SOL     OW 7053   7.935   2.761   4.606  0.3529 -0.4369 -0.1552
 1871SOL    HW1 7054   7.907   2.787   4.518  1.1277 -0.0391 -0.2893
 1871SOL    HW2 7055   7.867   2.701   4.636  0.0905 -0.5891 -1.0374
 1872SOL     OW 7056   1.672   3.511   5.812  0.2272 -0.0471 -0.3148
 1872SOL    HW1 7057   1.616   3.449   5.858 -1.2816  0.9550 -0.7296
 1872SOL    HW2 7058   1.759   3.472   5.816 -0.3268 -1.2295  1.1176
 1873SOL     OW 7059   6.943   1.554   4.984 -0.2561  0.2733 -0.5767
 1873SOL    HW1 7060   7.016   1.496   5.005 -1.1961 -0.5395  0.5689
 1873SOL    HW2 7061   6.974   1.605   4.909  1.0857 -0.7822 -0.7829
 1874SOL     OW 7062   0.956   2.706   5.074  0.7309 -0.5265  0.0727
 1874SOL    HW1 7063   1.022   2.712   5.144  1.6841 -0.4169 -0.8004
 1874SOL    HW2 7064   0.878   2.671   5.117  0.3590  2.1384  1.8321
 1875SOL     OW 7065   0.244   3.439   4.446 -0.4225 -0.4298 -0.0452
 1875SOL    HW1 7066   0.336   3.419   4.462  0.4086  2.6548 -0.3798
 1875SOL    HW2 7067   0.242   3.478   4.359 -2.0257 -0.2270  0.0498
 1876SOL     OW 7068   2.456   1.114   6.830  0.4742  0.2943 -0.2024
 1876SOL    HW1 7069   2.456   1.054   6.905 -0.4158 -0.1186 -0.5147
 1876SOL    HW2 7070   2.467   1.058   6.754 -3.8696 -0.0796 -0.8491
 1877SOL     OW 7071   1.229   3.928   4.543  0.0050 -0.3715 -0.0391
 1877SOL    HW1 7072   1.257   3.952   4.631 -1.1090 -0.2306  0.2974
 1877SOL    HW2 7073   1.249   3.835   4.536 -1.5063 -0.8142  1.0373
 1878SOL     OW 7074   2.840   1.804   4.689 -0.1891  0.0222  0.1849
 1878SOL    HW1 7075   2.860   1.876   4.628  0.6876 -0.3901 -0.0301
 1878SOL    HW2 7076   2.886   1.829   4.769  0.1125 -0.2890  0.1112
 1879SOL     OW 7077   0.338   2.422   2.710  0.1504 -0.1978  0.0714
 1879SOL    HW1 7078   0.389   2.345   2.685 -0.9217 -0.7342 -0.5267
 1879SOL    HW2 7079   0.311   2.406   2.800  0.3008 -0.3154  0.0950
 1880SOL     OW 7080   0.811   3.535   3.160 -0.0602  0.1374  0.0099
 1880SOL    HW1 7081   0.863   3.558   3.083 -0.5127  2.4426  0.3179
 1880SOL    HW2 7082   0.872   3.491   3.219  0.7081 -0.1343 -0.9689
 1881SOL     OW 7083   7.363   2.155   5.221  0.2717  0.2431  0.3138
 1881SOL    HW1 7084   7.395   2.195   5.302  0.8172 -3.0391  1.8992
 1881SOL    HW2 7085   7.269   2.171   5.222  0.5088  1.7264  0.6832
 1882SOL     OW 7086   1.261   3.051   3.345 -0.3769 -0.0808 -0.0189
 1882SOL    HW1 7087   1.289   3.141   3.325 -0.3559  0.5738  2.5882
 1882SOL    HW2 7088   1.326   2.995   3.303 -1.2104  0.9598 -3.0199
 1883SOL     OW 7089   2.428   7.759   6.048  0.3390 -0.2265 -0.2135
 1883SOL    HW1 7090   2.379   7.678   6.033  1.4867 -0.8742 -0.5132
 1883SOL    HW2 7091   2.419   7.808   5.966 -1.4607  0.5818  0.4101
 1884SOL     OW 7092   2.078   2.814   5.794 -0.1316  1.0376  0.1048
 1884SOL    HW1 7093   2.163   2.788   5.761 -1.5169 -1.2017 -2.0348
 1884SOL    HW2 7094   2.036   2.733   5.822 -1.8429  1.9668  0.4155
 1885SOL     OW 7095   0.152   1.121   5.380 -0.1935 -0.1759 -0.3319
 1885SOL    HW1 7096   0.154   1.063   5.456  1.4012 -0.4398 -0.5531
 1885SOL    HW2 7097   0.243   1.144   5.364 -0.2831 -1.3387 -3.0838
 1886SOL     OW 7098   0.838   2.936   4.942  0.7373  0.4506  0.4717
 1886SOL    HW1 7099   0.773   2.900   4.882 -0.4523  0.7829  1.5278
 1886SOL    HW2 7100   0.894   2.861   4.966 -0.7110 -0.3763  1.3853
 1887SOL     OW 7101   7.376   4.473   3.879  0.6932  0.6986 -0.5497
 1887SOL    HW1 7102   7.302   4.472   3.819 -1.1040 -0.4936  1.5338
 1887SOL    HW2 7103   7.352   4.537   3.946  0.6264 -1.0400  1.1665
 1888SOL     OW 7104   1.808   4.310   5.050 -0.2291 -0.7772 -0.1660
 1888SOL    HW1 7105   1.748   4.268   4.989 -1.2341 -0.3596  0.5153
 1888SOL    HW2 7106   1.832   4.393   5.008 -1.6650 -0.0427  0.3750
 1889SOL     OW 7107   1.509   3.974   4.671 -0.0374  0.2569  0.2104
 1889SOL    HW1 7108   1.537   3.927   4.749 -1.1733  0.9489  1.0763
 1889SOL    HW2 7109   1.486   4.061   4.703 -4.2060 -0.4992 -0.0694
 1890SOL     OW 7110   0.254   2.133   4.219  0.1889 -0.1353  0.0440
 1890SOL    HW1 7111   0.312   2.102   4.150 -0.9413 -1.7720 -0.2217
 1890SOL    HW2 7112   0.236   2.055   4.272 -0.4162  0.7066  1.1263
 1891SOL     OW 7113   0.771   2.092   3.321  0.0622 -0.2133  0.1655
 1891SOL    HW1 7114   0.711   2.116   3.251  1.9385  0.5363 -1.2672
 1891SOL    HW2 7115   0.833   2.165   3.325  0.9147 -0.9723  1.5555
 1892SOL     OW 7116   7.113   3.223   3.474 -0.2234  0.5431  0.7575
 1892SOL    HW1 7117   7.089   3.292   3.537  0.8197  0.3126  1.4315
 1892SOL    HW2 7118   7.121   3.144   3.527 -1.7212 -0.1956 -0.0625
 1893SOL     OW 7119   7.339   2.908   4.756 -0.0449 -0.2664  0.1426
 1893SOL    HW1 7120   7.343   2.819   4.789 -1.2444  0.1377  1.5258
 1893SOL    HW2 7121   7.339   2.899   4.661  1.0919 -1.6436  0.2511
 1894SOL     OW 7122   7.922   2.898   5.727 -0.5244 -0.5978 -0.0650
 1894SOL    HW1 7123   7.982   2.924   5.797 -0.9351  3.2812 -0.9075
 1894SOL    HW2 7124   7.910   2.804   5.739  1.6813 -0.6218  3.2504
 1895SOL     OW 7125   1.299   3.236   4.044 -0.0298 -0.2778 -0.4681
 1895SOL    HW1 7126   1.237   3.177   4.000  0.5297 -0.2042 -1.3897
 1895SOL    HW2 7127   1.259   3.323   4.037  0.4262 -0.1389 -1.5854
 1896SOL     OW 7128   0.685   2.928   5.432  0.0932 -0.7780  0.2973
 1896SOL    HW1 7129   0.709   2.843   5.468 -1.2307 -1.6323 -0.7027
 1896SOL    HW2 7130   0.605   2.911   5.382  0.7859  0.6941 -1.4391
 1897SOL     OW 7131   1.098   3.068   3.874  0.5906  0.2905 -0.3582
 1897SOL    HW1 7132   1.083   2.976   3.852 -0.0406  0.1318  0.6825
 1897SOL    HW2 7133   1.015   3.111   3.853  0.5143  0.4191  0.1981
 1898SOL     OW 7134   0.450   4.180   4.373  0.7034 -0.1761 -0.2896
 1898SOL    HW1 7135   0.388   4.108   4.379  0.0703  0.3201 -0.7613
 1898SOL    HW2 7136   0.499   4.176   4.455  0.9740 -1.3999 -0.4970
 1899SOL     OW 7137   1.091   4.465   5.165 -0.3609 -0.1261 -0.5422
 1899SOL    HW1 7138   1.165   4.513   5.202 -0.1332 -0.9954  0.1587
 1899SOL    HW2 7139   1.110   4.462   5.071 -0.1388  0.7304 -0.5318
 1900SOL     OW 7140   1.351   2.430   3.993 -0.0758 -0.2876  0.3275
 1900SOL    HW1 7141   1.272   2.376   3.987  0.1548 -0.5365 -0.8330
 1900SOL    HW2 7142   1.395   2.416   3.909  0.1662  1.4558  0.1327
 1901SOL     OW 7143   1.170   1.061   7.609  0.1338 -0.1807 -0.3866
 1901SOL    HW1 7144   1.253   1.025   7.579  0.0232  0.1277 -1.0818
 1901SOL    HW2 7145   1.170   1.152   7.578  0.2426  0.3200  1.0062
 1902SOL     OW 7146   0.127   2.696   2.349 -0.1917 -0.5088  0.1791
 1902SOL    HW1 7147   0.152   2.662   2.435  1.0168 -0.4488 -0.1355
 1902SOL    HW2 7148   0.168   2.636   2.286 -0.7180 -0.3131 -0.3566
 1903SOL     OW 7149   7.902   1.977   7.021 -0.4947  0.3494 -0.4548
 1903SOL    HW1 7150   7.847   2.020   7.087 -1.2943 -2.1742  0.6368
 1903SOL    HW2 7151   7.863   2.002   6.937 -1.5888  0.8522  0.1748
 1904SOL     OW 7152   0.822   4.136   4.405 -0.0368 -0.4872 -0.4974
 1904SOL    HW1 7153   0.825   4.062   4.345  3.3965  0.2366 -1.4682
 1904SOL    HW2 7154   0.825   4.213   4.347 -0.2016  0.3189  0.5440
 1905SOL     OW 7155   2.844   1.104   6.510  0.1212  0.6565  0.4891
 1905SOL    HW1 7156   2.911   1.131   6.573 -0.0447  1.0894  0.4782
 1905SOL    HW2 7157   2.768   1.159   6.530 -0.3541 -0.0571  0.7222
 1906SOL     OW 7158   6.194   3.927   4.896 -0.6886 -0.5592  0.1159
 1906SOL    HW1 7159   6.209   4.006   4.948 -0.1756  0.2834 -1.2585
 1906SOL    HW2 7160   6.159   3.863   4.958 -0.6447  0.5901  1.3549
 1907SOL     OW 7161   7.868   2.819   4.352  0.5707  0.6721  0.1961
 1907SOL    HW1 7162   7.962   2.817   4.332  0.5215 -0.0742  0.0079
 1907SOL    HW2 7163   7.828   2.853   4.272  0.5484 -0.5079 -0.3141
 1908SOL     OW 7164   1.972   2.210   4.367 -0.1907  0.2754  0.0381
 1908SOL    HW1 7165   1.956   2.135   4.310 -0.3442  0.8215 -0.6536
 1908SOL    HW2 7166   1.899   2.209   4.429 -0.0101 -0.3390  0.2418
 1909SOL     OW 7167   0.909   4.576   3.767 -0.2380 -0.4433  0.9658
 1909SOL    HW1 7168   0.867   4.530   3.840 -0.4922  0.5129  1.4465
 1909SOL    HW2 7169   0.954   4.650   3.808 -1.0512  0.5756  0.0759
 1910SOL     OW 7170   6.982   1.730   3.177  0.3407 -0.0239  0.8642
 1910SOL    HW1 7171   7.032   1.676   3.117 -2.1048 -0.7201 -0.7275
 1910SOL    HW2 7172   6.891   1.701   3.166 -1.0719  3.8810  0.4162
 1911SOL     OW 7173   1.926   4.170   4.394 -0.2218  0.1050 -0.2608
 1911SOL    HW1 7174   1.901   4.142   4.482  1.9773  1.2441  0.8371
 1911SOL    HW2 7175   1.920   4.266   4.397  1.6773  0.2879 -0.6716
 1912SOL     OW 7176   1.014   2.229   6.696  0.5508  0.8599 -0.6130
 1912SOL    HW1 7177   1.070   2.221   6.618 -0.9074 -1.3575 -1.5284
 1912SOL    HW2 7178   1.052   2.167   6.759 -0.2620  0.0416 -0.8976
 1913SOL     OW 7179   7.970   4.305   4.921  0.0378 -0.3702 -0.7732
 1913SOL    HW1 7180   7.966   4.233   4.984  1.5117 -1.0099 -1.3640
 1913SOL    HW2 7181   8.057   4.342   4.932 -0.4841  0.9375 -0.9193
 1914SOL     OW 7182   0.718   2.601   5.231 -0.5159  0.0092  0.2713
 1914SOL    HW1 7183   0.725   2.627   5.323  1.6037 -0.7723  0.3879
 1914SOL    HW2 7184   0.713   2.506   5.234  0.8052 -0.1071 -0.4329
 1915SOL     OW 7185   7.813   4.007   2.590 -0.1619 -0.3359  0.2649
 1915SOL    HW1 7186   7.841   4.081   2.644  0.7368  0.6696 -1.4675
 1915SOL    HW2 7187   7.830   3.930   2.644 -0.7055  0.6811  1.9541
 1916SOL     OW 7188   0.952   3.666   2.948 -0.3056 -0.0515 -0.4122
 1916SOL    HW1 7189   0.920   3.581   2.918  0.8030 -1.1840  1.4274
 1916SOL    HW2 7190   1.046   3.663   2.930  0.5956 -1.1245  3.5887
 1917SOL     OW 7191   0.983   2.750   5.906 -0.5103  0.1522 -0.4360
 1917SOL    HW1 7192   1.001   2.713   5.992 -1.4372  0.4501 -0.0957
 1917SOL    HW2 7193   1.007   2.682   5.844  1.2569  0.3416 -0.0215
 1918SOL     OW 7194   7.549   2.474   6.389  0.0835  0.2908  0.1359
 1918SOL    HW1 7195   7.612   2.446   6.323 -1.1770 -0.0005 -0.9874
 1918SOL    HW2 7196   7.483   2.522   6.340 -0.4805  0.7704  1.3146
 1919SOL     OW 7197   0.861   2.112   4.984  0.5474  0.2814 -0.0742
 1919SOL    HW1 7198   0.827   2.189   4.939  2.2216  2.3440  1.9306
 1919SOL    HW2 7199   0.895   2.056   4.914  0.8049  2.1653 -1.5401
 1920SOL     OW 7200   1.649   0.889   4.883 -0.2614 -0.0128  0.0552
 1920SOL    HW1 7201   1.659   0.978   4.849 -1.3893  0.2552  0.3924
 1920SOL    HW2 7202   1.658   0.899   4.978 -2.1105  0.0328  0.2543
 1921SOL     OW 7203   1.726   4.987   6.262 -0.3608 -0.2816  0.2188
 1921SOL    HW1 7204   1.643   5.031   6.244  0.9040  0.9342 -3.4820
 1921SOL    HW2 7205   1.776   5.049   6.314  0.0911  1.3384 -2.0136
 1922SOL     OW 7206   1.010   2.466   4.612 -0.3714  0.1871 -0.6453
 1922SOL    HW1 7207   1.038   2.435   4.698  0.5383 -0.8006 -1.2739
 1922SOL    HW2 7208   0.923   2.429   4.601  0.0359 -0.7770 -0.6883
 1923SOL     OW 7209   1.786   3.332   2.206 -0.3622 -0.0133 -0.3239
 1923SOL    HW1 7210   1.704   3.287   2.189  0.3750 -2.1078  1.2083
 1923SOL    HW2 7211   1.819   3.357   2.120 -2.6803  1.1436 -0.9524
 1924SOL     OW 7212   1.491   2.856   3.503  0.0826 -0.1673 -0.3269
 1924SOL    HW1 7213   1.552   2.795   3.544  2.2451  2.1907  0.2131
 1924SOL    HW2 7214   1.546   2.911   3.447 -1.5362  2.0850  0.1696
 1925SOL     OW 7215   0.908   3.572   5.332  0.5117  0.1500  0.3178
 1925SOL    HW1 7216   0.895   3.636   5.262 -1.3880 -0.2934  0.2060
 1925SOL    HW2 7217   1.001   3.551   5.328  0.4623  0.1303 -2.0938
 1926SOL     OW 7218   1.270   1.833   3.122 -0.6211  0.0905  0.8345
 1926SOL    HW1 7219   1.315   1.916   3.135 -0.8135  0.2353  0.5713
 1926SOL    HW2 7220   1.201   1.832   3.188 -1.1126  0.4880  0.3401
 1927SOL     OW 7221   7.371   0.166   3.643  0.0497 -0.1252 -0.0351
 1927SOL    HW1 7222   7.291   0.143   3.595 -0.6738  1.7453  0.2171
 1927SOL    HW2 7223   7.344   0.236   3.703  1.7440  0.0833  0.5286
 1928SOL     OW 7224   0.427   2.562   4.924 -0.0125 -0.0357 -0.1391
 1928SOL    HW1 7225   0.352   2.556   4.865  0.6641  1.2771 -1.1810
 1928SOL    HW2 7226   0.464   2.473   4.925  0.2641  0.0222 -2.1360
 1929SOL     OW 7227   0.731   2.466   4.102  0.3292  0.2458 -0.1709
 1929SOL    HW1 7228   0.781   2.525   4.045 -0.2386  1.8359  0.9251
 1929SOL    HW2 7229   0.688   2.524   4.164 -0.9053 -1.2887  0.4478
 1930SOL     OW 7230   1.878   3.880   6.225 -0.0210  0.0597 -0.2789
 1930SOL    HW1 7231   1.861   3.974   6.220  0.1903  0.1384  0.3707
 1930SOL    HW2 7232   1.926   3.869   6.307  0.9457 -0.4716 -0.8966
 1931SOL     OW 7233   1.307   2.299   6.269 -0.4227  0.0206 -0.4142
 1931SOL    HW1 7234   1.251   2.280   6.194 -0.9391  0.7031 -0.2102
 1931SOL    HW2 7235   1.297   2.393   6.283  1.0193  0.2257 -0.5763
 1932SOL     OW 7236   2.028   3.093   5.358 -0.2290 -0.8933  0.2866
 1932SOL    HW1 7237   2.051   3.132   5.273  0.7672  0.7100  1.2471
 1932SOL    HW2 7238   1.954   3.035   5.339 -1.5903  1.2368 -1.2753
 1933SOL     OW 7239   7.777   7.711   4.862 -0.4118  0.5337 -0.5944
 1933SOL    HW1 7240   7.740   7.775   4.923  0.5425 -0.1545  0.7603
 1933SOL    HW2 7241   7.766   7.627   4.906 -0.0111 -0.0210 -1.5305
 1934SOL     OW 7242   2.040   2.565   5.869  0.1863  0.4418  0.3041
 1934SOL    HW1 7243   2.041   2.537   5.960  1.0123  0.8148  0.4187
 1934SOL    HW2 7244   2.064   2.487   5.819  2.8209  0.9446  0.6459
 1935SOL     OW 7245   1.050   4.813   3.950  0.2043  0.1073 -0.1777
 1935SOL    HW1 7246   1.095   4.807   4.035  0.7672 -1.0138 -0.5350
 1935SOL    HW2 7247   0.957   4.805   3.971  0.2588  0.9730  0.4354
 1936SOL     OW 7248   6.732   1.098   4.986  0.2908  0.4711 -0.1039
 1936SOL    HW1 7249   6.644   1.137   4.983  0.0314 -0.1743 -2.1778
 1936SOL    HW2 7250   6.721   1.012   4.945  1.8629  0.2985 -0.2019
 1937SOL     OW 7251   2.032   2.369   6.431 -0.5830 -0.6178  0.4782
 1937SOL    HW1 7252   2.019   2.460   6.460  0.0358 -0.4164  0.1551
 1937SOL    HW2 7253   2.045   2.376   6.337  1.8483 -0.7502  0.7325
 1938SOL     OW 7254   7.728   2.636   4.741  0.7892 -0.2701 -0.3619
 1938SOL    HW1 7255   7.635   2.652   4.728  1.0273  1.3039 -0.2545
 1938SOL    HW2 7256   7.731   2.567   4.807 -0.2986 -0.3272 -0.3524
 1939SOL     OW 7257   0.434   2.918   5.340 -0.2555  0.0869 -0.0684
 1939SOL    HW1 7258   0.344   2.922   5.370 -0.6327 -0.2939 -1.1096
 1939SOL    HW2 7259   0.433   2.857   5.267  0.9991 -0.5461  0.4045
 1940SOL     OW 7260   2.298   3.269   5.206 -0.0494  1.1264  0.2611
 1940SOL    HW1 7261   2.260   3.244   5.121 -0.1625  2.5691 -0.1346
 1940SOL    HW2 7262   2.235   3.332   5.242 -0.2939  0.0949  1.6959
 1941SOL     OW 7263   0.439   4.484   4.893  0.1400  0.4787 -0.1200
 1941SOL    HW1 7264   0.446   4.477   4.989 -0.9972  1.5664  0.0726
 1941SOL    HW2 7265   0.356   4.529   4.879 -0.3417 -0.7894 -1.6801
 1942SOL     OW 7266   0.868   5.193   7.003 -0.4016 -0.6556 -0.4681
 1942SOL    HW1 7267   0.924   5.132   7.052 -0.5916  0.6187  1.4820
 1942SOL    HW2 7268   0.797   5.139   6.969 -1.2320 -1.4340  2.2170
 1943SOL     OW 7269   2.130   3.849   4.222 -0.7823 -0.2455  0.0573
 1943SOL    HW1 7270   2.083   3.812   4.297 -2.5900  0.6611 -0.5771
 1943SOL    HW2 7271   2.222   3.828   4.239 -1.3357 -1.6951  1.5814
 1944SOL     OW 7272   7.678   2.900   6.473  0.3446 -1.0214 -0.2898
 1944SOL    HW1 7273   7.613   2.930   6.410  1.1112  4.1411  0.9008
 1944SOL    HW2 7274   7.750   2.867   6.419 -0.1770  0.5430 -2.0718
 1945SOL     OW 7275   0.278   2.172   5.992  0.2432  0.0183 -0.5508
 1945SOL    HW1 7276   0.365   2.208   5.976 -0.0233  0.2227 -1.6006
 1945SOL    HW2 7277   0.236   2.171   5.906 -0.9771  0.4201  0.0153
 1946SOL     OW 7278   1.098   3.727   4.187  0.3554  0.2403 -0.5432
 1946SOL    HW1 7279   1.138   3.658   4.134 -0.0752 -1.0311  0.7268
 1946SOL    HW2 7280   1.172   3.779   4.217  1.0224 -1.4427  0.8891
 1947SOL     OW 7281   2.292   0.467   5.860  0.1620 -0.2968 -0.1347
 1947SOL    HW1 7282   2.353   0.540   5.853 -0.6706  0.5598  1.1408
 1947SOL    HW2 7283   2.205   0.506   5.846 -0.2316 -1.1846 -0.2567
 1948SOL     OW 7284   0.814   0.730   5.427 -0.2304 -0.0842 -0.5781
 1948SOL    HW1 7285   0.851   0.695   5.508  0.0203  0.2660 -0.5417
 1948SOL    HW2 7286   0.730   0.767   5.453 -0.0450  0.2400 -0.4298
 1949SOL     OW 7287   0.709   3.287   4.307  0.4056  0.0790  0.1436
 1949SOL    HW1 7288   0.749   3.283   4.393  0.6486 -0.2633  0.0179
 1949SOL    HW2 7289   0.616   3.303   4.324  0.3232 -0.7415  0.4955
 1950SOL     OW 7290   1.385   3.461   6.834  0.5700  0.4235  0.4226
 1950SOL    HW1 7291   1.455   3.476   6.770  0.3444  0.1156  0.1001
 1950SOL    HW2 7292   1.359   3.370   6.820 -0.8532  0.9280 -0.4345
 1951SOL     OW 7293   7.805   3.425   3.622 -0.5507 -0.6947  0.4626
 1951SOL    HW1 7294   7.867   3.364   3.582 -0.7301 -1.6049  1.4978
 1951SOL    HW2 7295   7.719   3.391   3.598 -0.6515 -0.7703  0.9180
 1952SOL     OW 7296   7.104   3.809   3.721 -0.2231 -0.0668 -0.1301
 1952SOL    HW1 7297   7.027   3.752   3.727 -0.8062  0.7242  0.0727
 1952SOL    HW2 7298   7.124   3.812   3.627 -0.4455 -0.2664 -0.1863
 1953SOL     OW 7299   1.968   3.042   4.509  0.9271  0.3113  0.1097
 1953SOL    HW1 7300   1.984   3.086   4.426  1.8640  0.9334  0.6062
 1953SOL    HW2 7301   1.872   3.039   4.517  0.7718 -1.1952 -1.7261
 1954SOL     OW 7302   1.756   3.632   6.573  0.8024  0.4028  0.3787
 1954SOL    HW1 7303   1.752   3.561   6.638  0.4628 -0.1076 -0.1876
 1954SOL    HW2 7304   1.835   3.615   6.523 -0.5979 -1.1522 -1.4831
 1955SOL     OW 7305   7.320   3.519   3.775  1.0271 -0.0586  0.4652
 1955SOL    HW1 7306   7.356   3.435   3.747  0.9944 -0.2787  1.0680
 1955SOL    HW2 7307   7.356   3.582   3.713  1.9344 -0.3669  0.6634
 1956SOL     OW 7308   2.051   2.313   4.023 -0.6045  0.8370 -0.0184
 1956SOL    HW1 7309   2.025   2.230   3.984 -1.4310  0.7267  0.7330
 1956SOL    HW2 7310   2.054   2.374   3.949 -1.2650  0.4335 -0.3858
 1957SOL     OW 7311   0.725   1.076   5.822  0.1991  0.1621  0.2480
 1957SOL    HW1 7312   0.667   1.004   5.799 -0.3235  0.0033  1.9273
 1957SOL    HW2 7313   0.794   1.034   5.874  2.0103  0.3033 -1.8824
 1958SOL     OW 7314   0.358   1.927   5.065 -0.6464 -0.2995  0.2614
 1958SOL    HW1 7315   0.346   1.931   5.160  2.3216  1.7372  0.6702
 1958SOL    HW2 7316   0.300   1.994   5.030  1.1829  1.8079  1.0935
 1959SOL     OW 7317   7.207   2.024   5.837  0.0130  0.2161  0.4179
 1959SOL    HW1 7318   7.131   2.077   5.861 -1.9799 -2.3171  0.1465
 1959SOL    HW2 7319   7.272   2.087   5.809 -1.3182  2.6443  2.3435
 1960SOL     OW 7320   1.921   3.514   7.369 -0.2503 -0.4010  0.1069
 1960SOL    HW1 7321   2.000   3.529   7.317 -1.9650  1.7229 -2.1575
 1960SOL    HW2 7322   1.879   3.439   7.328 -0.3757 -0.2859  0.0231
 1961SOL     OW 7323   0.745   2.499   3.503 -0.1097  0.4353  0.2745
 1961SOL    HW1 7324   0.816   2.437   3.523  0.1332  0.5515 -0.2177
 1961SOL    HW2 7325   0.788   2.570   3.456 -0.9169 -0.6925 -2.3499
 1962SOL     OW 7326   1.566   3.141   4.041 -0.4602 -0.3684  0.4486
 1962SOL    HW1 7327   1.624   3.209   4.072  0.2356  0.4415 -2.3318
 1962SOL    HW2 7328   1.478   3.177   4.051 -0.1896  0.3052  0.4131
 1963SOL     OW 7329   0.479   4.110   4.000  0.5020  0.0417  0.3320
 1963SOL    HW1 7330   0.409   4.066   3.953 -0.3843  0.2141  1.4353
 1963SOL    HW2 7331   0.513   4.175   3.939  0.3184 -0.6644 -0.5312
 1964SOL     OW 7332   7.866   1.525   4.861  0.6369  0.5466 -0.1610
 1964SOL    HW1 7333   7.885   1.456   4.925 -0.6469  1.4668  1.2691
 1964SOL    HW2 7334   7.820   1.592   4.911 -0.0483  1.4944 -1.9829
 1965SOL     OW 7335   7.408   2.196   4.967  0.3459 -0.1781  0.4438
 1965SOL    HW1 7336   7.400   2.292   4.968  2.6324  0.0998 -0.8231
 1965SOL    HW2 7337   7.399   2.170   5.058 -1.2702  1.1288  0.7023
 1966SOL     OW 7338   0.750   2.270   4.787  0.0761  0.4097 -0.2501
 1966SOL    HW1 7339   0.748   2.358   4.827  0.4972  0.4547 -0.3252
 1966SOL    HW2 7340   0.664   2.261   4.747  0.1469  0.9278 -0.5340
 1967SOL     OW 7341   0.428   2.042   3.578 -0.3631 -0.2851 -0.5929
 1967SOL    HW1 7342   0.435   2.004   3.491 -0.2259  0.2569 -0.8218
 1967SOL    HW2 7343   0.477   2.124   3.573  2.0222 -1.5078  0.7619
 1968SOL     OW 7344   0.699   3.055   3.334 -0.5084  0.7459  0.1474
 1968SOL    HW1 7345   0.683   2.980   3.391  0.7113 -0.4545 -1.0184
 1968SOL    HW2 7346   0.625   3.114   3.350 -0.1510  0.5542  3.0348
 1969SOL     OW 7347   5.052   1.314   5.690  0.0695 -0.6275  0.5553
 1969SOL    HW1 7348   5.114   1.377   5.655  0.9916 -2.6282 -1.7086
 1969SOL    HW2 7349   4.993   1.295   5.617 -3.7575  1.6009  2.7381
 1970SOL     OW 7350   7.766   2.135   5.140  0.2767 -0.4177 -0.0982
 1970SOL    HW1 7351   7.733   2.054   5.177 -0.7208  0.0151 -0.0243
 1970SOL    HW2 7352   7.730   2.138   5.051  1.1308 -0.5406 -0.4576
 1971SOL     OW 7353   1.302   2.947   5.446 -0.3974  0.1572 -0.3813
 1971SOL    HW1 7354   1.224   3.001   5.433  0.3519  1.5459  0.7132
 1971SOL    HW2 7355   1.328   2.921   5.357  0.6780  3.7218 -1.2685
 1972SOL     OW 7356   7.476   0.952   4.526  0.5886  0.0097  0.1971
 1972SOL    HW1 7357   7.407   1.019   4.533 -0.1115 -0.2791 -2.7209
 1972SOL    HW2 7358   7.429   0.869   4.534  0.5453 -0.1864 -1.6582
 1973SOL     OW 7359   1.846   1.353   7.811  0.0166 -0.1984  0.1880
 1973SOL    HW1 7360   1.872   1.336   7.721  0.2436 -1.3526  0.4532
 1973SOL    HW2 7361   1.928   1.346   7.862  0.1801  1.9519  0.3296
 1974SOL     OW 7362   2.867   2.910   5.986  0.5965  0.0045  0.3750
 1974SOL    HW1 7363   2.825   2.978   5.934  1.6753  1.5435  1.4439
 1974SOL    HW2 7364   2.889   2.842   5.923 -0.3294  0.7013 -0.7565
 1975SOL     OW 7365   0.468   3.207   3.272 -0.4589 -0.3233  0.7571
 1975SOL    HW1 7366   0.434   3.163   3.193 -2.2072 -0.9315  1.7838
 1975SOL    HW2 7367   0.511   3.285   3.239  0.0747 -1.2700 -0.9089
 1976SOL     OW 7368   0.820   3.324   5.631  0.3109  0.8962  0.2271
 1976SOL    HW1 7369   0.851   3.233   5.629 -2.3004 -0.1631  2.1027
 1976SOL    HW2 7370   0.791   3.342   5.541  0.0659 -0.4356  0.0238
 1977SOL     OW 7371   6.791   2.699   6.500 -0.1912  0.4915 -0.3696
 1977SOL    HW1 7372   6.701   2.730   6.512 -0.0681  0.7686 -0.1531
 1977SOL    HW2 7373   6.844   2.759   6.552  0.0139 -0.2966  0.3606
 1978SOL     OW 7374   7.727   2.977   4.617  0.3113  0.1296  0.1689
 1978SOL    HW1 7375   7.808   3.011   4.656  0.1129  0.3965  0.3526
 1978SOL    HW2 7376   7.750   2.890   4.586  1.3701  1.1516 -2.1092
 1979SOL     OW 7377   1.084   2.376   5.836  0.4143  0.3785 -0.1073
 1979SOL    HW1 7378   1.051   2.348   5.750  1.3261 -0.7738 -0.1044
 1979SOL    HW2 7379   1.005   2.389   5.888 -0.1655  1.3306 -1.1849
 1980SOL     OW 7380   1.422   2.774   2.354 -0.9708 -0.3465 -0.4806
 1980SOL    HW1 7381   1.433   2.718   2.431 -1.3934  0.7470  0.3895
 1980SOL    HW2 7382   1.396   2.713   2.284  0.6497 -1.5417 -0.1141
 1981SOL     OW 7383   7.762   3.485   4.079 -0.0652 -0.0434 -0.0097
 1981SOL    HW1 7384   7.667   3.489   4.094 -0.0383  1.3542 -0.0869
 1981SOL    HW2 7385   7.799   3.535   4.152  0.5381  0.4141 -0.6234
 1982SOL     OW 7386   1.700   3.087   6.282  0.1229  0.1952 -0.1622
 1982SOL    HW1 7387   1.742   3.001   6.287  0.6633  0.5226  1.2003
 1982SOL    HW2 7388   1.668   3.104   6.370 -1.6099  0.6059 -0.8298
 1983SOL     OW 7389   1.241   3.555   1.721 -0.3336  0.2857  0.4299
 1983SOL    HW1 7390   1.212   3.464   1.732 -0.3634  0.1703 -0.5374
 1983SOL    HW2 7391   1.332   3.554   1.751  0.3087 -0.5312 -1.4113
 1984SOL     OW 7392   2.102   3.509   3.857  0.4260  0.1623  0.2198
 1984SOL    HW1 7393   2.075   3.468   3.775 -0.7261  0.1506  0.5986
 1984SOL    HW2 7394   2.081   3.445   3.924 -2.2444  1.6403  0.9237
 1985SOL     OW 7395   0.498   2.425   4.508 -0.2346 -0.2437  0.3452
 1985SOL    HW1 7396   0.510   2.390   4.596 -1.8884  1.4828  1.3454
 1985SOL    HW2 7397   0.453   2.509   4.522 -3.8444 -1.4847 -2.2519
 1986SOL     OW 7398   7.920   3.100   4.024 -0.0251  0.0505  0.0579
 1986SOL    HW1 7399   7.859   3.149   3.969 -0.6574 -0.5666  0.1838
 1986SOL    HW2 7400   7.873   3.019   4.045  0.9918 -0.6157 -0.1590
 1987SOL     OW 7401   0.511   3.551   4.635 -0.2071 -0.4717  0.2985
 1987SOL    HW1 7402   0.593   3.513   4.668  1.0406  2.3500  0.7318
 1987SOL    HW2 7403   0.443   3.512   4.690  1.3456  0.4114  3.0652
 1988SOL     OW 7404   1.822   2.380   3.764  0.7252  0.9027 -0.0685
 1988SOL    HW1 7405   1.779   2.412   3.685 -1.0088  1.5927  1.0792
 1988SOL    HW2 7406   1.910   2.355   3.736  0.2830  1.4855 -2.1122
 1989SOL     OW 7407   0.532   4.232   4.876 -0.8248  0.5539 -0.1011
 1989SOL    HW1 7408   0.506   4.324   4.873 -0.3425  0.6850 -0.4057
 1989SOL    HW2 7409   0.515   4.206   4.966  1.4011  1.6732  0.7436
 1990SOL     OW 7410   2.108   3.233   7.611  0.0893 -0.0132 -0.3590
 1990SOL    HW1 7411   2.093   3.138   7.609  0.1526 -0.0142 -1.3899
 1990SOL    HW2 7412   2.132   3.255   7.521 -3.6060  1.5661 -1.1488
 1991SOL     OW 7413   2.086   3.958   3.971 -0.1015  0.1628 -0.2066
 1991SOL    HW1 7414   2.116   3.886   4.027 -0.1611 -0.0661 -0.4660
 1991SOL    HW2 7415   2.126   4.036   4.009 -0.6717  0.0990  0.5566
 1992SOL     OW 7416   0.358   3.576   5.303 -0.2094  0.5521 -0.2469
 1992SOL    HW1 7417   0.279   3.570   5.358 -0.0681 -0.4964 -0.1343
 1992SOL    HW2 7418   0.415   3.636   5.350 -1.1358  1.7428 -0.5863
 1993SOL     OW 7419   7.883   3.316   3.235  0.1315  0.3394 -0.4586
 1993SOL    HW1 7420   7.855   3.401   3.270 -0.4307  0.1062 -0.3249
 1993SOL    HW2 7421   7.930   3.275   3.307  1.4759  1.0317 -0.9171
 1994SOL     OW 7422   1.408   4.688   4.163  0.1796 -0.0007 -0.0839
 1994SOL    HW1 7423   1.344   4.632   4.118  1.2403 -1.0930 -0.2905
 1994SOL    HW2 7424   1.416   4.765   4.106  1.0863 -1.1127 -1.5458
 1995SOL     OW 7425   1.168   2.011   5.153 -0.2186  0.0978 -0.0072
 1995SOL    HW1 7426   1.171   2.088   5.210  0.2854  0.6336 -0.7245
 1995SOL    HW2 7427   1.144   2.047   5.067  0.3941 -0.4915 -0.4345
 1996SOL     OW 7428   7.526   2.221   3.608 -0.2292  0.0655 -0.6435
 1996SOL    HW1 7429   7.570   2.306   3.602  3.9160 -1.7920 -0.0807
 1996SOL    HW2 7430   7.469   2.228   3.684  1.2557  1.8652  0.3719
 1997SOL     OW 7431   1.877   3.968   2.690 -0.1890  0.2691 -0.2614
 1997SOL    HW1 7432   1.914   3.970   2.778 -1.9464  2.3586  0.5351
 1997SOL    HW2 7433   1.902   4.053   2.652 -0.2420 -0.2191 -1.4362
 1998SOL     OW 7434   0.846   3.054   5.233  0.0478  0.0928 -0.1723
 1998SOL    HW1 7435   0.854   2.983   5.169  0.1727 -0.3403  0.3129
 1998SOL    HW2 7436   0.833   3.009   5.317 -0.5328  0.6555  0.0487
 1999SOL     OW 7437   1.756   3.348   3.812  0.3930  0.5231 -0.0575
 1999SOL    HW1 7438   1.681   3.407   3.797 -1.5678 -1.7951  0.0086
 1999SOL    HW2 7439   1.767   3.347   3.907 -2.6019 -2.4610  0.4752
 2000SOL     OW 7440   0.784   4.669   4.310 -0.2317 -0.3585 -0.4177
 2000SOL    HW1 7441   0.762   4.578   4.292  2.3826 -1.3929  1.0084
 2000SOL    HW2 7442   0.722   4.697   4.377  0.1176 -1.7468  0.5145
 2001SOL     OW 7443   0.898   2.391   3.891 -0.0028  0.1828 -0.2298
 2001SOL    HW1 7444   0.861   2.392   3.802  1.6760  1.3671 -0.9704
 2001SOL    HW2 7445   0.829   2.353   3.945 -1.1633 -0.3547 -2.0001
 2002SOL     OW 7446   0.543   1.205   5.632 -0.2693  0.1131  0.5363
 2002SOL    HW1 7447   0.560   1.290   5.672  0.2813  0.9380 -1.3570
 2002SOL    HW2 7448   0.459   1.178   5.668 -0.2925  1.2803  1.4257
 2003SOL     OW 7449   0.336   2.418   4.253  0.0772 -0.1823  0.4933
 2003SOL    HW1 7450   0.312   2.333   4.217  0.7481 -0.6540  1.1462
 2003SOL    HW2 7451   0.385   2.398   4.332  2.7492  0.6980 -0.8166
 2004SOL     OW 7452   0.272   3.255   3.576 -0.4443 -0.3965 -0.6136
 2004SOL    HW1 7453   0.266   3.274   3.670 -0.6539 -1.2640 -0.4442
 2004SOL    HW2 7454   0.254   3.161   3.569  1.3885 -0.7359 -1.3317
 2005SOL     OW 7455   1.443   2.616   4.162  0.2435 -0.2010 -0.3083
 2005SOL    HW1 7456   1.414   2.542   4.109 -1.0116 -0.6421  0.9390
 2005SOL    HW2 7457   1.538   2.617   4.153  0.4655 -2.9068  0.8104
 2006SOL     OW 7458   1.879   2.677   6.249  0.4232 -0.6103  0.3698
 2006SOL    HW1 7459   1.920   2.760   6.224  2.4527 -1.4973  0.5885
 2006SOL    HW2 7460   1.933   2.610   6.208  0.0010 -1.8891  1.8174
 2007SOL     OW 7461   7.794   2.862   4.092  0.4703 -0.0157 -0.6876
 2007SOL    HW1 7462   7.833   2.793   4.037  0.2438 -0.5513 -0.1912
 2007SOL    HW2 7463   7.700   2.845   4.088  0.5748 -2.0471  2.3459
 2008SOL     OW 7464   0.379   1.781   5.532 -0.4069  0.5591  0.3739
 2008SOL    HW1 7465   0.295   1.761   5.574 -0.0301 -2.3727 -0.0552
 2008SOL    HW2 7466   0.443   1.772   5.602 -0.1341 -0.8317 -0.0224
 2009SOL     OW 7467   1.752   2.353   5.371  0.1039 -0.8280 -0.0765
 2009SOL    HW1 7468   1.657   2.338   5.370  0.4204 -3.2529  0.5924
 2009SOL    HW2 7469   1.790   2.267   5.354  2.2114  0.0466 -0.0667
 2010SOL     OW 7470   7.424   2.931   4.485  0.1994 -0.1118 -0.5523
 2010SOL    HW1 7471   7.497   2.991   4.502 -0.2600  0.5359 -0.8083
 2010SOL    HW2 7472   7.369   2.979   4.422 -1.1075 -0.0520  0.5939
 2011SOL     OW 7473   0.493   2.709   6.665  0.6073 -0.1974 -0.2878
 2011SOL    HW1 7474   0.417   2.744   6.617 -0.2750 -1.0764  0.4369
 2011SOL    HW2 7475   0.563   2.709   6.600 -0.5159 -1.2082 -1.5675
 2012SOL     OW 7476   0.023   0.443   4.719  0.6135  0.4423  0.0355
 2012SOL    HW1 7477  -0.007   0.529   4.748  1.0757  0.3252  0.8831
 2012SOL    HW2 7478  -0.057   0.395   4.699  0.3665  1.1862 -0.8051
 2013SOL     OW 7479   1.092   5.653   2.838 -0.0661 -0.0794 -0.2893
 2013SOL    HW1 7480   1.055   5.571   2.805  1.1195 -1.0462  0.6756
 2013SOL    HW2 7481   1.023   5.688   2.895 -0.3278 -0.7636 -0.1672
 2014SOL     OW 7482   1.414   4.276   3.352 -0.2181  0.5332 -0.9355
 2014SOL    HW1 7483   1.387   4.339   3.285 -0.5465  1.1394 -0.2384
 2014SOL    HW2 7484   1.342   4.275   3.415  0.1357  0.0459 -0.5290
 2015SOL     OW 7485   2.163   3.567   5.680  0.4071 -0.6166 -0.7539
 2015SOL    HW1 7486   2.211   3.511   5.619 -0.4546 -1.0014 -1.1095
 2015SOL    HW2 7487   2.072   3.537   5.672 -0.4117  1.9579 -2.2815
 2016SOL     OW 7488   1.424   3.454   5.007 -0.0219 -0.4118 -0.0831
 2016SOL    HW1 7489   1.377   3.525   4.963  1.2603 -0.2819 -1.3202
 2016SOL    HW2 7490   1.364   3.379   5.002 -1.1315  0.3897  0.6916
 2017SOL     OW 7491   7.797   4.503   6.065 -0.1991  0.4053  0.3645
 2017SOL    HW1 7492   7.881   4.547   6.056  0.0729  0.3108  2.0968
 2017SOL    HW2 7493   7.751   4.554   6.132 -1.0728 -0.2170  0.2537
 2018SOL     OW 7494   1.540   2.189   4.906  0.4140 -0.2734  0.2051
 2018SOL    HW1 7495   1.551   2.284   4.904 -0.2499 -0.1825  0.4646
 2018SOL    HW2 7496   1.578   2.162   4.989  1.2531 -0.3303 -0.1899
 2019SOL     OW 7497   7.907   2.466   4.322  0.3915  0.0166 -0.3221
 2019SOL    HW1 7498   7.959   2.388   4.343  1.3669  0.5545 -0.7068
 2019SOL    HW2 7499   7.830   2.432   4.277  0.3039 -0.8063  0.4173
 2020SOL     OW 7500   1.736   2.403   5.985 -0.0609 -0.3898 -0.4866
 2020SOL    HW1 7501   1.820   2.402   6.030 -0.4120 -1.3376  0.1826
 2020SOL    HW2 7502   1.674   2.438   6.049  0.0665  1.9500 -1.5154
 2021SOL     OW 7503   2.495   3.559   5.668  0.4700  0.3554  0.2339
 2021SOL    HW1 7504   2.446   3.477   5.665 -1.8773  1.6880 -0.0425
 2021SOL    HW2 7505   2.574   3.538   5.717 -0.1026 -2.0496  0.2233
 2022SOL     OW 7506   0.437   5.513   4.172  0.3948 -0.4461 -0.3068
 2022SOL    HW1 7507   0.407   5.507   4.263 -0.0085  0.1967 -0.3912
 2022SOL    HW2 7508   0.402   5.435   4.130  0.4586 -0.6710  0.0497
 2023SOL     OW 7509   7.967   2.840   4.885 -0.0119  0.1848 -0.1920
 2023SOL    HW1 7510   7.923   2.924   4.895  2.6451  2.3263 -3.6781
 2023SOL    HW2 7511   7.961   2.821   4.791  1.8324 -2.0903  0.0463
 2024SOL     OW 7512   7.854   1.583   3.680  0.2165  0.5777 -0.0759
 2024SOL    HW1 7513   7.804   1.510   3.717  2.1096 -0.9875 -0.4466
 2024SOL    HW2 7514   7.834   1.657   3.737 -1.3237 -0.3646  0.6632
 2025SOL     OW 7515   2.350   2.162   5.737  0.7968 -0.4007 -0.3527
 2025SOL    HW1 7516   2.355   2.145   5.831  3.2891 -0.7374 -0.4628
 2025SOL    HW2 7517   2.325   2.254   5.730  0.7553 -0.3308  0.6416
 2026SOL     OW 7518   1.756   3.645   4.958 -0.2737  0.3098 -0.5551
 2026SOL    HW1 7519   1.833   3.604   4.919 -0.8401 -0.4373 -0.9276
 2026SOL    HW2 7520   1.718   3.576   5.012 -2.0036 -0.1488 -2.2508
 2027SOL     OW 7521   0.008   2.062   5.264  0.1993 -0.2218  0.0794
 2027SOL    HW1 7522   0.082   2.117   5.242 -1.1249  0.8372 -2.0408
 2027SOL    HW2 7523  -0.068   2.105   5.225 -0.9788 -3.3122 -1.4561
 2028SOL     OW 7524   1.705   2.187   6.146 -0.6022  0.0234  0.4093
 2028SOL    HW1 7525   1.706   2.266   6.200  0.5294  0.9900 -0.9665
 2028SOL    HW2 7526   1.701   2.220   6.056 -1.0096 -1.5151 -0.1575
 2029SOL     OW 7527   0.802   2.756   4.067  0.2205  0.2256  0.4765
 2029SOL    HW1 7528   0.889   2.721   4.049  0.4015 -0.7990  2.9657
 2029SOL    HW2 7529   0.818   2.844   4.100  0.1203  0.7841 -0.8755
 2030SOL     OW 7530   1.026   2.272   5.577 -0.3568 -0.1051 -0.1853
 2030SOL    HW1 7531   1.104   2.220   5.560 -0.6786 -0.7844  0.3583
 2030SOL    HW2 7532   0.960   2.208   5.605 -1.4557  0.2942 -1.7201
 2031SOL     OW 7533   0.966   2.149   4.661 -0.1642  0.3462  1.0034
 2031SOL    HW1 7534   0.968   2.185   4.572  1.2849  1.4228  1.4456
 2031SOL    HW2 7535   0.890   2.190   4.702  0.7470  2.0014  1.1006
 2032SOL     OW 7536   0.743   2.054   5.223  0.5323 -0.1852  0.3446
 2032SOL    HW1 7537   0.796   2.068   5.145  0.1994  0.2630  0.1911
 2032SOL    HW2 7538   0.654   2.078   5.196 -0.0890 -2.4431  0.1057
 2033SOL     OW 7539   7.388   3.291   3.640 -0.1144 -0.7131  0.0609
 2033SOL    HW1 7540   7.433   3.215   3.604 -0.4348 -0.6351 -0.5213
 2033SOL    HW2 7541   7.295   3.273   3.624 -0.3926 -1.3301  2.1122
 2034SOL     OW 7542   2.232   2.437   4.601  0.2270  0.2265  0.4801
 2034SOL    HW1 7543   2.143   2.404   4.612  0.5360 -1.0692 -0.6913
 2034SOL    HW2 7544   2.275   2.373   4.546  1.5255  1.4822 -0.0346
 2035SOL     OW 7545   1.648   1.752   5.189 -0.1941  0.0876  0.2253
 2035SOL    HW1 7546   1.650   1.659   5.212 -1.4175 -0.0541 -0.1943
 2035SOL    HW2 7547   1.574   1.787   5.239 -1.3892  0.2780 -1.5915
 2036SOL     OW 7548   2.402   3.054   5.315 -0.0050  0.2337 -0.1988
 2036SOL    HW1 7549   2.378   3.131   5.263 -1.4044  0.9777  1.4606
 2036SOL    HW2 7550   2.497   3.048   5.306 -0.0652  1.0272 -1.8435
 2037SOL     OW 7551   0.185   2.133   4.914 -0.3354 -0.1236  0.1190
 2037SOL    HW1 7552   0.115   2.126   4.850  0.1494  0.0066 -0.4289
 2037SOL    HW2 7553   0.239   2.205   4.883 -1.6866  1.9606  2.2273
 2038SOL     OW 7554   0.432   3.209   4.072  0.1329  0.0010  0.2026
 2038SOL    HW1 7555   0.501   3.270   4.048  0.4516 -0.4913 -0.1519
 2038SOL    HW2 7556   0.351   3.258   4.062  0.4839  1.0893  2.1302
 2039SOL     OW 7557   0.672   2.345   5.268  0.3248 -0.0994  0.4395
 2039SOL    HW1 7558   0.628   2.332   5.352 -1.3170 -0.8225 -0.4764
 2039SOL    HW2 7559   0.614   2.304   5.204  1.8224 -0.1067 -0.9966
 2040SOL     OW 7560   1.696   5.328   5.224 -0.8244 -0.0745 -0.1505
 2040SOL    HW1 7561   1.775   5.355   5.176 -1.5622 -1.2728 -2.1696
 2040SOL    HW2 7562   1.706   5.368   5.310  1.4874  0.6637 -0.6734
 2041SOL     OW 7563   2.124   3.454   5.326  0.0760 -0.0268  0.3743
 2041SOL    HW1 7564   2.050   3.454   5.265 -0.2015 -2.4001  0.6466
 2041SOL    HW2 7565   2.147   3.547   5.335 -2.3349  0.7083 -0.3374
 2042SOL     OW 7566   0.539   2.441   6.241 -0.0681 -0.3099 -0.2753
 2042SOL    HW1 7567   0.478   2.416   6.311 -0.1123  0.6853  0.0604
 2042SOL    HW2 7568   0.588   2.361   6.223  1.7684 -0.0285  2.7268
 2043SOL     OW 7569   1.523   2.561   7.948  0.1133  0.3145 -0.2100
 2043SOL    HW1 7570   1.611   2.546   7.983  0.3729  1.1611 -0.4793
 2043SOL    HW2 7571   1.500   2.649   7.978 -1.6573 -0.7837  1.9542
 2044SOL     OW 7572   0.807   1.614   4.430  0.0276  0.0937 -0.0510
 2044SOL    HW1 7573   0.825   1.603   4.523 -1.5844  1.6640  0.4929
 2044SOL    HW2 7574   0.878   1.669   4.397 -0.5110  1.3146  0.7589
 2045SOL     OW 7575   1.628   1.947   6.926 -0.2562  0.2758  0.0702
 2045SOL    HW1 7576   1.604   2.039   6.937 -0.5533  0.1381  0.6516
 2045SOL    HW2 7577   1.703   1.948   6.867  0.7263  1.0201  1.2704
 2046SOL     OW 7578   1.436   2.317   5.669  0.0869  0.4744  0.0011
 2046SOL    HW1 7579   1.369   2.250   5.660 -0.8414  1.5880 -2.5111
 2046SOL    HW2 7580   1.448   2.350   5.580 -0.0596  4.1405  1.1837
 2047SOL     OW 7581   2.009   1.846   9.102 -0.6962  0.6416  0.1162
 2047SOL    HW1 7582   2.094   1.808   9.123 -1.8036 -1.8401  0.4020
 2047SOL    HW2 7583   1.967   1.859   9.187 -1.0507  0.7962 -0.0827
 2048SOL     OW 7584   0.535   5.246   6.160  0.0066 -0.2619 -0.4322
 2048SOL    HW1 7585   0.607   5.193   6.192 -0.4013 -0.5177  0.0816
 2048SOL    HW2 7586   0.472   5.182   6.126 -0.4876 -0.1196  0.1899
 2049SOL     OW 7587   1.798   3.012   6.804 -0.7208 -0.3952 -0.4184
 2049SOL    HW1 7588   1.732   3.034   6.739 -0.2892 -2.1833 -1.5189
 2049SOL    HW2 7589   1.881   3.036   6.763 -0.5895  2.2067  1.1026
 2050SOL     OW 7590   0.093   2.471   8.113  0.1387  0.0691 -0.4464
 2050SOL    HW1 7591   0.187   2.484   8.100  0.3325  0.5623  1.1689
 2050SOL    HW2 7592   0.075   2.384   8.079  1.0866  0.1723 -1.2193
 2051SOL     OW 7593   3.308   3.070   8.446  0.1824  0.1679  0.0565
 2051SOL    HW1 7594   3.238   3.105   8.502 -1.1797 -0.2699 -1.3001
 2051SOL    HW2 7595   3.269   3.066   8.359  1.2866 -1.8662 -0.4055
 2052SOL     OW 7596   1.922   2.612   8.458 -0.2808 -0.2686 -0.0025
 2052SOL    HW1 7597   1.889   2.540   8.404  0.4528  1.0017 -2.2469
 2052SOL    HW2 7598   2.011   2.626   8.427 -0.0690  0.9845  1.0910
 2053SOL     OW 7599   1.901   1.789   7.441 -0.4599  0.4283 -0.4361
 2053SOL    HW1 7600   1.877   1.767   7.351 -0.3057  1.7573 -0.8211
 2053SOL    HW2 7601   1.821   1.827   7.478 -0.2305  0.8295 -0.3446
 2054SOL     OW 7602   1.287   1.838   5.817  0.1945  0.2106  0.2038
 2054SOL    HW1 7603   1.258   1.749   5.802  0.0182 -0.2040  2.6443
 2054SOL    HW2 7604   1.224   1.875   5.879  1.8847  1.0280  1.5243
 2055SOL     OW 7605   2.489   2.233   8.340  0.1803 -0.1146  0.2596
 2055SOL    HW1 7606   2.489   2.138   8.328 -0.3861 -0.1989  0.8895
 2055SOL    HW2 7607   2.580   2.259   8.322  0.2839 -0.7411 -0.1430
 2056SOL     OW 7608   1.669   3.898   5.496  0.1986  0.1612  0.5709
 2056SOL    HW1 7609   1.741   3.892   5.433 -0.5753  0.3576 -0.3667
 2056SOL    HW2 7610   1.622   3.978   5.470 -0.5699 -0.1687  0.9236
 2057SOL     OW 7611   7.724   2.446   4.952 -0.1041 -0.2086  0.1628
 2057SOL    HW1 7612   7.695   2.365   4.911 -0.8881 -0.7048  1.6486
 2057SOL    HW2 7613   7.748   2.421   5.041  0.1939  1.0952  0.4715
 2058SOL     OW 7614   0.069   4.029   7.734 -0.2595 -0.2114 -0.3552
 2058SOL    HW1 7615   0.161   4.053   7.726 -0.0665 -1.3210 -1.9051
 2058SOL    HW2 7616   0.043   4.063   7.820  1.2985  1.0099 -0.3133
 2059SOL     OW 7617   7.682   2.545   5.337  0.5392 -0.1880 -0.2761
 2059SOL    HW1 7618   7.756   2.504   5.295 -0.8812 -1.1689 -1.9530
 2059SOL    HW2 7619   7.682   2.635   5.304  1.0992 -0.1110 -0.0718
 2060SOL     OW 7620   2.499   0.887   7.006 -0.2190  0.6398  0.4079
 2060SOL    HW1 7621   2.457   0.807   6.975 -0.9228  1.3962 -0.6258
 2060SOL    HW2 7622   2.471   0.895   7.097  0.2933 -0.5582  0.6957
 2061SOL     OW 7623   7.540   1.747   5.947  0.0961 -0.4003 -0.3100
 2061SOL    HW1 7624   7.462   1.799   5.969  0.3236  0.0735 -0.6043
 2061SOL    HW2 7625   7.536   1.672   6.006  0.1268  0.3127  0.6257
 2062SOL     OW 7626   2.358   3.223   6.244  0.1758  0.6012 -0.3200
 2062SOL    HW1 7627   2.441   3.188   6.274 -0.2352  0.1561  0.3300
 2062SOL    HW2 7628   2.310   3.147   6.210 -1.0867  0.2897  1.9351
 2063SOL     OW 7629   6.374   2.108   6.181  0.5449 -0.4482  0.2629
 2063SOL    HW1 7630   6.283   2.137   6.185  1.2928  2.2589 -0.3365
 2063SOL    HW2 7631   6.392   2.073   6.269 -1.0144 -1.0116  0.3922
 2064SOL     OW 7632   2.360   3.177   6.982  0.1291 -0.0661 -0.4436
 2064SOL    HW1 7633   2.429   3.110   6.992  1.0677  1.1007  1.6473
 2064SOL    HW2 7634   2.278   3.127   6.984  0.7655 -1.1753  1.8651
 2065SOL     OW 7635   1.595   3.862   7.062  0.0398  0.1661  0.5576
 2065SOL    HW1 7636   1.507   3.837   7.034 -0.0362  1.3522 -0.3107
 2065SOL    HW2 7637   1.652   3.797   7.021 -0.1965  1.0519 -1.2465
 2066SOL     OW 7638   0.841   3.371   6.912  0.4426 -0.4971  0.5438
 2066SOL    HW1 7639   0.775   3.302   6.910  0.0233 -0.0910  0.0514
 2066SOL    HW2 7640   0.827   3.415   6.995 -1.6081  1.1902 -0.6127
 2067SOL     OW 7641   1.085   3.403   7.424  0.1509 -0.3269 -0.3451
 2067SOL    HW1 7642   1.177   3.374   7.424  0.2204 -0.1584  1.0674
 2067SOL    HW2 7643   1.039   3.336   7.476 -0.4824 -0.2594 -0.8116
 2068SOL     OW 7644   2.655   2.668   7.078  0.1490  0.4765 -0.4944
 2068SOL    HW1 7645   2.667   2.707   7.164 -1.3560  1.4096 -0.6764
 2068SOL    HW2 7646   2.736   2.618   7.063  0.3287  0.0477  1.5556
 2069SOL     OW 7647   0.344   0.094   5.423  0.1215 -0.3443  0.1021
 2069SOL    HW1 7648   0.307   0.101   5.511  1.4966  0.0996  0.6584
 2069SOL    HW2 7649   0.302   0.016   5.385 -0.7099 -0.3567  1.0230
 2070SOL     OW 7650   1.706   5.571   7.474 -0.0578  0.7694  0.0877
 2070SOL    HW1 7651   1.707   5.665   7.491 -0.7862  1.1905 -2.0215
 2070SOL    HW2 7652   1.613   5.550   7.460  0.3257  0.2894 -2.0765
 2071SOL     OW 7653   0.571   1.850   4.455  0.3046  0.1348 -0.2601
 2071SOL    HW1 7654   0.512   1.918   4.488  0.3388  0.6978 -1.3509
 2071SOL    HW2 7655   0.612   1.814   4.534 -1.6115 -0.3914  0.5459
 2072SOL     OW 7656   2.926   4.318   9.548  0.7568 -0.1974 -0.1151
 2072SOL    HW1 7657   2.879   4.397   9.574 -0.3525 -0.7144 -0.4817
 2072SOL    HW2 7658   3.013   4.349   9.523  0.1444  0.9990 -0.8634
 2073SOL     OW 7659   0.123   1.790   5.659  0.2138 -0.3142 -0.4131
 2073SOL    HW1 7660   0.068   1.785   5.738  0.1055  1.0215 -0.3698
 2073SOL    HW2 7661   0.061   1.809   5.588  0.0706 -3.1915 -1.1874
 2074SOL     OW 7662   0.995   3.294   8.292 -0.4161 -0.3069 -0.1787
 2074SOL    HW1 7663   1.048   3.238   8.235 -0.1932  0.0483 -0.3307
 2074SOL    HW2 7664   0.909   3.296   8.251 -0.0302  0.6432 -1.0123
 2075SOL     OW 7665   7.973   4.136   5.162 -0.7322 -0.3449  0.7435
 2075SOL    HW1 7666   7.964   4.087   5.244  1.1060 -0.8872  0.6725
 2075SOL    HW2 7667   8.038   4.204   5.181 -1.6852  0.7533  0.2364
 2076SOL     OW 7668   0.258   2.791   6.189 -0.2140  0.3885  0.0279
 2076SOL    HW1 7669   0.339   2.778   6.239 -1.1796  1.3578  1.9676
 2076SOL    HW2 7670   0.287   2.803   6.099  1.3963 -6.3057 -0.8632
 2077SOL     OW 7671   2.035   0.668   7.234 -0.3639 -0.0424  0.3664
 2077SOL    HW1 7672   2.000   0.720   7.307 -0.9647  0.8794 -0.5659
 2077SOL    HW2 7673   2.009   0.716   7.155  1.0917 -0.5291 -0.4367
 2078SOL     OW 7674   0.581   3.994   5.993  0.2925  0.0265 -0.4349
 2078SOL    HW1 7675   0.668   3.998   6.031 -0.3901  0.5956  1.1787
 2078SOL    HW2 7676   0.559   4.085   5.971  0.6871 -0.2884 -2.3392
 2079SOL     OW 7677   2.353   1.209   7.185  0.0233  0.0468 -0.0459
 2079SOL    HW1 7678   2.362   1.296   7.146 -1.2300  0.4979  0.6057
 2079SOL    HW2 7679   2.443   1.179   7.198  0.5059  1.6996  0.6908
 2080SOL     OW 7680   0.870   3.869   6.453  0.3927 -0.2383 -0.2136
 2080SOL    HW1 7681   0.836   3.784   6.482  0.6068 -0.0786  0.5228
 2080SOL    HW2 7682   0.921   3.849   6.374 -1.9637 -0.3947 -1.8004
 2081SOL     OW 7683   1.718   3.822   8.813 -0.2835 -0.2412  0.3756
 2081SOL    HW1 7684   1.725   3.868   8.729  0.2644  0.1758  0.6411
 2081SOL    HW2 7685   1.647   3.759   8.800 -0.8526  0.4761 -0.0926
 2082SOL     OW 7686   2.184   3.923   8.013 -0.2781  0.2403  0.2545
 2082SOL    HW1 7687   2.144   3.836   8.022 -0.5406  0.4440  1.0901
 2082SOL    HW2 7688   2.152   3.955   7.928 -0.4378 -0.3421  0.0917
 2083SOL     OW 7689   0.710   1.332   5.922 -0.1166 -0.0968 -0.7916
 2083SOL    HW1 7690   0.709   1.248   5.876  1.3189 -0.5962  0.0399
 2083SOL    HW2 7691   0.765   1.388   5.868  0.8880 -0.4325 -0.1357
 2084SOL     OW 7692   7.837   7.759   6.642  0.3241 -0.2177  0.0310
 2084SOL    HW1 7693   7.850   7.740   6.549 -1.4344 -1.2671 -0.0456
 2084SOL    HW2 7694   7.753   7.717   6.663  0.1320  0.9830  1.8138
 2085SOL     OW 7695   7.667   2.958   5.848 -0.3501  0.7007 -0.5397
 2085SOL    HW1 7696   7.748   2.982   5.803  0.7522  0.1845  1.1090
 2085SOL    HW2 7697   7.618   2.906   5.784  0.9112  0.4537 -1.3271
 2086SOL     OW 7698   1.545   4.236   4.900 -0.1441  0.1663  0.8211
 2086SOL    HW1 7699   1.484   4.304   4.928  0.7537  0.3476  2.4374
 2086SOL    HW2 7700   1.596   4.277   4.830 -2.3955 -0.2779 -1.2021
 2087SOL     OW 7701   3.322   1.654   6.167 -0.4932  0.2227  0.1418
 2087SOL    HW1 7702   3.369   1.572   6.173  1.1264  1.1243  0.2765
 2087SOL    HW2 7703   3.362   1.700   6.093 -1.1464  1.0154  0.2568
 2088SOL     OW 7704   1.622   2.766   6.261  0.2297 -0.2712  0.0380
 2088SOL    HW1 7705   1.597   2.804   6.177 -1.8871  0.0532  0.7352
 2088SOL    HW2 7706   1.710   2.732   6.248  0.0494  0.0151 -2.2203
 2089SOL     OW 7707   1.521   1.993   7.825  0.6419 -0.5370  0.1163
 2089SOL    HW1 7708   1.477   1.945   7.895 -0.4380 -0.1435 -0.2769
 2089SOL    HW2 7709   1.454   2.005   7.758  0.9356  1.2751  0.0883
 2090SOL     OW 7710   7.583   3.002   6.872  0.3017  0.3397  0.1236
 2090SOL    HW1 7711   7.548   2.969   6.954  0.1871  2.2009  0.8701
 2090SOL    HW2 7712   7.541   2.948   6.804  1.1877 -1.9181  1.2675
 2091SOL     OW 7713   0.539   4.216   6.223 -0.4505  0.4763  0.0478
 2091SOL    HW1 7714   0.578   4.223   6.136 -1.6038 -1.0318 -0.6551
 2091SOL    HW2 7715   0.610   4.184   6.278 -0.2349 -0.6564 -0.8372
 2092SOL     OW 7716   1.546   3.402   6.032 -0.3986  0.1284  0.2493
 2092SOL    HW1 7717   1.619   3.342   6.014 -1.2698 -0.7853 -0.3359
 2092SOL    HW2 7718   1.472   3.344   6.052 -1.0515  1.0342  0.5141
 2093SOL     OW 7719   0.758   4.095   6.343  0.2708 -0.4080 -0.2741
 2093SOL    HW1 7720   0.793   4.038   6.412  1.2316  1.1828  0.5989
 2093SOL    HW2 7721   0.799   4.061   6.263 -1.2823 -2.6211 -0.2222
 2094SOL     OW 7722   0.176   2.083   5.760 -0.2180 -0.0927 -0.0631
 2094SOL    HW1 7723   0.205   2.117   5.675  1.8549 -0.0122  0.6167
 2094SOL    HW2 7724   0.102   2.026   5.739 -0.1566  0.4252 -1.8534
 2095SOL     OW 7725   2.860   1.556   7.662 -0.0576  0.1233 -0.2018
 2095SOL    HW1 7726   2.810   1.480   7.631 -0.5844  0.0947  0.6712
 2095SOL    HW2 7727   2.794   1.622   7.682  0.1649 -0.1538  1.6231
 2096SOL     OW 7728   1.533   3.138   5.682 -0.3581  0.2430  0.6457
 2096SOL    HW1 7729   1.610   3.104   5.728 -1.0835  0.0606  1.7846
 2096SOL    HW2 7730   1.567   3.207   5.625  0.8204 -0.7547  0.0957
 2097SOL     OW 7731   1.894   3.336   5.793  0.5205 -0.3930  0.3328
 2097SOL    HW1 7732   1.979   3.322   5.833  1.0972  0.1054 -0.6600
 2097SOL    HW2 7733   1.908   3.318   5.700 -0.1420  0.8544 -0.0375
 2098SOL     OW 7734   0.678   3.770   7.084 -0.0128  0.2793  0.0536
 2098SOL    HW1 7735   0.595   3.767   7.035 -0.8878 -1.2757  1.5469
 2098SOL    HW2 7736   0.706   3.861   7.076 -1.1210  0.5355 -1.6613
 2099SOL     OW 7737   1.908   4.080   4.637  0.5731  0.2707  0.2563
 2099SOL    HW1 7738   1.978   4.069   4.702  1.7437  0.1716 -0.9788
 2099SOL    HW2 7739   1.856   4.000   4.645 -0.6301  1.1841  2.5451
 2100SOL     OW 7740   2.567   4.077   5.125  0.3961  0.2420 -0.4311
 2100SOL    HW1 7741   2.592   3.984   5.122  0.8661  0.2960  1.0357
 2100SOL    HW2 7742   2.569   4.099   5.218 -2.5340  0.9636 -0.4274
 2101SOL     OW 7743   2.976   2.040   5.949  0.2983 -0.1538  0.9541
 2101SOL    HW1 7744   2.897   2.083   5.917  0.5657  0.2800  0.8581
 2101SOL    HW2 7745   3.037   2.112   5.965  0.5371 -0.4550  1.4046
 2102SOL     OW 7746   7.136   3.604   5.849  0.6147 -0.1413  0.0838
 2102SOL    HW1 7747   7.074   3.648   5.790 -0.6571  0.5243  1.8136
 2102SOL    HW2 7748   7.105   3.514   5.853 -0.3795  0.2137  1.0312
 2103SOL     OW 7749   0.102   3.431   5.027  0.3704 -0.2830  0.0651
 2103SOL    HW1 7750   0.062   3.346   5.045  1.3163 -0.7568  0.0287
 2103SOL    HW2 7751   0.044   3.472   4.963  0.7944 -1.6581 -1.2576
 2104SOL     OW 7752   0.783   3.802   5.215  0.2431 -0.3296 -0.1668
 2104SOL    HW1 7753   0.695   3.818   5.180  0.7908 -0.0460 -1.4869
 2104SOL    HW2 7754   0.840   3.807   5.138  1.6884  1.6836  0.9393
 2105SOL     OW 7755   0.688   3.846   7.690 -0.4459 -0.1211 -0.0095
 2105SOL    HW1 7756   0.757   3.780   7.693 -0.6483 -0.3273  0.1673
 2105SOL    HW2 7757   0.612   3.800   7.655  0.2254  0.7550 -2.8749
 2106SOL     OW 7758   7.112   2.594   5.084 -0.5047 -0.1169 -0.3408
 2106SOL    HW1 7759   7.159   2.675   5.067 -1.1033  0.1533 -0.7442
 2106SOL    HW2 7760   7.151   2.560   5.164  0.5454 -0.0371 -0.8024
 2107SOL     OW 7761   0.364   4.322   6.466  0.1067 -0.3437 -0.4854
 2107SOL    HW1 7762   0.449   4.352   6.434  0.1266  0.1321  0.0041
 2107SOL    HW2 7763   0.356   4.233   6.433  1.0037 -0.5586 -0.1385
 2108SOL     OW 7764   1.405   1.685   6.036  0.2755  0.1169 -0.7623
 2108SOL    HW1 7765   1.317   1.670   6.072  0.8143  0.4380  0.7710
 2108SOL    HW2 7766   1.393   1.755   5.972 -0.7354 -0.5100 -1.2890
 2109SOL     OW 7767   0.313   3.291   7.339  0.1957  0.2324  0.4071
 2109SOL    HW1 7768   0.290   3.378   7.306  2.1738  0.7553  0.3124
 2109SOL    HW2 7769   0.326   3.305   7.433 -0.1961 -0.1218  0.5148
 2110SOL     OW 7770   0.938   1.333   5.060  0.4418  0.3331  0.6716
 2110SOL    HW1 7771   0.872   1.352   4.994  1.1446  0.3156 -0.0405
 2110SOL    HW2 7772   0.905   1.255   5.104  0.6787 -0.5275 -0.6326
 2111SOL     OW 7773   1.105   3.854   6.026 -0.0675  0.8316  0.5252
 2111SOL    HW1 7774   1.089   3.788   6.094  0.2939 -0.9611 -1.0611
 2111SOL    HW2 7775   1.184   3.900   6.056  0.3760 -0.2627  1.0878
 2112SOL     OW 7776   1.017   2.517   5.466 -0.1683  0.6150 -0.5663
 2112SOL    HW1 7777   0.928   2.530   5.498 -0.1809 -0.9719  0.1504
 2112SOL    HW2 7778   1.043   2.432   5.500  1.9138  1.3494 -0.1490
 2113SOL     OW 7779   1.571   3.898   6.465 -0.0063 -0.3237 -0.5616
 2113SOL    HW1 7780   1.615   3.898   6.381  0.2425 -0.7012 -0.4345
 2113SOL    HW2 7781   1.616   3.831   6.516 -0.1557 -0.1008 -0.1287
 2114SOL     OW 7782   7.660   1.112   4.642  0.4111  0.2527  0.0056
 2114SOL    HW1 7783   7.583   1.055   4.639  0.3760  0.0589  2.4504
 2114SOL    HW2 7784   7.640   1.183   4.581 -1.8473  0.3612  0.7689
 2115SOL     OW 7785   0.889   1.875   4.759 -0.6756 -0.5788  0.0950
 2115SOL    HW1 7786   0.928   1.960   4.738 -0.2381 -0.5455  0.9818
 2115SOL    HW2 7787   0.804   1.896   4.797  0.5080 -0.3293  2.8435
 2116SOL     OW 7788   2.031   2.748   7.948  0.5834 -0.2667 -0.5067
 2116SOL    HW1 7789   2.058   2.836   7.976  1.2804 -0.0657 -1.7683
 2116SOL    HW2 7790   1.937   2.745   7.968  1.0248 -0.1502  1.8198
 2117SOL     OW 7791   1.004   3.702   6.234 -0.2307 -0.5411  0.1623
 2117SOL    HW1 7792   0.992   3.631   6.171 -2.3555 -1.6794  1.7243
 2117SOL    HW2 7793   1.007   3.659   6.320  0.9737  1.0810  1.0168
 2118SOL     OW 7794   0.661   2.126   3.970  0.0259 -0.4580 -0.2323
 2118SOL    HW1 7795   0.581   2.075   3.964  0.1736 -0.6973 -0.1761
 2118SOL    HW2 7796   0.669   2.149   4.063  1.7323 -3.2268  0.4316
 2119SOL     OW 7797   0.707   1.564   7.433  0.1024 -0.2776  0.7844
 2119SOL    HW1 7798   0.641   1.620   7.473  0.3498  1.4025 -0.9984
 2119SOL    HW2 7799   0.658   1.503   7.379 -0.0597  0.4559  0.0811
 2120SOL     OW 7800   1.170   4.268   4.273 -0.0044 -0.1216  0.3045
 2120SOL    HW1 7801   1.119   4.308   4.343 -1.5765  0.8848 -1.3419
 2120SOL    HW2 7802   1.127   4.184   4.257 -0.1371  0.0058  0.0011
 2121SOL     OW 7803   2.257   2.043   7.512  0.2637 -0.0517  0.5108
 2121SOL    HW1 7804   2.192   2.029   7.581 -0.9974  2.1257 -0.1157
 2121SOL    HW2 7805   2.205   2.062   7.434  1.6670 -1.6193 -0.8922
 2122SOL     OW 7806   0.282   3.359   5.537 -0.4812  1.0202 -0.2066
 2122SOL    HW1 7807   0.372   3.327   5.530 -1.2454 -1.7268  1.2599
 2122SOL    HW2 7808   0.232   3.302   5.479 -1.5539  1.2940  0.4296
 2123SOL     OW 7809   0.173   1.484   5.527 -0.9358  0.0460  0.0948
 2123SOL    HW1 7810   0.143   1.425   5.596 -1.9650  1.3965  0.8574
 2123SOL    HW2 7811   0.241   1.435   5.481 -1.3180 -1.4771  1.0817
 2124SOL     OW 7812   7.987   7.661   6.051  0.1829 -0.1008 -0.6179
 2124SOL    HW1 7813   8.083   7.664   6.058  0.2425 -0.8696 -0.9907
 2124SOL    HW2 7814   7.967   7.720   5.978  0.4008 -0.1690 -0.7346
 2125SOL     OW 7815   1.727   2.420   6.263 -0.3804 -0.3318 -0.0516
 2125SOL    HW1 7816   1.722   2.468   6.345 -0.6542 -3.5435  1.9825
 2125SOL    HW2 7817   1.821   2.417   6.243 -0.1290 -1.0165  1.1429
 2126SOL     OW 7818   1.809   2.454   6.951  0.1263  0.2703 -0.4951
 2126SOL    HW1 7819   1.791   2.473   7.043 -1.5077 -1.7613 -0.3318
 2126SOL    HW2 7820   1.795   2.537   6.906  0.6714  1.2279  1.0157
 2127SOL     OW 7821   1.327   4.033   4.879 -0.0842  0.2034  0.2952
 2127SOL    HW1 7822   1.409   4.079   4.899 -0.2704  0.8825 -0.4169
 2127SOL    HW2 7823   1.267   4.062   4.947  0.1745 -0.0429  0.6331
 2128SOL     OW 7824   2.223   4.078   6.469  0.6527  0.3118 -0.6402
 2128SOL    HW1 7825   2.218   4.156   6.525  0.7463 -0.4112  0.4099
 2128SOL    HW2 7826   2.317   4.065   6.457  0.7227 -0.6764  0.7281
 2129SOL     OW 7827   2.552   7.389   4.975  0.0903  0.4066 -0.0348
 2129SOL    HW1 7828   2.475   7.362   5.025  0.9856 -0.1730  1.0709
 2129SOL    HW2 7829   2.583   7.468   5.020 -0.5021  1.3243 -1.1762
 2130SOL     OW 7830   2.216   4.194   7.606 -0.7257 -0.1624 -0.0192
 2130SOL    HW1 7831   2.183   4.111   7.639 -1.0503 -0.2147 -0.4768
 2130SOL    HW2 7832   2.307   4.197   7.635 -0.7341 -0.6453  0.0568
 2131SOL     OW 7833   0.851   4.144   8.999  0.1287  0.4269 -0.2360
 2131SOL    HW1 7834   0.873   4.234   8.975 -0.3985  0.9673  1.2120
 2131SOL    HW2 7835   0.863   4.094   8.918  0.2425  1.8245 -1.1135
 2132SOL     OW 7836   2.006   4.156   8.690  0.9277 -0.2014 -0.2154
 2132SOL    HW1 7837   1.995   4.250   8.676  1.5998  0.2270  1.7523
 2132SOL    HW2 7838   2.093   4.136   8.655  0.9686  0.0134 -0.2365
 2133SOL     OW 7839   0.926   0.970   5.436  0.1198 -0.2369 -0.2271
 2133SOL    HW1 7840   0.917   0.875   5.423  1.6684 -0.6301  1.1273
 2133SOL    HW2 7841   1.020   0.983   5.447 -0.1388  1.3630  0.2709
 2134SOL     OW 7842   1.788   3.451   6.252 -0.4221  0.1608  0.2699
 2134SOL    HW1 7843   1.872   3.451   6.206 -0.8666 -3.0097 -0.7922
 2134SOL    HW2 7844   1.723   3.443   6.183 -1.4998  0.9151  1.1679
 2135SOL     OW 7845   0.874   0.956   6.016  0.0913  0.0586 -0.2764
 2135SOL    HW1 7846   0.905   1.003   6.093  0.2136  0.7459 -0.7434
 2135SOL    HW2 7847   0.905   0.866   6.028  0.5562  0.2853  0.2145
 2136SOL     OW 7848   7.992   4.164   6.984 -0.0289 -0.6733  0.3507
 2136SOL    HW1 7849   7.983   4.114   6.902  1.3675 -0.3670 -0.0218
 2136SOL    HW2 7850   8.002   4.255   6.956 -0.4238 -0.4539  0.9133
 2137SOL     OW 7851   0.373   1.508   5.067  0.4065 -0.4227 -0.0632
 2137SOL    HW1 7852   0.318   1.538   5.139 -0.1599  0.4728 -0.8490
 2137SOL    HW2 7853   0.315   1.455   5.013  0.8346 -1.1101  0.1426
 2138SOL     OW 7854   0.472   2.358   5.847  0.3282  0.1875  0.2714
 2138SOL    HW1 7855   0.544   2.420   5.857  0.3143  0.4756 -1.2303
 2138SOL    HW2 7856   0.394   2.408   5.871  0.5628 -0.0180  1.5418
 2139SOL     OW 7857   2.732   3.697   6.069  0.1698 -0.5647 -0.3003
 2139SOL    HW1 7858   2.765   3.704   6.158  1.1297 -1.1698 -0.5858
 2139SOL    HW2 7859   2.637   3.701   6.077  0.2004  3.5913  0.3674
 2140SOL     OW 7860   7.922   1.608   5.560 -0.1845  0.0430 -0.1092
 2140SOL    HW1 7861   7.890   1.578   5.645 -0.6258 -2.2318 -1.0008
 2140SOL    HW2 7862   8.006   1.563   5.548 -0.2342  0.1508 -0.9495
 2141SOL     OW 7863   1.014   3.562   4.553  0.3352 -0.3216 -0.2427
 2141SOL    HW1 7864   1.107   3.560   4.575  0.7365 -0.5693 -1.8284
 2141SOL    HW2 7865   0.973   3.609   4.626  1.4645 -1.5226  1.2340
 2142SOL     OW 7866   1.710   3.587   7.175  0.6449  0.3571  0.2573
 2142SOL    HW1 7867   1.779   3.653   7.170  0.8249  0.1632  0.1911
 2142SOL    HW2 7868   1.640   3.630   7.225  0.5497  0.7875 -0.2304
 2143SOL     OW 7869   2.118   4.572   6.885  0.3163  0.4572  0.1795
 2143SOL    HW1 7870   2.183   4.600   6.821 -1.3418  0.3093 -1.6794
 2143SOL    HW2 7871   2.145   4.483   6.909 -0.5127 -0.6728 -2.5824
 2144SOL     OW 7872   2.319   3.694   8.972  0.2162  0.0587  0.4241
 2144SOL    HW1 7873   2.280   3.711   9.058 -0.7657  0.4492 -0.0796
 2144SOL    HW2 7874   2.284   3.609   8.947  0.8750 -0.2719  0.6059
 2145SOL     OW 7875   0.237   2.277   8.402  0.0682 -0.6661 -0.0190
 2145SOL    HW1 7876   0.232   2.295   8.496  2.4887  0.7247 -0.0711
 2145SOL    HW2 7877   0.178   2.341   8.362  1.0601  0.5690  0.4283
 2146SOL     OW 7878   1.243   3.826   8.361  0.4935  0.5258  0.4700
 2146SOL    HW1 7879   1.235   3.818   8.266 -1.8199 -0.4957  0.6745
 2146SOL    HW2 7880   1.282   3.912   8.375 -0.9443  1.5551 -1.3943
 2147SOL     OW 7881   0.837   0.091   5.094 -0.4375  0.0994 -0.1017
 2147SOL    HW1 7882   0.817   0.148   5.019  0.0507  0.6864  0.2056
 2147SOL    HW2 7883   0.774   0.117   5.161 -1.2509 -0.8146 -0.4787
 2148SOL     OW 7884   2.350   3.129   7.941 -0.0859  0.4563 -0.6028
 2148SOL    HW1 7885   2.424   3.154   7.995 -0.3454  0.7235 -0.3696
 2148SOL    HW2 7886   2.377   3.046   7.900 -0.3722 -0.4167  0.9022
 2149SOL     OW 7887   1.505   1.572   7.931 -0.1359  0.4141 -0.1381
 2149SOL    HW1 7888   1.413   1.589   7.914 -0.4816 -1.0403  0.1557
 2149SOL    HW2 7889   1.523   1.616   8.014 -0.3224  1.4069 -0.6059
 2150SOL     OW 7890   3.199   1.170   7.462  0.3466 -0.1625  0.2802
 2150SOL    HW1 7891   3.248   1.149   7.542 -0.1603  1.5606  1.0852
 2150SOL    HW2 7892   3.208   1.264   7.453 -1.4637 -0.0366 -0.4633
 2151SOL     OW 7893   7.032   2.062   6.190  0.3006 -0.3367 -0.0365
 2151SOL    HW1 7894   7.038   2.144   6.240  0.7342 -0.4558  0.1131
 2151SOL    HW2 7895   7.100   2.006   6.227 -0.8117 -1.2415  0.7194
 2152SOL     OW 7896   2.157   3.933   7.070  0.3503  0.7368 -0.0985
 2152SOL    HW1 7897   2.189   4.018   7.037  2.3420  0.9524  2.1111
 2152SOL    HW2 7898   2.209   3.868   7.024  3.2845  1.0440  2.4415
 2153SOL     OW 7899   1.818   3.696   6.925  0.0886 -0.3825  0.3776
 2153SOL    HW1 7900   1.895   3.640   6.928  0.5519  0.2377  0.0449
 2153SOL    HW2 7901   1.834   3.763   6.991  0.0513  0.0250 -0.0267
 2154SOL     OW 7902   1.277   3.712   6.508 -0.2446 -0.3052  0.3316
 2154SOL    HW1 7903   1.260   3.635   6.563  0.6844 -1.3824 -0.8133
 2154SOL    HW2 7904   1.366   3.699   6.476 -0.6358  0.4333 -1.1697
 2155SOL     OW 7905   1.843   3.646   8.195  0.2359  0.4421 -0.8906
 2155SOL    HW1 7906   1.766   3.701   8.205 -0.1207 -0.0441 -0.9356
 2155SOL    HW2 7907   1.892   3.685   8.122 -0.0727  0.6218 -1.0006
 2156SOL     OW 7908   1.362   2.674   6.285  0.4426 -0.4342 -0.3215
 2156SOL    HW1 7909   1.345   2.664   6.379 -0.2903  1.1502 -0.2519
 2156SOL    HW2 7910   1.453   2.705   6.282  0.2741  0.1066 -0.0784
 2157SOL     OW 7911   2.346   4.457   8.207 -0.5578 -0.1224 -0.0304
 2157SOL    HW1 7912   2.264   4.495   8.176 -0.2705  0.4685 -0.0753
 2157SOL    HW2 7913   2.406   4.465   8.133 -0.4523 -0.5335  0.0097
 2158SOL     OW 7914   7.326   2.289   5.796  0.2464  0.2053 -0.5648
 2158SOL    HW1 7915   7.411   2.332   5.794 -0.0206  0.7297 -1.1881
 2158SOL    HW2 7916   7.281   2.327   5.872  0.0581  0.9572 -1.0378
 2159SOL     OW 7917   1.248   2.089   6.463 -0.4063 -0.1631 -0.2577
 2159SOL    HW1 7918   1.329   2.044   6.439 -0.3115 -0.1617  0.0575
 2159SOL    HW2 7919   1.256   2.175   6.423 -0.4601 -0.3251 -0.6210
 2160SOL     OW 7920   7.587   4.353   7.126 -0.6646  0.0628  0.9914
 2160SOL    HW1 7921   7.548   4.347   7.039  2.5024  1.2734 -0.6737
 2160SOL    HW2 7922   7.599   4.262   7.154  2.5080 -0.6590 -2.0676
 2161SOL     OW 7923   1.731   3.250   6.993 -0.0971 -0.4469 -0.3704
 2161SOL    HW1 7924   1.643   3.264   7.028  0.5442 -2.2308  2.2176
 2161SOL    HW2 7925   1.735   3.156   6.975  1.1416 -0.3131 -0.9118
 2162SOL     OW 7926   1.793   1.476   6.308  0.3035  0.9582  0.2633
 2162SOL    HW1 7927   1.721   1.513   6.257  0.8951  0.5401 -0.9106
 2162SOL    HW2 7928   1.868   1.480   6.250  0.3539 -2.4124 -0.1094
 2163SOL     OW 7929   2.397   3.657   6.621 -0.2347 -1.0803  0.0402
 2163SOL    HW1 7930   2.478   3.706   6.639 -0.2098 -0.0566 -2.3863
 2163SOL    HW2 7931   2.417   3.607   6.542 -0.9246 -3.5757  1.3543
 2164SOL     OW 7932   0.272   3.008   6.653 -0.0099 -0.0795  0.1941
 2164SOL    HW1 7933   0.204   2.971   6.597  0.0591  2.4439 -1.7173
 2164SOL    HW2 7934   0.250   3.101   6.660  2.3385  0.4974  0.8783
 2165SOL     OW 7935   1.135   3.954   7.091 -0.2578  0.5621 -0.5597
 2165SOL    HW1 7936   1.075   4.016   7.133 -0.1001 -1.0505  2.3156
 2165SOL    HW2 7937   1.218   3.966   7.138  0.9122  0.7724 -2.5581
 2166SOL     OW 7938   0.762   2.263   6.543 -0.2324 -0.6584  0.1653
 2166SOL    HW1 7939   0.795   2.184   6.586  0.8410 -1.1140 -1.4010
 2166SOL    HW2 7940   0.762   2.241   6.449 -2.4567  0.2952 -0.1223
 2167SOL     OW 7941   0.520   2.084   6.356 -0.2886  0.3176 -0.1799
 2167SOL    HW1 7942   0.588   2.105   6.292 -0.6463  0.6204 -0.4683
 2167SOL    HW2 7943   0.503   1.991   6.344  1.4499 -0.2459  1.2378
 2168SOL     OW 7944   2.089   1.603   6.446 -0.5277  0.0651  0.3656
 2168SOL    HW1 7945   2.177   1.628   6.473 -0.7366  0.6915  0.4738
 2168SOL    HW2 7946   2.033   1.629   6.519 -0.8498  0.0170  0.1401
 2169SOL     OW 7947   7.802   1.516   7.483 -0.0647 -0.0969  0.0881
 2169SOL    HW1 7948   7.811   1.587   7.547  0.5597 -0.6395  0.6124
 2169SOL    HW2 7949   7.816   1.559   7.399  3.2591 -0.0362  0.5406
 2170SOL     OW 7950   6.812   3.842   5.836  0.2269 -0.2349 -0.1362
 2170SOL    HW1 7951   6.729   3.886   5.858  0.1309 -0.9019  0.9088
 2170SOL    HW2 7952   6.808   3.830   5.741 -1.3608 -1.1680  0.0069
 2171SOL     OW 7953   0.235   3.513   8.215  0.2259 -0.3512  0.4819
 2171SOL    HW1 7954   0.270   3.455   8.283  0.4850  0.1710  0.8000
 2171SOL    HW2 7955   0.312   3.547   8.170  0.0674 -0.4296  0.1489
 2172SOL     OW 7956   0.494   2.373   6.981 -0.4569  0.2576 -0.1305
 2172SOL    HW1 7957   0.547   2.402   7.055 -0.3183  1.0355 -0.5250
 2172SOL    HW2 7958   0.416   2.335   7.021  0.1849 -0.4978  0.4419
 2173SOL     OW 7959   1.207   3.375   6.062  0.2512  0.6166 -0.0223
 2173SOL    HW1 7960   1.272   3.388   6.131  0.2627  1.0625 -0.1144
 2173SOL    HW2 7961   1.256   3.334   5.991 -0.0542 -1.1357  0.7323
 2174SOL     OW 7962   0.516   1.372   7.633  0.1203  0.5030  0.4040
 2174SOL    HW1 7963   0.451   1.311   7.599  1.3695 -1.5071  1.3834
 2174SOL    HW2 7964   0.556   1.412   7.556 -1.1402  0.5335 -0.2437
 2175SOL     OW 7965   1.476   2.028   6.098 -0.4463 -0.3649  0.0374
 2175SOL    HW1 7966   1.542   2.085   6.137  0.8575 -1.2254 -0.8151
 2175SOL    HW2 7967   1.394   2.074   6.112  0.4679  1.3925 -0.0020
 2176SOL     OW 7968   2.684   1.646   5.732 -0.0146  0.0994 -0.2708
 2176SOL    HW1 7969   2.748   1.601   5.787 -0.1376 -1.1168 -1.0989
 2176SOL    HW2 7970   2.731   1.665   5.651 -0.5199 -0.2642 -0.6576
 2177SOL     OW 7971   7.260   2.975   8.350 -0.0164  0.4264  0.5335
 2177SOL    HW1 7972   7.228   2.895   8.307  0.3583  0.9064 -0.6697
 2177SOL    HW2 7973   7.324   3.011   8.289  2.2124 -0.0342  2.4640
 2178SOL     OW 7974   0.575   1.360   7.297 -0.0203 -0.9172  0.3811
 2178SOL    HW1 7975   0.480   1.357   7.282 -0.1497  0.0000  0.9051
 2178SOL    HW2 7976   0.605   1.271   7.282 -0.4989 -0.6602 -2.8297
 2179SOL     OW 7977   2.031   5.712   8.380 -0.1883  0.5124  0.8110
 2179SOL    HW1 7978   2.026   5.758   8.296  0.2277 -0.5127  0.1957
 2179SOL    HW2 7979   2.111   5.744   8.421  0.2103  0.1952  0.2909
 2180SOL     OW 7980   1.285   0.937   3.885 -0.0731  0.4794  0.0682
 2180SOL    HW1 7981   1.214   0.892   3.840 -0.3545  1.8407 -0.8929
 2180SOL    HW2 7982   1.241   1.001   3.941  0.3700  2.3314 -1.6031
 2181SOL     OW 7983   6.929   3.302   6.061  0.2412 -0.0445 -0.1125
 2181SOL    HW1 7984   6.909   3.383   6.108 -1.9312 -0.2734 -0.5146
 2181SOL    HW2 7985   6.843   3.264   6.041  1.1724 -1.8390 -1.0038
 2182SOL     OW 7986   1.106   2.085   6.894  0.3792 -0.2215 -0.0433
 2182SOL    HW1 7987   1.095   2.101   6.987 -0.0412 -1.6176  0.1726
 2182SOL    HW2 7988   1.179   2.023   6.888 -0.2725 -0.9661 -0.5426
 2183SOL     OW 7989   1.258   0.825   5.244 -0.7912  0.2052 -1.0289
 2183SOL    HW1 7990   1.206   0.747   5.266  0.8188 -0.2351  1.6619
 2183SOL    HW2 7991   1.316   0.796   5.173  0.7960 -1.6271  0.8798
 2184SOL     OW 7992   1.032   3.152   5.875  0.4917  0.1536 -0.3496
 2184SOL    HW1 7993   1.119   3.191   5.869  0.6178 -0.1150 -0.2460
 2184SOL    HW2 7994   0.987   3.205   5.941  0.5615  0.3171 -0.4315
 2185SOL     OW 7995   1.358   3.228   5.885 -0.5823 -0.3032 -0.2296
 2185SOL    HW1 7996   1.371   3.158   5.949 -1.1526 -0.9708 -0.8370
 2185SOL    HW2 7997   1.410   3.201   5.809 -0.7180 -0.0168 -0.4256
 2186SOL     OW 7998   0.833   3.956   6.092  0.4485 -0.2449 -0.3100
 2186SOL    HW1 7999   0.885   4.033   6.067 -0.1625 -0.6347 -3.2284
 2186SOL    HW2 8000   0.896   3.884   6.091  0.5006 -0.1992 -0.3556
 2187SOL     OW 8001   0.597   3.745   7.428  0.1970  0.3016 -0.1070
 2187SOL    HW1 8002   0.575   3.837   7.414 -0.6262  0.2502  0.8199
 2187SOL    HW2 8003   0.550   3.720   7.507 -0.9645 -1.3968 -1.2655
 2188SOL     OW 8004   2.430   0.474   5.536 -0.5409  0.3599 -0.1697
 2188SOL    HW1 8005   2.354   0.416   5.530 -0.0143 -0.3071 -0.6269
 2188SOL    HW2 8006   2.431   0.505   5.627 -1.1614  0.1028 -0.0769
 2189SOL     OW 8007   2.448   3.448   7.847 -0.3228  0.3901 -0.3358
 2189SOL    HW1 8008   2.393   3.417   7.920 -1.0033  1.2673 -0.4609
 2189SOL    HW2 8009   2.513   3.379   7.835 -0.1307  0.2770  1.1726
 2190SOL     OW 8010   0.100   4.728   8.611 -0.7554 -0.2035  0.3869
 2190SOL    HW1 8011   0.041   4.804   8.617  1.3181  1.5196  0.0554
 2190SOL    HW2 8012   0.153   4.745   8.533 -0.0131 -1.8417  0.5046
 2191SOL     OW 8013   0.874   3.574   7.457 -0.0367 -0.2557  0.1658
 2191SOL    HW1 8014   0.870   3.590   7.551 -2.7947 -0.7720  0.2150
 2191SOL    HW2 8015   0.959   3.533   7.443  0.5048  0.0058  2.3840
 2192SOL     OW 8016   1.308   2.876   5.161 -0.1070 -0.5011 -0.1199
 2192SOL    HW1 8017   1.400   2.850   5.151 -0.5553 -1.7931 -1.1102
 2192SOL    HW2 8018   1.260   2.793   5.163 -1.3192  0.1829 -0.3648
 2193SOL     OW 8019   0.095   1.120   6.394 -0.2930 -0.5736  0.5315
 2193SOL    HW1 8020   0.187   1.094   6.384  0.8620  3.2249 -0.2785
 2193SOL    HW2 8021   0.088   1.149   6.485  0.5056  2.6164 -0.2933
 2194SOL     OW 8022   3.248   3.777   7.292  0.0636  0.1262 -0.3866
 2194SOL    HW1 8023   3.227   3.841   7.360  0.4730  1.6502 -1.6482
 2194SOL    HW2 8024   3.344   3.772   7.292  0.0225 -1.8714  0.8907
 2195SOL     OW 8025   1.120   3.298   7.903  0.2627 -0.0592 -0.5341
 2195SOL    HW1 8026   1.177   3.263   7.971  0.1004  0.8239  0.0853
 2195SOL    HW2 8027   1.180   3.334   7.837  0.4553  1.1350  0.2579
 2196SOL     OW 8028   2.434   1.363   6.543 -0.2171  0.0741 -0.5518
 2196SOL    HW1 8029   2.376   1.294   6.576 -0.1132  0.5435  0.6791
 2196SOL    HW2 8030   2.396   1.444   6.575  0.1201  0.5351 -1.2885
 2197SOL     OW 8031   1.650   3.587   4.615  0.0497  0.4569  0.0587
 2197SOL    HW1 8032   1.727   3.531   4.603  0.5357  1.1530 -0.1927
 2197SOL    HW2 8033   1.586   3.532   4.660  1.0539  0.1654  1.1753
 2198SOL     OW 8034   3.171   2.433   7.739  0.1431 -0.4595 -0.0825
 2198SOL    HW1 8035   3.083   2.470   7.731 -0.1845 -0.6881  1.9047
 2198SOL    HW2 8036   3.218   2.466   7.662 -1.2012  0.9915 -0.3419
 2199SOL     OW 8037   1.479   2.712   6.963 -0.0709 -0.1892 -0.5763
 2199SOL    HW1 8038   1.491   2.768   7.039 -0.4899  1.3733 -1.6180
 2199SOL    HW2 8039   1.567   2.698   6.929  0.0508 -0.2981 -0.2139
 2200SOL     OW 8040   1.284   3.009   6.034 -0.1066  0.2864  0.0893
 2200SOL    HW1 8041   1.302   2.915   6.039 -0.7412  0.2233  1.6236
 2200SOL    HW2 8042   1.328   3.046   6.111 -0.7889  1.0862  0.1094
 2201SOL     OW 8043   0.066   2.210   9.341  0.4211  0.8111 -0.0623
 2201SOL    HW1 8044   0.008   2.286   9.338 -0.5419  0.0833 -0.4495
 2201SOL    HW2 8045   0.119   2.217   9.262  0.7500  1.3946  0.2079
 2202SOL     OW 8046   2.153   2.942   6.931 -0.1392  0.0587  0.4146
 2202SOL    HW1 8047   2.190   2.876   6.872 -3.4449 -1.6055 -0.0033
 2202SOL    HW2 8048   2.105   3.001   6.874 -2.0015 -0.6142  1.2142
 2203SOL     OW 8049   1.322   3.998   6.501 -0.1194  0.1876 -0.6757
 2203SOL    HW1 8050   1.269   3.923   6.526  1.7380 -0.9974 -0.0942
 2203SOL    HW2 8051   1.405   3.960   6.472  0.8257  2.0160 -0.5131
 2204SOL     OW 8052   2.344   2.456   5.031 -0.3938 -0.3015  0.6028
 2204SOL    HW1 8053   2.407   2.395   5.069 -0.9483 -0.4320  1.3281
 2204SOL    HW2 8054   2.382   2.479   4.946 -0.1105 -1.5574  0.3607
 2205SOL     OW 8055   0.619   3.351   7.776 -0.1725  0.3699 -0.1183
 2205SOL    HW1 8056   0.538   3.365   7.826 -0.2085  1.9145 -0.5751
 2205SOL    HW2 8057   0.686   3.398   7.824 -0.2527  2.0891 -1.5854
 2206SOL     OW 8058   2.575   7.246   6.137 -0.8472 -0.2106  0.0127
 2206SOL    HW1 8059   2.618   7.174   6.183 -2.1186 -0.3940  0.9802
 2206SOL    HW2 8060   2.634   7.321   6.151 -0.9943 -0.3591  1.6292
 2207SOL     OW 8061   1.658   2.245   5.782  0.4122  0.5185  0.1671
 2207SOL    HW1 8062   1.576   2.267   5.739  0.5021  1.1932  0.3275
 2207SOL    HW2 8063   1.680   2.323   5.834  0.4745 -0.1423  1.1668
 2208SOL     OW 8064   1.597   4.513   7.825  0.1526  0.1277 -0.2280
 2208SOL    HW1 8065   1.551   4.567   7.889  0.1841  0.8662 -0.8121
 2208SOL    HW2 8066   1.686   4.550   7.822  1.1165 -1.8041  1.5212
 2209SOL     OW 8067   0.820   1.147   7.473  0.3400 -0.4065  0.1910
 2209SOL    HW1 8068   0.740   1.136   7.421  0.1591  0.3351  0.2946
 2209SOL    HW2 8069   0.885   1.178   7.411  0.2577  0.0092  0.3123
 2210SOL     OW 8070   0.815   2.158   5.942 -0.2312 -0.4265 -0.8556
 2210SOL    HW1 8071   0.902   2.194   5.960 -0.6794  0.1384  0.3052
 2210SOL    HW2 8072   0.814   2.144   5.847  0.5199  1.1664 -1.1349
 2211SOL     OW 8073   0.695   2.682   6.461 -0.7518  0.0978  0.5177
 2211SOL    HW1 8074   0.752   2.757   6.449  0.7731 -1.2487 -1.4763
 2211SOL    HW2 8075   0.746   2.620   6.513 -0.6339 -0.8341 -0.6608
 2212SOL     OW 8076   1.383   3.695   6.987 -0.0056 -0.0355 -0.0744
 2212SOL    HW1 8077   1.368   3.646   7.068  2.2425  0.9515  1.0288
 2212SOL    HW2 8078   1.381   3.629   6.918  1.0997 -1.4264  1.1607
 2213SOL     OW 8079   1.844   3.204   5.027 -0.1579 -0.1754  0.2999
 2213SOL    HW1 8080   1.813   3.146   5.096 -1.7061 -0.3580 -0.5126
 2213SOL    HW2 8081   1.804   3.171   4.947  1.4251  0.1673 -0.6810
 2214SOL     OW 8082   0.866   3.479   7.180 -0.4975  0.2757 -0.4027
 2214SOL    HW1 8083   0.894   3.400   7.225 -0.2564 -1.0692 -2.7283
 2214SOL    HW2 8084   0.947   3.521   7.152 -0.6181  1.4717  0.9287
 2215SOL     OW 8085   7.980   4.222   7.543  0.5704 -0.0614  0.2128
 2215SOL    HW1 8086   7.992   4.167   7.620  0.3446 -1.0588 -0.4476
 2215SOL    HW2 8087   8.064   4.268   7.533  0.1411  1.2060  1.8740
 2216SOL     OW 8088   1.763   1.767   8.811 -0.5128 -0.6841  0.3084
 2216SOL    HW1 8089   1.823   1.834   8.779  1.8481 -1.7885  2.1281
 2216SOL    HW2 8090   1.701   1.816   8.866 -0.0253  0.2455  0.0620
 2217SOL     OW 8091   1.798   3.275   7.314 -0.3383 -0.0410 -0.0857
 2217SOL    HW1 8092   1.757   3.299   7.231  0.9952  0.0738 -0.7430
 2217SOL    HW2 8093   1.845   3.193   7.295 -0.1618 -0.1097  0.6022
 2218SOL     OW 8094   0.127   4.385   8.297 -0.1580  0.2260 -0.4651
 2218SOL    HW1 8095   0.041   4.342   8.291 -1.7739  3.2076 -0.4333
 2218SOL    HW2 8096   0.117   4.447   8.369  2.4335 -0.0739  0.2426
 2219SOL     OW 8097   2.720   2.788   7.300 -0.8252  0.3730  0.3918
 2219SOL    HW1 8098   2.761   2.871   7.274  1.2605 -0.4187  0.9425
 2219SOL    HW2 8099   2.773   2.758   7.374 -0.3103 -2.3818 -0.9622
 2220SOL     OW 8100   0.172   1.708   4.941 -0.7033 -0.0030 -0.1750
 2220SOL    HW1 8101   0.266   1.725   4.946 -0.9559  1.3039  0.9780
 2220SOL    HW2 8102   0.143   1.708   5.033 -2.0564  1.2801 -0.5502
 2221SOL     OW 8103   0.536   2.408   5.536  0.2060  0.2095 -0.6978
 2221SOL    HW1 8104   0.596   2.482   5.539  2.7069 -1.6327 -2.1266
 2221SOL    HW2 8105   0.562   2.352   5.609 -1.2667  0.3635 -0.0035
 2222SOL     OW 8106   1.426   3.741   7.809 -0.0712  0.0717  0.2849
 2222SOL    HW1 8107   1.367   3.779   7.873  0.2293  0.4255  0.3542
 2222SOL    HW2 8108   1.379   3.745   7.726  0.2749  1.3454  0.1394
 2223SOL     OW 8109   1.911   3.098   8.754 -0.1550  0.0358  0.2509
 2223SOL    HW1 8110   1.955   3.183   8.749 -0.3153  0.1753  1.0043
 2223SOL    HW2 8111   1.819   3.120   8.771 -0.5547 -0.2481 -1.4060
 2224SOL     OW 8112   0.553   3.351   6.112 -0.2162 -0.3427  0.7961
 2224SOL    HW1 8113   0.507   3.365   6.195  0.2240 -0.2647  1.0291
 2224SOL    HW2 8114   0.512   3.414   6.052 -0.7456 -0.6120  0.8654
 2225SOL     OW 8115   0.400   3.388   7.922 -0.3064 -0.1555 -0.1725
 2225SOL    HW1 8116   0.310   3.378   7.953 -0.4744  1.2896 -0.0857
 2225SOL    HW2 8117   0.444   3.436   7.992  0.5626 -0.9064 -0.1890
 2226SOL     OW 8118   0.008   0.743   6.414 -0.1108 -0.5578  0.1576
 2226SOL    HW1 8119  -0.072   0.785   6.443 -1.4638 -1.9866 -1.2870
 2226SOL    HW2 8120   0.046   0.803   6.350 -0.5047 -0.2736  0.1907
 2227SOL     OW 8121   2.054   1.306   6.378  0.3030  0.2006  0.6161
 2227SOL    HW1 8122   2.008   1.263   6.450 -2.7129  1.4697 -0.4081
 2227SOL    HW2 8123   2.067   1.396   6.407  1.0195  0.1802  0.3837
 2228SOL     OW 8124   2.601   2.126   6.059  0.2043  0.2876  0.4745
 2228SOL    HW1 8125   2.647   2.115   5.976 -0.3739 -1.1418  0.3069
 2228SOL    HW2 8126   2.646   2.199   6.102  0.4770  1.0874 -1.0988
 2229SOL     OW 8127   2.054   3.696   8.026 -0.0922  0.6295  0.0265
 2229SOL    HW1 8128   2.104   3.645   8.090  0.3436  1.2890  0.2221
 2229SOL    HW2 8129   2.013   3.630   7.969 -0.1587  0.0508  0.7362
 2230SOL     OW 8130   7.040   2.135   5.464 -0.3447 -0.5738  0.4805
 2230SOL    HW1 8131   7.003   2.049   5.442 -1.0701 -0.3994  1.0033
 2230SOL    HW2 8132   7.089   2.160   5.385 -1.8607 -0.5248 -0.4942
 2231SOL     OW 8133   0.820   4.651   8.276 -0.1310 -0.5868  0.1116
 2231SOL    HW1 8134   0.736   4.669   8.232 -0.8980 -2.2043  0.8402
 2231SOL    HW2 8135   0.802   4.667   8.369  0.1373 -1.6632  0.3586
 2232SOL     OW 8136   1.551   3.605   6.354  0.0544  0.0651 -0.0481
 2232SOL    HW1 8137   1.620   3.580   6.415  1.0844 -1.1708 -1.6370
 2232SOL    HW2 8138   1.491   3.530   6.354 -1.7319  1.3769  1.7941
 2233SOL     OW 8139   0.679   2.994   7.409 -0.2450  0.5403 -0.1216
 2233SOL    HW1 8140   0.650   3.084   7.398 -2.3788 -0.2075 -0.9410
 2233SOL    HW2 8141   0.672   2.955   7.322 -2.5453 -1.2752  0.7916
 2234SOL     OW 8142   1.747   4.305   6.432 -0.3763 -0.0928  0.0645
 2234SOL    HW1 8143   1.759   4.228   6.489 -1.3533 -0.0132  0.4009
 2234SOL    HW2 8144   1.828   4.310   6.382 -0.2074 -1.2344  0.1776
 2235SOL     OW 8145   7.968   2.093   4.746  0.4093  0.5321 -0.2193
 2235SOL    HW1 8146   7.896   2.142   4.706 -0.9190 -2.1366 -1.3595
 2235SOL    HW2 8147   7.930   2.057   4.827  0.7129 -0.2185 -0.4044
 2236SOL     OW 8148   0.512   2.794   7.549 -0.2113 -0.4767  0.3632
 2236SOL    HW1 8149   0.475   2.807   7.637  0.5998  0.9002  0.5278
 2236SOL    HW2 8150   0.585   2.856   7.544  1.0797 -1.9982 -0.5384
 2237SOL     OW 8151   2.099   4.456   7.221  0.2423  0.1347  0.1391
 2237SOL    HW1 8152   2.036   4.409   7.166 -0.7561 -0.1433  1.4500
 2237SOL    HW2 8153   2.151   4.508   7.160 -2.1031  1.3731 -0.9392
 2238SOL     OW 8154   1.559   1.843   5.683  0.6357 -0.5016  0.2837
 2238SOL    HW1 8155   1.628   1.856   5.748  0.7921 -0.2631  0.0723
 2238SOL    HW2 8156   1.480   1.828   5.734  0.8865 -1.0338  0.5352
 2239SOL     OW 8157   1.444   3.126   6.906 -0.7884  0.1351  0.2123
 2239SOL    HW1 8158   1.355   3.149   6.880 -0.3687  0.9211 -0.5550
 2239SOL    HW2 8159   1.494   3.124   6.824 -0.0206  0.0615  0.6683
 2240SOL     OW 8160   0.911   3.182   7.321 -0.1861 -0.1708  0.1272
 2240SOL    HW1 8161   0.835   3.239   7.319  0.0560  0.1778  0.5947
 2240SOL    HW2 8162   0.876   3.096   7.345 -0.6921 -0.4822 -1.6229
 2241SOL     OW 8163   1.148   1.095   4.107  0.6748 -0.5155  0.7098
 2241SOL    HW1 8164   1.205   1.123   4.178 -1.5375  1.7568  1.7704
 2241SOL    HW2 8165   1.131   1.175   4.058 -0.6290 -1.3538 -0.2629
 2242SOL     OW 8166   3.781   1.706   5.434 -0.6896 -0.4674 -0.4337
 2242SOL    HW1 8167   3.755   1.633   5.490  1.6277 -1.1380 -0.1020
 2242SOL    HW2 8168   3.851   1.670   5.379  1.0537  1.6222  0.2542
 2243SOL     OW 8169   1.917   1.797   6.612  0.4544  0.2701  0.9506
 2243SOL    HW1 8170   1.977   1.854   6.563  0.4586 -0.1053  0.5049
 2243SOL    HW2 8171   1.920   1.830   6.701  0.0767  1.2818  0.6042
 2244SOL     OW 8172   0.217   2.239   5.218  1.0763  0.3849  0.0922
 2244SOL    HW1 8173   0.207   2.286   5.135 -1.0843  0.2897  0.2567
 2244SOL    HW2 8174   0.231   2.308   5.282  0.4813  0.6305 -0.0367
 2245SOL     OW 8175   1.183   4.592   6.287 -0.3440  0.0576 -0.5093
 2245SOL    HW1 8176   1.211   4.679   6.259  0.7403  0.1011  0.6006
 2245SOL    HW2 8177   1.124   4.562   6.218  1.6113  0.4363 -2.4663
 2246SOL     OW 8178   0.266   4.063   8.605 -0.2540 -0.0511 -0.1753
 2246SOL    HW1 8179   0.278   4.156   8.625  1.5214 -0.4796  0.9237
 2246SOL    HW2 8180   0.173   4.057   8.581 -0.9004  1.6994  1.5287
 2247SOL     OW 8181   6.177   2.156   8.578  0.4597 -0.5616 -0.0098
 2247SOL    HW1 8182   6.207   2.065   8.587  1.9755 -0.1910 -0.9107
 2247SOL    HW2 8183   6.258   2.208   8.581 -0.3613  0.7437  0.2674
 2248SOL     OW 8184   0.128   0.753   9.980 -0.1552 -0.4862 -0.2150
 2248SOL    HW1 8185   0.141   0.770   9.886  1.6464 -1.2434 -0.1448
 2248SOL    HW2 8186   0.213   0.773  10.020 -1.2396  0.9694  1.4632
 2249SOL     OW 8187   2.073   2.988   8.994  0.2094  0.5674  0.1823
 2249SOL    HW1 8188   2.028   2.915   8.950 -0.2663  1.3467 -0.6529
 2249SOL    HW2 8189   2.013   3.062   8.986 -0.1923  0.6090  2.7517
 2250SOL     OW 8190   1.663   3.358   8.982 -0.1982 -0.1167  0.1918
 2250SOL    HW1 8191   1.585   3.302   8.978 -0.0221 -0.4673  1.2253
 2250SOL    HW2 8192   1.663   3.406   8.900 -1.0374 -0.7415 -0.1833
 2251SOL     OW 8193   0.708   1.203   7.726 -0.5775  0.3351 -0.4315
 2251SOL    HW1 8194   0.757   1.196   7.645  2.0800  1.2266  0.9873
 2251SOL    HW2 8195   0.635   1.261   7.704  0.9026  1.7746 -1.8608
 2252SOL     OW 8196   1.392   3.167   8.364  0.3053  0.3724 -0.1216
 2252SOL    HW1 8197   1.465   3.142   8.422  0.4537 -0.2592 -0.5700
 2252SOL    HW2 8198   1.332   3.215   8.421  0.1866 -0.7186  0.7025
 2253SOL     OW 8199   7.462   2.755   6.705  0.1326  0.4432  0.1281
 2253SOL    HW1 8200   7.465   2.665   6.738 -1.2052 -0.1183 -1.1649
 2253SOL    HW2 8201   7.543   2.765   6.655  0.8179  0.3567  1.1862
 2254SOL     OW 8202   7.979   1.192   8.984 -0.0313  0.2300  0.3275
 2254SOL    HW1 8203   8.035   1.114   8.987 -1.7035 -1.0055  1.1784
 2254SOL    HW2 8204   7.975   1.222   9.075  0.6118  1.3759  0.0070
 2255SOL     OW 8205   0.148   3.158   8.264  0.6376 -0.4721 -0.5039
 2255SOL    HW1 8206   0.069   3.145   8.317 -0.3017  3.1228 -0.7007
 2255SOL    HW2 8207   0.205   3.211   8.319  1.7556 -0.7647 -1.3539
 2256SOL     OW 8208   7.535   2.943   9.229  0.3888  0.5493  0.4603
 2256SOL    HW1 8209   7.519   2.848   9.228 -0.3531  0.6615  1.1070
 2256SOL    HW2 8210   7.497   2.974   9.147  2.3985  0.0425 -0.7482
 2257SOL     OW 8211   1.989   2.860   8.651 -0.3378 -0.5096  0.1295
 2257SOL    HW1 8212   1.982   2.932   8.714  0.6619 -0.2530 -0.0313
 2257SOL    HW2 8213   1.966   2.899   8.567  0.1898 -0.3706  0.0447
 2258SOL     OW 8214   0.770   2.723   8.544 -0.2340 -0.5411 -0.6624
 2258SOL    HW1 8215   0.702   2.673   8.500 -0.4926 -1.0042  0.2309
 2258SOL    HW2 8216   0.831   2.657   8.577 -1.2130 -0.4212  1.5895
 2259SOL     OW 8217   5.191   0.905   7.338  0.4753 -0.5129 -0.3619
 2259SOL    HW1 8218   5.254   0.908   7.266 -0.9703 -0.8520 -1.7265
 2259SOL    HW2 8219   5.143   0.988   7.330  2.0070  0.6725  1.9183
 2260SOL     OW 8220   0.684   1.744   8.346  0.5354  0.3823  0.7042
 2260SOL    HW1 8221   0.681   1.664   8.399 -1.7768 -0.9398 -1.2234
 2260SOL    HW2 8222   0.658   1.814   8.406 -1.3524 -0.9591  1.5252
 2261SOL     OW 8223   0.114   3.667   8.701  0.1078 -0.4656  0.5183
 2261SOL    HW1 8224   0.062   3.682   8.621  1.5445 -0.3416 -0.4349
 2261SOL    HW2 8225   0.049   3.666   8.771 -1.2465 -0.8750 -0.6733
 2262SOL     OW 8226   0.928   3.774   9.131  0.0916 -0.0648  0.2318
 2262SOL    HW1 8227   0.975   3.857   9.140 -0.2328  0.0751  0.6428
 2262SOL    HW2 8228   0.912   3.745   9.221 -0.2499 -0.3181  0.0918
 2263SOL     OW 8229   7.571   2.905   8.146 -0.5220 -0.2451  1.5446
 2263SOL    HW1 8230   7.601   2.818   8.173  0.0350 -1.4972 -2.4583
 2263SOL    HW2 8231   7.494   2.888   8.092  1.3869  1.2456 -1.9810
 2264SOL     OW 8232   0.482   2.893   7.821 -0.1021  0.3108 -0.0370
 2264SOL    HW1 8233   0.468   2.987   7.810  0.1183  0.5536  1.4879
 2264SOL    HW2 8234   0.446   2.874   7.908  1.5887 -0.6208  0.4972
 2265SOL     OW 8235   0.183   2.891   9.049  0.1340  0.2620 -0.2046
 2265SOL    HW1 8236   0.204   2.809   9.093  0.8098  0.1217 -0.7833
 2265SOL    HW2 8237   0.112   2.929   9.102  0.3419 -0.3174  0.5020
 2266SOL     OW 8238   2.303   3.830   6.857  0.2573 -0.1532  0.1188
 2266SOL    HW1 8239   2.383   3.882   6.852 -0.0620  0.4917  1.4229
 2266SOL    HW2 8240   2.277   3.817   6.766  1.6054  0.0017 -0.2985
 2267SOL     OW 8241   1.420   2.535   8.286 -0.2148  0.4034  0.0232
 2267SOL    HW1 8242   1.369   2.465   8.246  0.4270  0.0446 -0.1785
 2267SOL    HW2 8243   1.389   2.615   8.243 -0.0491  0.1009 -0.6688
 2268SOL     OW 8244   1.029   4.575   8.102 -0.0962 -0.0907  0.0849
 2268SOL    HW1 8245   0.964   4.632   8.143  0.8924  2.1403 -1.2237
 2268SOL    HW2 8246   1.110   4.593   8.151  0.4403  0.4207 -0.9556
 2269SOL     OW 8247   7.981   2.725   8.157  0.4410 -0.2439 -0.1894
 2269SOL    HW1 8248   7.888   2.743   8.139  0.5568 -0.0369 -0.6036
 2269SOL    HW2 8249   7.989   2.630   8.144 -0.1210 -0.6126  1.7793
 2270SOL     OW 8250   0.302   4.022   7.026 -0.2981 -0.0059  0.3461
 2270SOL    HW1 8251   0.340   3.936   7.005  0.0059  0.5917 -1.8285
 2270SOL    HW2 8252   0.378   4.078   7.043 -0.4689  0.0049  1.1051
 2271SOL     OW 8253   0.528   4.661   9.397 -0.1449  0.4313 -0.0547
 2271SOL    HW1 8254   0.475   4.668   9.317  0.6346 -1.0298 -0.7423
 2271SOL    HW2 8255   0.618   4.656   9.365  0.2521  0.7850  0.9845
 2272SOL     OW 8256   7.982   3.615   8.285  0.5921  0.5460 -0.1002
 2272SOL    HW1 8257   7.984   3.644   8.376 -0.2534 -0.8825  0.4025
 2272SOL    HW2 8258   8.050   3.548   8.280 -0.5975 -0.6971 -0.0244
 2273SOL     OW 8259   0.717   3.833   6.770  0.9051  0.2514 -0.5468
 2273SOL    HW1 8260   0.696   3.834   6.677 -0.2648 -1.6791 -0.3567
 2273SOL    HW2 8261   0.706   3.742   6.797  1.0535  0.7825  1.5282
 2274SOL     OW 8262   3.059   1.821   7.989  0.1727  0.3799  0.2213
 2274SOL    HW1 8263   2.981   1.857   7.946 -0.9617 -0.9603  1.0609
 2274SOL    HW2 8264   3.085   1.748   7.932  0.2907  0.2886  0.3942
 2275SOL     OW 8265   2.165   3.417   9.025  0.1196 -0.1256 -0.9431
 2275SOL    HW1 8266   2.093   3.475   9.050  1.4985  1.0493  0.5136
 2275SOL    HW2 8267   2.127   3.359   8.959 -2.0796  0.6143 -0.4246
 2276SOL     OW 8268   7.902   3.657   8.894 -0.1401 -0.2159 -0.1075
 2276SOL    HW1 8269   7.862   3.744   8.895  0.3863  0.0397 -0.6603
 2276SOL    HW2 8270   7.833   3.600   8.861 -1.1033 -0.3446  1.9559
 2277SOL     OW 8271   2.509   2.840   7.489  0.1571  0.1561 -0.6214
 2277SOL    HW1 8272   2.569   2.807   7.423 -1.5707 -0.2764 -2.0438
 2277SOL    HW2 8273   2.443   2.889   7.440 -2.1883 -1.6791  0.4890
 2278SOL     OW 8274   7.436   3.944   9.860  0.4396  0.2227  0.3866
 2278SOL    HW1 8275   7.395   3.867   9.821 -2.1620  2.0310 -0.7391
 2278SOL    HW2 8276   7.363   3.993   9.899  1.6261  3.1468 -0.7999
 2279SOL     OW 8277   0.459   1.956   9.017 -0.0141 -0.1023 -0.1300
 2279SOL    HW1 8278   0.368   1.927   9.020 -0.4195  1.0803 -0.1628
 2279SOL    HW2 8279   0.509   1.885   9.057 -1.0134 -0.5566  0.3378
 2280SOL     OW 8280   1.058   4.554   8.523  0.3555 -0.1004  0.0350
 2280SOL    HW1 8281   0.973   4.575   8.561 -0.4207  0.3769 -1.8731
 2280SOL    HW2 8282   1.120   4.609   8.571 -0.8718  2.1605 -0.8440
 2281SOL     OW 8283   1.936   2.449   8.802 -0.5682  0.1218  0.1129
 2281SOL    HW1 8284   1.887   2.395   8.865 -0.5049 -1.3797 -1.0694
 2281SOL    HW2 8285   2.010   2.394   8.776 -0.2164  0.9858 -0.7522
 2282SOL     OW 8286   1.927   2.068   8.956  0.1911  0.2026  0.1058
 2282SOL    HW1 8287   1.971   2.008   9.016 -3.0242 -1.1438  1.3417
 2282SOL    HW2 8288   1.937   2.028   8.870 -1.8509 -2.2627  0.9011
 2283SOL     OW 8289   4.068   0.860   7.867  0.7205 -0.6075  0.1204
 2283SOL    HW1 8290   3.998   0.803   7.834 -1.5532  1.2162  1.4486
 2283SOL    HW2 8291   4.117   0.886   7.789 -2.0869  0.5536 -1.3910
 2284SOL     OW 8292   1.415   4.748   6.514  0.4918  0.4091  0.1197
 2284SOL    HW1 8293   1.497   4.790   6.538  0.7328 -0.4271  0.7808
 2284SOL    HW2 8294   1.434   4.654   6.515 -0.2814  0.2353 -0.4220
 2285SOL     OW 8295   0.471   2.414  10.422 -0.3818 -0.2925 -0.0955
 2285SOL    HW1 8296   0.461   2.424  10.517 -0.0694 -1.5923  0.0836
 2285SOL    HW2 8297   0.384   2.389  10.391  0.1040 -2.5598  0.2379
 2286SOL     OW 8298   0.441   3.753   7.638  0.0309 -0.3396  0.3049
 2286SOL    HW1 8299   0.424   3.693   7.710  0.1332 -0.1345  0.5024
 2286SOL    HW2 8300   0.364   3.747   7.582 -0.9110  0.9248  1.4292
 2287SOL     OW 8301   1.212   4.230   9.936  0.9993 -0.3328  0.1288
 2287SOL    HW1 8302   1.148   4.185   9.880 -0.4455  1.1010  0.5783
 2287SOL    HW2 8303   1.226   4.169  10.008 -2.3964  0.5255  1.7441
 2288SOL     OW 8304   7.221   3.464   7.481 -0.2421  0.4767 -0.9577
 2288SOL    HW1 8305   7.282   3.400   7.444  0.0845  0.7616 -0.9230
 2288SOL    HW2 8306   7.254   3.480   7.570 -1.2046 -0.4363 -0.4238
 2289SOL     OW 8307   1.484   2.927   7.671  0.1263  0.4925  0.2184
 2289SOL    HW1 8308   1.465   2.915   7.764 -1.7731 -0.8194 -0.2792
 2289SOL    HW2 8309   1.547   2.858   7.651 -0.8175 -0.4001  0.1950
 2290SOL     OW 8310   6.662   3.303   8.915  0.1048  0.7937 -0.7633
 2290SOL    HW1 8311   6.638   3.244   8.844  0.5768 -0.4226  0.0478
 2290SOL    HW2 8312   6.585   3.305   8.972 -0.1003  1.3903 -1.0531
 2291SOL     OW 8313   0.211   4.234   7.315 -0.1110  0.4730  0.8833
 2291SOL    HW1 8314   0.192   4.285   7.394  2.0014 -3.3736  4.3053
 2291SOL    HW2 8315   0.300   4.261   7.291  0.4776 -0.5070  1.8611
 2292SOL     OW 8316   2.863   1.444   8.636  0.2758  0.2380 -0.1228
 2292SOL    HW1 8317   2.890   1.517   8.693  0.4250  0.0120  0.0949
 2292SOL    HW2 8318   2.944   1.395   8.620 -0.1242 -0.9005  1.1732
 2293SOL     OW 8319   2.126   4.576   8.125 -0.1177 -0.0259 -0.4310
 2293SOL    HW1 8320   2.096   4.522   8.052  0.7237 -1.7387  0.4160
 2293SOL    HW2 8321   2.179   4.645   8.085  0.4738 -1.0437 -1.4421
 2294SOL     OW 8322   7.742   2.249   7.802  0.1030 -0.0840  0.5326
 2294SOL    HW1 8323   7.797   2.276   7.729  0.1184 -1.2422  0.0972
 2294SOL    HW2 8324   7.694   2.328   7.827  1.3047  0.7286  0.3521
 2295SOL     OW 8325   2.186   2.078   8.237 -0.0553 -0.0277  0.3515
 2295SOL    HW1 8326   2.263   2.051   8.287 -1.0052 -0.5593  1.5585
 2295SOL    HW2 8327   2.194   2.031   8.154  1.6449  1.0219 -0.1395
 2296SOL     OW 8328   0.049   5.557   9.820 -0.1461 -0.4045  0.0590
 2296SOL    HW1 8329   0.064   5.636   9.767  1.1108 -0.0556  0.8898
 2296SOL    HW2 8330  -0.019   5.509   9.773 -1.0780  1.2599 -0.3639
 2297SOL     OW 8331   2.291   1.883   8.653 -0.0664 -0.0736  0.1955
 2297SOL    HW1 8332   2.197   1.901   8.653 -0.2063 -0.7502 -0.6857
 2297SOL    HW2 8333   2.298   1.791   8.625  0.8528 -0.0157  0.2094
 2298SOL     OW 8334   7.855   2.970   8.967  0.6329 -0.0142 -0.1594
 2298SOL    HW1 8335   7.933   2.915   8.957 -0.5420 -1.5869 -1.0241
 2298SOL    HW2 8336   7.782   2.914   8.944 -0.5683  2.3190 -2.6077
 2299SOL     OW 8337   0.285   3.233   5.787  0.1999  0.6236 -0.0739
 2299SOL    HW1 8338   0.379   3.231   5.807  0.4961 -0.5619 -1.4317
 2299SOL    HW2 8339   0.279   3.283   5.706 -0.4225  1.1876  0.3093
 2300SOL     OW 8340   2.078   2.327   8.333  0.2596  0.0412  0.7914
 2300SOL    HW1 8341   2.139   2.313   8.406  0.6780  1.3639  0.7303
 2300SOL    HW2 8342   2.091   2.252   8.276  2.3059  0.5890  0.4701
 2301SOL     OW 8343   0.685   2.612  10.476  0.8608 -0.2826 -0.2765
 2301SOL    HW1 8344   0.635   2.531  10.481 -0.9614  0.8024  0.1234
 2301SOL    HW2 8345   0.777   2.584  10.480  0.3491 -2.4091 -1.8928
 2302SOL     OW 8346   0.027   1.517   8.490  0.1581 -0.1912 -0.5281
 2302SOL    HW1 8347   0.072   1.551   8.412 -0.1600  2.1204  0.1963
 2302SOL    HW2 8348   0.064   1.430   8.504  4.2918  1.4229 -0.1166
 2303SOL     OW 8349   1.592   2.422   8.703 -0.4537 -0.2855  0.4309
 2303SOL    HW1 8350   1.614   2.409   8.795 -1.3201  0.5409  0.7724
 2303SOL    HW2 8351   1.643   2.355   8.656  0.7188 -0.1136  1.4066
 2304SOL     OW 8352   0.532   2.867   8.676  0.5269 -0.2878  0.0728
 2304SOL    HW1 8353   0.455   2.830   8.633 -0.2466  0.5839  0.6483
 2304SOL    HW2 8354   0.510   2.864   8.770  1.0875  0.1920  0.2233
 2305SOL     OW 8355   0.893   1.652   8.191 -0.6360 -0.6115 -0.5619
 2305SOL    HW1 8356   0.804   1.667   8.221  0.4214  1.0409  2.0671
 2305SOL    HW2 8357   0.907   1.558   8.203 -2.0551 -0.9382 -1.2527
 2306SOL     OW 8358   0.279   3.106   7.795 -0.1304 -0.2321  0.4506
 2306SOL    HW1 8359   0.259   3.189   7.751 -3.2744 -0.3597  1.3988
 2306SOL    HW2 8360   0.194   3.064   7.806  0.9245 -1.8813  3.3357
 2307SOL     OW 8361   1.619   3.325   7.874 -0.2704 -0.2910 -0.1211
 2307SOL    HW1 8362   1.694   3.276   7.841 -1.5594 -2.8152  0.4823
 2307SOL    HW2 8363   1.596   3.385   7.803  1.1320 -0.8297 -1.0613
 2308SOL     OW 8364   7.232   4.485   6.493 -0.1877 -0.1651 -0.0096
 2308SOL    HW1 8365   7.250   4.418   6.429  0.1671 -1.7458  1.6638
 2308SOL    HW2 8366   7.290   4.558   6.470  1.8626 -1.7034  0.0515
 2309SOL     OW 8367   0.403   1.034   8.657  0.3503 -0.0689 -0.2586
 2309SOL    HW1 8368   0.414   1.101   8.725 -1.0408  0.0673 -0.1207
 2309SOL    HW2 8369   0.358   1.080   8.586 -0.0499 -0.6892 -0.4202
 2310SOL     OW 8370   6.921   7.994   8.479  0.2931  0.0698 -0.3567
 2310SOL    HW1 8371   6.834   8.027   8.456 -0.3385 -1.2660  0.0278
 2310SOL    HW2 8372   6.926   8.002   8.574  1.6979  2.6700 -0.5364
 2311SOL     OW 8373   1.466   0.550  10.312 -0.1355  0.0328 -0.3961
 2311SOL    HW1 8374   1.395   0.608  10.341 -0.8060 -1.2678  0.6913
 2311SOL    HW2 8375   1.514   0.601  10.247 -0.4985  1.9206  0.7411
 2312SOL     OW 8376   2.235   2.496   6.776  0.0016 -0.1049 -0.0478
 2312SOL    HW1 8377   2.215   2.586   6.750 -0.6933 -0.8103 -2.2151
 2312SOL    HW2 8378   2.320   2.502   6.819 -0.6845  1.7626  1.1848
 2313SOL     OW 8379   2.108   3.008   7.997 -0.9875 -0.1598 -0.1813
 2313SOL    HW1 8380   2.061   3.029   8.078 -0.8675  0.9242 -0.3758
 2313SOL    HW2 8381   2.191   3.054   8.004 -0.8761 -0.2449 -0.8164
 2314SOL     OW 8382   7.476   3.908   8.197  0.3530 -0.8394 -0.4585
 2314SOL    HW1 8383   7.447   3.869   8.114  1.6378  0.9098 -1.8017
 2314SOL    HW2 8384   7.395   3.942   8.235 -0.1382 -0.7905 -1.4839
 2315SOL     OW 8385   2.608   1.035   9.045  0.0924 -0.1482 -0.5554
 2315SOL    HW1 8386   2.549   0.982   9.099  1.5095 -0.6562  0.5548
 2315SOL    HW2 8387   2.600   0.998   8.957 -0.5443 -0.8057 -0.2315
 2316SOL     OW 8388   7.889   0.871   8.209  0.2563  0.0971  0.5783
 2316SOL    HW1 8389   7.944   0.941   8.172  0.8747 -1.1314 -0.9940
 2316SOL    HW2 8390   7.935   0.791   8.185 -0.9694 -0.8891  1.4283
 2317SOL     OW 8391   1.214   2.191   8.865 -0.1269  0.3739 -0.0044
 2317SOL    HW1 8392   1.289   2.206   8.921 -0.2770 -0.6502  0.4920
 2317SOL    HW2 8393   1.170   2.276   8.860  0.6763  0.8129  0.2547
 2318SOL     OW 8394   2.136   4.202   8.199  0.2283 -0.3680  0.3186
 2318SOL    HW1 8395   2.218   4.160   8.222  0.6680  0.6934  0.7536
 2318SOL    HW2 8396   2.151   4.240   8.113 -0.2985 -1.4141 -0.2545
 2319SOL     OW 8397   0.781   1.890   7.896  0.0003  0.1137 -0.1286
 2319SOL    HW1 8398   0.727   1.956   7.852  0.5303  0.0818 -0.8542
 2319SOL    HW2 8399   0.739   1.877   7.981  0.6842  2.4525  0.6435
 2320SOL     OW 8400   2.047   3.177   8.251 -0.6288 -0.0812 -0.0029
 2320SOL    HW1 8401   2.093   3.157   8.332 -0.7687 -1.6962 -0.2978
 2320SOL    HW2 8402   2.029   3.271   8.257  1.3223  0.2799  0.7984
 2321SOL     OW 8403   2.165   2.558   8.087 -0.0771 -0.4604 -0.4248
 2321SOL    HW1 8404   2.134   2.621   8.022 -0.7244  0.0949  0.3962
 2321SOL    HW2 8405   2.097   2.490   8.089 -0.4478 -0.0879  0.1929
 2322SOL     OW 8406   0.436   4.548   9.030  0.1137  0.0911 -0.2785
 2322SOL    HW1 8407   0.516   4.596   9.054 -0.6318  0.8876  0.6970
 2322SOL    HW2 8408   0.388   4.608   8.972  0.5291 -0.6669 -1.4466
 2323SOL     OW 8409   1.569   3.496   7.681  0.0358 -0.1805  0.0496
 2323SOL    HW1 8410   1.632   3.514   7.610  1.0474 -1.6804  0.5255
 2323SOL    HW2 8411   1.569   3.576   7.733 -0.3959  0.7871 -1.3749
 2324SOL     OW 8412   7.950   3.597   6.847  0.1855 -0.5649 -0.4788
 2324SOL    HW1 8413   7.936   3.670   6.908  0.5439 -0.5542 -0.4077
 2324SOL    HW2 8414   7.957   3.638   6.761 -0.2030 -0.5697 -0.5160
 2325SOL     OW 8415   7.155   2.575   9.072  0.0330 -0.0510  0.2853
 2325SOL    HW1 8416   7.195   2.556   8.987 -1.1667  0.4146 -0.4070
 2325SOL    HW2 8417   7.085   2.510   9.080 -0.6347  0.6536  0.3438
 2326SOL     OW 8418   1.429   2.814   8.631 -0.1292 -0.0703  0.0063
 2326SOL    HW1 8419   1.469   2.731   8.605  1.2535  1.0185 -1.5980
 2326SOL    HW2 8420   1.359   2.828   8.567 -0.0642  0.1959 -0.0095
 2327SOL     OW 8421   1.907   3.249   9.051 -0.1998  0.2895 -0.1220
 2327SOL    HW1 8422   1.953   3.318   9.098 -0.5562  0.3970  0.0721
 2327SOL    HW2 8423   1.821   3.286   9.031 -0.5332 -0.2249  0.3155
 2328SOL     OW 8424   3.485   3.082   8.875  0.0534 -0.4942  0.5100
 2328SOL    HW1 8425   3.556   3.141   8.899 -2.1056  2.5788  0.0347
 2328SOL    HW2 8426   3.518   3.032   8.801  1.8967  0.3947  0.6833
 2329SOL     OW 8427   0.958   2.908   7.414  0.0613  0.5060 -0.4841
 2329SOL    HW1 8428   0.893   2.838   7.404  0.5635  0.0652 -0.7858
 2329SOL    HW2 8429   0.996   2.894   7.501  1.1901 -0.5295 -1.1036
 2330SOL     OW 8430   1.079   2.556   7.357  0.2808 -0.3427 -0.5812
 2330SOL    HW1 8431   1.116   2.468   7.356 -1.3392 -1.1404  1.4076
 2330SOL    HW2 8432   1.074   2.579   7.450 -1.0334  1.0580 -0.9568
 2331SOL     OW 8433   2.216   2.256   9.348  0.5198 -0.0238  0.3066
 2331SOL    HW1 8434   2.174   2.249   9.262  0.7186 -1.8624  0.3098
 2331SOL    HW2 8435   2.224   2.165   9.378  1.0915  0.5373  1.9649
 2332SOL     OW 8436   1.766   2.355   9.220 -0.6507  0.2570 -0.0976
 2332SOL    HW1 8437   1.846   2.356   9.168 -1.5947 -0.0776 -1.6304
 2332SOL    HW2 8438   1.749   2.262   9.236 -2.1767  0.0915 -2.2204
 2333SOL     OW 8439   1.980   2.768   7.085  0.6874  0.1323  0.1503
 2333SOL    HW1 8440   2.029   2.847   7.063  0.6261  0.5929  1.6245
 2333SOL    HW2 8441   2.047   2.703   7.107  0.7285 -0.1968 -0.8651
 2334SOL     OW 8442   1.419   1.968   9.108 -0.5296 -0.6248 -0.4823
 2334SOL    HW1 8443   1.469   1.887   9.114 -1.2572 -1.0436  0.0076
 2334SOL    HW2 8444   1.330   1.944   9.134 -0.5925  0.4736  0.3876
 2335SOL     OW 8445   0.360   1.694   7.978  0.5911 -0.5145  0.2272
 2335SOL    HW1 8446   0.356   1.739   7.893  2.2560 -0.1615  0.3133
 2335SOL    HW2 8447   0.384   1.604   7.957  1.0884 -0.4063  0.3224
 2336SOL     OW 8448   2.507   3.479   9.062  0.3854 -0.6121  0.3017
 2336SOL    HW1 8449   2.480   3.570   9.073 -0.1127 -0.8426  1.0522
 2336SOL    HW2 8450   2.571   3.464   9.131  1.8416 -0.3290 -0.9241
 2337SOL     OW 8451   1.467   3.081   7.909 -0.0420  0.4520  0.0665
 2337SOL    HW1 8452   1.530   3.082   7.981  2.4250 -0.9835 -1.9064
 2337SOL    HW2 8453   1.496   3.152   7.851 -0.3102 -0.1528 -0.8230
 2338SOL     OW 8454   3.496   2.804   9.945 -0.4237 -0.6747 -0.4644
 2338SOL    HW1 8455   3.570   2.826  10.001 -1.1049 -0.6006  0.4221
 2338SOL    HW2 8456   3.446   2.886   9.937 -0.1959 -0.6113 -1.4051
 2339SOL     OW 8457   1.182   0.008   8.374 -0.3526 -0.0636 -0.3069
 2339SOL    HW1 8458   1.138  -0.077   8.362 -0.1192 -0.0267 -1.5338
 2339SOL    HW2 8459   1.118   0.072   8.343 -0.1028  0.1196 -0.4452
 2340SOL     OW 8460   0.355   2.508   8.093  0.5646 -0.3056 -0.2799
 2340SOL    HW1 8461   0.376   2.492   8.000 -0.3673 -0.1439 -0.5325
 2340SOL    HW2 8462   0.439   2.524   8.134  1.0358 -0.7616 -1.0302
 2341SOL     OW 8463   2.462   4.396   8.605 -0.1599 -0.1670  0.3741
 2341SOL    HW1 8464   2.452   4.468   8.542 -0.9189 -1.0579 -0.5530
 2341SOL    HW2 8465   2.404   4.420   8.678 -1.5793 -0.5323 -0.5913
 2342SOL     OW 8466   7.644   1.767   7.740 -0.3229 -0.4447 -0.4251
 2342SOL    HW1 8467   7.673   1.825   7.810 -1.1385  0.0145 -0.4449
 2342SOL    HW2 8468   7.717   1.765   7.678 -0.0304  0.0489 -0.1036
 2343SOL     OW 8469   0.111   0.331  10.493 -0.1739  0.3308  0.3158
 2343SOL    HW1 8470   0.045   0.308  10.427  0.7700  1.4143 -1.0364
 2343SOL    HW2 8471   0.081   0.415  10.528 -1.9965 -1.3241  3.1171
 2344SOL     OW 8472   2.354   1.446   7.046 -0.0117 -0.0958 -0.3940
 2344SOL    HW1 8473   2.378   1.523   7.098  0.9985 -0.7579  0.1599
 2344SOL    HW2 8474   2.286   1.478   6.986 -0.5811  0.9008  0.7283
 2345SOL     OW 8475   0.882   4.070   6.632  0.0629  0.2259  0.2573
 2345SOL    HW1 8476   0.894   3.996   6.573  0.3715  0.2080  0.3402
 2345SOL    HW2 8477   0.930   4.142   6.589 -0.1600  0.3534  0.2212
 2346SOL     OW 8478   0.670   1.725   9.114 -0.1950 -0.4229  0.3030
 2346SOL    HW1 8479   0.709   1.738   9.201  1.4058 -2.6934  0.0215
 2346SOL    HW2 8480   0.689   1.634   9.093  1.4380  0.5720 -3.3652
 2347SOL     OW 8481   2.670   4.299   7.062  0.6440  0.2579  0.2632
 2347SOL    HW1 8482   2.727   4.309   6.985  0.8791 -0.8544  0.2797
 2347SOL    HW2 8483   2.597   4.246   7.031  0.4550  0.2726  0.6769
 2348SOL     OW 8484   0.783   2.559   7.539 -0.0366  0.0379 -0.4972
 2348SOL    HW1 8485   0.789   2.586   7.447 -0.5530 -0.5595 -0.7114
 2348SOL    HW2 8486   0.730   2.480   7.538  0.3313 -0.2321  0.2734
 2349SOL     OW 8487   1.939   2.752   8.940 -0.7426  0.4649 -0.4755
 2349SOL    HW1 8488   1.849   2.719   8.950 -0.2275 -0.8643  0.0420
 2349SOL    HW2 8489   1.980   2.732   9.024  0.0827  0.9130 -0.7678
 2350SOL     OW 8490   1.151   3.626   9.037 -0.2330  0.2628  0.2020
 2350SOL    HW1 8491   1.219   3.691   9.056  0.2993  0.1126 -1.0299
 2350SOL    HW2 8492   1.075   3.655   9.087  0.4271  1.0324  0.7894
 2351SOL     OW 8493   0.934   2.361   6.947  0.0733 -0.0199  0.1355
 2351SOL    HW1 8494   0.912   2.282   6.996 -1.6368 -0.1711 -0.8181
 2351SOL    HW2 8495   0.962   2.329   6.861 -1.7776  0.4113 -0.6694
 2352SOL     OW 8496   2.827   3.364   9.334  0.0030  0.1295  0.0691
 2352SOL    HW1 8497   2.814   3.368   9.429 -0.7310  1.1301 -0.0585
 2352SOL    HW2 8498   2.761   3.301   9.304 -3.4277  3.5249 -0.3057
 2353SOL     OW 8499   0.555   1.305   8.219 -0.2029  0.1568 -0.2161
 2353SOL    HW1 8500   0.642   1.288   8.184 -0.6665 -0.7242 -0.9817
 2353SOL    HW2 8501   0.495   1.278   8.150 -1.1152 -0.5738  0.8136
 2354SOL     OW 8502   7.743   0.885   8.503 -0.0127  0.5559  0.2634
 2354SOL    HW1 8503   7.828   0.878   8.546  0.5812 -0.7951 -1.0348
 2354SOL    HW2 8504   7.763   0.874   8.410 -1.5979  0.2936 -0.0682
 2355SOL     OW 8505   0.592   3.295   6.476 -0.0640 -0.4534 -0.4381
 2355SOL    HW1 8506   0.673   3.346   6.471 -0.1594 -0.1355  0.9071
 2355SOL    HW2 8507   0.531   3.350   6.525 -0.7459 -1.1406 -0.4801
 2356SOL     OW 8508   2.286   4.150   9.140 -0.2916 -0.7277 -0.0679
 2356SOL    HW1 8509   2.342   4.077   9.164 -2.6924 -2.8228 -0.4617
 2356SOL    HW2 8510   2.222   4.113   9.079 -0.7499  2.0557 -1.4643
 2357SOL     OW 8511   7.054   3.123   8.496  0.1636  0.5133  0.1705
 2357SOL    HW1 8512   7.065   3.200   8.552 -2.7031  0.6844  0.6456
 2357SOL    HW2 8513   7.130   3.125   8.438  0.1300  3.8299  0.0618
 2358SOL     OW 8514   0.778   3.696   8.780 -0.5541 -0.0070  0.3099
 2358SOL    HW1 8515   0.871   3.702   8.758 -0.4989  0.8816  0.7713
 2358SOL    HW2 8516   0.733   3.724   8.700 -0.4128  0.1756  0.2925
 2359SOL     OW 8517   0.916   2.748   8.002 -0.4668  0.2675 -0.0010
 2359SOL    HW1 8518   1.010   2.763   7.992 -0.5055  1.0162  0.6347
 2359SOL    HW2 8519   0.899   2.767   8.095 -1.5384  1.8341 -0.4936
 2360SOL     OW 8520   0.536   7.790   8.011  0.1664  0.0090  0.0048
 2360SOL    HW1 8521   0.509   7.788   7.919 -1.0351  2.2308  0.2477
 2360SOL    HW2 8522   0.455   7.775   8.061  0.3785  1.1095  0.7067
 2361SOL     OW 8523   2.901   2.540   7.073 -0.2843 -0.2440 -0.1258
 2361SOL    HW1 8524   2.975   2.515   7.128 -1.3162 -2.0667  0.5261
 2361SOL    HW2 8525   2.902   2.477   7.001 -1.8459 -1.1021  0.5301
 2362SOL     OW 8526   7.772   3.767   9.539  0.2265 -0.0299  0.1772
 2362SOL    HW1 8527   7.781   3.845   9.484  0.6250  0.8251  1.4232
 2362SOL    HW2 8528   7.837   3.706   9.504  2.1357  1.3734  1.1188
 2363SOL     OW 8529   3.624   2.794   8.829 -0.3989 -0.2274 -0.3498
 2363SOL    HW1 8530   3.553   2.817   8.769 -0.8048 -0.4366  0.0547
 2363SOL    HW2 8531   3.583   2.743   8.898  0.2536 -0.9220 -0.4610
 2364SOL     OW 8532   2.894   3.508   9.911 -0.3317  0.4574 -0.1192
 2364SOL    HW1 8533   2.974   3.462   9.934 -0.8798 -0.8963 -0.8215
 2364SOL    HW2 8534   2.921   3.572   9.845  0.1698 -0.0693 -0.4338
 2365SOL     OW 8535   1.446   2.971   7.146 -0.8114 -0.3626 -0.4699
 2365SOL    HW1 8536   1.354   2.980   7.170 -0.7787 -0.6587 -0.2145
 2365SOL    HW2 8537   1.457   3.025   7.068 -0.7603  1.2397  0.6065
 2366SOL     OW 8538   1.655   1.609   8.591  0.1799 -0.0851  0.7022
 2366SOL    HW1 8539   1.574   1.654   8.567  0.1417 -1.0305 -1.1705
 2366SOL    HW2 8540   1.677   1.642   8.678 -1.4609  1.2246  0.6597
 2367SOL     OW 8541   1.658   2.328   8.946  0.2932  0.0678  0.0596
 2367SOL    HW1 8542   1.577   2.301   8.988  0.9523  0.0728  1.4008
 2367SOL    HW2 8543   1.713   2.359   9.018  1.0373  1.2361 -0.9577
 2368SOL     OW 8544   1.771   5.410   9.456  0.1846 -0.5010 -0.4545
 2368SOL    HW1 8545   1.747   5.501   9.442  1.2039 -0.4208 -1.8912
 2368SOL    HW2 8546   1.867   5.409   9.454  0.1891 -1.7844 -1.9435
 2369SOL     OW 8547   1.163   1.414   8.308  0.0995  0.0085 -0.1059
 2369SOL    HW1 8548   1.172   1.429   8.214  1.0359 -1.0994 -0.2148
 2369SOL    HW2 8549   1.079   1.369   8.317 -0.1682  0.4564 -0.3718
 2370SOL     OW 8550   0.621   3.129   7.958 -0.2622 -0.2899  0.5040
 2370SOL    HW1 8551   0.628   3.196   7.890 -1.3605 -0.8147 -0.1652
 2370SOL    HW2 8552   0.559   3.166   8.021 -1.1881 -0.8274 -0.0761
 2371SOL     OW 8553   0.483   0.382   9.838  0.2722  0.0083 -0.4868
 2371SOL    HW1 8554   0.464   0.291   9.861 -0.8796  0.2108 -0.5454
 2371SOL    HW2 8555   0.489   0.381   9.743 -0.7090  0.1440 -0.5619
 2372SOL     OW 8556   0.280   1.497  11.839  0.5774 -0.1500 -0.1388
 2372SOL    HW1 8557   0.229   1.545  11.904  1.8263  0.5633  0.3427
 2372SOL    HW2 8558   0.325   1.564  11.789  3.1038 -0.7671  1.1704
 2373SOL     OW 8559   6.134   4.092   8.568  0.0322 -0.5694  0.1050
 2373SOL    HW1 8560   6.050   4.100   8.523  0.2413  2.4431  0.0552
 2373SOL    HW2 8561   6.191   4.155   8.523  1.6642 -0.9684  1.5338
 2374SOL     OW 8562   0.270   4.441   9.242  0.1156 -0.2894 -0.4349
 2374SOL    HW1 8563   0.196   4.502   9.239 -1.2992 -1.9132 -0.6417
 2374SOL    HW2 8564   0.317   4.455   9.160 -0.0391  0.6608 -0.3725
 2375SOL     OW 8565   0.224   3.291   6.669 -0.0052 -0.1380 -0.0300
 2375SOL    HW1 8566   0.271   3.344   6.606 -0.1448 -0.3769 -0.3371
 2375SOL    HW2 8567   0.199   3.353   6.738  1.0643 -0.0775  0.3231
 2376SOL     OW 8568   1.567   3.082   8.147 -0.1517 -0.0539 -0.0582
 2376SOL    HW1 8569   1.659   3.066   8.168 -0.1228  0.5471  0.2840
 2376SOL    HW2 8570   1.546   3.164   8.192 -0.1527  1.1761 -2.1668
 2377SOL     OW 8571   0.316   1.488   9.436 -0.5387 -0.1706  0.2805
 2377SOL    HW1 8572   0.352   1.534   9.360  0.8927 -0.9983  0.4415
 2377SOL    HW2 8573   0.261   1.419   9.398  1.5073 -1.6900 -0.1232
 2378SOL     OW 8574   7.671   2.791   8.689  0.2970 -0.4724  0.1180
 2378SOL    HW1 8575   7.595   2.774   8.633 -0.5680  0.0350  1.0943
 2378SOL    HW2 8576   7.717   2.707   8.693 -0.2921 -0.8300 -0.3793
 2379SOL     OW 8577   1.737   2.195   8.633 -1.4053 -0.4394  0.0897
 2379SOL    HW1 8578   1.786   2.219   8.711  0.3016 -0.3259 -0.9595
 2379SOL    HW2 8579   1.772   2.109   8.608 -2.0334 -0.5480 -0.4667
 2380SOL     OW 8580   1.638   2.144   6.743  0.1173  0.5512  0.6945
 2380SOL    HW1 8581   1.710   2.206   6.734 -0.3337  1.1636  1.2058
 2380SOL    HW2 8582   1.559   2.196   6.730 -0.2438 -0.1130  0.1278
 2381SOL     OW 8583   1.461   2.816   8.042  0.2332 -0.0127 -0.1924
 2381SOL    HW1 8584   1.492   2.901   8.012 -0.9191  0.1731 -0.9310
 2381SOL    HW2 8585   1.418   2.834   8.126 -0.2230  0.1984 -0.4615
 2382SOL     OW 8586   1.292   3.830   9.116 -0.1979 -0.2594 -0.0431
 2382SOL    HW1 8587   1.292   3.870   9.203  1.1538  2.9280 -1.3354
 2382SOL    HW2 8588   1.382   3.841   9.085 -0.4587 -1.9820 -1.6119
 2383SOL     OW 8589   7.501   2.388   8.952 -0.6743  0.3304 -0.3008
 2383SOL    HW1 8590   7.518   2.370   9.044 -1.7843  1.0368  0.0501
 2383SOL    HW2 8591   7.491   2.301   8.912  1.5664 -0.0700 -0.1451
 2384SOL     OW 8592   1.638   3.316   9.303  0.1124 -0.0330 -0.3415
 2384SOL    HW1 8593   1.663   3.374   9.231 -0.3294  1.3175  0.5563
 2384SOL    HW2 8594   1.639   3.372   9.380  1.4846 -1.6534  0.8833
 2385SOL     OW 8595   1.026   1.994   8.825 -0.3603  0.0342  0.2644
 2385SOL    HW1 8596   1.099   2.050   8.851  0.5739  0.0656 -2.1683
 2385SOL    HW2 8597   1.066   1.908   8.807 -0.7913  0.1269 -1.3725
 2386SOL     OW 8598   0.672   2.496   8.779  0.5843 -0.1321  0.5634
 2386SOL    HW1 8599   0.676   2.576   8.832  0.6441  0.0200  0.3315
 2386SOL    HW2 8600   0.590   2.454   8.805  0.7841 -0.2331  1.0234
 2387SOL     OW 8601   3.448   2.882   9.471 -0.5422  0.2353  0.7276
 2387SOL    HW1 8602   3.395   2.947   9.515 -1.7234 -0.3638  0.2307
 2387SOL    HW2 8603   3.407   2.871   9.385 -1.2529 -2.1791  1.3076
 2388SOL     OW 8604   2.758   2.855   9.360 -0.2599 -0.0298 -0.8318
 2388SOL    HW1 8605   2.805   2.902   9.429 -1.4249 -2.1671  1.5871
 2388SOL    HW2 8606   2.671   2.896   9.357  0.1059  0.7183 -1.8113
 2389SOL     OW 8607   2.482   5.307   8.867 -0.3479 -0.0592 -0.3329
 2389SOL    HW1 8608   2.462   5.217   8.840  0.9453 -0.4309 -0.1200
 2389SOL    HW2 8609   2.528   5.297   8.950 -0.8649  0.8590  0.0744
 2390SOL     OW 8610   0.935   4.578  10.189 -0.4031 -0.3640  0.0908
 2390SOL    HW1 8611   1.008   4.534  10.232  0.5568 -0.4401 -1.5112
 2390SOL    HW2 8612   0.957   4.671  10.194  0.2127 -0.4267 -1.0110
 2391SOL     OW 8613   0.873   1.296  11.997 -0.0579  0.2000  0.2240
 2391SOL    HW1 8614   0.856   1.268  12.086 -1.3374  1.2382  0.3413
 2391SOL    HW2 8615   0.962   1.266  11.978 -0.3758 -1.4901  1.2418
 2392SOL     OW 8616   0.599   3.016   8.343 -0.0084  0.9389  0.0935
 2392SOL    HW1 8617   0.547   2.997   8.266  1.1130  0.6392 -0.6074
 2392SOL    HW2 8618   0.589   3.110   8.357  1.0569  1.2973 -1.3867
 2393SOL     OW 8619   1.775   1.863   7.897 -0.2852  0.2280 -0.3198
 2393SOL    HW1 8620   1.822   1.793   7.851 -0.2250  0.5543 -0.7605
 2393SOL    HW2 8621   1.758   1.827   7.984 -0.4625 -0.4203 -0.6180
 2394SOL     OW 8622   1.568   3.366   8.163  0.3785 -0.1102  0.2168
 2394SOL    HW1 8623   1.489   3.420   8.171 -0.5084 -1.5382  2.2484
 2394SOL    HW2 8624   1.568   3.337   8.072 -2.0754 -0.8778  0.3623
 2395SOL     OW 8625   0.852   2.965   8.743 -0.1517 -0.1941 -0.2741
 2395SOL    HW1 8626   0.878   2.892   8.799  1.2363  0.8109  0.4583
 2395SOL    HW2 8627   0.849   3.041   8.802  3.6341  1.4077 -1.7748
 2396SOL     OW 8628   2.271   2.179   9.052 -0.1336 -0.0013  0.1059
 2396SOL    HW1 8629   2.296   2.087   9.045  0.5599  0.0873  1.1685
 2396SOL    HW2 8630   2.352   2.228   9.040 -0.1212  0.3721  1.4845
 2397SOL     OW 8631   0.826   2.974   8.164  0.8199 -0.2974  0.0258
 2397SOL    HW1 8632   0.782   3.007   8.243 -0.3957  0.3540 -0.9011
 2397SOL    HW2 8633   0.853   3.052   8.117  0.8501 -0.6726 -0.5869
 2398SOL     OW 8634   7.487   3.568   8.596  0.1844  0.0978 -0.2100
 2398SOL    HW1 8635   7.447   3.625   8.530 -0.8315  2.4577  2.2234
 2398SOL    HW2 8636   7.554   3.520   8.549  0.1760  2.3360 -2.7705
 2399SOL     OW 8637   2.473   1.803   7.664  0.3091 -0.4665 -0.1187
 2399SOL    HW1 8638   2.404   1.753   7.620  0.8638 -0.8927 -0.5096
 2399SOL    HW2 8639   2.500   1.868   7.599  0.6721 -0.6712 -0.1734
 2400SOL     OW 8640   1.365   4.422   8.119 -0.5467  0.1595 -0.0585
 2400SOL    HW1 8641   1.340   4.355   8.056  0.5593 -0.0258 -0.3178
 2400SOL    HW2 8642   1.382   4.500   8.065  0.4012  0.0004 -0.0010
 2401SOL     OW 8643   7.301   3.214   8.031  0.1988  0.5282 -0.0075
 2401SOL    HW1 8644   7.291   3.177   8.119  0.2500  0.4434 -0.0378
 2401SOL    HW2 8645   7.298   3.309   8.045 -1.5838  0.5199 -0.1039
 2402SOL     OW 8646   0.042   2.945   7.868  0.5732 -0.9152 -0.5351
 2402SOL    HW1 8647   0.103   2.916   7.936  0.1049 -2.4534 -0.7475
 2402SOL    HW2 8648  -0.045   2.929   7.904  0.3128 -2.2602 -1.6545
 2403SOL     OW 8649   2.499   2.303   9.014 -0.1622  0.0257 -0.3351
 2403SOL    HW1 8650   2.540   2.353   8.944  0.9196  0.2306  0.4197
 2403SOL    HW2 8651   2.493   2.365   9.087 -1.4744 -0.1191 -0.3039
 2404SOL     OW 8652   1.472   2.797   8.903  0.1552 -0.1221  0.5530
 2404SOL    HW1 8653   1.531   2.872   8.910 -0.4381  0.3144  0.9473
 2404SOL    HW2 8654   1.451   2.792   8.810 -0.0951  0.4334  0.5749
 2405SOL     OW 8655   1.697   3.088   8.519 -0.0844  0.1056  0.1973
 2405SOL    HW1 8656   1.744   3.154   8.469 -1.1648  0.8340  0.1212
 2405SOL    HW2 8657   1.707   3.008   8.467 -0.5089  0.6694 -0.7863
 2406SOL     OW 8658   1.720   3.070   9.204  0.4780 -0.1958 -0.4852
 2406SOL    HW1 8659   1.696   3.160   9.228  1.7760  0.2330 -0.7196
 2406SOL    HW2 8660   1.803   3.079   9.158  1.6882 -1.6856  1.2512
 2407SOL     OW 8661   1.513   2.036   8.209 -0.5509  0.2951 -0.0901
 2407SOL    HW1 8662   1.461   2.067   8.284  0.0042 -1.6212  1.1683
 2407SOL    HW2 8663   1.449   1.993   8.152 -0.8148  0.8075 -0.1890
 2408SOL     OW 8664   2.341   3.436   6.770  0.1572 -0.6603 -0.5130
 2408SOL    HW1 8665   2.256   3.412   6.733 -0.2473 -1.1667  0.7161
 2408SOL    HW2 8666   2.359   3.522   6.731 -2.8345  1.4262  2.1596
 2409SOL     OW 8667   1.128   1.731   7.241  0.6440  0.2748  0.0023
 2409SOL    HW1 8668   1.070   1.660   7.214  0.4154  0.3753  0.2192
 2409SOL    HW2 8669   1.069   1.798   7.277  0.8204  0.7325 -0.5483
 2410SOL     OW 8670   0.983   1.784   8.396 -0.1526  0.0931  0.6632
 2410SOL    HW1 8671   0.935   1.754   8.319  0.6986  1.8286 -0.6167
 2410SOL    HW2 8672   1.048   1.715   8.413  0.2460  0.0893 -0.7537
 2411SOL     OW 8673   1.656   1.376   9.020  0.6537  0.0075 -1.0644
 2411SOL    HW1 8674   1.655   1.406   9.111 -1.3271  2.0907 -1.6824
 2411SOL    HW2 8675   1.739   1.411   8.985  0.4236  1.0706 -0.5953
 2412SOL     OW 8676   1.327   2.548   7.771 -0.2510 -0.8888 -0.1615
 2412SOL    HW1 8677   1.411   2.549   7.817 -0.3832  0.5778  0.1216
 2412SOL    HW2 8678   1.265   2.513   7.835 -0.2662  0.2945  0.5105
 2413SOL     OW 8679   0.909   2.550   9.148 -0.6094 -0.0485  0.1450
 2413SOL    HW1 8680   0.968   2.527   9.076 -0.0804  2.6543 -0.3860
 2413SOL    HW2 8681   0.822   2.554   9.108 -1.0626 -2.7565  0.6582
 2414SOL     OW 8682   0.871   7.758   7.766  0.6521 -0.3257 -0.4617
 2414SOL    HW1 8683   0.825   7.683   7.730  0.4151 -0.0656 -0.7008
 2414SOL    HW2 8684   0.807   7.829   7.765  1.0062 -0.0028 -0.6492
 2415SOL     OW 8685   1.316   2.342   7.588  0.5141  0.3062  0.1651
 2415SOL    HW1 8686   1.323   2.421   7.641  1.4121  0.0817  0.3911
 2415SOL    HW2 8687   1.262   2.283   7.641  0.2250  0.5902  0.1947
 2416SOL     OW 8688   0.847   3.602   8.158  0.3850  0.3429  0.2921
 2416SOL    HW1 8689   0.867   3.587   8.250  2.2776 -0.0072 -0.1420
 2416SOL    HW2 8690   0.792   3.680   8.158  0.6053  0.5206  1.6982
 2417SOL     OW 8691   1.624   4.038   7.774 -0.5421  0.3609 -0.0907
 2417SOL    HW1 8692   1.559   4.060   7.707 -2.3990  2.9395  2.2674
 2417SOL    HW2 8693   1.573   3.994   7.842  0.6647  0.3660  0.8407
 2418SOL     OW 8694   1.704   2.434   9.519  0.1090  0.2363 -0.3627
 2418SOL    HW1 8695   1.792   2.403   9.499  0.6680  1.5206 -0.0272
 2418SOL    HW2 8696   1.718   2.511   9.574 -1.2808 -0.7752  1.5209
 2419SOL     OW 8697   0.253   2.160   9.545 -0.6562 -0.1913 -0.4599
 2419SOL    HW1 8698   0.205   2.181   9.465  0.8911 -1.3261 -1.7523
 2419SOL    HW2 8699   0.234   2.067   9.561 -0.4626 -0.1335  0.1457
 2420SOL     OW 8700   1.759   4.157   8.808  0.2110  0.1105  0.1158
 2420SOL    HW1 8701   1.702   4.129   8.735  1.0070 -0.8663 -0.1595
 2420SOL    HW2 8702   1.847   4.159   8.770  0.6298 -0.3392  1.0224
 2421SOL     OW 8703   2.245   2.871   7.334  0.0258 -0.4222 -0.3427
 2421SOL    HW1 8704   2.243   2.932   7.261  0.8454 -0.2435 -0.2249
 2421SOL    HW2 8705   2.175   2.900   7.392  2.0827  2.0967  1.0512
 2422SOL     OW 8706   1.306   2.196   7.910 -0.2807  0.2439  0.0441
 2422SOL    HW1 8707   1.396   2.180   7.937 -0.3881  0.6626  0.6686
 2422SOL    HW2 8708   1.275   2.111   7.878 -0.0849 -0.2199  1.0611
 2423SOL     OW 8709   2.083   2.266   7.840  0.3604 -0.2393 -0.2097
 2423SOL    HW1 8710   2.039   2.321   7.904  0.9289  0.2827 -0.2616
 2423SOL    HW2 8711   2.166   2.242   7.881  0.2937 -0.7250 -0.3517
 2424SOL     OW 8712   1.189   0.774   7.667  0.1472  0.1263  0.1819
 2424SOL    HW1 8713   1.278   0.793   7.639  0.2129  0.0371  0.3332
 2424SOL    HW2 8714   1.139   0.852   7.642 -0.1084 -0.5628 -1.6276
 2425SOL     OW 8715   2.058   1.277   9.589 -0.6512 -0.1767  0.3604
 2425SOL    HW1 8716   2.011   1.358   9.611 -3.2588 -0.9261 -1.8641
 2425SOL    HW2 8717   2.145   1.305   9.563 -1.5900  1.9881 -0.6452
 2426SOL     OW 8718   1.010   3.620   9.665  0.2666  0.0827 -0.3881
 2426SOL    HW1 8719   1.096   3.605   9.706 -0.8157  1.0226  2.5050
 2426SOL    HW2 8720   0.963   3.537   9.678  0.2325  0.0696 -0.5961
 2427SOL     OW 8721   0.341   3.983   8.015 -0.1173  0.1556 -0.8586
 2427SOL    HW1 8722   0.281   4.055   7.998 -0.0904  0.2436 -0.5869
 2427SOL    HW2 8723   0.315   3.950   8.101  0.1666  0.1388 -0.7795
 2428SOL     OW 8724   7.926   3.245   6.782  0.3432 -0.5463 -0.1744
 2428SOL    HW1 8725   7.854   3.194   6.747  1.1585 -0.0599 -2.8212
 2428SOL    HW2 8726   8.004   3.206   6.742  1.3056  0.4223  0.7155
 2429SOL     OW 8727   2.367   2.721   8.498 -0.6032  0.1642 -0.5150
 2429SOL    HW1 8728   2.348   2.801   8.546  0.8545 -0.0582  0.5155
 2429SOL    HW2 8729   2.462   2.710   8.508 -0.7201 -1.4795 -0.9662
 2430SOL     OW 8730   2.388   1.561   7.465 -0.0221  0.1218 -0.0277
 2430SOL    HW1 8731   2.314   1.619   7.447  0.7203  0.5963 -1.7086
 2430SOL    HW2 8732   2.349   1.487   7.511 -1.6330  0.1508 -1.2708
 2431SOL     OW 8733   0.885   3.430   9.832  0.3314 -0.5914 -0.1590
 2431SOL    HW1 8734   0.849   3.373   9.900 -0.1269 -0.9790 -0.7124
 2431SOL    HW2 8735   0.912   3.509   9.878  1.7585 -1.5707  0.7608
 2432SOL     OW 8736   0.511   5.017   9.171  0.4375  0.0950 -0.3384
 2432SOL    HW1 8737   0.502   4.924   9.150 -3.4422  0.0409  0.6792
 2432SOL    HW2 8738   0.566   5.018   9.250 -2.1712 -1.8731  1.7325
 2433SOL     OW 8739   1.611   1.108   8.905 -0.1165  0.4078 -0.3474
 2433SOL    HW1 8740   1.610   1.194   8.947  2.1710  0.7992 -0.9179
 2433SOL    HW2 8741   1.527   1.069   8.927 -0.3284  1.8961  1.8079
 2434SOL     OW 8742   0.294   2.343   8.665  0.5447 -0.0743  0.0522
 2434SOL    HW1 8743   0.232   2.411   8.691 -1.3533 -0.3101 -3.3217
 2434SOL    HW2 8744   0.259   2.263   8.704 -0.6919 -0.0148 -0.8828
 2435SOL     OW 8745   1.211   0.444   8.758 -0.2743 -0.3874  0.0362
 2435SOL    HW1 8746   1.178   0.452   8.847 -2.6048 -0.5050 -0.7447
 2435SOL    HW2 8747   1.259   0.525   8.742  1.0458 -0.7984  1.6988
 2436SOL     OW 8748   1.680   3.977   8.534 -0.1748 -0.1337 -0.2329
 2436SOL    HW1 8749   1.758   3.994   8.481  0.0683  1.4298  0.5477
 2436SOL    HW2 8750   1.606   3.993   8.475  0.0912 -0.2459 -0.5964
 2437SOL     OW 8751   7.199   3.681   7.242  0.2850  0.0837  0.3787
 2437SOL    HW1 8752   7.291   3.679   7.215 -0.5837 -1.0216 -2.9721
 2437SOL    HW2 8753   7.189   3.605   7.300  1.5557  0.5661  1.2799
 2438SOL     OW 8754   7.300   2.628   9.673  0.1280  0.0418 -0.8932
 2438SOL    HW1 8755   7.325   2.564   9.606 -0.0471 -1.3478  0.3026
 2438SOL    HW2 8756   7.206   2.614   9.685 -0.0688  1.0741 -1.1510
 2439SOL     OW 8757   7.847   3.302   8.684  0.0165 -0.0233 -0.1410
 2439SOL    HW1 8758   7.834   3.268   8.772  0.6668 -1.5251 -0.5785
 2439SOL    HW2 8759   7.808   3.389   8.685  0.2971  0.1193  1.7079
 2440SOL     OW 8760   1.168   1.161   8.665  1.0524 -0.4167 -0.1056
 2440SOL    HW1 8761   1.230   1.201   8.604  0.3576 -0.0478 -0.5850
 2440SOL    HW2 8762   1.166   1.223   8.739  1.9706 -0.9153  0.3620
 2441SOL     OW 8763   0.459   3.610   8.089  0.7467 -0.1032 -0.4033
 2441SOL    HW1 8764   0.522   3.670   8.049  1.4421  0.3931  1.3673
 2441SOL    HW2 8765   0.500   3.581   8.170 -1.2091  0.1154  0.7398
 2442SOL     OW 8766   7.672   3.832   8.901  0.2448  0.1138 -0.3240
 2442SOL    HW1 8767   7.679   3.833   8.805 -0.0208  1.1654 -0.3404
 2442SOL    HW2 8768   7.657   3.923   8.925  1.5103  0.0621  0.8198
 2443SOL     OW 8769   0.610   1.987   7.392  0.4231 -0.1424 -0.1191
 2443SOL    HW1 8770   0.593   2.081   7.403 -1.4972 -0.5221  0.7033
 2443SOL    HW2 8771   0.625   1.975   7.298  1.5003  1.0805 -0.1239
 2444SOL     OW 8772   1.950   1.545   9.588 -0.2947 -0.4691 -0.3547
 2444SOL    HW1 8773   2.027   1.601   9.574 -0.1829 -0.7763 -0.9933
 2444SOL    HW2 8774   1.882   1.584   9.533 -0.2544 -0.8954 -0.7019
 2445SOL     OW 8775   3.270   2.378   8.902 -0.4755  0.3642 -0.0020
 2445SOL    HW1 8776   3.277   2.461   8.948 -0.0961  0.5650 -0.4114
 2445SOL    HW2 8777   3.360   2.357   8.877 -0.7547  0.6970 -1.3828
 2446SOL     OW 8778   0.261   3.914   6.112  0.0168 -0.1062  0.1035
 2446SOL    HW1 8779   0.278   4.006   6.092 -0.2741 -0.2133 -0.6476
 2446SOL    HW2 8780   0.256   3.871   6.027 -0.7555 -0.6518  0.4181
 2447SOL     OW 8781   7.743   4.410   8.741  0.2879  0.2129 -0.1603
 2447SOL    HW1 8782   7.816   4.355   8.771  0.6313  0.5179 -0.4191
 2447SOL    HW2 8783   7.773   4.446   8.657 -1.8973 -3.1461 -2.6282
 2448SOL     OW 8784   0.284   1.666  10.631  0.3647  0.2499  0.0690
 2448SOL    HW1 8785   0.230   1.588  10.620 -1.2755  1.2457  0.6734
 2448SOL    HW2 8786   0.365   1.633  10.671  0.4721 -1.3503 -1.3354
 2449SOL     OW 8787   1.376   4.234  10.693  0.4562  0.4876 -0.3616
 2449SOL    HW1 8788   1.392   4.141  10.709  0.3865  1.0056  3.7137
 2449SOL    HW2 8789   1.460   4.268  10.664 -0.0540 -1.0576 -4.3819
 2450SOL     OW 8790   0.915   0.206  10.479 -0.0981 -0.5040 -0.3469
 2450SOL    HW1 8791   0.869   0.173  10.402 -2.6819  0.5475  0.6314
 2450SOL    HW2 8792   0.940   0.127  10.528 -1.1821 -1.1371 -0.7807
 2451SOL     OW 8793   1.594   4.214   9.333 -0.6747 -0.2330  0.4726
 2451SOL    HW1 8794   1.573   4.147   9.397  1.0565  0.0531  1.4179
 2451SOL    HW2 8795   1.569   4.296   9.375 -0.2248 -0.0959  0.4752
 2452SOL     OW 8796   7.452   4.086   9.582 -0.1069 -0.3995 -0.2394
 2452SOL    HW1 8797   7.438   4.101   9.488  0.2004  0.7403 -0.1145
 2452SOL    HW2 8798   7.455   3.991   9.590 -0.5397 -0.5244 -1.3282
 2453SOL     OW 8799   1.183   1.098   9.528 -0.3077  0.1264 -0.5812
 2453SOL    HW1 8800   1.158   1.126   9.616 -1.4570 -1.7966 -0.2277
 2453SOL    HW2 8801   1.177   1.177   9.474 -1.9372  0.8478  0.5880
 2454SOL     OW 8802   1.928   1.529   8.808  0.3988 -0.6037  0.4169
 2454SOL    HW1 8803   1.906   1.453   8.754  0.3234  0.5359 -1.2176
 2454SOL    HW2 8804   1.861   1.594   8.787  0.2827 -0.1648  2.0145
 2455SOL     OW 8805   1.897   2.193  10.395  0.3077  0.5434  0.1206
 2455SOL    HW1 8806   1.908   2.219  10.303 -0.2279 -1.2199 -0.5016
 2455SOL    HW2 8807   1.803   2.186  10.406  0.3736  0.7388  0.8131
 2456SOL     OW 8808   1.060   3.939  11.210  0.1212 -0.0640 -0.2153
 2456SOL    HW1 8809   1.088   4.029  11.220  2.4155 -0.7469  0.1614
 2456SOL    HW2 8810   1.012   3.918  11.290  0.0801  0.6396 -0.0573
 2457SOL     OW 8811   0.503   0.916   9.270  0.6470  0.1182  0.3883
 2457SOL    HW1 8812   0.417   0.898   9.308  1.3106  0.0969  1.9712
 2457SOL    HW2 8813   0.510   0.855   9.197 -0.7997  0.3530  0.0172
 2458SOL     OW 8814   7.503   2.284  12.294  0.8253  0.0067  0.0998
 2458SOL    HW1 8815   7.508   2.262  12.201  1.3907 -0.1214  0.1538
 2458SOL    HW2 8816   7.472   2.204  12.337 -2.1540  0.8765 -0.2699
 2459SOL     OW 8817   0.489   4.695   8.573 -0.1654  0.0965 -0.2976
 2459SOL    HW1 8818   0.579   4.685   8.604  0.3294  0.7901 -1.4365
 2459SOL    HW2 8819   0.472   4.617   8.521 -0.8292 -0.8351  1.2424
 2460SOL     OW 8820   0.352   4.095  10.513  0.2072 -0.0442  0.2870
 2460SOL    HW1 8821   0.309   4.177  10.540 -0.9103 -0.5822  0.2279
 2460SOL    HW2 8822   0.315   4.077  10.427 -0.3996 -1.1781  0.7674
 2461SOL     OW 8823   0.859   2.361   9.350  0.5657  0.3898 -0.2959
 2461SOL    HW1 8824   0.889   2.448   9.326 -0.7476  1.0990  0.5358
 2461SOL    HW2 8825   0.928   2.302   9.318  1.2445  1.6759 -1.2840
 2462SOL     OW 8826   1.986   1.441  10.177  0.2188  0.5883  0.1291
 2462SOL    HW1 8827   2.070   1.403  10.204 -0.3748  0.0016  1.1838
 2462SOL    HW2 8828   1.988   1.530  10.212  0.6365  0.7788 -0.3588
 2463SOL     OW 8829   0.333   3.281   9.995  0.1018  0.2916  0.7034
 2463SOL    HW1 8830   0.346   3.273  10.089  0.4589 -1.7985  0.5316
 2463SOL    HW2 8831   0.313   3.192   9.966 -1.7650  1.1623 -0.9640
 2464SOL     OW 8832   0.844   2.798  10.604  0.4337 -0.0071 -0.3259
 2464SOL    HW1 8833   0.832   2.795  10.699  0.8706  1.2484 -0.2200
 2464SOL    HW2 8834   0.767   2.754  10.569 -0.9004  1.5084  0.5562
 2465SOL     OW 8835   2.403   2.352  10.875 -0.2409  0.1244 -0.5221
 2465SOL    HW1 8836   2.463   2.419  10.907 -1.3225  1.1388 -0.5352
 2465SOL    HW2 8837   2.402   2.364  10.780  0.7885 -0.9949 -0.6892
 2466SOL     OW 8838   1.095   2.941   7.666 -0.5191 -0.2740  0.6071
 2466SOL    HW1 8839   1.119   2.879   7.734  0.0906  0.0120  0.6596
 2466SOL    HW2 8840   1.167   3.004   7.664 -1.6413  1.1141  1.3466
 2467SOL     OW 8841   7.454   2.959  10.924 -0.3568  0.0085 -0.1364
 2467SOL    HW1 8842   7.434   2.933  11.014  1.1387 -1.9607 -0.3156
 2467SOL    HW2 8843   7.519   3.028  10.933 -1.0400  0.6234  0.2748
 2468SOL     OW 8844   0.658   3.191   9.309 -0.1837  0.0411  0.0445
 2468SOL    HW1 8845   0.679   3.128   9.240  0.1332  0.3611 -0.1572
 2468SOL    HW2 8846   0.626   3.138   9.382 -0.9678 -0.2631 -0.5166
 2469SOL     OW 8847   1.477   3.504  11.784 -0.1738  0.1815 -0.1377
 2469SOL    HW1 8848   1.431   3.565  11.727 -0.3176  0.3526  0.1599
 2469SOL    HW2 8849   1.412   3.438  11.807 -0.2913  0.4484  0.3191
 2470SOL     OW 8850   7.933   7.755  10.872  0.1935  0.8177  0.6031
 2470SOL    HW1 8851   7.872   7.735  10.943 -0.2188 -0.9945 -0.1945
 2470SOL    HW2 8852   8.006   7.694  10.886  0.3882  0.8728 -0.1571
 2471SOL     OW 8853   0.060   4.056  10.161  0.1917  0.2098 -0.3072
 2471SOL    HW1 8854   0.005   4.045  10.083  1.5139 -1.3858 -1.0798
 2471SOL    HW2 8855   0.132   4.112  10.131  0.8165 -0.5832 -0.3184
 2472SOL     OW 8856   1.983   0.969   8.385 -0.3711 -0.5777 -0.1859
 2472SOL    HW1 8857   1.923   0.895   8.393 -0.9845  0.0438  1.1691
 2472SOL    HW2 8858   1.930   1.040   8.351  0.1691 -0.6787 -1.2767
 2473SOL     OW 8859   3.081   2.751  10.647  0.1732 -0.5377 -0.2936
 2473SOL    HW1 8860   3.123   2.687  10.705  0.1441  2.3151  3.2837
 2473SOL    HW2 8861   3.102   2.835  10.687 -1.1463  1.6343 -3.7760
 2474SOL     OW 8862   0.434   2.867   8.944  0.1850  0.2947 -0.4399
 2474SOL    HW1 8863   0.473   2.840   9.027  1.5144  0.8874 -0.8434
 2474SOL    HW2 8864   0.341   2.875   8.963  0.6125  1.7554  1.3780
 2475SOL     OW 8865   2.084   1.563  10.594  0.2141 -0.5590  0.0307
 2475SOL    HW1 8866   2.124   1.530  10.513  1.9841 -0.7028  0.8980
 2475SOL    HW2 8867   1.995   1.529  10.593  0.3830 -1.0439 -1.5684
 2476SOL     OW 8868   1.241   0.374   8.494  0.2556  0.1565 -0.0487
 2476SOL    HW1 8869   1.335   0.381   8.478  0.6776 -2.3902  0.8219
 2476SOL    HW2 8870   1.234   0.359   8.589 -1.0747  0.7639 -0.0212
 2477SOL     OW 8871   1.615   3.106  11.813  0.6388 -0.3852 -0.4453
 2477SOL    HW1 8872   1.710   3.104  11.796  0.7936 -0.8308  0.4300
 2477SOL    HW2 8873   1.607   3.155  11.895  0.2859 -2.1034  0.5761
 2478SOL     OW 8874   2.274   3.649   7.480 -0.0226 -0.4591 -0.2621
 2478SOL    HW1 8875   2.331   3.714   7.439  1.9086 -1.2302  1.0697
 2478SOL    HW2 8876   2.333   3.596   7.533 -1.7331 -2.4795 -0.2607
 2479SOL     OW 8877   2.535   5.005  11.313 -0.3132 -0.4694  0.5726
 2479SOL    HW1 8878   2.499   4.949  11.245  2.0571 -2.4680  0.7976
 2479SOL    HW2 8879   2.537   4.950  11.392  0.4731  0.5140  1.2715
 2480SOL     OW 8880   0.604   2.539  11.561 -0.2539 -0.2879  0.5309
 2480SOL    HW1 8881   0.685   2.506  11.599  0.3555 -0.0800 -0.5584
 2480SOL    HW2 8882   0.632   2.596  11.489 -1.3443  0.5254  0.7239
 2481SOL     OW 8883   0.743   3.232   9.683 -0.1149  0.5632 -0.7230
 2481SOL    HW1 8884   0.741   3.328   9.693  0.1438  0.6658 -1.5458
 2481SOL    HW2 8885   0.660   3.211   9.641  0.1956  0.5333 -1.3334
 2482SOL     OW 8886   1.041   4.140  11.864 -0.0407  0.0827 -0.0107
 2482SOL    HW1 8887   1.040   4.093  11.948  1.0446  1.1003  0.5896
 2482SOL    HW2 8888   1.123   4.190  11.865 -0.7002  1.2327 -1.0532
 2483SOL     OW 8889   1.226   1.185   8.945  0.3329  0.5793 -0.4886
 2483SOL    HW1 8890   1.274   1.102   8.942 -0.5175  0.0967 -2.5844
 2483SOL    HW2 8891   1.293   1.252   8.933  0.7979  0.0720 -0.7889
 2484SOL     OW 8892   1.558   1.126  11.485  0.0162 -0.1545  0.5302
 2484SOL    HW1 8893   1.484   1.113  11.427  0.9372 -0.5560 -0.5889
 2484SOL    HW2 8894   1.519   1.150  11.569 -1.3851 -0.8857  0.1135
 2485SOL     OW 8895   1.343   3.493   8.930  0.2689 -0.1658 -0.6707
 2485SOL    HW1 8896   1.321   3.401   8.944 -1.9077  0.6762  2.4819
 2485SOL    HW2 8897   1.266   3.541   8.960  1.4650  2.7341 -1.8740
 2486SOL     OW 8898   2.152   2.901  11.651 -0.6401 -0.5707 -0.5711
 2486SOL    HW1 8899   2.208   2.936  11.720 -2.0071  1.1397 -0.2403
 2486SOL    HW2 8900   2.122   2.816  11.685  0.7839 -0.9789 -0.2668
 2487SOL     OW 8901   1.690   3.109   9.536  0.1700  0.1988  0.3166
 2487SOL    HW1 8902   1.724   3.190   9.574  1.8090 -0.2026 -0.2018
 2487SOL    HW2 8903   1.600   3.130   9.510  0.1262  1.4408  1.3865
 2488SOL     OW 8904   1.260   4.826  11.940 -0.2200  0.1306 -0.2452
 2488SOL    HW1 8905   1.321   4.812  12.012 -0.5333  0.3613  0.0635
 2488SOL    HW2 8906   1.266   4.920  11.921 -1.1387  0.3199  0.3747
 2489SOL     OW 8907   2.009   0.920   9.265  0.1002 -0.0997  0.5286
 2489SOL    HW1 8908   1.938   0.981   9.248 -1.1593 -1.7251 -0.2912
 2489SOL    HW2 8909   2.073   0.938   9.196  0.1966  0.8982  0.8603
 2490SOL     OW 8910   2.165   1.169   8.243 -0.4553  0.1665  0.6107
 2490SOL    HW1 8911   2.219   1.215   8.307  0.1150  0.6884 -0.2320
 2490SOL    HW2 8912   2.076   1.174   8.279 -0.1634  0.5586  1.2960
 2491SOL     OW 8913   7.482   2.959   9.940 -0.2890  0.8883 -0.7019
 2491SOL    HW1 8914   7.488   2.912   9.857  0.3556 -1.1049  0.4072
 2491SOL    HW2 8915   7.566   3.005   9.948 -0.2306  0.8320 -0.9850
 2492SOL     OW 8916   1.473   1.075   9.616  0.1824 -0.0192 -0.0940
 2492SOL    HW1 8917   1.526   1.123   9.552 -0.2869 -1.1924 -1.4047
 2492SOL    HW2 8918   1.386   1.113   9.608  0.2358  0.1895  0.2560
 2493SOL     OW 8919   1.972   3.980  10.570  0.4285 -0.4251  0.4981
 2493SOL    HW1 8920   1.994   4.022  10.653  0.9569  1.6731 -0.6128
 2493SOL    HW2 8921   2.057   3.968  10.526  0.0939 -0.5828 -0.1223
 2494SOL     OW 8922   0.594   3.691   9.187  0.1058 -0.5596 -0.0230
 2494SOL    HW1 8923   0.634   3.604   9.186  0.1175 -0.5703  0.8507
 2494SOL    HW2 8924   0.501   3.674   9.170  0.0525 -0.7753  0.4773
 2495SOL     OW 8925   0.392   0.670  10.934 -0.6421  0.4018  0.4590
 2495SOL    HW1 8926   0.321   0.641  10.876  0.0963  0.0323 -0.2846
 2495SOL    HW2 8927   0.419   0.755  10.898 -0.2446  0.2129  0.2974
 2496SOL     OW 8928   0.535   3.281   8.184  0.2030  0.1877 -0.1651
 2496SOL    HW1 8929   0.561   3.360   8.231  0.8502 -1.2006  1.9363
 2496SOL    HW2 8930   0.456   3.250   8.228  1.5489 -1.8529  0.9882
 2497SOL     OW 8931   7.595   5.389   9.441  0.3073  0.3018  0.6440
 2497SOL    HW1 8932   7.629   5.353   9.523  0.2388 -1.7489 -0.1604
 2497SOL    HW2 8933   7.665   5.374   9.378 -0.2485  0.3888 -0.0014
 2498SOL     OW 8934   1.004   3.382   9.115  0.4555  0.2894 -0.5763
 2498SOL    HW1 8935   0.954   3.435   9.052 -1.2577 -1.7638 -1.0827
 2498SOL    HW2 8936   1.092   3.418   9.113 -0.4343  2.5959 -1.4387
 2499SOL     OW 8937   1.565   3.560  11.454  0.7018  0.5477 -0.7303
 2499SOL    HW1 8938   1.615   3.498  11.507 -3.4702 -1.2888  1.5785
 2499SOL    HW2 8939   1.534   3.509  11.380 -0.9475  0.3887  0.0197
 2500SOL     OW 8940   2.186   1.013   8.975 -0.5463 -0.5076  0.0513
 2500SOL    HW1 8941   2.122   1.078   8.946 -1.0065 -0.6888  0.6421
 2500SOL    HW2 8942   2.220   1.048   9.057  0.1820 -0.3740 -0.2984
 2501SOL     OW 8943   1.277   3.577   9.817  0.4241 -0.4248 -0.0406
 2501SOL    HW1 8944   1.363   3.584   9.777  1.2838 -1.7478  1.4751
 2501SOL    HW2 8945   1.283   3.628   9.898 -0.0763 -0.8704  0.2899
 2502SOL     OW 8946   2.846   3.435  10.872  0.0277  0.1068  0.1833
 2502SOL    HW1 8947   2.782   3.380  10.826  0.6227 -1.1343  0.8037
 2502SOL    HW2 8948   2.906   3.464  10.803  0.4179 -1.0416  0.0237
 2503SOL     OW 8949   0.159   2.660   7.591  0.0210  0.8236 -0.0652
 2503SOL    HW1 8950   0.152   2.606   7.670 -1.7912  1.4054  0.2133
 2503SOL    HW2 8951   0.231   2.621   7.542 -0.1107 -0.7807  0.9359
 2504SOL     OW 8952   1.101   2.245  10.557 -0.1092 -0.1736  0.2089
 2504SOL    HW1 8953   1.119   2.155  10.530 -2.3845 -0.6025 -0.0738
 2504SOL    HW2 8954   1.025   2.238  10.614 -1.2367  1.6803 -0.9754
 2505SOL     OW 8955   1.040   2.807   8.258 -0.2562 -0.1642 -0.1921
 2505SOL    HW1 8956   0.998   2.893   8.255  1.9816  1.1322  1.8527
 2505SOL    HW2 8957   1.042   2.785   8.351  0.3591 -1.8196 -0.5660
 2506SOL     OW 8958   1.375   5.601  11.543  0.4373  0.7239  0.2679
 2506SOL    HW1 8959   1.430   5.679  11.554  1.5505  0.1010 -0.6076
 2506SOL    HW2 8960   1.327   5.617  11.462 -0.7572  1.2920  1.0635
 2507SOL     OW 8961   2.030   0.588   9.656  0.2575 -0.1748 -0.0761
 2507SOL    HW1 8962   2.085   0.547   9.723 -1.1604  0.6267  1.6490
 2507SOL    HW2 8963   2.053   0.680   9.658 -0.5101  0.0241  0.0462
 2508SOL     OW 8964   2.937   2.950  10.059  0.3785 -0.2523  0.1362
 2508SOL    HW1 8965   3.011   2.909  10.015 -1.1794 -0.4730 -2.5219
 2508SOL    HW2 8966   2.946   3.043  10.040  0.8540 -0.0532  1.2738
 2509SOL     OW 8967   0.632   4.932  12.325  0.4406  0.0740 -0.1178
 2509SOL    HW1 8968   0.541   4.934  12.354  0.4791  0.0058  0.0071
 2509SOL    HW2 8969   0.680   4.898  12.400  0.3393 -1.5779 -0.7444
 2510SOL     OW 8970   0.923   2.720   9.441  0.0167  0.0301 -0.4348
 2510SOL    HW1 8971   0.853   2.672   9.397 -0.4050  0.0601  0.1887
 2510SOL    HW2 8972   0.956   2.660   9.508  0.5287  0.0470 -0.6700
 2511SOL     OW 8973   0.832   2.929   9.582 -0.4031  0.2010 -0.6823
 2511SOL    HW1 8974   0.835   2.847   9.532 -1.3928 -0.2056 -0.0990
 2511SOL    HW2 8975   0.741   2.958   9.576 -0.7597 -0.2814  1.5229
 2512SOL     OW 8976   1.115   1.614  10.468 -0.2850 -0.0719 -0.0095
 2512SOL    HW1 8977   1.101   1.521  10.452 -2.5052  0.0969  0.6318
 2512SOL    HW2 8978   1.127   1.652  10.381 -0.9191 -0.7527 -0.3997
 2513SOL     OW 8979   1.637   2.357  11.066 -0.3271  0.4544  0.0888
 2513SOL    HW1 8980   1.653   2.421  11.135  0.5613 -0.9024  1.1943
 2513SOL    HW2 8981   1.717   2.358  11.013  0.2743 -0.6844  0.9296
 2514SOL     OW 8982   1.909   3.509   9.845 -0.3763  0.1617  0.3966
 2514SOL    HW1 8983   1.950   3.571   9.904  1.0063 -1.4799  1.2425
 2514SOL    HW2 8984   1.815   3.526   9.853 -0.1263  0.9474  1.9433
 2515SOL     OW 8985   1.867   3.638  11.576 -0.7191  0.8912  0.0003
 2515SOL    HW1 8986   1.807   3.711  11.560 -0.5806  0.9804 -0.1061
 2515SOL    HW2 8987   1.832   3.597  11.655 -1.8320 -0.0059 -0.9285
 2516SOL     OW 8988   7.928   3.735  10.154  0.3662 -0.4209 -0.0644
 2516SOL    HW1 8989   7.924   3.774  10.066 -0.6627  0.9859  0.5486
 2516SOL    HW2 8990   8.006   3.773  10.194  0.9004 -1.1520 -0.3885
 2517SOL     OW 8991   0.891   2.219  10.740 -0.6445  0.1726  0.1736
 2517SOL    HW1 8992   0.948   2.173  10.802  0.2268  0.2299 -0.5607
 2517SOL    HW2 8993   0.830   2.268  10.795 -1.2786 -1.4411  0.9714
 2518SOL     OW 8994   1.364   2.069   8.417  0.5267 -0.0191  0.4327
 2518SOL    HW1 8995   1.371   2.069   8.512  0.5211  0.3645  0.4380
 2518SOL    HW2 8996   1.270   2.081   8.401  0.7449  2.1168  0.3973
 2519SOL     OW 8997   0.415   3.632   9.438  0.1564  0.1138  0.8335
 2519SOL    HW1 8998   0.395   3.667   9.525 -0.9494  0.3107  0.5231
 2519SOL    HW2 8999   0.330   3.605   9.403  0.1970  2.1707 -1.1080
 2520SOL     OW 9000   0.022   0.579   8.760  0.2388  0.3291 -0.0766
 2520SOL    HW1 9001   0.070   0.551   8.838  1.9709  0.6967 -0.9635
 2520SOL    HW2 9002  -0.042   0.509   8.745  2.2930 -1.5664 -0.3870
 2521SOL     OW 9003   0.890   3.045  10.092  0.0780  0.2783  0.8635
 2521SOL    HW1 9004   0.871   3.003  10.176 -0.4164 -1.2234  0.0407
 2521SOL    HW2 9005   0.886   3.139  10.110 -2.1687  0.0167  2.0698
 2522SOL     OW 9006   7.660   4.398   9.775  0.0787  0.5126 -0.8338
 2522SOL    HW1 9007   7.609   4.475   9.800  0.5432  0.6402 -0.2548
 2522SOL    HW2 9008   7.748   4.433   9.761  1.5901 -0.5049  4.1157
 2523SOL     OW 9009   1.862   2.130  10.769 -0.3446 -0.1774 -0.3880
 2523SOL    HW1 9010   1.945   2.120  10.721 -0.3507 -0.9128 -0.2639
 2523SOL    HW2 9011   1.876   2.081  10.850 -0.9087 -0.3188 -0.3731
 2524SOL     OW 9012   1.153   4.271  10.862 -0.5709  0.7295  0.4317
 2524SOL    HW1 9013   1.097   4.320  10.801 -0.7883 -0.4739 -0.3724
 2524SOL    HW2 9014   1.208   4.217  10.805 -1.5302 -1.2518  1.3166
 2525SOL     OW 9015   2.087   2.391  10.156  0.5945 -0.1529  0.3740
 2525SOL    HW1 9016   2.001   2.354  10.137  1.2853 -0.2479 -3.3117
 2525SOL    HW2 9017   2.126   2.329  10.218 -0.8732 -1.7834 -0.2388
 2526SOL     OW 9018   1.063   3.132   9.869  0.2124  0.3773 -0.1079
 2526SOL    HW1 9019   1.021   3.084   9.940  1.4919 -0.7159 -0.0583
 2526SOL    HW2 9020   1.120   3.195   9.913  2.5539 -1.6498 -0.0642
 2527SOL     OW 9021   1.110   2.387  10.268 -0.4814  0.0360  0.1035
 2527SOL    HW1 9022   1.131   2.331  10.342  1.6152  0.0347 -0.4243
 2527SOL    HW2 9023   1.047   2.337  10.217 -1.2247 -0.3609  1.3667
 2528SOL     OW 9024   7.976   0.829   9.020  0.1979 -0.4501  0.2243
 2528SOL    HW1 9025   7.915   0.901   9.004 -0.6593 -0.9781  1.0255
 2528SOL    HW2 9026   7.935   0.777   9.089  2.1470 -0.1295  1.7196
 2529SOL     OW 9027   1.566   2.800  10.555 -0.4265 -0.3387  0.4827
 2529SOL    HW1 9028   1.576   2.889  10.520 -1.5427  0.1822  1.4103
 2529SOL    HW2 9029   1.546   2.813  10.648  0.6070 -1.6122  0.9094
 2530SOL     OW 9030   1.516   0.951   9.246  0.2219  0.3845  0.4983
 2530SOL    HW1 9031   1.579   0.994   9.303  0.5661 -0.2941  0.6458
 2530SOL    HW2 9032   1.516   0.859   9.275 -1.2071  0.4661  0.8252
 2531SOL     OW 9033   2.149   2.687   8.345 -0.1575 -0.1314  0.3018
 2531SOL    HW1 9034   2.227   2.696   8.399 -0.4742  0.1597  0.7142
 2531SOL    HW2 9035   2.174   2.623   8.277  0.7871  0.7858 -0.2361
 2532SOL     OW 9036   7.645   5.795   8.713  0.0599 -0.2760 -0.7571
 2532SOL    HW1 9037   7.635   5.879   8.668  1.1486 -0.1008 -0.6784
 2532SOL    HW2 9038   7.728   5.801   8.759 -2.4460  1.0514  4.4140
 2533SOL     OW 9039   1.245   3.524  10.715 -0.1108 -0.3562  0.1401
 2533SOL    HW1 9040   1.281   3.596  10.663 -0.7986  0.0105  0.1590
 2533SOL    HW2 9041   1.195   3.567  10.784 -0.9514 -0.8432 -0.1502
 2534SOL     OW 9042   0.702   1.126   9.115 -0.4016  0.0493 -0.0412
 2534SOL    HW1 9043   0.702   1.125   9.210 -0.8275 -1.5408 -0.0372
 2534SOL    HW2 9044   0.671   1.214   9.092 -3.3969 -0.5298  1.3154
 2535SOL     OW 9045   7.760   1.869  10.253  0.0690 -0.5049  0.2766
 2535SOL    HW1 9046   7.748   1.775  10.236 -1.4943 -0.8411  2.7416
 2535SOL    HW2 9047   7.813   1.872  10.332 -1.2739  0.6153  1.1700
 2536SOL     OW 9048   1.704   3.828  10.705  0.5482  0.2996 -0.6356
 2536SOL    HW1 9049   1.689   3.915  10.668  0.8253  0.5329 -0.2150
 2536SOL    HW2 9050   1.784   3.798  10.663  0.4457  0.2465 -0.7905
 2537SOL     OW 9051   2.077   2.655  10.153  0.5185 -0.2093  0.6358
 2537SOL    HW1 9052   2.106   2.683  10.239  0.1529 -0.9893  1.0201
 2537SOL    HW2 9053   2.091   2.561  10.151  2.8466  0.0801 -1.0758
 2538SOL     OW 9054   1.183   2.602   9.375  0.2858  0.2385  0.4132
 2538SOL    HW1 9055   1.243   2.528   9.368  1.5270  1.2682 -0.2747
 2538SOL    HW2 9056   1.209   2.647   9.455 -0.1865  0.1698  0.6086
 2539SOL     OW 9057   1.482   4.631  10.501  0.6402 -0.2088 -0.1316
 2539SOL    HW1 9058   1.388   4.646  10.505  0.7558  0.3404  0.8380
 2539SOL    HW2 9059   1.493   4.565  10.433 -0.3854  0.1894 -0.7013
 2540SOL     OW 9060   0.703   2.497   9.877  0.0602  0.0063  0.0179
 2540SOL    HW1 9061   0.635   2.529   9.817  0.0305  0.5740  0.3421
 2540SOL    HW2 9062   0.735   2.576   9.921  1.5452 -0.1387 -0.7434
 2541SOL     OW 9063   3.156   3.463  10.261 -0.2286  0.2651  0.0536
 2541SOL    HW1 9064   3.183   3.432  10.174 -0.7236  2.1096 -0.8090
 2541SOL    HW2 9065   3.061   3.473  10.254 -0.5594 -1.3214  1.4445
 2542SOL     OW 9066   0.359   2.801   8.444 -0.2058  0.2692 -0.2329
 2542SOL    HW1 9067   0.352   2.870   8.378 -0.1752 -0.2707 -0.8170
 2542SOL    HW2 9068   0.270   2.766   8.451  0.0286 -0.4906 -0.9016
 2543SOL     OW 9069   1.829   3.035  10.847  0.3223  0.5554 -0.4268
 2543SOL    HW1 9070   1.837   2.999  10.935 -0.5149  2.3576  0.4515
 2543SOL    HW2 9071   1.772   3.112  10.858  0.8064  1.2594 -2.4101
 2544SOL     OW 9072   1.346   2.885   8.266  0.7150  0.0794  0.3235
 2544SOL    HW1 9073   1.263   2.877   8.313 -0.9208  1.3511 -2.1150
 2544SOL    HW2 9074   1.375   2.975   8.284  0.6942  0.1763 -0.1100
 2545SOL     OW 9075   0.151   3.255  11.376  0.0737  0.2160 -0.1256
 2545SOL    HW1 9076   0.173   3.219  11.290  0.9916  0.2256  0.0922
 2545SOL    HW2 9077   0.085   3.195  11.411 -1.8793  1.3356 -1.6632
 2546SOL     OW 9078   0.703   2.305  10.350 -0.0899 -0.1978 -0.4659
 2546SOL    HW1 9079   0.618   2.332  10.385 -0.3510 -2.5985  1.0123
 2546SOL    HW2 9080   0.712   2.214  10.378  2.0904 -0.6326 -2.3314
 2547SOL     OW 9081   0.494   1.982  10.530  0.4705  0.0176 -0.4018
 2547SOL    HW1 9082   0.575   2.033  10.527  0.7955 -0.3467  1.1820
 2547SOL    HW2 9083   0.517   1.897  10.494  0.6990  0.0272 -0.2793
 2548SOL     OW 9084   7.824   4.026   9.659  0.4980 -0.2716 -0.2763
 2548SOL    HW1 9085   7.850   3.934   9.660  2.5082  0.2354 -0.5614
 2548SOL    HW2 9086   7.787   4.039   9.572 -0.3420 -0.9349 -0.0279
 2549SOL     OW 9087   7.941   5.372   9.662 -0.7383 -0.8464  0.3477
 2549SOL    HW1 9088   7.960   5.310   9.592 -0.0116  0.2537 -0.4739
 2549SOL    HW2 9089   7.910   5.318   9.735  0.2608 -2.2009 -0.1916
 2550SOL     OW 9090   1.001   2.104  10.959 -0.5496 -0.0030 -0.1003
 2550SOL    HW1 9091   0.949   2.092  11.038  0.5883 -0.3390  0.6313
 2550SOL    HW2 9092   1.078   2.049  10.973 -0.5620 -0.4504 -1.6713
 2551SOL     OW 9093   1.536   2.656   9.382  0.2694  0.0647  0.0986
 2551SOL    HW1 9094   1.467   2.680   9.443 -1.0601 -1.1611 -0.8517
 2551SOL    HW2 9095   1.565   2.739   9.344  1.2326  0.8596  2.4200
 2552SOL     OW 9096   7.615   2.654  10.988 -0.8948  0.0687 -0.6109
 2552SOL    HW1 9097   7.698   2.619  10.955 -0.8269 -1.1123  0.7389
 2552SOL    HW2 9098   7.628   2.749  10.990 -0.0848  0.0055 -1.7166
 2553SOL     OW 9099   1.317   4.979   9.868 -0.1269 -0.1342 -0.2601
 2553SOL    HW1 9100   1.396   4.927   9.887 -0.9973 -1.2133  0.5467
 2553SOL    HW2 9101   1.345   5.042   9.802  1.8050  0.5171  1.0869
 2554SOL     OW 9102   0.926   3.251   9.325  0.0802  0.1742  0.2321
 2554SOL    HW1 9103   0.836   3.280   9.340 -0.3568 -0.2823 -1.3701
 2554SOL    HW2 9104   0.955   3.299   9.248  1.1956  0.2392  0.6700
 2555SOL     OW 9105   7.422   2.752  10.740 -0.5088  0.1303  0.1217
 2555SOL    HW1 9106   7.411   2.817  10.809  2.4153 -0.2089  1.0522
 2555SOL    HW2 9107   7.419   2.668  10.785 -0.6360 -0.2017 -0.4923
 2556SOL     OW 9108   1.494   2.853  10.797  0.6509  0.2035  0.0526
 2556SOL    HW1 9109   1.512   2.934  10.845 -1.4548  0.4373  0.5195
 2556SOL    HW2 9110   1.439   2.802  10.856  1.2643 -1.2327 -0.5710
 2557SOL     OW 9111   0.970   2.994   9.220  0.2461  0.2063 -0.3285
 2557SOL    HW1 9112   0.878   2.982   9.197 -0.3044 -0.2650  1.8195
 2557SOL    HW2 9113   0.976   3.083   9.253  0.5143  0.1764 -0.2906
 2558SOL     OW 9114   7.802   2.257  11.808 -0.5583 -0.3100  0.0920
 2558SOL    HW1 9115   7.849   2.215  11.880 -0.4393 -0.4240 -0.0506
 2558SOL    HW2 9116   7.848   2.339  11.793 -1.6166  0.5410  1.2839
 2559SOL     OW 9117   6.254   3.407  10.964 -0.7463  0.2055 -0.1452
 2559SOL    HW1 9118   6.289   3.325  10.999 -0.3100  1.0911  1.6343
 2559SOL    HW2 9119   6.161   3.406  10.989 -1.3319 -0.7612 -2.1822
 2560SOL     OW 9120   1.294   3.273   9.268 -0.6312  0.6384 -0.3612
 2560SOL    HW1 9121   1.256   3.309   9.349 -0.5510 -0.7416  0.3142
 2560SOL    HW2 9122   1.355   3.341   9.238  1.5896  0.0238  2.3494
 2561SOL     OW 9123   6.747   0.168  10.055  0.2900  0.4957  0.4133
 2561SOL    HW1 9124   6.804   0.173   9.979 -0.5318  1.5832 -0.1613
 2561SOL    HW2 9125   6.659   0.182  10.020 -0.1552  0.5182  1.4925
 2562SOL     OW 9126   1.995   3.574   7.689  0.5183 -0.4039  0.0054
 2562SOL    HW1 9127   2.040   3.650   7.653  0.3399  0.1034  0.8465
 2562SOL    HW2 9128   1.998   3.509   7.618  0.3421  0.5092 -0.8494
 2563SOL     OW 9129   1.681   4.169  11.340 -0.4041 -0.2369 -0.2677
 2563SOL    HW1 9130   1.632   4.154  11.420 -1.0373 -1.3810 -0.8486
 2563SOL    HW2 9131   1.753   4.106  11.343  0.0766  0.2976 -0.2119
 2564SOL     OW 9132   0.634   4.286  10.022  0.5030 -0.1692  0.0769
 2564SOL    HW1 9133   0.578   4.301  10.098 -0.9605 -0.0116 -0.9826
 2564SOL    HW2 9134   0.663   4.196  10.031 -3.0031 -1.6183 -1.1599
 2565SOL     OW 9135   1.552   4.119  11.580  0.1325  0.3224 -0.3598
 2565SOL    HW1 9136   1.605   4.163  11.646  0.9200  0.1384 -0.8588
 2565SOL    HW2 9137   1.500   4.056  11.629  0.3072  0.5638  0.1461
 2566SOL     OW 9138   0.540   2.565  10.735  0.7564  0.3375  0.3752
 2566SOL    HW1 9139   0.516   2.608  10.817 -0.6063 -1.2942  0.8965
 2566SOL    HW2 9140   0.593   2.630  10.688  0.0257  1.9901  1.7287
 2567SOL     OW 9141   7.182   0.685   9.435  0.1347  0.2835  0.2432
 2567SOL    HW1 9142   7.146   0.763   9.478  0.4884 -0.5076  2.0821
 2567SOL    HW2 9143   7.177   0.617   9.502 -0.1121 -1.2760 -1.3010
 2568SOL     OW 9144   7.344   3.304   9.003  0.3090  0.3604 -0.2810
 2568SOL    HW1 9145   7.324   3.352   8.923  1.5309 -0.6765 -1.2594
 2568SOL    HW2 9146   7.367   3.216   8.973  0.4952 -0.1365  1.2404
 2569SOL     OW 9147   1.016   4.157  10.196  0.1188 -0.2328 -0.3973
 2569SOL    HW1 9148   1.098   4.138  10.242  0.0700  0.6072  0.0419
 2569SOL    HW2 9149   0.950   4.105  10.243  0.0389  0.7583  0.6077
 2570SOL     OW 9150   1.160   2.585  10.765 -0.3632 -0.2065  0.4778
 2570SOL    HW1 9151   1.172   2.490  10.766 -0.5789 -0.2554 -0.6736
 2570SOL    HW2 9152   1.218   2.616  10.696 -0.4908  0.4684  0.6699
 2571SOL     OW 9153   7.018   2.562  10.818 -0.3408  0.6216  0.1689
 2571SOL    HW1 9154   7.071   2.607  10.752  0.4051 -0.9484 -0.3615
 2571SOL    HW2 9155   6.933   2.549  10.776 -0.1841  0.4960 -0.1112
 2572SOL     OW 9156   1.356   1.875  10.730 -0.2035 -0.2324 -0.8851
 2572SOL    HW1 9157   1.337   1.781  10.725  1.8915 -0.6848 -1.4350
 2572SOL    HW2 9158   1.422   1.882  10.799 -0.3614  0.8569 -0.8247
 2573SOL     OW 9159   0.830   3.177   8.936  0.1608  0.4834 -0.0424
 2573SOL    HW1 9160   0.762   3.242   8.958 -1.1462 -1.1847  1.0931
 2573SOL    HW2 9161   0.913   3.224   8.947 -0.7507  2.3894 -0.8067
 2574SOL     OW 9162   6.282   4.357  10.832  0.0643 -0.4958 -0.4056
 2574SOL    HW1 9163   6.272   4.408  10.913  1.6921 -1.0896  0.2366
 2574SOL    HW2 9164   6.333   4.413  10.774 -0.3625 -0.4044 -0.6948
 2575SOL     OW 9165   1.378   2.936   9.980 -0.2258 -0.2216  0.1401
 2575SOL    HW1 9166   1.456   2.991   9.982 -0.2231 -0.2238  0.0979
 2575SOL    HW2 9167   1.399   2.862  10.036 -0.2845 -0.1057  0.3144
 2576SOL     OW 9168   0.806   2.149  11.186 -0.2076 -0.2051 -0.3535
 2576SOL    HW1 9169   0.758   2.069  11.206  1.1259 -0.6167  1.5190
 2576SOL    HW2 9170   0.741   2.207  11.148 -1.2364 -2.1294 -1.7293
 2577SOL     OW 9171   1.311   3.568  10.381 -0.1727  0.5624 -0.2973
 2577SOL    HW1 9172   1.399   3.530  10.380 -0.9419 -1.3474  0.0156
 2577SOL    HW2 9173   1.321   3.648  10.433  1.2854  0.1499  0.1240
 2578SOL     OW 9174   1.943   3.786  10.371 -0.1378 -0.8783  0.0127
 2578SOL    HW1 9175   1.925   3.852  10.304 -0.1105 -1.1052 -0.2182
 2578SOL    HW2 9176   1.965   3.837  10.450  1.2436 -0.5970 -0.5236
 2579SOL     OW 9177   2.656   1.416   8.415  0.4258 -0.4879 -0.8102
 2579SOL    HW1 9178   2.715   1.416   8.491  1.6016 -0.2407 -1.6996
 2579SOL    HW2 9179   2.701   1.468   8.349 -1.3147  0.6677 -1.1581
 2580SOL     OW 9180   1.968   3.835   8.902 -0.4221 -0.1459  0.2566
 2580SOL    HW1 9181   1.958   3.758   8.958  0.5549  0.1021  0.7954
 2580SOL    HW2 9182   1.882   3.847   8.862 -0.5315 -1.6500 -0.0202
 2581SOL     OW 9183   1.788   1.040   9.130 -0.2351  0.4358 -0.1292
 2581SOL    HW1 9184   1.709   1.017   9.081  0.2515 -2.6051  0.3128
 2581SOL    HW2 9185   1.763   1.029   9.222  0.5697 -0.2061  0.0238
 2582SOL     OW 9186   0.853   4.890  11.522 -0.3598  0.3471 -0.1086
 2582SOL    HW1 9187   0.882   4.884  11.431  0.0899 -2.4033  0.1216
 2582SOL    HW2 9188   0.782   4.826  11.529 -1.6176  1.7959  1.0944
 2583SOL     OW 9189   1.220   1.667   8.462  0.1928 -0.0368  0.0855
 2583SOL    HW1 9190   1.274   1.714   8.399 -0.2939 -0.3213 -0.5592
 2583SOL    HW2 9191   1.216   1.578   8.427 -0.0911 -0.1926  0.5135
 2584SOL     OW 9192   7.204   3.761   9.579  0.3812 -0.5824  0.1101
 2584SOL    HW1 9193   7.199   3.700   9.652  0.8850 -1.6244 -0.7016
 2584SOL    HW2 9194   7.296   3.764   9.555  0.6790  1.8741  1.2221
 2585SOL     OW 9195   1.908   4.683  11.033  0.3701  0.2427  0.5359
 2585SOL    HW1 9196   1.848   4.610  11.022 -0.3673  0.9284 -0.2099
 2585SOL    HW2 9197   1.936   4.679  11.124 -0.2723 -0.4886  0.7054
 2586SOL     OW 9198   7.913   2.266   8.999 -0.6865  0.5566 -0.0030
 2586SOL    HW1 9199   7.982   2.326   9.023 -0.7432  0.6135  0.0176
 2586SOL    HW2 9200   7.897   2.283   8.906  0.6235 -0.7446 -0.5161
 2587SOL     OW 9201   2.186   3.570  10.435  0.4408  0.0327  0.2372
 2587SOL    HW1 9202   2.221   3.519  10.362  1.5938 -0.8235  1.3457
 2587SOL    HW2 9203   2.134   3.639  10.394  1.9295  0.2159 -1.4294
 2588SOL     OW 9204   1.346   4.435  11.532 -0.6650  0.6659  0.8559
 2588SOL    HW1 9205   1.382   4.505  11.587  1.4907 -0.0886  0.5252
 2588SOL    HW2 9206   1.314   4.480  11.454  2.1102  1.2704 -0.0662
 2589SOL     OW 9207   1.979   3.425  10.222  0.0124  0.2587 -0.0945
 2589SOL    HW1 9208   2.011   3.389  10.305  1.2338  0.9457 -0.2473
 2589SOL    HW2 9209   1.893   3.462  10.244 -1.4375 -2.8054  0.0290
 2590SOL     OW 9210   7.921   4.035  11.123 -0.2166  0.6802  0.0063
 2590SOL    HW1 9211   7.826   4.043  11.132 -0.2081  1.5854 -0.5695
 2590SOL    HW2 9212   7.936   4.035  11.029  0.2817 -0.5982  0.0614
 2591SOL     OW 9213   0.715   0.388  10.305  0.2288 -0.0544 -0.0716
 2591SOL    HW1 9214   0.695   0.323  10.238 -0.8009 -0.7192  0.8409
 2591SOL    HW2 9215   0.724   0.337  10.386 -0.3566  0.8969  0.6191
 2592SOL     OW 9216   2.288   4.177   8.567 -0.2788 -0.2910  0.0363
 2592SOL    HW1 9217   2.341   4.104   8.536 -0.0581  0.2674 -0.9314
 2592SOL    HW2 9218   2.350   4.249   8.580 -0.6219  0.0018  0.0836
 2593SOL     OW 9219   7.720   3.332   9.356 -0.4935  0.2822  0.0758
 2593SOL    HW1 9220   7.805   3.371   9.335 -0.8175  0.4177 -1.0563
 2593SOL    HW2 9221   7.730   3.240   9.332 -0.9410  0.4858 -0.9488
 2594SOL     OW 9222   1.241   3.385  11.423  0.3768  0.2921 -0.1620
 2594SOL    HW1 9223   1.286   3.466  11.397  1.0356  0.0696  0.2470
 2594SOL    HW2 9224   1.310   3.332  11.464  0.1494 -0.8393 -1.1914
 2595SOL     OW 9225   1.660   3.243  10.921 -0.1722 -0.5279 -0.1277
 2595SOL    HW1 9226   1.573   3.270  10.892 -0.1497  0.1344  0.3794
 2595SOL    HW2 9227   1.710   3.325  10.927  0.3651 -0.8561 -0.0355
 2596SOL     OW 9228   7.726   4.034   9.415 -0.5283 -0.2426  0.1166
 2596SOL    HW1 9229   7.634   4.013   9.429 -0.3543 -1.2053 -0.1022
 2596SOL    HW2 9230   7.737   4.031   9.320  0.2950 -2.8298  0.2052
 2597SOL     OW 9231   0.560   5.853   9.143  0.0565 -0.1852 -0.3162
 2597SOL    HW1 9232   0.644   5.826   9.105 -0.4738 -0.9705 -0.9579
 2597SOL    HW2 9233   0.498   5.786   9.116 -0.6528  0.0217  0.7291
 2598SOL     OW 9234   1.766   3.350   9.633 -0.2468  0.2023  0.4793
 2598SOL    HW1 9235   1.838   3.380   9.689  0.1476  0.1851 -0.0125
 2598SOL    HW2 9236   1.698   3.417   9.645 -0.3540 -0.0412  1.3288
 2599SOL     OW 9237   0.853   3.990   8.785  0.4307  0.1907 -0.1423
 2599SOL    HW1 9238   0.811   4.035   8.712 -1.7685 -0.5443  0.5860
 2599SOL    HW2 9239   0.868   3.901   8.754  3.0951  0.8456 -0.9565
 2600SOL     OW 9240   1.732   2.519   8.156 -0.4792 -0.0129 -0.5670
 2600SOL    HW1 9241   1.748   2.458   8.227  1.0894  2.1408  1.0716
 2600SOL    HW2 9242   1.648   2.561   8.179 -0.7673 -0.4263 -0.8529
 2601SOL     OW 9243   0.335   3.676   9.688 -0.0530  0.2093  0.0879
 2601SOL    HW1 9244   0.393   3.616   9.736 -0.6335  0.5023  1.1939
 2601SOL    HW2 9245   0.256   3.680   9.741 -0.9366  0.1511 -1.1837
 2602SOL     OW 9246   1.174   4.516  10.307  0.1656 -0.3146  0.0285
 2602SOL    HW1 9247   1.166   4.597  10.358  0.7139  0.7990 -1.5615
 2602SOL    HW2 9248   1.191   4.448  10.372  1.3423  1.1177  1.2937
 2603SOL     OW 9249   0.269   3.617  10.447 -0.3808  0.4735  0.0605
 2603SOL    HW1 9250   0.347   3.582  10.490 -1.2517 -1.0432  0.4824
 2603SOL    HW2 9251   0.292   3.621  10.354  0.6439  1.3495  0.3354
 2604SOL     OW 9252   1.625   3.824  11.430  0.2507 -0.1698  0.4959
 2604SOL    HW1 9253   1.582   3.738  11.436  0.9867 -0.6330 -0.6224
 2604SOL    HW2 9254   1.645   3.846  11.521 -2.6503  0.2504  1.1206
 2605SOL     OW 9255   1.876   2.706   9.225 -0.7256  0.0019 -0.2182
 2605SOL    HW1 9256   1.840   2.760   9.295 -1.5137 -0.1779 -0.4827
 2605SOL    HW2 9257   1.803   2.692   9.165 -0.1258 -0.0623 -0.9502
 2606SOL     OW 9258   1.508   0.368   8.519  0.2238  0.0025  0.2443
 2606SOL    HW1 9259   1.536   0.439   8.577  0.4466  0.3208 -0.2386
 2606SOL    HW2 9260   1.479   0.299   8.578 -2.4148  1.4194  0.7382
 2607SOL     OW 9261   1.106   3.931   9.895  0.2848 -0.0387 -0.6312
 2607SOL    HW1 9262   1.054   3.850   9.891  0.4107 -0.1828  0.4350
 2607SOL    HW2 9263   1.105   3.956   9.987  0.7213  0.8773 -0.8602
 2608SOL     OW 9264   1.850   2.286  10.139 -0.2968  0.0950 -0.7070
 2608SOL    HW1 9265   1.792   2.360  10.159  0.6780  0.8749 -0.6829
 2608SOL    HW2 9266   1.808   2.242  10.065 -1.1670  0.3557 -0.3854
 2609SOL     OW 9267   7.712   3.506   8.437  0.0189 -0.0232  0.5297
 2609SOL    HW1 9268   7.685   3.579   8.382  1.5167 -0.7918 -1.3408
 2609SOL    HW2 9269   7.808   3.512   8.438  0.2363 -2.4641 -0.4490
 2610SOL     OW 9270   0.639   4.130  10.343 -0.0696  0.3674  0.0441
 2610SOL    HW1 9271   0.616   4.139  10.435  1.3472 -0.0576  0.4691
 2610SOL    HW2 9272   0.713   4.068  10.343 -0.2732  0.0912 -1.4033
 2611SOL     OW 9273   0.898   2.287  10.139 -0.5154 -0.3076 -0.0712
 2611SOL    HW1 9274   0.880   2.232  10.063 -0.2592 -0.3214 -0.1212
 2611SOL    HW2 9275   0.817   2.284  10.190 -1.0373  0.4918 -0.8255
 2612SOL     OW 9276   1.049   2.192   9.584  0.2091  0.0313  0.3582
 2612SOL    HW1 9277   0.995   2.113   9.596 -1.3777  1.0784  0.4147
 2612SOL    HW2 9278   1.049   2.207   9.490  3.2644 -1.8186 -0.0671
 2613SOL     OW 9279   0.509   3.940  10.201 -0.1666  0.3141 -0.5077
 2613SOL    HW1 9280   0.532   3.903  10.116  3.0622 -0.8518  0.6963
 2613SOL    HW2 9281   0.570   4.012  10.212 -0.0021 -0.0426  1.1090
 2614SOL     OW 9282   1.598   1.020   8.647 -0.2339  0.8351 -0.1655
 2614SOL    HW1 9283   1.628   1.048   8.733 -0.6244  1.0602 -0.0997
 2614SOL    HW2 9284   1.567   0.931   8.660  2.8921 -0.4739 -0.7841
 2615SOL     OW 9285   7.909   3.983   9.948 -0.5609  0.3431  0.4658
 2615SOL    HW1 9286   7.834   4.035   9.977 -1.6642 -1.0653  0.2551
 2615SOL    HW2 9287   7.871   3.910   9.898  1.0572  0.6008 -1.2837
 2616SOL     OW 9288   6.707   2.656   0.628  0.3258 -0.4236 -0.3860
 2616SOL    HW1 9289   6.704   2.565   0.598 -1.0531  0.0588 -1.8674
 2616SOL    HW2 9290   6.800   2.674   0.640  0.6140 -2.0481  0.0250
 2617SOL     OW 9291   2.778   4.553  11.030 -0.0849 -0.4912  0.2795
 2617SOL    HW1 9292   2.708   4.496  11.062  0.9700 -0.9825  1.8579
 2617SOL    HW2 9293   2.814   4.593  11.109  1.2337 -0.0515 -0.5164
 2618SOL     OW 9294   1.142   4.525  11.933  0.0091  0.0032 -0.2487
 2618SOL    HW1 9295   1.063   4.481  11.963 -0.3774  0.6175 -0.3576
 2618SOL    HW2 9296   1.111   4.597  11.879  0.6281  0.4368 -0.0396
 2619SOL     OW 9297   1.821   2.655  11.437  0.3825  0.6066  0.4726
 2619SOL    HW1 9298   1.772   2.737  11.449  0.3265  0.6706 -0.1815
 2619SOL    HW2 9299   1.842   2.627  11.526  0.1957  1.2086  0.7116
 2620SOL     OW 9300   0.598   2.819  10.307 -0.1714 -0.0076 -0.1901
 2620SOL    HW1 9301   0.621   2.735  10.348  1.4034  0.4067 -0.1589
 2620SOL    HW2 9302   0.544   2.863  10.373  1.2803  0.1275  0.9622
 2621SOL     OW 9303   2.726   2.707   9.686  0.0352  0.1086  0.0423
 2621SOL    HW1 9304   2.748   2.768   9.616  0.8860 -2.7472 -2.4027
 2621SOL    HW2 9305   2.810   2.685   9.726 -0.2704  0.5521  0.9535
 2622SOL     OW 9306   2.019   0.894   8.704 -0.3200 -0.2835  0.4841
 2622SOL    HW1 9307   2.074   0.816   8.702 -0.0203 -0.0686 -0.2350
 2622SOL    HW2 9308   2.009   0.918   8.611 -0.9478  0.1505  0.6614
 2623SOL     OW 9309   7.924   2.513  10.519 -0.1564  0.2891 -0.1935
 2623SOL    HW1 9310   7.870   2.482  10.447 -1.1203 -1.0999  1.0636
 2623SOL    HW2 9311   7.862   2.537  10.588  0.7706 -0.6558  1.0307
 2624SOL     OW 9312   3.620   3.165  10.565 -0.1603  0.4324  0.5970
 2624SOL    HW1 9313   3.632   3.140  10.657  1.1198  0.0358  0.3481
 2624SOL    HW2 9314   3.662   3.250  10.558  1.7005 -0.4899 -0.0638
 2625SOL     OW 9315   1.416   2.745  10.158  0.5343  0.5283  0.3303
 2625SOL    HW1 9316   1.439   2.766  10.248  0.7319 -0.7436  0.5874
 2625SOL    HW2 9317   1.392   2.653  10.159 -1.2218  0.9246 -0.5929
 2626SOL     OW 9318   0.081   3.867   9.706  0.0913 -0.5623  0.2280
 2626SOL    HW1 9319   0.015   3.847   9.772 -0.2160  0.5374  0.2720
 2626SOL    HW2 9320   0.130   3.941   9.742 -2.4749  2.6365 -2.2782
 2627SOL     OW 9321   7.555   4.616   9.894  0.0080  0.3343  0.0684
 2627SOL    HW1 9322   7.605   4.587   9.970  0.2500  0.8339  0.1071
 2627SOL    HW2 9323   7.466   4.631   9.927 -0.1669 -0.5448  0.0027
 2628SOL     OW 9324   1.253   3.400   9.610  0.0560 -0.0261  0.5632
 2628SOL    HW1 9325   1.297   3.461   9.551 -1.3318  0.9587  0.5292
 2628SOL    HW2 9326   1.260   3.441   9.696 -0.0761 -0.2743  0.6923
 2629SOL     OW 9327   0.579   2.771   9.178  0.3659 -1.0870 -0.6209
 2629SOL    HW1 9328   0.597   2.772   9.272  2.5027 -0.5532 -0.9822
 2629SOL    HW2 9329   0.579   2.678   9.155 -0.3683 -1.2337 -0.0898
 2630SOL     OW 9330   2.892   3.474  10.318 -0.0270 -0.3350  0.4395
 2630SOL    HW1 9331   2.810   3.465  10.270 -1.1550  0.2815  2.1444
 2630SOL    HW2 9332   2.901   3.391  10.366 -0.7751  0.3736  1.8581
 2631SOL     OW 9333   7.840   3.493  10.317  0.3155 -0.0605  0.3349
 2631SOL    HW1 9334   7.873   3.523  10.402  1.9526 -0.4044 -0.1371
 2631SOL    HW2 9335   7.881   3.552  10.254 -1.1151  0.3718 -0.2272
 2632SOL     OW 9336   6.792   3.924   9.910 -0.4951 -0.2476  0.6905
 2632SOL    HW1 9337   6.751   3.871   9.843 -1.3317  0.4854  0.5990
 2632SOL    HW2 9338   6.829   3.999   9.863  0.1094 -0.4143  0.8885
 2633SOL     OW 9339   1.001   4.436  10.673 -0.3651  0.4295  0.2121
 2633SOL    HW1 9340   1.007   4.484  10.755  0.1533  0.0698  0.3849
 2633SOL    HW2 9341   0.946   4.492  10.617 -0.4265  0.8415  0.6764
 2634SOL     OW 9342   1.673   4.143   9.917  0.2067  0.0510 -0.4365
 2634SOL    HW1 9343   1.584   4.147   9.949 -0.7563 -0.3919 -2.8130
 2634SOL    HW2 9344   1.716   4.221   9.954 -0.1414 -1.3510  3.2952
 2635SOL     OW 9345   7.893   1.645   8.046  0.7028  0.6246  0.4856
 2635SOL    HW1 9346   7.942   1.662   8.127  0.9103  0.8703  0.3108
 2635SOL    HW2 9347   7.805   1.624   8.076  1.1591 -0.9017  0.8762
 2636SOL     OW 9348   1.647   2.842   8.327 -0.2088  0.3794  0.6275
 2636SOL    HW1 9349   1.629   2.769   8.387  1.0319 -0.9255 -0.5304
 2636SOL    HW2 9350   1.561   2.870   8.297 -0.7361 -0.2898  1.4612
 2637SOL     OW 9351   7.744   7.993   9.952 -0.3402 -0.3067  0.2852
 2637SOL    HW1 9352   7.718   8.085   9.945 -0.1282 -0.3472 -1.7013
 2637SOL    HW2 9353   7.745   7.962   9.861  0.4482 -2.0388  0.8499
 2638SOL     OW 9354   1.860   4.292  10.339 -0.6207 -0.4773 -0.2533
 2638SOL    HW1 9355   1.777   4.262  10.303 -1.6370 -1.4926  2.6688
 2638SOL    HW2 9356   1.836   4.366  10.395  0.3454 -0.9748  0.8642
 2639SOL     OW 9357   1.209   2.872   9.469 -0.3526 -0.0267 -0.6210
 2639SOL    HW1 9358   1.270   2.942   9.445 -0.5393 -0.2368 -1.7855
 2639SOL    HW2 9359   1.194   2.884   9.563  0.7011  0.6339 -0.5205
 2640SOL     OW 9360   1.443   1.277   9.415 -0.4378 -0.1706  0.1333
 2640SOL    HW1 9361   1.417   1.360   9.456 -0.6800  0.2618 -0.8568
 2640SOL    HW2 9362   1.499   1.303   9.342 -0.7835 -0.8637 -0.3912
 2641SOL     OW 9363   1.495   4.719   8.443 -0.0675 -0.1024 -0.4119
 2641SOL    HW1 9364   1.404   4.732   8.418 -1.0558 -1.9635  1.8556
 2641SOL    HW2 9365   1.502   4.625   8.462  1.6006  0.3939  1.9466
 2642SOL     OW 9366   1.313   4.043   8.547  0.0158 -0.4496 -0.6518
 2642SOL    HW1 9367   1.327   4.117   8.606  0.1809 -0.0132 -1.2299
 2642SOL    HW2 9368   1.395   4.035   8.498 -1.1103  1.1150 -2.9464
 2643SOL     OW 9369   0.242   3.931  10.308 -0.4657  0.1556  0.1836
 2643SOL    HW1 9370   0.329   3.936  10.269 -0.8853  0.5820 -0.7493
 2643SOL    HW2 9371   0.183   3.958  10.237 -1.4272 -0.9349  0.5290
 2644SOL     OW 9372   0.827   2.744  10.003  0.0212  0.3175  0.0577
 2644SOL    HW1 9373   0.763   2.808   9.972  0.3895  0.7397  0.1606
 2644SOL    HW2 9374   0.907   2.794  10.015 -0.7460  0.9271  4.5151
 2645SOL     OW 9375   1.473   2.527   9.118  0.0324 -0.0613  0.3709
 2645SOL    HW1 9376   1.414   2.602   9.130 -1.2352 -1.1441  1.1859
 2645SOL    HW2 9377   1.415   2.455   9.093  1.0741 -1.0794  0.8166
 2646SOL     OW 9378   6.424   2.771   9.578  0.3668  0.1326  0.2349
 2646SOL    HW1 9379   6.446   2.839   9.642  0.9996  0.5989 -0.4702
 2646SOL    HW2 9380   6.470   2.796   9.498 -1.7622  0.5188 -0.9654
 2647SOL     OW 9381   0.563   2.788   9.780 -0.3235  0.6466 -0.2509
 2647SOL    HW1 9382   0.549   2.831   9.695 -1.8561  0.7450  0.0175
 2647SOL    HW2 9383   0.602   2.856   9.835 -1.2104  1.2191 -0.3087
 2648SOL     OW 9384   0.793   1.645   0.488  0.8951 -0.1673 -0.2152
 2648SOL    HW1 9385   0.839   1.583   0.431  0.1780 -0.3558 -0.6011
 2648SOL    HW2 9386   0.700   1.631   0.469  0.7219  1.2785 -0.5705
 2649SOL     OW 9387   1.334   1.835  10.300 -0.6068  0.3199 -0.0877
 2649SOL    HW1 9388   1.382   1.775  10.356 -0.4124  1.6109  1.1785
 2649SOL    HW2 9389   1.401   1.894  10.265 -1.0033  0.9115  0.1268
 2650SOL     OW 9390   1.951   2.600   0.279 -0.7365 -0.6955  0.2924
 2650SOL    HW1 9391   2.015   2.661   0.242 -1.5766  0.7217  1.0914
 2650SOL    HW2 9392   1.942   2.532   0.212 -1.2254  1.0610 -1.5481
 2651SOL     OW 9393   1.253   3.774  10.578 -0.5788  0.1376  0.6447
 2651SOL    HW1 9394   1.161   3.793  10.597 -0.9567  0.8179 -1.6259
 2651SOL    HW2 9395   1.301   3.848  10.613 -1.2386  1.3070 -0.8324
 2652SOL     OW 9396   1.231   1.826  11.978 -0.5746  0.0760  0.0316
 2652SOL    HW1 9397   1.153   1.880  11.985 -0.5507 -0.0421  1.7087
 2652SOL    HW2 9398   1.234   1.777  12.060  0.8291 -0.5117 -0.3303
 2653SOL     OW 9399   1.658   2.743  11.080 -0.0566 -0.3464 -0.0839
 2653SOL    HW1 9400   1.657   2.759  11.174  1.2398 -0.6102 -0.0073
 2653SOL    HW2 9401   1.605   2.813  11.043  0.0442  0.1971  0.7777
 2654SOL     OW 9402   0.514   3.024  11.910  0.3818 -0.2979  0.3356
 2654SOL    HW1 9403   0.500   3.102  11.963  0.1449 -1.0730  1.4525
 2654SOL    HW2 9404   0.609   3.022  11.895  0.2338  1.0199 -1.0393
 2655SOL     OW 9405   2.003   3.644  12.038  0.5090 -0.0331  0.2398
 2655SOL    HW1 9406   2.042   3.587  11.971  1.6791  0.0859  0.7965
 2655SOL    HW2 9407   1.995   3.587  12.115  0.9382  0.3322  0.5581
 2656SOL     OW 9408   7.747   1.179  11.679  0.0961 -0.2798 -0.4362
 2656SOL    HW1 9409   7.714   1.103  11.630  1.1483 -0.6923 -0.5373
 2656SOL    HW2 9410   7.822   1.210  11.628 -0.7462  1.2911 -0.7759
 2657SOL     OW 9411   2.885   2.954  11.729  0.2773  0.0632 -0.1647
 2657SOL    HW1 9412   2.899   2.881  11.789 -0.9098  1.5091  2.0066
 2657SOL    HW2 9413   2.804   2.933  11.684  0.1097 -0.1360  0.2233
 2658SOL     OW 9414   1.408   3.711   1.290 -0.4963  0.2204 -0.3433
 2658SOL    HW1 9415   1.327   3.673   1.324 -0.9572 -1.9724 -3.4451
 2658SOL    HW2 9416   1.475   3.684   1.353 -1.7327 -0.5166  0.7237
 2659SOL     OW 9417   0.458   3.871  11.462  0.0524 -0.7482 -0.1058
 2659SOL    HW1 9418   0.384   3.832  11.414  0.3769 -0.9045 -0.4889
 2659SOL    HW2 9419   0.535   3.836  11.418  0.3576  0.4597 -0.5662
 2660SOL     OW 9420   0.591   2.746  11.763  0.3757 -0.2809 -0.1631
 2660SOL    HW1 9421   0.612   2.824  11.711  0.0227 -1.7422 -2.6189
 2660SOL    HW2 9422   0.588   2.674  11.699  0.3484 -2.2749  1.9555
 2661SOL     OW 9423   0.564   2.890  11.121 -0.0027 -0.3075 -0.4898
 2661SOL    HW1 9424   0.543   2.894  11.214  0.3094  0.9271 -0.4577
 2661SOL    HW2 9425   0.536   2.975  11.086  3.6481  0.9712 -0.6811
 2662SOL     OW 9426   1.122   2.055  11.246  0.3509 -0.0308 -0.0711
 2662SOL    HW1 9427   1.214   2.082  11.247  0.3879 -0.1183 -0.5660
 2662SOL    HW2 9428   1.110   2.007  11.327  0.5658  0.5603  0.3198
 2663SOL     OW 9429   1.935   3.475  10.971  0.2539  0.2195  0.5743
 2663SOL    HW1 9430   1.863   3.520  10.926 -1.8774 -1.2755  2.2672
 2663SOL    HW2 9431   1.939   3.519  11.056  0.6663 -0.3780  0.8623
 2664SOL     OW 9432   7.117   4.104  10.989 -0.3756  0.3715 -0.1861
 2664SOL    HW1 9433   7.130   4.190  10.949 -1.3416  0.2400 -0.8084
 2664SOL    HW2 9434   7.093   4.123  11.079 -2.4038  0.8575 -0.7790
 2665SOL     OW 9435   2.524   4.189  12.360  0.2288 -0.1899  0.3957
 2665SOL    HW1 9436   2.551   4.109  12.314 -0.1424 -0.1577  0.1066
 2665SOL    HW2 9437   2.562   4.260  12.309  1.0594 -0.1959  0.9960
 2666SOL     OW 9438   2.508   2.950  12.446  0.4753 -0.2771 -0.5726
 2666SOL    HW1 9439   2.452   2.939  12.368  0.1447  0.3404 -0.4250
 2666SOL    HW2 9440   2.551   2.865  12.456  0.1245 -0.5283 -1.1268
 2667SOL     OW 9441   7.194   1.593  12.129 -0.5017 -0.4384 -0.7243
 2667SOL    HW1 9442   7.107   1.630  12.117 -0.9528 -1.8821 -2.2675
 2667SOL    HW2 9443   7.183   1.500  12.109  1.0920 -0.9433  0.5417
 2668SOL     OW 9444   0.570   2.200   1.354 -0.3546 -0.5698  0.5194
 2668SOL    HW1 9445   0.507   2.267   1.381 -0.6807 -0.6552 -0.0180
 2668SOL    HW2 9446   0.632   2.195   1.427 -0.3906  0.2354  0.6140
 2669SOL     OW 9447   1.746   1.157  11.859 -0.1571 -0.3032 -0.7460
 2669SOL    HW1 9448   1.721   1.237  11.813  1.9511  0.0011 -1.4465
 2669SOL    HW2 9449   1.831   1.134  11.824  0.6957 -1.1371  1.6522
 2670SOL     OW 9450   0.970   3.536   0.375  0.8191  0.6528  0.0082
 2670SOL    HW1 9451   0.966   3.632   0.375  2.7928  0.8271  2.2638
 2670SOL    HW2 9452   0.913   3.510   0.447  0.8915  0.1681 -0.1090
 2671SOL     OW 9453   1.705   3.969  12.096  0.1612  0.7672  0.1062
 2671SOL    HW1 9454   1.733   4.061  12.098 -0.5686  1.0205 -0.5407
 2671SOL    HW2 9455   1.639   3.963  12.166  0.7907  0.5289  0.6837
 2672SOL     OW 9456   0.898   4.099  12.448 -0.1102 -0.2250 -0.2625
 2672SOL    HW1 9457   0.926   4.078  12.358 -0.6310  0.1297 -0.5117
 2672SOL    HW2 9458   0.887   4.014  12.490  0.4411 -0.3901 -0.4345
 2673SOL     OW 9459   1.708   4.079  10.554 -0.1522 -0.4848  0.4087
 2673SOL    HW1 9460   1.652   4.099  10.478 -0.6937 -0.2174  0.8726
 2673SOL    HW2 9461   1.797   4.086  10.520 -0.3727  0.2752 -0.0576
 2674SOL     OW 9462   0.597   1.939   9.756 -0.6532  0.1824  1.2099
 2674SOL    HW1 9463   0.590   1.847   9.731 -1.7051  0.1671  1.5002
 2674SOL    HW2 9464   0.604   1.987   9.674  1.6575 -0.2482  1.0829
 2675SOL     OW 9465   1.367   0.953  11.096 -0.2653  0.0170  0.0076
 2675SOL    HW1 9466   1.422   0.877  11.115  1.7588  1.3777 -0.1092
 2675SOL    HW2 9467   1.279   0.927  11.125  0.0750 -2.8124 -1.2172
 2676SOL     OW 9468   2.072   2.324  11.978 -0.4861 -0.6936 -0.1060
 2676SOL    HW1 9469   2.010   2.322  11.906 -0.5141 -1.4321 -0.0690
 2676SOL    HW2 9470   2.038   2.260  12.041 -0.2303 -0.3776  0.3613
 2677SOL     OW 9471   0.692   2.387   0.501 -0.0700 -0.2319 -0.1661
 2677SOL    HW1 9472   0.598   2.406   0.503  0.0890  0.5459  1.6262
 2677SOL    HW2 9473   0.723   2.426   0.419 -1.3852 -1.0227 -1.0766
 2678SOL     OW 9474   1.775   2.546  10.228  0.0442 -0.3791 -0.1973
 2678SOL    HW1 9475   1.840   2.604  10.189  0.0295  0.4553  0.9487
 2678SOL    HW2 9476   1.780   2.565  10.322  0.2525 -2.4793  0.2476
 2679SOL     OW 9477   7.998   2.179  11.994 -0.6781 -0.0861  0.2612
 2679SOL    HW1 9478   7.942   2.207  12.066 -0.2083  1.2272  0.1344
 2679SOL    HW2 9479   8.064   2.123  12.035 -0.0136  1.1857  0.9662
 2680SOL     OW 9480   0.018   4.309   0.770  0.1542 -0.2409  0.3043
 2680SOL    HW1 9481   0.002   4.215   0.764  2.9364 -0.7813 -0.2937
 2680SOL    HW2 9482  -0.067   4.347   0.791 -0.9341 -2.9379  1.2077
 2681SOL     OW 9483   1.182   3.036  10.281 -0.3253 -0.2988 -0.1842
 2681SOL    HW1 9484   1.135   2.961  10.318 -0.3720  0.1830  0.7478
 2681SOL    HW2 9485   1.134   3.113  10.313  0.8394  0.1941  0.4434
 2682SOL     OW 9486   0.632   2.520   9.081  0.1803 -0.2159 -0.6310
 2682SOL    HW1 9487   0.655   2.456   9.148 -0.5442  0.9262  0.7675
 2682SOL    HW2 9488   0.546   2.491   9.050  0.6144 -0.8721 -1.2585
 2683SOL     OW 9489   2.241   1.761   1.980 -0.8683 -0.6796  0.3176
 2683SOL    HW1 9490   2.171   1.707   1.943 -1.2728 -0.9004  1.3594
 2683SOL    HW2 9491   2.286   1.703   2.041 -0.5141 -0.1961  0.5233
 2684SOL     OW 9492   0.787   4.207  12.170 -0.5819  0.2795 -0.2426
 2684SOL    HW1 9493   0.866   4.156  12.187 -0.8097  0.2280  0.7207
 2684SOL    HW2 9494   0.799   4.241  12.082  0.1582 -0.3752 -0.4064
 2685SOL     OW 9495   7.192   4.395  11.861  0.3528 -0.3050  0.1141
 2685SOL    HW1 9496   7.104   4.431  11.847 -0.0286 -1.0270  0.6265
 2685SOL    HW2 9497   7.251   4.465  11.832 -0.3891 -0.2773 -1.4474
 2686SOL     OW 9498   3.240   3.232  12.006  0.9249  0.5624  0.0567
 2686SOL    HW1 9499   3.293   3.206  11.931  0.2388  0.3199 -0.3618
 2686SOL    HW2 9500   3.164   3.276  11.967  0.0882 -0.4183  0.5478
 2687SOL     OW 9501   0.777   3.103  11.345  0.0438  0.4361  0.4419
 2687SOL    HW1 9502   0.696   3.052  11.352  0.3675  0.0012  1.0857
 2687SOL    HW2 9503   0.816   3.098  11.432  1.4771 -0.5333 -0.2236
 2688SOL     OW 9504   1.514   3.305   1.197  0.4990  0.3244  0.4764
 2688SOL    HW1 9505   1.570   3.227   1.206  0.5382  0.3369  0.3356
 2688SOL    HW2 9506   1.466   3.291   1.115  0.0413  0.1505  0.7680
 2689SOL     OW 9507   2.600   2.842  11.517  0.4822 -0.3402 -0.5915
 2689SOL    HW1 9508   2.644   2.871  11.437  0.5117 -0.0149 -0.4580
 2689SOL    HW2 9509   2.522   2.897  11.523 -0.8127 -1.9300 -1.6551
 2690SOL     OW 9510   0.898   5.393  12.309  0.6193 -0.1411 -0.3924
 2690SOL    HW1 9511   0.891   5.333  12.235  0.5418 -0.5039 -0.0965
 2690SOL    HW2 9512   0.833   5.360  12.372  1.7406 -0.7647  0.4725
 2691SOL     OW 9513   1.218   1.927  11.017 -0.3241  0.0791 -0.1761
 2691SOL    HW1 9514   1.193   1.911  11.108 -1.2805 -0.6043 -0.5508
 2691SOL    HW2 9515   1.293   1.987  11.023 -1.5431  1.5672  0.9957
 2692SOL     OW 9516   7.602   3.117   1.157 -0.1117 -0.0760 -0.0421
 2692SOL    HW1 9517   7.642   3.110   1.243 -0.8541  1.3759  0.4357
 2692SOL    HW2 9518   7.578   3.027   1.135  0.2556 -0.4899  1.1750
 2693SOL     OW 9519   1.460   3.467  12.099  0.3567 -0.0768 -0.2380
 2693SOL    HW1 9520   1.485   3.503  12.014  1.2025 -0.9739 -0.3843
 2693SOL    HW2 9521   1.531   3.408  12.122 -1.1328 -1.9417 -0.1907
 2694SOL     OW 9522   1.180   1.968  10.500  0.4657 -0.1286 -0.1221
 2694SOL    HW1 9523   1.224   1.934  10.422  0.5105 -3.0896  1.0536
 2694SOL    HW2 9524   1.229   1.929  10.573 -0.7618  0.9813  1.3442
 2695SOL     OW 9525   0.896   2.754  11.572 -0.2300 -0.0006  0.0174
 2695SOL    HW1 9526   0.984   2.783  11.546  0.6371 -0.9702  1.6669
 2695SOL    HW2 9527   0.907   2.726  11.663 -2.6826  1.6814  0.9399
 2696SOL     OW 9528   2.305   2.952   0.152  0.4515  0.1904 -0.0427
 2696SOL    HW1 9529   2.384   2.986   0.110  1.2175 -1.0536  0.3535
 2696SOL    HW2 9530   2.239   3.019   0.136  1.9966  2.0716  1.0698
 2697SOL     OW 9531   1.272   2.184  12.175 -0.2484  0.2991  0.0994
 2697SOL    HW1 9532   1.337   2.113  12.177  0.1111  0.5956  2.2294
 2697SOL    HW2 9533   1.295   2.236  12.098  0.2929 -1.1422 -0.7547
 2698SOL     OW 9534   7.921   1.766  10.462 -0.2583  0.0989 -0.0876
 2698SOL    HW1 9535   7.964   1.742  10.544  1.9648  1.1329 -0.8690
 2698SOL    HW2 9536   7.922   1.685  10.411 -0.1899 -0.1594  0.3114
 2699SOL     OW 9537   0.167   2.625  10.466 -0.4411  0.0282  0.1039
 2699SOL    HW1 9538   0.193   2.594  10.380  0.9877  1.1762  0.0666
 2699SOL    HW2 9539   0.074   2.603  10.474 -0.5192 -0.3492 -1.6019
 2700SOL     OW 9540   2.162   0.516  11.482  0.2755  0.1281 -0.2915
 2700SOL    HW1 9541   2.095   0.580  11.456  1.6988  1.8048  0.0130
 2700SOL    HW2 9542   2.245   0.557  11.458  1.2303 -2.0648 -1.0318
 2701SOL     OW 9543   1.407   2.844  11.581 -0.0474 -0.5371  0.0672
 2701SOL    HW1 9544   1.430   2.823  11.672  0.5756  0.1699  0.0758
 2701SOL    HW2 9545   1.488   2.877  11.543 -0.7704  1.0374 -0.1881
 2702SOL     OW 9546   0.818   2.996  10.345  0.5006 -0.4202  0.1344
 2702SOL    HW1 9547   0.763   2.934  10.298  0.9378  0.1566 -1.1917
 2702SOL    HW2 9548   0.869   2.942  10.406  1.1605 -1.4430 -1.2612
 2703SOL     OW 9549   0.812   2.885  10.903  0.6577 -0.1877  0.4931
 2703SOL    HW1 9550   0.755   2.896  10.979  0.8260  0.4227  0.5385
 2703SOL    HW2 9551   0.899   2.906  10.935  0.8037 -0.4286  0.2553
 2704SOL     OW 9552   1.585   0.636   0.139  0.0067  0.0826  0.3982
 2704SOL    HW1 9553   1.515   0.660   0.199  1.9829  1.3915  2.3188
 2704SOL    HW2 9554   1.644   0.580   0.190  1.2470  0.4326 -0.5910
 2705SOL     OW 9555   0.106   0.424  12.499 -0.4259  0.1066 -0.6748
 2705SOL    HW1 9556   0.145   0.406  12.585  0.6180  1.0335 -0.9256
 2705SOL    HW2 9557   0.060   0.344  12.476 -1.6319  0.1697  1.2147
 2706SOL     OW 9558   1.049   3.505   0.013  1.1532 -0.0584 -0.1659
 2706SOL    HW1 9559   0.985   3.525  -0.056  0.1084  0.1276  0.8416
 2706SOL    HW2 9560   1.080   3.590   0.043 -0.3162 -0.0208  1.3512
 2707SOL     OW 9561   1.504   1.689  12.045 -0.4275  0.0419 -0.1495
 2707SOL    HW1 9562   1.428   1.711  12.099 -0.9866 -3.4927  0.7362
 2707SOL    HW2 9563   1.479   1.717  11.956 -2.6039 -0.6122  0.1980
 2708SOL     OW 9564   0.419   2.441   0.483 -0.2718 -0.1783  0.2153
 2708SOL    HW1 9565   0.380   2.358   0.510 -0.8031 -0.8154 -2.2793
 2708SOL    HW2 9566   0.345   2.495   0.457  0.0876  1.0568  1.6397
 2709SOL     OW 9567   2.981   2.480   0.292  0.0245  0.7968  0.4131
 2709SOL    HW1 9568   3.056   2.481   0.231  0.0422 -1.0263  0.3437
 2709SOL    HW2 9569   2.904   2.482   0.235  0.0273  0.7243  0.4075
 2710SOL     OW 9570   1.473   4.607  11.904 -0.3672  0.8019  0.1770
 2710SOL    HW1 9571   1.562   4.641  11.910 -0.4144  0.7641  1.5726
 2710SOL    HW2 9572   1.432   4.657  11.834 -0.0524  2.7616  1.3192
 2711SOL     OW 9573   1.753   4.064   9.067 -0.2117  0.2060 -0.0852
 2711SOL    HW1 9574   1.758   4.111   8.984 -2.3354  0.9374  0.1338
 2711SOL    HW2 9575   1.813   4.113   9.125  2.0399 -0.8881 -1.3543
 2712SOL     OW 9576   3.276   3.261  10.909  0.1422 -0.5417 -0.2787
 2712SOL    HW1 9577   3.306   3.351  10.923 -0.5934 -0.1494 -1.0495
 2712SOL    HW2 9578   3.306   3.240  10.820 -0.5590 -0.6736 -0.4910
 2713SOL     OW 9579   2.475   2.143   9.299  0.0454  0.1163  0.2735
 2713SOL    HW1 9580   2.416   2.218   9.289  1.0392  1.1320  1.8017
 2713SOL    HW2 9581   2.437   2.092   9.371  1.3436  1.1351  1.7286
 2714SOL     OW 9582   0.518   1.708   0.937 -0.1776  0.5617 -0.6424
 2714SOL    HW1 9583   0.536   1.760   0.859  0.2810  0.4387 -0.6206
 2714SOL    HW2 9584   0.481   1.770   1.000 -0.8471  0.5968 -1.0633
 2715SOL     OW 9585   2.742   4.270   0.277 -0.2236 -0.5901  0.5685
 2715SOL    HW1 9586   2.805   4.226   0.220  0.5184 -0.8781  1.5895
 2715SOL    HW2 9587   2.657   4.235   0.250  0.1611 -1.0854 -0.0256
 2716SOL     OW 9588   0.941   2.173  11.500 -0.1194  0.4263 -1.0153
 2716SOL    HW1 9589   0.984   2.087  11.506  0.9516  1.0607  1.4050
 2716SOL    HW2 9590   0.913   2.193  11.589 -1.5877  2.0200 -1.7725
 2717SOL     OW 9591   1.741   2.899  11.468 -0.0042  0.7631  0.4263
 2717SOL    HW1 9592   1.673   2.959  11.438  0.4454  1.2449  0.3584
 2717SOL    HW2 9593   1.822   2.949  11.461  0.4068  0.0734  0.1526
 2718SOL     OW 9594   7.390   0.506  11.084 -0.0362  0.3026  0.3443
 2718SOL    HW1 9595   7.356   0.519  10.995 -0.7144  1.4240  0.7393
 2718SOL    HW2 9596   7.346   0.427  11.115 -0.0819  0.1159 -0.1720
 2719SOL     OW 9597   1.901   2.433  12.219 -0.2584 -0.0083  0.9327
 2719SOL    HW1 9598   1.984   2.388  12.233 -0.6447 -0.3556  2.2299
 2719SOL    HW2 9599   1.885   2.480  12.301 -2.2617 -1.4978  1.4787
 2720SOL     OW 9600   2.870   3.222  10.442  0.0874  0.4827  0.4724
 2720SOL    HW1 9601   2.851   3.150  10.381 -0.8492  1.1749 -0.0788
 2720SOL    HW2 9602   2.795   3.223  10.501  0.1047  1.0016  0.4820
 2721SOL     OW 9603   1.722   3.333   0.120  0.0429 -0.1297  0.6385
 2721SOL    HW1 9604   1.751   3.328   0.029  2.9222  1.4370  1.3357
 2721SOL    HW2 9605   1.639   3.285   0.122  1.4029 -2.9303 -2.1225
 2722SOL     OW 9606   2.330   3.496   0.731 -0.7570  0.2372  0.2991
 2722SOL    HW1 9607   2.352   3.587   0.747 -0.2317 -0.2329  2.5464
 2722SOL    HW2 9608   2.406   3.462   0.683  0.8129  0.1443  2.6717
 2723SOL     OW 9609   1.588   1.174  11.193 -0.2904  0.6293 -0.4059
 2723SOL    HW1 9610   1.503   1.142  11.224  0.8427 -1.3722  0.9073
 2723SOL    HW2 9611   1.623   1.225  11.266  0.1242  0.4463 -0.4729
 2724SOL     OW 9612   0.323   2.210  12.317 -0.2199  0.2727  0.1212
 2724SOL    HW1 9613   0.405   2.253  12.343  0.6799 -1.1722 -0.2204
 2724SOL    HW2 9614   0.314   2.137  12.378 -1.3972  0.5396  0.2993
 2725SOL     OW 9615   7.657   2.117  10.299  0.0796 -0.4749 -0.3802
 2725SOL    HW1 9616   7.563   2.098  10.306 -0.1272  0.4102 -0.5631
 2725SOL    HW2 9617   7.699   2.032  10.302 -0.6754 -0.8364  0.5803
 2726SOL     OW 9618   0.471   1.260  11.566  0.2521 -0.1331 -0.1828
 2726SOL    HW1 9619   0.484   1.341  11.615  0.9139  0.1703 -0.8365
 2726SOL    HW2 9620   0.489   1.284  11.475  1.7595 -1.2966 -0.2387
 2727SOL     OW 9621   1.785   0.857  11.533  0.2643  0.3329 -0.1551
 2727SOL    HW1 9622   1.702   0.825  11.568  1.0859 -0.6580  1.0094
 2727SOL    HW2 9623   1.794   0.945  11.569  0.0448  0.1608  0.3404
 2728SOL     OW 9624   0.948   1.708  11.366  0.1011  0.6795  0.5435
 2728SOL    HW1 9625   0.929   1.706  11.272 -1.0063  0.9941  0.7435
 2728SOL    HW2 9626   1.043   1.695  11.372  0.0130 -0.7023 -0.5403
 2729SOL     OW 9627   1.266   2.952  10.654 -0.4460 -0.2496 -0.1300
 2729SOL    HW1 9628   1.291   2.990  10.738  0.5187  0.1194 -0.5699
 2729SOL    HW2 9629   1.188   3.000  10.628 -1.1872 -0.8637  0.8899
 2730SOL     OW 9630   0.852   2.266   0.016  0.1863 -0.2577 -0.1577
 2730SOL    HW1 9631   0.885   2.293  -0.069  1.7494 -1.6629 -0.0349
 2730SOL    HW2 9632   0.890   2.329   0.078  0.1765 -0.0738 -0.3375
 2731SOL     OW 9633   1.276   3.134  10.881 -0.0229  0.1515 -0.0713
 2731SOL    HW1 9634   1.299   3.103  10.968  0.3790 -0.6811 -0.4596
 2731SOL    HW2 9635   1.186   3.167  10.890 -0.7638 -1.8237  0.2235
 2732SOL     OW 9636   3.528   2.812  10.907 -0.7449  0.3669 -0.5030
 2732SOL    HW1 9637   3.486   2.741  10.860 -1.4537  0.5845 -0.2098
 2732SOL    HW2 9638   3.467   2.886  10.900 -0.7993  0.4481  0.6164
 2733SOL     OW 9639   0.373   2.142   0.325  0.0988  0.1442 -0.2230
 2733SOL    HW1 9640   0.307   2.120   0.260 -0.0027  1.8171 -0.7310
 2733SOL    HW2 9641   0.323   2.170   0.402  0.2248 -1.1494  0.3587
 2734SOL     OW 9642   1.458   2.160  10.918 -0.1943  0.6689  0.0170
 2734SOL    HW1 9643   1.539   2.202  10.948  0.3126  0.1117 -0.5324
 2734SOL    HW2 9644   1.475   2.066  10.927 -0.1736  0.4908 -1.5887
 2735SOL     OW 9645   3.312   2.616  11.682  0.8244  0.2412  0.1441
 2735SOL    HW1 9646   3.305   2.711  11.676  0.3936  0.2511  0.7212
 2735SOL    HW2 9647   3.392   2.600  11.732 -0.1871  0.3629  1.8720
 2736SOL     OW 9648   1.579   2.151   1.650  0.7191  0.1097  0.1393
 2736SOL    HW1 9649   1.524   2.127   1.575  2.0489  2.4394 -1.6942
 2736SOL    HW2 9650   1.665   2.114   1.629  0.7938 -0.3505  1.2008
 2737SOL     OW 9651   1.039   1.414  10.076  0.0791  0.4810 -0.4818
 2737SOL    HW1 9652   1.000   1.435   9.991 -0.0837 -0.0324 -0.5358
 2737SOL    HW2 9653   1.067   1.499  10.111 -0.0180  0.7168 -0.9658
 2738SOL     OW 9654   7.821   2.016  11.647 -0.1071  0.0710  0.3045
 2738SOL    HW1 9655   7.806   2.053  11.560  1.5929 -0.4033 -0.2401
 2738SOL    HW2 9656   7.828   2.093  11.704  0.1685  0.4591 -0.2382
 2739SOL     OW 9657   7.982   7.889  12.228  0.7431 -0.2303 -0.3179
 2739SOL    HW1 9658   7.929   7.864  12.304  0.6516 -1.3810 -0.7383
 2739SOL    HW2 9659   7.983   7.985  12.230  1.3807 -0.2269  1.5737
 2740SOL     OW 9660   0.215   1.941  10.554  0.2993  0.1134 -0.5906
 2740SOL    HW1 9661   0.232   1.852  10.584  0.5473  0.4345  0.2281
 2740SOL    HW2 9662   0.298   1.971  10.517  0.1589 -0.0667 -1.0561
 2741SOL     OW 9663   0.570   4.080   1.055 -0.3644 -0.1651 -0.0416
 2741SOL    HW1 9664   0.482   4.099   1.087 -0.7362  0.5133 -1.3817
 2741SOL    HW2 9665   0.587   3.990   1.082 -1.1615 -0.0491  0.8914
 2742SOL     OW 9666   0.893   4.249   0.318 -0.1989  1.1172 -0.1748
 2742SOL    HW1 9667   0.894   4.280   0.409 -0.0084 -0.2713  0.3144
 2742SOL    HW2 9668   0.967   4.189   0.313 -0.9651  0.2097 -0.8945
 2743SOL     OW 9669   1.998   0.293   0.749 -0.2090 -0.2867  0.4264
 2743SOL    HW1 9670   1.946   0.373   0.745  0.8639  0.4379  0.3682
 2743SOL    HW2 9671   1.940   0.224   0.718 -0.8001  0.6630 -0.6153
 2744SOL     OW 9672   1.119   2.678   1.335 -0.1616  0.0494 -0.0638
 2744SOL    HW1 9673   1.125   2.648   1.244  0.9605  0.0516 -0.0015
 2744SOL    HW2 9674   1.203   2.653   1.374 -0.6380  0.0446  0.9763
 2745SOL     OW 9675   1.863   3.525  11.310 -0.0804  0.4945  0.0995
 2745SOL    HW1 9676   1.864   3.551  11.402  1.0896 -0.1319  0.2763
 2745SOL    HW2 9677   1.818   3.441  11.309 -0.8282  0.8779 -0.0332
 2746SOL     OW 9678   0.961   1.303   0.605 -0.1832 -0.1969 -0.3077
 2746SOL    HW1 9679   0.924   1.215   0.612 -1.1944  0.3348  1.5914
 2746SOL    HW2 9680   0.905   1.358   0.659  0.9184  1.4853 -0.7754
 2747SOL     OW 9681   1.084   1.672  12.425  0.2799  0.2609  0.1912
 2747SOL    HW1 9682   1.124   1.659  12.511  0.0516 -0.5745  0.1839
 2747SOL    HW2 9683   0.989   1.672  12.443  0.2074 -0.5821 -0.1271
 2748SOL     OW 9684   1.597   3.852  12.498 -0.2461  0.3482  0.4448
 2748SOL    HW1 9685   1.572   3.910  12.426  1.4656 -0.9488 -1.2980
 2748SOL    HW2 9686   1.632   3.911  12.564  0.7320  1.4054 -0.9525
 2749SOL     OW 9687   2.218   2.062   1.144  0.4090  0.1292  0.2501
 2749SOL    HW1 9688   2.267   2.106   1.214 -0.7367 -0.2212  1.2847
 2749SOL    HW2 9689   2.171   1.991   1.187 -2.2379  1.3599 -0.3827
 2750SOL     OW 9690   2.664   1.741  10.354 -0.1295  0.3499 -0.2095
 2750SOL    HW1 9691   2.622   1.820  10.320  0.3763 -0.0635 -1.8531
 2750SOL    HW2 9692   2.668   1.681  10.280  0.8358 -0.6785  0.6322
 2751SOL     OW 9693   2.062   4.630  10.742 -0.3522 -0.6699 -0.0127
 2751SOL    HW1 9694   2.067   4.583  10.825  0.2981 -0.2288  0.2078
 2751SOL    HW2 9695   1.996   4.697  10.756 -0.1076 -0.4750  0.2169
 2752SOL     OW 9696   2.062   3.468  11.844 -0.2311 -0.2691  0.2862
 2752SOL    HW1 9697   2.013   3.387  11.832 -0.4136 -0.0102 -0.8310
 2752SOL    HW2 9698   2.152   3.446  11.823 -0.4214  0.0042 -0.8558
 2753SOL     OW 9699   1.482   4.358   0.533  0.2888  0.0538  0.2200
 2753SOL    HW1 9700   1.568   4.399   0.547 -0.0975  1.1424 -0.4538
 2753SOL    HW2 9701   1.424   4.402   0.594 -0.2210  0.8523 -0.8049
 2754SOL     OW 9702   1.266   2.789  11.238  0.1563 -0.1298 -0.6078
 2754SOL    HW1 9703   1.316   2.751  11.166  2.7673 -0.6270  1.3009
 2754SOL    HW2 9704   1.301   2.877  11.248 -0.5682  0.1320 -0.2975
 2755SOL     OW 9705   3.139   3.456  11.136  0.1804 -0.8525  0.2344
 2755SOL    HW1 9706   3.181   3.532  11.097  1.7772 -2.5751 -1.5943
 2755SOL    HW2 9707   3.118   3.484  11.225 -0.6215  2.1579 -0.7815
 2756SOL     OW 9708   2.206   3.187  11.268 -0.1684  0.3712  0.5218
 2756SOL    HW1 9709   2.125   3.205  11.220  0.0485  0.0757  0.0437
 2756SOL    HW2 9710   2.265   3.149  11.203  0.5986  1.2341  0.7022
 2757SOL     OW 9711   0.088   4.642   9.727 -0.1610  1.0081  0.2030
 2757SOL    HW1 9712   0.086   4.736   9.744  0.6268  0.8200  1.4645
 2757SOL    HW2 9713   0.154   4.631   9.658 -0.6816  1.4146 -0.3769
 2758SOL     OW 9714   1.353   2.650  12.352  0.2879 -0.0101 -0.0636
 2758SOL    HW1 9715   1.322   2.721  12.408  2.6069  0.0333  1.2925
 2758SOL    HW2 9716   1.318   2.671  12.266  1.4414  3.2399  0.1137
 2759SOL     OW 9717   1.752   1.820  11.847 -0.3079  0.2475  0.1185
 2759SOL    HW1 9718   1.825   1.853  11.898 -0.7224  1.8345 -0.2524
 2759SOL    HW2 9719   1.767   1.726  11.840 -0.7031 -0.2573  3.9291
 2760SOL     OW 9720   1.022   2.641  10.226 -0.9546 -0.1943  0.4951
 2760SOL    HW1 9721   1.042   2.575  10.292  0.2055 -1.3360 -0.9191
 2760SOL    HW2 9722   1.064   2.721  10.258 -0.6041 -0.6685  1.2442
 2761SOL     OW 9723   1.548   3.012  11.024  0.0447 -0.3227 -0.3780
 2761SOL    HW1 9724   1.481   3.049  11.082  0.3660 -0.9409  0.3988
 2761SOL    HW2 9725   1.606   3.086  11.004  0.2032 -0.2036  0.4874
 2762SOL     OW 9726   1.808   2.880   1.380  0.4961  0.0117 -0.1420
 2762SOL    HW1 9727   1.841   2.933   1.453 -0.8735  1.3714 -0.4561
 2762SOL    HW2 9728   1.727   2.841   1.414  0.2650  0.0224 -0.6658
 2763SOL     OW 9729   2.887   2.504  11.617 -0.1440 -0.1926  0.2812
 2763SOL    HW1 9730   2.947   2.568  11.655 -0.1898  0.6993 -1.0816
 2763SOL    HW2 9731   2.811   2.506  11.675 -0.0243  0.7980  0.4285
 2764SOL     OW 9732   1.482   2.866  11.829  0.2061 -0.1807  0.6283
 2764SOL    HW1 9733   1.420   2.894  11.896  0.6391  0.3580  0.8129
 2764SOL    HW2 9734   1.524   2.947  11.801 -0.5421 -0.2896 -0.8822
 2765SOL     OW 9735   2.801   1.771   0.264  0.1122  0.6623 -0.0608
 2765SOL    HW1 9736   2.772   1.774   0.173 -0.6832  0.1375  0.1646
 2765SOL    HW2 9737   2.777   1.857   0.299 -1.9227 -0.0020  0.3142
 2766SOL     OW 9738   6.955   3.905  11.573  0.4948  0.5968 -0.1386
 2766SOL    HW1 9739   6.932   3.988  11.614 -2.1848  0.0537 -0.3932
 2766SOL    HW2 9740   6.947   3.923  11.479  2.4759  0.6917 -0.3373
 2767SOL     OW 9741   1.014   1.588  11.843 -0.2803  0.3602 -0.1221
 2767SOL    HW1 9742   0.990   1.576  11.935 -0.6560  0.1813 -0.2424
 2767SOL    HW2 9743   0.930   1.602  11.798 -0.3719 -2.1467 -0.8441
 2768SOL     OW 9744   1.024   3.526  10.480 -0.2352  0.2862  1.3403
 2768SOL    HW1 9745   1.118   3.537  10.492 -0.0575  0.6370 -0.1458
 2768SOL    HW2 9746   0.986   3.607  10.514  0.2377  1.2579 -0.3484
 2769SOL     OW 9747   7.144   3.674  10.411  0.2767  0.2022  0.5006
 2769SOL    HW1 9748   7.088   3.706  10.482 -0.3626  0.7650 -0.2414
 2769SOL    HW2 9749   7.099   3.596  10.378  0.0518  0.5181  0.0587
 2770SOL     OW 9750   1.212   1.402  10.878 -0.4932 -0.0883 -0.0447
 2770SOL    HW1 9751   1.192   1.463  10.807  0.7586 -0.0133 -0.3632
 2770SOL    HW2 9752   1.243   1.322  10.833  0.0161 -0.1482  0.3957
 2771SOL     OW 9753   1.147   3.886  10.211  0.1667  0.0820  0.4376
 2771SOL    HW1 9754   1.054   3.886  10.232 -0.2461  0.5713 -1.2097
 2771SOL    HW2 9755   1.185   3.950  10.270 -0.8354  1.0533  0.0741
 2772SOL     OW 9756   4.024   4.526   0.033 -0.0041  0.0382  0.0195
 2772SOL    HW1 9757   4.013   4.599  -0.028  0.5650  1.1730  1.2271
 2772SOL    HW2 9758   3.938   4.483   0.033 -0.0822  0.1249 -1.3851
 2773SOL     OW 9759   0.405   4.496   0.462 -0.0293  0.6445  0.0894
 2773SOL    HW1 9760   0.331   4.436   0.452  0.2306  0.3037  0.1805
 2773SOL    HW2 9761   0.441   4.475   0.548  0.9267 -0.0501 -0.4683
 2774SOL     OW 9762   2.827   1.355  10.280  0.3685 -0.0472  0.3658
 2774SOL    HW1 9763   2.738   1.380  10.308 -0.2951 -2.2396  0.4201
 2774SOL    HW2 9764   2.874   1.340  10.362  0.9128  1.3437  0.3432
 2775SOL     OW 9765   1.915   2.868  11.170  0.5725  0.9446 -0.2797
 2775SOL    HW1 9766   1.876   2.842  11.253 -1.0978  2.7742 -0.4302
 2775SOL    HW2 9767   1.884   2.804  11.107  3.2443 -1.5064  0.7001
 2776SOL     OW 9768   0.783   3.489   0.953  0.0292  0.0988 -0.1365
 2776SOL    HW1 9769   0.857   3.538   0.989  1.0148  0.6529 -2.6785
 2776SOL    HW2 9770   0.712   3.553   0.947  1.0394  1.1094 -2.6070
 2777SOL     OW 9771   0.265   3.325   0.182 -0.4389  0.0047  0.0527
 2777SOL    HW1 9772   0.262   3.246   0.128  1.8107  1.2450 -2.1347
 2777SOL    HW2 9773   0.199   3.383   0.143  0.0587  0.3059 -0.3571
 2778SOL     OW 9774   0.128   2.776   0.688 -0.0526  0.2780 -0.1475
 2778SOL    HW1 9775   0.091   2.715   0.751 -0.5473  1.9021  1.2009
 2778SOL    HW2 9776   0.145   2.722   0.610  0.0937 -1.6734  1.1577
 2779SOL     OW 9777   1.383   3.427  12.434 -0.1115  0.8595 -0.3373
 2779SOL    HW1 9778   1.355   3.469  12.515  2.2913  0.3445  0.8478
 2779SOL    HW2 9779   1.402   3.499  12.375  0.9373  1.3897  0.6013
 2780SOL     OW 9780   1.233   3.149   1.343 -0.0139  0.0929  0.0200
 2780SOL    HW1 9781   1.299   3.182   1.282  0.2686  0.2128  0.3844
 2780SOL    HW2 9782   1.203   3.067   1.304  0.2576  0.1040 -0.2151
 2781SOL     OW 9783   3.829   2.862  10.923 -0.2302 -0.1937 -1.3099
 2781SOL    HW1 9784   3.749   2.811  10.913 -1.9869  1.4125  2.5308
 2781SOL    HW2 9785   3.803   2.952  10.903  0.1743  0.5299  1.0613
 2782SOL     OW 9786   6.374   2.072  10.559  0.6157  0.0919  0.5637
 2782SOL    HW1 9787   6.439   2.094  10.626  0.1511 -2.5803  2.0327
 2782SOL    HW2 9788   6.403   2.119  10.481  5.0571 -1.8251  0.7681
 2783SOL     OW 9789   2.052   1.834   1.148  0.2215  0.0935 -0.2267
 2783SOL    HW1 9790   1.972   1.806   1.103  0.1195 -1.8355  0.9919
 2783SOL    HW2 9791   2.121   1.779   1.111  0.5707  0.2127  0.2348
 2784SOL     OW 9792   1.448   1.712  11.738  0.6797  0.1124  0.3771
 2784SOL    HW1 9793   1.515   1.763  11.693  1.4679 -0.4820  0.8429
 2784SOL    HW2 9794   1.458   1.623  11.703 -0.1658  0.1087  0.1301
 2785SOL     OW 9795   1.913   3.633   0.441  0.1116 -0.1778 -0.6743
 2785SOL    HW1 9796   1.945   3.582   0.367  0.0931 -1.4417  0.1380
 2785SOL    HW2 9797   1.921   3.724   0.414  0.2055 -0.6052 -2.1717
 2786SOL     OW 9798   1.416   3.208  11.600 -0.0542  0.5125 -0.5741
 2786SOL    HW1 9799   1.349   3.211  11.669  0.3720  1.2963 -0.1938
 2786SOL    HW2 9800   1.497   3.190  11.646  0.3406  1.6835 -0.7856
 2787SOL     OW 9801   0.776   1.404   0.780  0.3135  0.2574 -0.2631
 2787SOL    HW1 9802   0.687   1.408   0.745  0.2353  1.0908  0.0040
 2787SOL    HW2 9803   0.800   1.496   0.794  0.9164  0.0025  0.4126
 2788SOL     OW 9804   1.982   6.030  11.967 -0.2552 -0.2212  0.1067
 2788SOL    HW1 9805   1.935   6.061  11.890  0.5784  1.3297  0.1858
 2788SOL    HW2 9806   1.980   6.105  12.027  4.1514  0.8154 -0.7246
 2789SOL     OW 9807   0.381   1.383  11.014  0.4537  0.2697  0.0963
 2789SOL    HW1 9808   0.386   1.287  11.012  1.6387  0.3138  0.2370
 2789SOL    HW2 9809   0.429   1.407  11.094 -1.1610  0.9172  0.9097
 2790SOL     OW 9810   0.587   1.667  11.100  0.0180  0.2399 -0.4866
 2790SOL    HW1 9811   0.644   1.642  11.027 -0.6909  0.3321 -1.0793
 2790SOL    HW2 9812   0.564   1.584  11.143  0.8485  0.2275 -0.0412
 2791SOL     OW 9813   1.378   2.129  11.194 -0.1080 -0.2535 -0.1418
 2791SOL    HW1 9814   1.409   2.219  11.186 -2.0253  0.3940 -0.8638
 2791SOL    HW2 9815   1.458   2.076  11.188  1.0139  1.3512 -0.2033
 2792SOL     OW 9816   3.256   2.539  12.135  0.3545  0.7460  0.0072
 2792SOL    HW1 9817   3.190   2.597  12.096 -0.3461 -0.6821 -1.0116
 2792SOL    HW2 9818   3.214   2.453  12.137  2.1407 -0.1823 -0.5698
 2793SOL     OW 9819   0.954   4.675   0.707  0.2269 -0.0185 -0.2058
 2793SOL    HW1 9820   0.972   4.767   0.687  0.2668 -0.1096 -0.5788
 2793SOL    HW2 9821   0.931   4.676   0.800 -0.3187  0.4496 -0.3380
 2794SOL     OW 9822   0.798   3.391   0.672 -0.1883 -0.0774  0.0801
 2794SOL    HW1 9823   0.718   3.347   0.644 -0.5377  0.4595  0.2262
 2794SOL    HW2 9824   0.795   3.389   0.768 -0.2799  0.3960  0.0894
 2795SOL     OW 9825   7.781   4.581   1.295 -0.4033 -0.5233  0.7875
 2795SOL    HW1 9826   7.745   4.658   1.338  0.3081  0.5614 -0.4633
 2795SOL    HW2 9827   7.756   4.591   1.203  2.5116  0.0052 -0.0415
 2796SOL     OW 9828   1.167   4.401   2.343 -0.1395  0.1987  0.1476
 2796SOL    HW1 9829   1.139   4.426   2.431 -0.4048  1.4912 -0.2809
 2796SOL    HW2 9830   1.132   4.469   2.286  0.2402 -0.4803 -0.9391
 2797SOL     OW 9831   7.108   4.174   0.486  0.0299 -0.1605 -0.3852
 2797SOL    HW1 9832   7.167   4.099   0.481  1.5051  0.7388  1.7481
 2797SOL    HW2 9833   7.166   4.250   0.481 -1.2667  0.8247 -1.0290
 2798SOL     OW 9834   0.439   4.956   0.884 -0.0211  0.0567 -0.0521
 2798SOL    HW1 9835   0.411   4.867   0.905  0.9131  0.0750  1.4053
 2798SOL    HW2 9836   0.442   5.001   0.968  0.1184  1.3068 -0.6949
 2799SOL     OW 9837   1.250   5.060  11.834  0.2424 -0.9671 -0.1244
 2799SOL    HW1 9838   1.231   5.152  11.851 -0.6521 -1.3256  0.9613
 2799SOL    HW2 9839   1.177   5.029  11.781  0.4034 -1.1034 -0.2653
 2800SOL     OW 9840   1.632   2.743   0.792 -0.5906  0.6627 -0.5843
 2800SOL    HW1 9841   1.656   2.825   0.749  2.3974 -0.7008 -1.8038
 2800SOL    HW2 9842   1.571   2.701   0.731 -2.3831  2.0347  0.1950
 2801SOL     OW 9843   3.372   4.122  12.184  0.1187  0.0208  0.1739
 2801SOL    HW1 9844   3.324   4.205  12.190  0.0961  0.2019 -1.9280
 2801SOL    HW2 9845   3.314   4.064  12.136 -0.0352 -1.4127  1.9708
 2802SOL     OW 9846   1.910   5.248   0.523  0.4425 -0.0206  0.2062
 2802SOL    HW1 9847   1.869   5.320   0.474  1.3926  0.4600  0.0957
 2802SOL    HW2 9848   2.001   5.248   0.494  0.2993 -1.7598 -0.3402
 2803SOL     OW 9849   7.805   3.827   1.458 -0.0961 -0.0339 -0.4163
 2803SOL    HW1 9850   7.894   3.839   1.426  0.4276  2.4321  1.6895
 2803SOL    HW2 9851   7.804   3.865   1.545 -1.8985 -4.7174  2.0101
 2804SOL     OW 9852   1.204   6.451   1.506  0.8090 -0.0987  0.0969
 2804SOL    HW1 9853   1.121   6.497   1.519  0.3583 -0.3446 -1.6762
 2804SOL    HW2 9854   1.191   6.400   1.426  2.3320 -0.9426  0.3565
 2805SOL     OW 9855   1.924   4.802   2.151  0.2152 -0.0287 -0.7263
 2805SOL    HW1 9856   2.010   4.769   2.124 -0.1486 -0.9577 -0.7899
 2805SOL    HW2 9857   1.875   4.723   2.174 -0.9472  0.4007 -1.6354
 2806SOL     OW 9858   7.955   4.065   1.146  0.3890  0.5877 -0.6261
 2806SOL    HW1 9859   7.908   4.147   1.128 -0.5152  0.5357  1.2514
 2806SOL    HW2 9860   8.046   4.083   1.121 -0.0509  1.6918 -1.5135
 2807SOL     OW 9861   2.511   6.435   1.355  0.1281 -0.4269  0.2038
 2807SOL    HW1 9862   2.560   6.459   1.433 -0.1754  0.5706  0.1028
 2807SOL    HW2 9863   2.555   6.480   1.283 -0.0605 -0.7015 -0.0897
 2808SOL     OW 9864   0.200   4.301   0.437 -0.7566  0.0996  0.4772
 2808SOL    HW1 9865   0.134   4.244   0.477 -0.2449 -1.1393 -0.3633
 2808SOL    HW2 9866   0.185   4.292   0.343 -1.0615  1.8877  0.3298
 2809SOL     OW 9867   1.156   4.205   0.048  0.1457 -0.1114  0.2699
 2809SOL    HW1 9868   1.070   4.173   0.021 -0.1582  1.1639 -0.3675
 2809SOL    HW2 9869   1.178   4.154   0.126 -1.8992  0.6191  1.3880
 2810SOL     OW 9870   6.760   4.396   0.945 -0.0479  0.0609 -0.4894
 2810SOL    HW1 9871   6.776   4.464   0.880 -2.6878  0.1492 -1.1842
 2810SOL    HW2 9872   6.720   4.324   0.896 -2.4252  0.2493  0.9933
 2811SOL     OW 9873   0.963   4.653   0.051 -0.1471 -0.2986 -0.2193
 2811SOL    HW1 9874   1.055   4.655   0.078 -0.3995 -3.0344  1.1872
 2811SOL    HW2 9875   0.965   4.611  -0.035 -0.0494  0.2525 -0.4909
 2812SOL     OW 9876   3.227   4.371  12.144  0.1643 -0.1194 -0.3507
 2812SOL    HW1 9877   3.190   4.353  12.230  0.5262 -0.7315 -0.3113
 2812SOL    HW2 9878   3.269   4.457  12.152 -0.2159  0.0377 -0.0564
 2813SOL     OW 9879   1.796   4.522   0.028 -0.4218 -0.7066 -0.0909
 2813SOL    HW1 9880   1.861   4.477   0.080  0.5489  1.3761  0.6281
 2813SOL    HW2 9881   1.829   4.517  -0.062 -0.5616 -1.7524 -0.0927
 2814SOL     OW 9882   0.656   5.860   1.688  0.2602  0.2428  0.2252
 2814SOL    HW1 9883   0.562   5.842   1.681 -0.2065  0.7654  3.5442
 2814SOL    HW2 9884   0.675   5.918   1.614 -1.4590 -1.6362 -1.8419
 2815SOL     OW 9885   1.726   4.433   0.665 -0.4117 -0.4129  0.1821
 2815SOL    HW1 9886   1.757   4.428   0.755  0.2635 -1.2781 -0.0769
 2815SOL    HW2 9887   1.741   4.524   0.638 -0.9754 -0.0521  1.0480
 2816SOL     OW 9888   6.871   2.291  11.556 -0.1986 -0.5685  0.2441
 2816SOL    HW1 9889   6.803   2.225  11.571 -0.1445 -0.4914  0.8441
 2816SOL    HW2 9890   6.915   2.262  11.476 -1.5186 -0.1294 -0.6735
 2817SOL     OW 9891   0.163   3.157   0.997 -0.2119  0.1929 -0.5918
 2817SOL    HW1 9892   0.244   3.205   1.018 -0.3926 -0.4211  1.7283
 2817SOL    HW2 9893   0.181   3.116   0.912  1.1071  1.7730 -1.1283
 2818SOL     OW 9894   2.131   5.411   1.245  0.2334  0.0526 -0.4490
 2818SOL    HW1 9895   2.155   5.351   1.316 -0.0136 -0.0876 -0.4817
 2818SOL    HW2 9896   2.055   5.459   1.280  0.1750  0.0560 -0.5787
 2819SOL     OW 9897   0.191   5.102   0.927  0.6905  0.4431 -0.5641
 2819SOL    HW1 9898   0.250   5.177   0.939  0.2500  1.0248 -1.8305
 2819SOL    HW2 9899   0.250   5.026   0.926  1.1879  0.8033  0.3192
 2820SOL     OW 9900   3.270   5.583   0.453  0.3998 -0.3276  0.1482
 2820SOL    HW1 9901   3.200   5.642   0.482 -0.8891 -0.8487 -1.7735
 2820SOL    HW2 9902   3.335   5.588   0.523 -0.1045  2.6096  0.5260
 2821SOL     OW 9903   0.442   5.318   1.569  0.0991  0.9979 -0.0457
 2821SOL    HW1 9904   0.457   5.404   1.531 -0.7615  1.4641  0.6147
 2821SOL    HW2 9905   0.373   5.279   1.515  1.0794  0.3622 -0.8608
 2822SOL     OW 9906   7.640   5.119   1.195 -0.0842  0.2110  0.5252
 2822SOL    HW1 9907   7.643   5.158   1.108  0.0899 -0.1387  0.3688
 2822SOL    HW2 9908   7.662   5.027   1.180 -2.5922 -0.4860  0.5632
 2823SOL     OW 9909   1.655   5.286   2.077 -0.6059  0.4260  0.3619
 2823SOL    HW1 9910   1.561   5.300   2.086 -1.1080 -1.2524 -1.6389
 2823SOL    HW2 9911   1.676   5.316   1.989 -0.0997 -2.7720 -0.7406
 2824SOL     OW 9912   7.350   2.698  11.922 -0.6742  0.2502 -0.2037
 2824SOL    HW1 9913   7.422   2.652  11.964  1.7039  1.0619 -3.0374
 2824SOL    HW2 9914   7.333   2.773  11.979  0.8100  0.0909  0.5010
 2825SOL     OW 9915   1.464   5.160   1.749 -0.1178  0.2648 -0.1706
 2825SOL    HW1 9916   1.488   5.177   1.658 -0.5123 -0.7023 -0.4603
 2825SOL    HW2 9917   1.399   5.227   1.769 -0.8149 -0.1718 -0.9347
 2826SOL     OW 9918   2.778   5.745   0.968 -0.3544 -0.0745  0.1374
 2826SOL    HW1 9919   2.761   5.651   0.960  0.3198 -0.0422 -2.1861
 2826SOL    HW2 9920   2.873   5.753   0.958  0.0240  0.6755  3.1327
 2827SOL     OW 9921   0.456   5.071   2.861 -0.4033  0.6441  0.4376
 2827SOL    HW1 9922   0.424   5.154   2.826  0.5966  1.2139  0.7986
 2827SOL    HW2 9923   0.546   5.091   2.889  0.1722 -0.7945 -0.2872
 2828SOL     OW 9924   7.923   2.575   1.293  0.0815  0.1649 -0.7385
 2828SOL    HW1 9925   7.853   2.550   1.233 -0.0250  1.8506 -1.3720
 2828SOL    HW2 9926   7.911   2.669   1.306  2.1710  0.4893 -0.8128
 2829SOL     OW 9927   0.318   5.208  12.168  0.0886 -0.7351  0.4037
 2829SOL    HW1 9928   0.311   5.263  12.246 -0.1841 -0.1654 -0.0185
 2829SOL    HW2 9929   0.402   5.233  12.129 -0.6244  0.3308 -0.4935
 2830SOL     OW 9930   2.802   4.956   2.509 -0.1041  0.1764 -0.3041
 2830SOL    HW1 9931   2.844   4.925   2.589 -0.8867 -1.6378 -0.5581
 2830SOL    HW2 9932   2.806   5.052   2.516  2.7793  0.0918  0.3224
 2831SOL     OW 9933   1.845   5.457   2.259 -0.7912 -0.5109 -0.0357
 2831SOL    HW1 9934   1.884   5.425   2.177 -0.4165  1.0319 -0.5099
 2831SOL    HW2 9935   1.910   5.437   2.326 -0.6035 -0.8013 -0.3015
 2832SOL     OW 9936   0.442   7.737   1.566  0.3834 -0.1003 -0.2440
 2832SOL    HW1 9937   0.417   7.821   1.528  1.1155  0.0536 -0.3893
 2832SOL    HW2 9938   0.515   7.758   1.624 -0.6269 -0.3481  1.1632
 2833SOL     OW 9939   1.609   4.071   0.970 -0.3947 -0.2628 -0.2462
 2833SOL    HW1 9940   1.681   4.124   0.936 -1.0903  0.2749 -0.9161
 2833SOL    HW2 9941   1.538   4.134   0.985 -2.3122 -1.2514 -3.9031
 2834SOL     OW 9942   1.688   6.297   1.635 -0.6801  0.4558  0.4682
 2834SOL    HW1 9943   1.698   6.201   1.632 -0.8128  0.3890  1.5144
 2834SOL    HW2 9944   1.632   6.318   1.561  2.1627  0.1444 -1.9197
 2835SOL     OW 9945   3.073   3.349   0.558  0.0125  1.0807 -0.2604
 2835SOL    HW1 9946   2.981   3.375   0.553 -0.4928 -0.2001  1.3926
 2835SOL    HW2 9947   3.090   3.338   0.651  0.7354 -2.3505 -0.6659
 2836SOL     OW 9948   0.034   3.450  12.342 -0.1466  0.0389 -0.2014
 2836SOL    HW1 9949   0.049   3.365  12.383  1.3049  0.4497  0.1812
 2836SOL    HW2 9950   0.008   3.430  12.252 -1.6213 -0.8288  0.3733
 2837SOL     OW 9951   0.737   5.472   1.469  0.1567  0.1192 -0.1975
 2837SOL    HW1 9952   0.648   5.505   1.483 -0.4220 -0.4805 -2.1505
 2837SOL    HW2 9953   0.793   5.549   1.478 -0.4546  0.3990  1.6515
 2838SOL     OW 9954   7.069   6.720   1.334  0.3405  0.2787  0.1853
 2838SOL    HW1 9955   7.065   6.626   1.317 -0.7214  0.2891  0.3100
 2838SOL    HW2 9956   7.007   6.758   1.272 -0.4145  0.7328  1.1949
 2839SOL     OW 9957   0.609   4.403  10.689 -0.2324  0.1105  0.5142
 2839SOL    HW1 9958   0.680   4.460  10.659 -0.0821 -0.4137 -0.1395
 2839SOL    HW2 9959   0.624   4.395  10.784  1.5791 -1.3197  0.1652
 2840SOL     OW 9960   2.160   5.908   2.514  0.8889 -0.5470 -0.6410
 2840SOL    HW1 9961   2.139   5.927   2.605  0.5776 -1.3782 -0.5280
 2840SOL    HW2 9962   2.122   5.981   2.465  1.0501 -0.1012 -0.1116
 2841SOL     OW 9963   0.263   5.360  12.399 -0.1019  0.4409 -0.3002
 2841SOL    HW1 9964   0.299   5.294  12.459  0.4804  1.4715  0.5171
 2841SOL    HW2 9965   0.305   5.442  12.425 -2.1962  1.4975 -0.0775
 2842SOL     OW 9966   1.933   3.037   2.206  0.9395  0.0463  0.4314
 2842SOL    HW1 9967   1.846   3.032   2.165  1.2677 -2.7002 -0.1057
 2842SOL    HW2 9968   1.994   3.025   2.133  1.5871 -2.6645  1.3153
 2843SOL     OW 9969   0.747   6.354  12.020 -0.2568  0.5950  0.0042
 2843SOL    HW1 9970   0.842   6.347  12.012 -0.4303  0.2865 -3.1110
 2843SOL    HW2 9971   0.729   6.447  12.006 -0.4144  0.6930  0.8245
 2844SOL     OW 9972   0.027   6.065  12.284 -0.0472 -0.0403 -0.3760
 2844SOL    HW1 9973  -0.063   6.069  12.317 -0.5653  0.1246 -1.7203
 2844SOL    HW2 9974   0.018   6.030  12.195  0.8390  2.9695 -1.7969
 2845SOL     OW 9975   1.754   4.477  12.043  0.1370  0.7442 -0.1578
 2845SOL    HW1 9976   1.758   4.572  12.036 -0.1426  0.9662  2.0669
 2845SOL    HW2 9977   1.662   4.455  12.029 -0.0094  0.9304  0.4939
 2846SOL     OW 9978   2.590   6.481   1.639  0.2907 -0.8312  0.0717
 2846SOL    HW1 9979   2.505   6.521   1.657  1.3977  2.0845 -0.6362
 2846SOL    HW2 9980   2.599   6.413   1.706 -1.9034 -0.1399  1.1709
 2847SOL     OW 9981   1.174   4.289  12.131  0.7170  0.5295  0.2959
 2847SOL    HW1 9982   1.106   4.350  12.158  0.5520  1.4275 -1.9059
 2847SOL    HW2 9983   1.140   4.203  12.154 -0.3338  1.0782  0.8792
 2848SOL     OW 9984   1.822   4.212  12.061 -0.1123  0.2857 -0.2059
 2848SOL    HW1 9985   1.910   4.200  12.095 -0.4283  0.7372  0.7900
 2848SOL    HW2 9986   1.820   4.301  12.028  0.7268 -0.6533 -3.1095
 2849SOL     OW 9987   0.044   3.888   0.289  0.1390 -0.4912  0.2989
 2849SOL    HW1 9988   0.041   3.943   0.211  0.2056 -0.7532  0.1127
 2849SOL    HW2 9989   0.002   3.941   0.357  1.6957  0.5003  0.5507
 2850SOL     OW 9990   4.084   5.787   0.507  0.2431  0.0636  0.0887
 2850SOL    HW1 9991   4.145   5.854   0.538  1.8516 -1.4943  0.4795
 2850SOL    HW2 9992   3.997   5.826   0.517  1.1277  2.1804 -0.0024
 2851SOL     OW 9993   7.744   5.169   1.444  0.6543  0.0874 -0.7595
 2851SOL    HW1 9994   7.830   5.136   1.421  0.7140 -0.4533  0.1889
 2851SOL    HW2 9995   7.694   5.166   1.363  0.8167 -1.8410 -0.8318
 2852SOL     OW 9996   1.568   5.055   0.617  0.0079  0.1900 -0.4171
 2852SOL    HW1 9997   1.576   5.130   0.676  0.7072 -0.8649  0.9086
 2852SOL    HW2 9998   1.541   4.983   0.674  2.3042 -1.2629 -1.0242
 2853SOL     OW 9999   7.373   5.080   0.392 -0.7188 -0.3195  0.4582
 2853SOL    HW110000   7.322   5.147   0.438  0.4979  0.1504  1.1476
 2853SOL    HW210001   7.406   5.124   0.314 -0.9826 -0.4981  0.2427
 2854SOL     OW10002   0.844   3.648   0.643 -0.3156 -0.1080 -0.1707
 2854SOL    HW110003   0.819   3.556   0.636  0.9542 -0.6410  1.6291
 2854SOL    HW210004   0.916   3.649   0.706 -0.1327  2.0977 -0.3270
 2855SOL     OW10005   0.271   6.504   1.505  0.4211  0.3732  0.8000
 2855SOL    HW110006   0.194   6.504   1.562  0.3141  1.9327  0.6966
 2855SOL    HW210007   0.245   6.453   1.429 -0.4942  0.8280  0.8025
 2856SOL     OW10008   1.216   4.743   1.022  0.1316  0.0832 -0.0628
 2856SOL    HW110009   1.304   4.773   1.046  0.7045  0.1418 -2.0657
 2856SOL    HW210010   1.196   4.675   1.087  2.0859 -0.6540 -0.1626
 2857SOL     OW10011   1.268   3.842   0.261 -0.1395 -0.1944  0.5072
 2857SOL    HW110012   1.202   3.803   0.203 -1.4484 -0.7729  2.3250
 2857SOL    HW210013   1.231   3.927   0.285  0.4624  0.0976  0.4240
 2858SOL     OW10014   2.936   5.630   1.994  0.3999  0.6387  0.1059
 2858SOL    HW110015   2.970   5.542   2.009  0.7937  0.3975 -1.9307
 2858SOL    HW210016   2.877   5.621   1.919  1.0541  2.2249 -0.6593
 2859SOL     OW10017   1.315   3.235   1.042 -0.4984 -0.1505 -0.0845
 2859SOL    HW110018   1.271   3.168   0.990  1.0167 -1.2764  0.0179
 2859SOL    HW210019   1.253   3.308   1.044 -1.3070 -0.7236 -1.9905
 2860SOL     OW10020   1.729   3.607   1.133 -0.6989 -0.4702  0.1533
 2860SOL    HW110021   1.787   3.679   1.111 -0.2532 -0.9318 -0.2106
 2860SOL    HW210022   1.692   3.631   1.218  1.4628 -0.9900  1.3324
 2861SOL     OW10023   0.376   3.843   1.324 -0.2247  0.4057  0.1004
 2861SOL    HW110024   0.344   3.925   1.286 -1.3287  0.5393  1.2469
 2861SOL    HW210025   0.444   3.870   1.386 -0.4980  0.4494  0.3832
 2862SOL     OW10026   3.296   4.953   1.039 -0.1815 -0.0021 -0.0782
 2862SOL    HW110027   3.254   4.959   1.125  0.9768 -1.5263  0.6333
 2862SOL    HW210028   3.229   4.981   0.978 -0.6186  2.5206  1.3944
 2863SOL     OW10029   0.594   5.366   1.061  0.0553 -0.4534 -0.4018
 2863SOL    HW110030   0.529   5.423   1.102 -0.9498 -0.6034 -1.7340
 2863SOL    HW210031   0.678   5.394   1.099 -0.7790 -0.5245  1.6594
 2864SOL     OW10032   7.289   2.757   0.120  0.2777 -0.0397  0.1619
 2864SOL    HW110033   7.338   2.678   0.098 -0.6384 -0.9280  1.1465
 2864SOL    HW210034   7.356   2.824   0.134  1.2213 -1.1758  1.3396
 2865SOL     OW10035   0.227   4.754   0.927 -0.3391  0.6919  0.5218
 2865SOL    HW110036   0.162   4.805   0.879  0.2905  1.8246  0.8378
 2865SOL    HW210037   0.227   4.669   0.883 -0.4218  1.3960 -0.9310
 2866SOL     OW10038   1.476   3.670   1.020 -0.2514  0.2556  0.4805
 2866SOL    HW110039   1.455   3.705   1.107 -0.8573 -0.6501  0.7110
 2866SOL    HW210040   1.569   3.648   1.025  0.0611  1.5184  0.4336
 2867SOL     OW10041   7.665   3.204  11.392  0.0447  0.5148  0.2517
 2867SOL    HW110042   7.622   3.123  11.418  1.9259 -1.2233 -1.7269
 2867SOL    HW210043   7.624   3.271  11.446 -2.5796 -1.5153  0.9686
 2868SOL     OW10044   2.831   3.285  11.658  0.1322  0.2300 -0.2314
 2868SOL    HW110045   2.816   3.200  11.617  1.1688 -0.7825  1.3671
 2868SOL    HW210046   2.788   3.348  11.600 -3.7973 -1.6553  0.3206
 2869SOL     OW10047   2.339   5.350   1.878  0.5216  0.0570 -0.2093
 2869SOL    HW110048   2.416   5.303   1.845  0.1568 -1.2181  0.6821
 2869SOL    HW210049   2.270   5.330   1.814 -0.0294 -1.9286  0.9298
 2870SOL     OW10050   1.626   5.158   0.311  0.2789  0.2770  0.2903
 2870SOL    HW110051   1.577   5.240   0.307 -1.4030 -0.5458  2.3121
 2870SOL    HW210052   1.592   5.107   0.238 -1.6665 -0.1218  1.4205
 2871SOL     OW10053   7.634   3.899   1.245  0.2047 -0.6329 -0.1193
 2871SOL    HW110054   7.685   3.876   1.323  0.9727  0.5832 -0.2432
 2871SOL    HW210055   7.695   3.947   1.189 -0.9145  0.3722 -0.5296
 2872SOL     OW10056   2.520   5.116   1.501  0.1276 -0.1685  0.3660
 2872SOL    HW110057   2.571   5.109   1.420  0.5936 -0.2169  0.6630
 2872SOL    HW210058   2.471   5.034   1.505  0.5029 -0.3892  0.4045
 2873SOL     OW10059   7.462   3.393  10.954 -0.2448 -0.7636  0.1061
 2873SOL    HW110060   7.485   3.428  10.868 -0.2630 -0.0799  0.3691
 2873SOL    HW210061   7.418   3.466  10.998  1.4127 -0.4740  1.3749
 2874SOL     OW10062   1.196   4.754   2.565 -0.3895  0.1608 -0.0832
 2874SOL    HW110063   1.178   4.770   2.472 -0.1801  0.4215 -0.0795
 2874SOL    HW210064   1.291   4.752   2.572 -0.2909  2.9672  0.5618
 2875SOL     OW10065   0.196   2.220   1.749 -0.2007 -0.6139  0.7482
 2875SOL    HW110066   0.135   2.275   1.700  1.3817 -0.6657 -1.4132
 2875SOL    HW210067   0.245   2.281   1.804 -0.0493 -0.1352  0.0982
 2876SOL     OW10068   0.953   3.295  11.757 -0.0589  0.1375 -0.0046
 2876SOL    HW110069   1.042   3.304  11.789  0.6839 -2.2823 -1.1803
 2876SOL    HW210070   0.957   3.323  11.665  0.1072 -2.2276 -0.7813
 2877SOL     OW10071   0.488   3.212   0.313 -0.0709 -0.2459 -0.0952
 2877SOL    HW110072   0.536   3.175   0.239  1.8197  2.1859 -0.2147
 2877SOL    HW210073   0.418   3.264   0.272  0.7680  0.8240 -0.2244
 2878SOL     OW10074   0.037   4.999   0.014  0.2269  0.0230  0.3351
 2878SOL    HW110075  -0.005   4.916  -0.011 -0.4212  0.9557 -1.8997
 2878SOL    HW210076  -0.019   5.035   0.082 -2.9962  1.3537 -2.7226
 2879SOL     OW10077   2.745   5.579   2.398  0.0446  0.3148  0.2857
 2879SOL    HW110078   2.685   5.633   2.449 -0.9845 -0.5777  0.0617
 2879SOL    HW210079   2.717   5.489   2.416  0.7559 -0.0773 -0.5101
 2880SOL     OW10080   2.235   4.484   0.920  0.6152  0.1613 -0.2098
 2880SOL    HW110081   2.166   4.536   0.877  1.4188 -0.0663 -1.8602
 2880SOL    HW210082   2.199   4.462   1.006 -1.2598  0.2720 -0.9309
 2881SOL     OW10083   2.151   3.957   0.272 -0.5531  0.1738  0.6163
 2881SOL    HW110084   2.184   3.900   0.203 -0.5692  1.4771 -0.5081
 2881SOL    HW210085   2.228   3.982   0.323 -0.4401 -0.2380  0.6456
 2882SOL     OW10086   3.490   4.910   1.558 -0.5059  0.1163 -0.2401
 2882SOL    HW110087   3.430   4.872   1.622  0.2981 -0.4169  0.2162
 2882SOL    HW210088   3.569   4.931   1.608  0.6662 -1.5807 -1.2626
 2883SOL     OW10089   1.321   3.211  12.215  0.0628  0.3340 -0.8175
 2883SOL    HW110090   1.377   3.282  12.247 -0.3264  0.5091 -0.5186
 2883SOL    HW210091   1.238   3.222  12.262  0.2193 -0.7141 -0.2731
 2884SOL     OW10092   1.283   3.475   0.232 -0.3554  0.8133 -0.0748
 2884SOL    HW110093   1.336   3.549   0.203  1.6136 -0.4376  0.1412
 2884SOL    HW210094   1.322   3.447   0.315 -0.5218 -0.9362 -0.5319
 2885SOL     OW10095   2.790   5.310   1.493  0.0653  0.5160  0.0600
 2885SOL    HW110096   2.801   5.291   1.400 -2.1376  0.5035 -0.2495
 2885SOL    HW210097   2.696   5.310   1.506  0.3384  0.1553  2.3922
 2886SOL     OW10098   7.201   6.493   1.553 -0.5207 -0.1596 -0.4801
 2886SOL    HW110099   7.201   6.587   1.575 -0.5483 -0.7550  2.4109
 2886SOL    HW210100   7.293   6.468   1.556 -0.6272 -0.4972  0.1973
 2887SOL     OW10101   1.852   6.495   1.370  0.5969  0.6324  0.2180
 2887SOL    HW110102   1.919   6.453   1.424  0.1485 -0.7717 -0.2715
 2887SOL    HW210103   1.801   6.423   1.335  1.0238  1.4435 -2.3210
 2888SOL     OW10104   7.291   4.386   0.486 -0.0048  0.4229 -0.5332
 2888SOL    HW110105   7.250   4.436   0.416 -2.3633  0.0465  0.4663
 2888SOL    HW210106   7.302   4.449   0.557 -0.1585  0.1983 -0.3087
 2889SOL     OW10107   0.842   5.438   0.197 -0.2377  0.6137  0.1934
 2889SOL    HW110108   0.838   5.429   0.292 -1.3262 -1.4552  0.0108
 2889SOL    HW210109   0.757   5.474   0.172 -0.4501 -0.0763 -0.0898
 2890SOL     OW10110   0.798   2.783   0.943  0.0120 -0.4048  0.1463
 2890SOL    HW110111   0.858   2.857   0.940 -1.4976  0.8677 -0.3335
 2890SOL    HW210112   0.790   2.755   0.852  1.0592 -1.6149  0.3960
 2891SOL     OW10113   0.344   3.482   3.466  0.0931 -0.4955 -0.7438
 2891SOL    HW110114   0.310   3.458   3.380  0.2812 -1.6468 -0.5239
 2891SOL    HW210115   0.341   3.400   3.516 -0.1484  0.1721  0.3935
 2892SOL     OW10116   1.982   6.631   0.291  0.6098 -0.1652 -0.0528
 2892SOL    HW110117   1.919   6.695   0.323  1.0379  0.2352  0.0083
 2892SOL    HW210118   1.965   6.625   0.197 -0.7998 -1.5073  0.2461
 2893SOL     OW10119   1.352   4.171   2.010 -0.0044  0.2911  0.8440
 2893SOL    HW110120   1.419   4.134   2.067  0.1619 -1.1458 -0.2250
 2893SOL    HW210121   1.273   4.174   2.065  0.6271  0.9046  1.7527
 2894SOL     OW10122   2.119   4.518   0.157  0.6655  0.4019 -0.2699
 2894SOL    HW110123   2.201   4.517   0.206 -0.0868 -0.9012  1.0398
 2894SOL    HW210124   2.104   4.426   0.134 -0.5255  0.5974 -0.3124
 2895SOL     OW10125   1.135   5.809   2.608  0.3722  0.8304  0.5399
 2895SOL    HW110126   1.110   5.901   2.621 -0.3303  1.0217 -1.7606
 2895SOL    HW210127   1.130   5.770   2.696  0.0509  2.8192  1.4611
 2896SOL     OW10128   7.515   3.773   1.008 -0.4642  0.9703  0.1721
 2896SOL    HW110129   7.578   3.820   1.061 -1.3601  2.4806 -0.0474
 2896SOL    HW210130   7.480   3.705   1.067 -0.2333  1.5393  0.9794
 2897SOL     OW10131   2.902   4.831   1.344 -0.2183 -0.2979 -0.2745
 2897SOL    HW110132   2.832   4.820   1.409  1.2325 -0.4312  1.3421
 2897SOL    HW210133   2.890   4.758   1.284 -1.1331 -0.6439  0.3071
 2898SOL     OW10134   1.923   5.708   0.606 -0.2103 -0.0116  0.1396
 2898SOL    HW110135   1.841   5.755   0.594  0.5069  1.1161 -0.6478
 2898SOL    HW210136   1.909   5.623   0.565 -0.8895  0.2862 -0.2520
 2899SOL     OW10137   2.180   4.757   2.066  0.9441  0.0319 -0.1067
 2899SOL    HW110138   2.262   4.755   2.117  1.5102  0.3190 -0.9874
 2899SOL    HW210139   2.190   4.687   2.002  2.0788  2.2714 -2.5556
 2900SOL     OW10140   1.955   5.154   2.123  0.7555  0.2281 -0.1219
 2900SOL    HW110141   1.903   5.208   2.064  0.5432  2.1865  1.7284
 2900SOL    HW210142   1.891   5.095   2.163  0.5763  0.1632 -0.5034
 2901SOL     OW10143   0.466   4.129   1.880 -0.8341 -0.0805  0.2928
 2901SOL    HW110144   0.461   4.224   1.892 -0.8326 -0.3445  2.8582
 2901SOL    HW210145   0.426   4.114   1.795 -0.1005  2.2765 -0.5585
 2902SOL     OW10146   7.682   3.590   1.412 -0.2210  0.0333  0.6892
 2902SOL    HW110147   7.756   3.567   1.355 -0.4873  0.6885  0.0680
 2902SOL    HW210148   7.696   3.682   1.434 -2.0670  0.8690 -1.3392
 2903SOL     OW10149   0.254   5.456   0.365  0.1615 -0.4108  0.1779
 2903SOL    HW110150   0.214   5.456   0.451  0.2449 -0.0542  0.2165
 2903SOL    HW210151   0.319   5.386   0.369  0.0471 -0.5071  0.3494
 2904SOL     OW10152   0.874   4.334   0.903  0.3597  0.5086 -0.1892
 2904SOL    HW110153   0.784   4.302   0.904  0.7219 -0.5831 -0.8248
 2904SOL    HW210154   0.873   4.411   0.960 -1.1886  1.1322 -1.0137
 2905SOL     OW10155   0.449   3.901   2.034 -0.2454 -0.9310  0.4445
 2905SOL    HW110156   0.461   3.982   1.985  0.9394 -1.3141  0.0630
 2905SOL    HW210157   0.357   3.902   2.060 -0.7830 -0.4182 -1.2906
 2906SOL     OW10158   6.893   5.154  12.457 -0.1668 -0.1152  0.6845
 2906SOL    HW110159   6.819   5.215  12.446  1.0716  1.6308  1.4593
 2906SOL    HW210160   6.953   5.178  12.387 -0.3172 -1.5634  0.0290
 2907SOL     OW10161   7.354   4.142  12.316 -0.1443  0.2581  0.4436
 2907SOL    HW110162   7.402   4.073  12.270  0.1111 -0.7384  2.1367
 2907SOL    HW210163   7.329   4.203  12.247  0.0243 -1.2762 -1.0506
 2908SOL     OW10164   0.737   3.738  11.582 -0.1893 -0.0198 -0.0863
 2908SOL    HW110165   0.716   3.702  11.668  1.0903  0.9141  0.6500
 2908SOL    HW210166   0.800   3.808  11.600  0.8886 -0.4697 -1.8517
 2909SOL     OW10167   0.016   4.390   2.286 -0.0365  0.8802  0.0805
 2909SOL    HW110168  -0.049   4.432   2.342 -1.5145  0.9222 -1.5569
 2909SOL    HW210169   0.100   4.410   2.326 -1.0465 -0.9212  3.4769
 2910SOL     OW10170   7.367   6.149   1.582  0.1610 -0.3218  0.3377
 2910SOL    HW110171   7.346   6.132   1.673 -0.6357  1.7225  0.5725
 2910SOL    HW210172   7.458   6.181   1.583 -0.3401  1.1629  0.6343
 2911SOL     OW10173   6.882   3.899   0.461 -0.2966  0.2505  0.2825
 2911SOL    HW110174   6.884   3.871   0.553  2.4320 -2.0445 -0.3525
 2911SOL    HW210175   6.805   3.855   0.424 -0.3369 -0.3273  1.0328
 2912SOL     OW10176   3.016   5.888   1.979 -1.1016  0.6957  0.0002
 2912SOL    HW110177   2.992   5.795   1.985  0.6546  0.0816 -1.3425
 2912SOL    HW210178   3.062   5.906   2.061  0.5385 -0.3352 -0.6262
 2913SOL     OW10179   7.611   1.940   0.669  0.1849 -0.7555 -0.6442
 2913SOL    HW110180   7.595   1.882   0.743 -0.2014  0.5491  0.3508
 2913SOL    HW210181   7.525   1.954   0.630 -0.1031  0.7411  0.4119
 2914SOL     OW10182   0.943   5.217  12.106  0.1179  0.0794 -0.2438
 2914SOL    HW110183   0.935   5.199  12.012 -0.8000  1.6279 -0.4943
 2914SOL    HW210184   0.912   5.137  12.148  0.3413 -0.5609 -1.2473
 2915SOL     OW10185   3.045   5.359   1.976  0.6254 -0.1870  0.0817
 2915SOL    HW110186   3.015   5.303   2.048  2.2289  0.0125  0.9628
 2915SOL    HW210187   3.026   5.309   1.897  1.9149 -1.9924  0.8326
 2916SOL     OW10188   5.314   7.066   1.517 -0.1316  0.4551  0.7067
 2916SOL    HW110189   5.347   6.979   1.539 -0.7786  0.1622  0.5372
 2916SOL    HW210190   5.269   7.096   1.596 -0.1826  0.5063  0.6579
 2917SOL     OW10191   2.972   5.309   0.801 -0.0751 -0.5415 -1.0213
 2917SOL    HW110192   3.032   5.383   0.802  0.0614 -0.6489 -1.1786
 2917SOL    HW210193   2.947   5.300   0.709 -1.3313  0.3039 -0.7977
 2918SOL     OW10194   7.662   5.952   2.211 -0.1376  0.2290 -0.0517
 2918SOL    HW110195   7.701   5.891   2.274  0.4767 -1.1133 -1.6641
 2918SOL    HW210196   7.672   6.038   2.253  3.1846 -0.1954  0.3583
 2919SOL     OW10197   1.462   3.393   0.448 -0.2282 -0.7609  0.1236
 2919SOL    HW110198   1.395   3.416   0.512  0.2869 -0.5886  0.6120
 2919SOL    HW210199   1.525   3.465   0.453  1.4225 -2.2080  1.6768
 2920SOL     OW10200   1.323   5.250   0.956 -0.2362  0.7767  0.0752
 2920SOL    HW110201   1.341   5.219   1.044  0.6046  0.0793 -0.3307
 2920SOL    HW210202   1.322   5.346   0.964  2.7007  0.8591  0.3431
 2921SOL     OW10203   3.614   5.446   0.971  0.1484  0.2258 -0.2004
 2921SOL    HW110204   3.583   5.395   1.046 -0.7650  2.3921  0.9941
 2921SOL    HW210205   3.694   5.488   1.003  0.4099  0.2422 -0.8572
 2922SOL     OW10206   7.801   3.910   0.976  0.2116 -0.2505  0.0056
 2922SOL    HW110207   7.743   3.986   0.971  0.8749  0.2055 -1.7632
 2922SOL    HW210208   7.859   3.928   1.049 -2.0726 -0.9202  2.1119
 2923SOL     OW10209   1.179   2.895  12.198 -0.0964  0.2975 -0.0167
 2923SOL    HW110210   1.238   2.899  12.273  0.0367 -1.9357  0.0801
 2923SOL    HW210211   1.106   2.951  12.221  1.1502  1.7366  0.6189
 2924SOL     OW10212   1.546   5.964   0.096  0.4435 -0.2569 -0.1405
 2924SOL    HW110213   1.539   6.001   0.184 -3.7447 -1.3004  0.1632
 2924SOL    HW210214   1.532   6.038   0.037  1.6402  0.1571  0.0608
 2925SOL     OW10215   0.147   4.644  12.279  0.0266 -0.1386 -0.5226
 2925SOL    HW110216   0.143   4.729  12.235 -0.4857 -0.8131 -1.8236
 2925SOL    HW210217   0.203   4.591  12.223  0.4194 -0.6516  0.3327
 2926SOL     OW10218   7.428   6.150   1.179  0.0490  0.1892  0.0931
 2926SOL    HW110219   7.427   6.243   1.201 -1.9917  0.3436 -0.4861
 2926SOL    HW210220   7.474   6.108   1.252  1.9271  1.7138 -0.1221
 2927SOL     OW10221   0.411   5.919   2.285  0.1714  0.0137  0.1340
 2927SOL    HW110222   0.506   5.925   2.277  0.0956  0.7469 -0.3628
 2927SOL    HW210223   0.385   6.002   2.327 -0.2135 -0.3488  0.6218
 2928SOL     OW10224   1.238   6.461   2.142  0.0137  0.3688  0.7180
 2928SOL    HW110225   1.211   6.538   2.092 -0.9876  0.7271  1.7655
 2928SOL    HW210226   1.165   6.444   2.200  0.1546 -1.4929  0.3980
 2929SOL     OW10227   7.852   3.979   1.719  0.0278  0.1425 -0.1017
 2929SOL    HW110228   7.848   4.063   1.764  0.5012 -0.1287  0.4459
 2929SOL    HW210229   7.859   3.914   1.788 -1.8522 -0.4830 -0.4292
 2930SOL     OW10230   7.528   3.812   1.635  0.0503 -0.3306  0.4468
 2930SOL    HW110231   7.544   3.906   1.640 -0.4963 -0.0074 -2.4808
 2930SOL    HW210232   7.472   3.801   1.558  1.6887 -3.2333 -0.4716
 2931SOL     OW10233   1.410   6.114   0.789 -0.0464  0.2893  0.0860
 2931SOL    HW110234   1.412   6.043   0.725  0.7507  0.0816  0.3271
 2931SOL    HW210235   1.443   6.074   0.870 -0.4488  0.7079  0.4637
 2932SOL     OW10236   1.140   2.470   1.692 -0.3509  0.1974  0.0326
 2932SOL    HW110237   1.127   2.428   1.777  0.3306  0.2178  0.1582
 2932SOL    HW210238   1.193   2.408   1.643 -1.2054 -0.0604 -0.5864
 2933SOL     OW10239   0.919   4.927   2.339 -0.2853  0.9153  0.1343
 2933SOL    HW110240   0.921   5.020   2.361 -1.6072  1.1112 -0.4951
 2933SOL    HW210241   0.962   4.922   2.253 -1.0253  1.0798 -0.2502
 2934SOL     OW10242   0.696   5.083   0.526 -0.0342  0.1513  0.1428
 2934SOL    HW110243   0.714   5.011   0.466  0.8461 -0.6949  1.3861
 2934SOL    HW210244   0.668   5.155   0.469  0.3895 -0.7383 -1.2376
 2935SOL     OW10245   0.717   5.845   1.370  0.6652  0.9342 -0.5109
 2935SOL    HW110246   0.650   5.802   1.316  1.1071 -0.3707 -0.0634
 2935SOL    HW210247   0.704   5.938   1.354  0.0692  0.6272 -2.0149
 2936SOL     OW10248   7.798   3.463   0.802 -0.4533  0.5329  1.0765
 2936SOL    HW110249   7.829   3.394   0.861  1.6112 -0.7015 -1.2810
 2936SOL    HW210250   7.707   3.439   0.783  0.4652 -2.1126 -0.3515
 2937SOL     OW10251   0.650   3.645   2.020 -0.5888  0.1239 -0.3112
 2937SOL    HW110252   0.651   3.705   1.945 -0.3678  1.4122  0.6758
 2937SOL    HW210253   0.738   3.607   2.022  0.8164  3.0803  1.5218
 2938SOL     OW10254   1.819   1.996   0.731 -0.3030  0.0167 -0.1997
 2938SOL    HW110255   1.819   2.073   0.674  0.8992  0.3970  0.2793
 2938SOL    HW210256   1.752   2.016   0.797 -1.4290 -0.2566 -1.2094
 2939SOL     OW10257   2.239   6.029   0.790 -0.3528 -0.2538  0.0657
 2939SOL    HW110258   2.284   6.083   0.854 -1.2939  1.7508 -0.8798
 2939SOL    HW210259   2.268   6.063   0.705 -2.4360  0.1076 -0.5541
 2940SOL     OW10260   2.813   5.388  12.210  0.2785  0.2749 -0.5177
 2940SOL    HW110261   2.835   5.363  12.299  1.5530 -0.5989 -1.0423
 2940SOL    HW210262   2.774   5.308  12.172  0.6961  0.3144 -1.0370
 2941SOL     OW10263   7.885   4.772   1.965 -0.1519  0.2049 -0.1733
 2941SOL    HW110264   7.908   4.692   2.012  0.9844 -0.2510 -1.4287
 2941SOL    HW210265   7.969   4.815   1.949 -0.8523  3.0754  2.7455
 2942SOL     OW10266   0.585   5.250   0.807 -0.3984 -0.1124 -0.1877
 2942SOL    HW110267   0.529   5.305   0.752  2.3591  1.7897 -1.2929
 2942SOL    HW210268   0.562   5.276   0.896 -1.9427 -0.1204 -0.5468
 2943SOL     OW10269   0.237   4.500   0.828 -0.0029 -0.7677 -0.0107
 2943SOL    HW110270   0.166   4.458   0.780 -1.3098  2.1437 -0.8716
 2943SOL    HW210271   0.314   4.486   0.773 -0.0535 -3.0702  0.4095
 2944SOL     OW10272   1.483   2.487  10.852  0.0968 -0.2045 -0.1396
 2944SOL    HW110273   1.479   2.394  10.870 -0.0504 -0.9797 -3.4929
 2944SOL    HW210274   1.559   2.498  10.795 -0.9613  1.3809 -1.3577
 2945SOL     OW10275   0.990   6.566   1.194 -0.7356  0.4549  0.0618
 2945SOL    HW110276   1.041   6.625   1.139  0.1782  0.0362  0.4340
 2945SOL    HW210277   1.000   6.601   1.283 -0.6784  0.0905  0.2029
 2946SOL     OW10278   7.944   5.376   2.033  0.8114  0.4643 -0.1109
 2946SOL    HW110279   7.898   5.342   1.956  0.3433  2.7500 -0.9230
 2946SOL    HW210280   7.916   5.320   2.105 -0.8699 -0.0572 -1.1181
 2947SOL     OW10281   2.094   4.225   0.121 -0.2564 -0.0156  0.0612
 2947SOL    HW110282   2.143   4.214   0.039 -2.3445 -1.3637 -1.1036
 2947SOL    HW210283   2.124   4.154   0.177 -1.3056 -1.3140 -0.9338
 2948SOL     OW10284   0.622   5.701   1.096 -0.5663  0.1419 -0.9680
 2948SOL    HW110285   0.542   5.651   1.083 -0.4238 -0.0197 -1.2226
 2948SOL    HW210286   0.691   5.636   1.106 -0.1751  0.2706 -2.5561
 2949SOL     OW10287   0.898   3.524  12.303 -0.7447 -0.1928  0.2630
 2949SOL    HW110288   0.876   3.605  12.256 -1.6857 -0.5064  0.1532
 2949SOL    HW210289   0.814   3.492  12.336 -0.1871 -0.3095  1.6400
 2950SOL     OW10290   7.446   4.288   1.077 -0.0491  0.2787  0.0035
 2950SOL    HW110291   7.425   4.212   1.132  0.3285  0.6970  0.7389
 2950SOL    HW210292   7.433   4.363   1.135 -1.7195  0.8887 -1.0795
 2951SOL     OW10293   1.897   3.244   0.993 -0.1514  0.5409  0.1056
 2951SOL    HW110294   1.919   3.252   0.901 -1.7866 -0.3764 -0.4165
 2951SOL    HW210295   1.894   3.149   1.009 -0.9056  0.6663  0.8134
 2952SOL     OW10296   7.857   3.768  12.469  0.4548  0.5030 -0.3386
 2952SOL    HW110297   7.812   3.708  12.409 -0.0533  0.3079  0.2287
 2952SOL    HW210298   7.845   3.855  12.430 -0.1821  0.4200 -0.3300
 2953SOL     OW10299   1.101   3.759   0.046  0.0798 -0.5051 -0.1500
 2953SOL    HW110300   1.151   3.775  -0.034  0.1445 -1.2850 -0.2734
 2953SOL    HW210301   1.013   3.791   0.026  0.0587 -0.8295 -0.5855
 2954SOL     OW10302   0.123   5.547   0.825  0.3495  0.3947 -0.1489
 2954SOL    HW110303   0.038   5.525   0.865  0.2099 -1.0347 -1.1784
 2954SOL    HW210304   0.141   5.636   0.856 -0.4800 -0.0774  1.8395
 2955SOL     OW10305   1.104   5.724   0.654 -0.6999  0.1663  0.3371
 2955SOL    HW110306   1.019   5.757   0.624 -1.4589 -2.3452 -0.4987
 2955SOL    HW210307   1.084   5.641   0.696  1.3757 -0.5025  0.0994
 2956SOL     OW10308   1.035   7.121  12.287  0.6905 -0.0833 -0.7681
 2956SOL    HW110309   1.021   7.064  12.362  0.5078 -0.7108 -1.2759
 2956SOL    HW210310   1.105   7.181  12.315  0.0649  0.2221  0.1853
 2957SOL     OW10311   5.555   3.627   1.826  0.3056  0.2476  0.1206
 2957SOL    HW110312   5.624   3.691   1.809  0.7189  0.0353  0.9555
 2957SOL    HW210313   5.581   3.551   1.773  0.5960  0.2435  0.2672
 2958SOL     OW10314   0.020   5.566   1.550 -0.4563  0.8089 -0.3640
 2958SOL    HW110315  -0.066   5.585   1.513 -0.7470  0.2438  0.0285
 2958SOL    HW210316   0.017   5.602   1.638 -0.0003  1.5274 -0.6297
 2959SOL     OW10317   0.605   4.592   0.262  0.5161  0.0010  0.1806
 2959SOL    HW110318   0.567   4.560   0.343 -0.3075  0.0957 -0.1548
 2959SOL    HW210319   0.699   4.583   0.274  0.3848 -0.3856  0.9751
 2960SOL     OW10320   7.429   4.012   0.842 -0.0780 -0.3857  0.2605
 2960SOL    HW110321   7.480   3.956   0.901  0.7662  0.1914  0.1011
 2960SOL    HW210322   7.351   3.960   0.821 -0.2631 -0.7116  1.6456
 2961SOL     OW10323   7.749   6.873   1.973  0.1684 -0.2200  0.4546
 2961SOL    HW110324   7.770   6.957   2.013  2.7400 -1.0065  0.9709
 2961SOL    HW210325   7.699   6.826   2.040  0.7520  0.0393  1.0826
 2962SOL     OW10326   2.366   4.137   0.766 -0.1940 -0.0106 -0.3965
 2962SOL    HW110327   2.295   4.131   0.829  1.6479 -0.1344  1.7743
 2962SOL    HW210328   2.402   4.048   0.761  3.5929  1.0132  3.3331
 2963SOL     OW10329   0.442   6.269   0.545  0.0115 -0.0326 -0.2455
 2963SOL    HW110330   0.365   6.268   0.489 -0.2542 -0.3911  0.1252
 2963SOL    HW210331   0.419   6.215   0.620  0.1319  0.9588  0.5296
 2964SOL     OW10332   0.407   2.906   1.085  0.5483 -0.4627  0.2137
 2964SOL    HW110333   0.489   2.905   1.134  0.6012 -1.2275  0.1255
 2964SOL    HW210334   0.410   2.987   1.035  1.2531 -0.4878  0.2073
 2965SOL     OW10335   0.334   6.628   1.794  0.4527 -0.3356 -0.1565
 2965SOL    HW110336   0.317   6.706   1.741  1.2901  0.2987  0.4704
 2965SOL    HW210337   0.390   6.574   1.739 -1.3958 -1.2644 -1.2198
 2966SOL     OW10338   7.734   4.053   0.237  0.3124 -0.2464 -0.2624
 2966SOL    HW110339   7.714   4.142   0.266  1.3796  0.6379 -2.1125
 2966SOL    HW210340   7.812   4.062   0.182 -1.4625 -1.8001 -3.2717
 2967SOL     OW10341   7.306   4.582   0.687  0.0711 -0.0689  0.5959
 2967SOL    HW110342   7.374   4.559   0.751  0.4416  0.6991  0.4941
 2967SOL    HW210343   7.307   4.678   0.685 -0.7802 -0.0590  0.3309
 2968SOL     OW10344   1.102   5.462   0.081  0.2970 -0.4448  0.2235
 2968SOL    HW110345   1.104   5.375   0.042  1.1136  0.3169 -1.5162
 2968SOL    HW210346   1.008   5.482   0.091  0.1041 -1.5949  0.8749
 2969SOL     OW10347   0.754   5.321   1.708  0.0285 -0.0788  0.2191
 2969SOL    HW110348   0.702   5.348   1.633 -0.1497  1.4082  0.8387
 2969SOL    HW210349   0.734   5.386   1.776  4.8743  2.4777 -0.3978
 2970SOL     OW10350   1.221   5.266   2.980  0.0479 -0.1685 -0.6876
 2970SOL    HW110351   1.168   5.188   2.997  0.9406 -0.5800  0.3736
 2970SOL    HW210352   1.195   5.328   3.047  1.6522 -0.7910  0.5925
 2971SOL     OW10353   1.730   5.471   0.882 -0.0671 -0.2909 -0.0753
 2971SOL    HW110354   1.817   5.503   0.904 -0.6220  1.0731  0.2397
 2971SOL    HW210355   1.701   5.423   0.960  0.6040 -1.2446 -0.3927
 2972SOL     OW10356   0.121   4.380   1.107  0.3626  0.2285 -0.5493
 2972SOL    HW110357   0.186   4.414   1.045  0.7026  1.2885  0.3543
 2972SOL    HW210358   0.150   4.291   1.125  0.8054  0.2366 -1.1916
 2973SOL     OW10359   2.647   5.733   0.421  0.7465 -0.0094 -0.2569
 2973SOL    HW110360   2.731   5.742   0.376  0.3701 -1.0665 -1.2430
 2973SOL    HW210361   2.583   5.762   0.357  0.3679  1.2420  0.6559
 2974SOL     OW10362   0.593   4.157  12.436  0.1483 -0.1348 -0.4397
 2974SOL    HW110363   0.603   4.237  12.488  0.6331 -0.5021  0.0553
 2974SOL    HW210364   0.671   4.155  12.380 -0.6955  0.5955 -1.6749
 2975SOL     OW10365   0.285   5.345   0.928  0.6581  0.2015  0.4532
 2975SOL    HW110366   0.341   5.394   0.988  1.4766 -1.3162  0.9830
 2975SOL    HW210367   0.236   5.412   0.881  0.1767  1.4741  2.6065
 2976SOL     OW10368   1.995   5.439   2.008  0.0156  0.1888 -0.0085
 2976SOL    HW110369   2.014   5.470   1.920 -0.5363  2.2070  0.5304
 2976SOL    HW210370   2.080   5.411   2.043  0.4441  0.5798 -0.7143
 2977SOL     OW10371   2.442   4.770   2.123  0.1214 -0.5071 -0.2698
 2977SOL    HW110372   2.410   4.855   2.093 -1.0824 -1.3355 -1.4584
 2977SOL    HW210373   2.514   4.750   2.063  1.7196  0.4960  1.2181
 2978SOL     OW10374   0.271   4.703   0.244 -0.2570  0.1077 -0.1273
 2978SOL    HW110375   0.216   4.647   0.189  1.5095 -0.0187 -1.9162
 2978SOL    HW210376   0.310   4.642   0.307 -0.3752 -0.2167 -0.3590
 2979SOL     OW10377   1.698   6.273   2.320  0.0241 -0.5818  0.1959
 2979SOL    HW110378   1.633   6.336   2.291 -1.5238 -1.0512  2.3895
 2979SOL    HW210379   1.780   6.302   2.279 -1.1894  1.0762 -1.2019
 2980SOL     OW10380   1.271   5.074   0.743  0.1672  0.6782  0.1967
 2980SOL    HW110381   1.333   5.013   0.782  0.2023  1.0089  0.6684
 2980SOL    HW210382   1.283   5.156   0.792  0.0841  1.0461 -0.3884
 2981SOL     OW10383   3.031   4.486  11.976 -0.3925  0.2382  0.4892
 2981SOL    HW110384   3.105   4.432  12.001  0.9102  1.2919 -0.9191
 2981SOL    HW210385   3.024   4.552  12.045  0.1992  0.3249  0.4709
 2982SOL     OW10386   1.878   4.506   1.158 -0.6394  0.0809  0.3024
 2982SOL    HW110387   1.821   4.461   1.220  0.8502 -1.9771  0.3005
 2982SOL    HW210388   1.967   4.486   1.188  0.2471 -2.4970 -3.2469
 2983SOL     OW10389   7.654   4.424   2.024 -0.0053 -0.2469  0.4455
 2983SOL    HW110390   7.619   4.489   2.085  1.1414  0.4962  0.3346
 2983SOL    HW210391   7.748   4.442   2.022 -0.0993  0.2335 -2.0969
 2984SOL     OW10392   6.722   4.610   0.733  0.6847  0.2214 -0.5723
 2984SOL    HW110393   6.649   4.652   0.778  0.6310  0.9609 -1.3020
 2984SOL    HW210394   6.797   4.668   0.750  0.9859 -0.2442 -0.2744
 2985SOL     OW10395   0.548   5.421   2.480  0.1329 -0.4631 -0.5122
 2985SOL    HW110396   0.542   5.444   2.387  0.7741 -1.4045 -0.7954
 2985SOL    HW210397   0.616   5.354   2.484 -1.6568 -2.3522  0.2568
 2986SOL     OW10398   0.550   2.311   1.981 -0.0466  0.0889  0.2023
 2986SOL    HW110399   0.474   2.341   2.031 -0.7251 -0.4653 -0.4901
 2986SOL    HW210400   0.611   2.386   1.984 -1.4151  1.3088 -0.8795
 2987SOL     OW10401   6.924   2.896   1.505  0.4487  0.0859  0.2835
 2987SOL    HW110402   6.947   2.879   1.413  1.6453  0.3440  0.5198
 2987SOL    HW210403   6.847   2.841   1.520 -0.0852  0.4226 -1.0128
 2988SOL     OW10404   2.361   5.391   2.802 -0.1013  0.2308  0.1051
 2988SOL    HW110405   2.389   5.483   2.808  0.4954  0.2570 -2.1815
 2988SOL    HW210406   2.394   5.362   2.717 -0.5068 -2.0437  0.6738
 2989SOL     OW10407   7.006   5.299   2.302 -0.4250  0.0690  0.2707
 2989SOL    HW110408   6.990   5.257   2.217  1.4074 -0.1314 -0.0254
 2989SOL    HW210409   7.005   5.227   2.364  0.8750 -0.2027  0.0157
 2990SOL     OW10410   0.878   5.802   1.821  0.2184 -0.2031 -0.4426
 2990SOL    HW110411   0.819   5.816   1.747 -1.6014 -0.9382  0.8058
 2990SOL    HW210412   0.892   5.890   1.857  0.5961  0.0747 -1.2366
 2991SOL     OW10413   1.669   3.022   0.983 -0.5490 -0.1773  0.4555
 2991SOL    HW110414   1.660   2.989   0.893 -2.3872  0.1890  0.4731
 2991SOL    HW210415   1.588   2.996   1.026 -0.3663  1.0209  1.5648
 2992SOL     OW10416   1.022   3.879   0.634 -0.5994 -0.3651  0.1539
 2992SOL    HW110417   0.968   3.911   0.707 -0.0062 -0.9298  0.8566
 2992SOL    HW210418   0.963   3.824   0.584 -1.2293  0.6398 -0.2497
 2993SOL     OW10419   0.012   5.124   1.302 -0.0186 -0.1262 -0.3701
 2993SOL    HW110420   0.013   5.049   1.243 -2.0379 -1.2087  0.8711
 2993SOL    HW210421  -0.017   5.197   1.247 -2.1059 -1.1605 -0.7474
 2994SOL     OW10422   0.636   6.250  11.735 -0.0052  0.0725 -0.1849
 2994SOL    HW110423   0.729   6.273  11.743 -0.0213 -0.1909  0.9549
 2994SOL    HW210424   0.636   6.154  11.737 -0.2885  0.0695 -0.3800
 2995SOL     OW10425   1.722   2.188  11.832 -0.0976  0.0852  0.0355
 2995SOL    HW110426   1.710   2.248  11.905  1.2765  1.8380 -1.1028
 2995SOL    HW210427   1.816   2.190  11.813 -0.1335 -1.7840 -0.6110
 2996SOL     OW10428   0.820   4.345   1.882  0.3782  0.2591  0.0697
 2996SOL    HW110429   0.890   4.281   1.878  1.5459  1.4313  0.9404
 2996SOL    HW210430   0.846   4.413   1.820  0.0800  0.7545  0.4780
 2997SOL     OW10431   1.147   3.655   0.993  0.7173  0.0724  0.4486
 2997SOL    HW110432   1.174   3.711   1.066  0.9830  0.1506  0.2933
 2997SOL    HW210433   1.188   3.696   0.916  0.4292 -0.0021  0.2561
 2998SOL     OW10434   6.865   3.514  12.319 -0.2754 -0.2609  0.4943
 2998SOL    HW110435   6.943   3.535  12.267 -0.9496 -0.4218 -0.6119
 2998SOL    HW210436   6.893   3.528  12.410  0.8789  0.2088  0.0940
 2999SOL     OW10437   0.826   5.459   0.465  0.1841  0.2350 -0.2002
 2999SOL    HW110438   0.821   5.428   0.555 -0.1814  2.6247  0.6592
 2999SOL    HW210439   0.736   5.477   0.440  0.2805 -0.3796 -1.0651
 3000SOL     OW10440   7.316   4.034   1.777 -0.4281 -0.2262 -0.3902
 3000SOL    HW110441   7.286   3.971   1.712  0.1763  0.2114 -1.1028
 3000SOL    HW210442   7.243   4.095   1.787 -1.2426 -1.3292  0.7197
 3001SOL     OW10443   7.759   3.582   2.880  0.3167  0.6176  0.1184
 3001SOL    HW110444   7.689   3.547   2.825  1.2792  0.6772 -1.1761
 3001SOL    HW210445   7.762   3.522   2.955  1.2607 -1.6062 -1.5551
 3002SOL     OW10446   7.245   4.277   2.789 -0.0793 -0.0029  0.0365
 3002SOL    HW110447   7.163   4.262   2.836  0.0968 -0.1072  0.3122
 3002SOL    HW210448   7.310   4.287   2.858 -0.0138  0.9962 -0.1493
 3003SOL     OW10449   7.054   4.596   2.073 -0.3153  0.7935 -0.3903
 3003SOL    HW110450   7.046   4.691   2.063  2.3863  1.2127  0.5180
 3003SOL    HW210451   6.997   4.574   2.146 -1.2682  1.6360 -0.8626
 3004SOL     OW10452   2.190   6.144   2.204 -0.0782  0.0004  0.3574
 3004SOL    HW110453   2.129   6.114   2.272  1.6664 -0.0607  1.9638
 3004SOL    HW210454   2.193   6.071   2.142 -0.9852 -0.3490  0.7028
 3005SOL     OW10455   1.622   5.003   2.112  0.1083 -0.0452 -0.2034
 3005SOL    HW110456   1.630   5.096   2.132 -1.1594  0.5139 -1.9448
 3005SOL    HW210457   1.581   4.965   2.189  1.2801  0.6922  0.8074
 3006SOL     OW10458   7.817   5.653   2.045 -0.4585 -0.6653 -0.3803
 3006SOL    HW110459   7.829   5.563   2.075  0.5889 -1.0687 -1.9168
 3006SOL    HW210460   7.899   5.697   2.069 -1.3245  0.1823  1.2296
 3007SOL     OW10461   7.858   3.479   2.625  0.2243 -0.3408  0.1950
 3007SOL    HW110462   7.885   3.500   2.536  0.2949  2.0605  0.7240
 3007SOL    HW210463   7.785   3.537   2.643  0.0170 -0.9831  1.6124
 3008SOL     OW10464   1.225   5.579   1.065 -0.0636  0.1088  0.1913
 3008SOL    HW110465   1.168   5.576   1.142  1.0442 -1.4407  1.0041
 3008SOL    HW210466   1.189   5.650   1.011  0.0664  2.3478  2.8385
 3009SOL     OW10467   0.638   6.465   4.034 -0.2373 -0.3606 -0.2028
 3009SOL    HW110468   0.718   6.467   3.982  0.6826  0.7779  1.1769
 3009SOL    HW210469   0.572   6.508   3.979  0.0410 -1.3740 -1.3789
 3010SOL     OW10470   5.863   5.516   1.906 -0.6124 -0.6112  0.1815
 3010SOL    HW110471   5.783   5.469   1.883 -0.9179  0.4272 -1.0421
 3010SOL    HW210472   5.912   5.521   1.824  0.2595 -0.3898  0.7029
 3011SOL     OW10473   1.900   3.995   4.196  0.0256  0.0410 -0.0647
 3011SOL    HW110474   1.976   3.938   4.193 -1.1382 -1.5851  0.1968
 3011SOL    HW210475   1.922   4.061   4.263  1.2384 -0.3203 -0.0934
 3012SOL     OW10476   0.649   5.154   3.274  0.1824 -0.7442  0.2855
 3012SOL    HW110477   0.742   5.142   3.255 -0.2453 -0.9139 -1.9306
 3012SOL    HW210478   0.606   5.153   3.189 -1.8239 -0.2204  1.2170
 3013SOL     OW10479   0.837   5.497   1.105  0.4325  0.0579  0.3472
 3013SOL    HW110480   0.905   5.529   1.164  0.3045  0.2387  0.3969
 3013SOL    HW210481   0.883   5.479   1.023  0.1547  2.5105 -0.4286
 3014SOL     OW10482   7.542   5.066   2.362  0.4237 -0.4666 -0.4187
 3014SOL    HW110483   7.570   5.071   2.453 -0.0859  1.2835 -0.3152
 3014SOL    HW210484   7.612   5.019   2.317  1.2263 -0.3517  0.6754
 3015SOL     OW10485   1.771   4.267   2.557  0.2825  0.3048 -0.0968
 3015SOL    HW110486   1.750   4.320   2.633 -1.3138 -1.3089  0.6841
 3015SOL    HW210487   1.858   4.232   2.574  0.4891  1.0240  0.3377
 3016SOL     OW10488   7.356   5.194   2.557 -0.1832 -0.1745  0.5007
 3016SOL    HW110489   7.263   5.171   2.552 -0.3466  0.1220  1.7904
 3016SOL    HW210490   7.375   5.235   2.473 -1.2003 -0.3164  0.1910
 3017SOL     OW10491   0.717   4.891   2.591  0.0052  0.2842 -0.1007
 3017SOL    HW110492   0.787   4.946   2.626  0.2274  1.4276 -2.1374
 3017SOL    HW210493   0.744   4.873   2.501 -1.7458 -0.2753 -0.5542
 3018SOL     OW10494   7.600   6.059   3.792 -0.4775 -0.4178 -0.1111
 3018SOL    HW110495   7.566   6.020   3.872  1.8540 -1.3513  0.4865
 3018SOL    HW210496   7.521   6.083   3.742 -2.0430  1.1030  2.8106
 3019SOL     OW10497   1.226   4.455   0.047  0.6353  0.2055 -0.2268
 3019SOL    HW110498   1.321   4.460   0.042  0.6687 -0.6841 -0.5643
 3019SOL    HW210499   1.206   4.362   0.043 -0.3095  0.4296 -1.2319
 3020SOL     OW10500   2.013   4.313   1.684 -0.3505  0.2919 -0.1823
 3020SOL    HW110501   1.983   4.247   1.622  0.3606  1.3452 -1.7012
 3020SOL    HW210502   1.976   4.395   1.652 -1.3786  0.6617  1.7819
 3021SOL     OW10503   7.506   3.202   2.243  0.0122 -0.3522  0.0076
 3021SOL    HW110504   7.584   3.200   2.188  0.6597  0.6218  0.8479
 3021SOL    HW210505   7.434   3.186   2.182  0.8287 -0.8559 -0.8535
 3022SOL     OW10506   1.612   7.948   2.107 -0.3109 -0.4364 -0.1634
 3022SOL    HW110507   1.625   8.041   2.088  2.0857 -0.5898  0.4491
 3022SOL    HW210508   1.678   7.903   2.054  0.6605 -1.5084  1.8479
 3023SOL     OW10509   6.433   6.087   2.050  0.1413  0.0951 -0.3148
 3023SOL    HW110510   6.410   6.053   2.137  1.5965 -0.6365 -0.1836
 3023SOL    HW210511   6.436   6.182   2.061  0.8200 -0.0201  0.5746
 3024SOL     OW10512   1.050   4.310   2.886 -0.4469 -0.1602 -0.3317
 3024SOL    HW110513   1.035   4.249   2.814 -1.1852  0.2995 -0.5705
 3024SOL    HW210514   0.967   4.355   2.897 -0.5987 -0.7799  1.3425
 3025SOL     OW10515   1.370   5.317   2.132 -0.1717  0.9373  0.2739
 3025SOL    HW110516   1.346   5.259   2.204 -2.5249  1.7694  0.2626
 3025SOL    HW210517   1.362   5.405   2.170 -1.7097  1.3955 -0.9983
 3026SOL     OW10518   0.530   3.356   2.664  0.0305  0.0343 -0.8174
 3026SOL    HW110519   0.618   3.349   2.628  0.6687  2.3675  0.0927
 3026SOL    HW210520   0.532   3.303   2.744  0.9801  0.9539 -0.2159
 3027SOL     OW10521   0.603   4.558   2.688 -0.7838  0.1940  0.2282
 3027SOL    HW110522   0.692   4.549   2.722 -1.4217  0.7517  2.1517
 3027SOL    HW210523   0.570   4.638   2.728 -2.2415 -0.1356 -0.2714
 3028SOL     OW10524   0.687   3.811   3.212 -0.3063 -0.0360  0.1770
 3028SOL    HW110525   0.675   3.719   3.186 -0.5170 -0.2238  0.9264
 3028SOL    HW210526   0.756   3.843   3.153 -1.2777 -0.2288 -1.1248
 3029SOL     OW10527   2.397   4.750   2.710  0.0922  0.4156  0.3388
 3029SOL    HW110528   2.423   4.724   2.622 -0.7229  0.5073  0.0582
 3029SOL    HW210529   2.375   4.843   2.702  0.1578  0.4592  0.6670
 3030SOL     OW10530   7.578   4.189   3.321 -0.5461 -0.9197 -0.2308
 3030SOL    HW110531   7.541   4.244   3.390 -1.4589  0.1280 -1.4973
 3030SOL    HW210532   7.646   4.137   3.364  0.3293  1.1758  1.0212
 3031SOL     OW10533   7.311   5.204   4.726  0.3591  0.0012 -0.0531
 3031SOL    HW110534   7.325   5.220   4.632  1.3345  0.8806  0.2192
 3031SOL    HW210535   7.227   5.159   4.730 -0.3582  1.1477 -1.2451
 3032SOL     OW10536   7.942   4.478   2.022  0.0560 -0.3255 -0.1012
 3032SOL    HW110537   7.984   4.450   2.104  0.7154 -1.3373 -0.7577
 3032SOL    HW210538   7.994   4.436   1.954 -0.5316  0.4451 -1.0440
 3033SOL     OW10539   0.716   5.013   3.857  0.3430  0.1850 -0.7622
 3033SOL    HW110540   0.628   5.041   3.832  0.6801  0.8734 -1.2062
 3033SOL    HW210541   0.755   4.981   3.776  1.6050  2.8551 -1.3122
 3034SOL     OW10542   0.314   4.409   2.378 -0.5981  0.0979  0.1930
 3034SOL    HW110543   0.403   4.434   2.403 -0.7614  1.2153 -0.2986
 3034SOL    HW210544   0.287   4.349   2.447  1.3598 -2.1627 -0.8616
 3035SOL     OW10545   0.047   3.879   1.352  0.0301 -0.0505  0.1533
 3035SOL    HW110546   0.134   3.849   1.326 -0.4485  0.0897 -1.7415
 3035SOL    HW210547   0.031   3.957   1.299 -0.6494  0.8472  1.6094
 3036SOL     OW10548   0.313   3.373   3.833  0.3504 -0.1065 -0.1249
 3036SOL    HW110549   0.282   3.458   3.865  1.9649  1.0546 -1.4461
 3036SOL    HW210550   0.407   3.373   3.851  0.8435 -0.4997 -2.3983
 3037SOL     OW10551   0.948   4.570   1.680 -0.1708  0.4694  0.1687
 3037SOL    HW110552   1.039   4.598   1.690  0.4309  0.1222 -3.3401
 3037SOL    HW210553   0.902   4.649   1.651  0.1730 -0.4168 -3.1455
 3038SOL     OW10554   0.992   3.458   1.385  0.3243  0.0839  0.5500
 3038SOL    HW110555   0.987   3.387   1.449 -0.8328 -1.2852 -0.9856
 3038SOL    HW210556   0.905   3.462   1.347  1.0381  0.6989 -1.1007
 3039SOL     OW10557   2.477   3.438   5.325  0.6511 -0.3023 -0.4156
 3039SOL    HW110558   2.452   3.386   5.401 -1.1822  0.9010 -0.1297
 3039SOL    HW210559   2.435   3.394   5.251 -3.4516  2.1195  0.1438
 3040SOL     OW10560   1.747   4.037   3.461 -0.4905 -0.0019 -0.3387
 3040SOL    HW110561   1.829   4.075   3.492  0.8617 -2.3787 -0.7236
 3040SOL    HW210562   1.732   4.079   3.376 -1.2016  2.4148  0.8980
 3041SOL     OW10563   2.128   4.345   2.794  0.2327 -0.0963 -0.5554
 3041SOL    HW110564   2.221   4.331   2.814 -0.1901 -1.1424  0.8176
 3041SOL    HW210565   2.125   4.432   2.756  1.4996  0.8930  1.4397
 3042SOL     OW10566   0.119   4.443   3.177  0.1800 -0.1226 -0.0631
 3042SOL    HW110567   0.182   4.420   3.245  0.6866  0.0837 -0.4510
 3042SOL    HW210568   0.038   4.462   3.224  0.6352  0.4124  0.5176
 3043SOL     OW10569   0.243   3.331   1.992  0.2039 -0.5980  0.0771
 3043SOL    HW110570   0.172   3.324   1.928  0.2023  0.3260 -0.0269
 3043SOL    HW210571   0.274   3.421   1.984 -0.6069 -0.0660  2.2332
 3044SOL     OW10572   0.262   3.929   2.730  0.4561 -0.0330 -0.0343
 3044SOL    HW110573   0.219   3.971   2.804  0.3931 -0.6163  0.2680
 3044SOL    HW210574   0.224   3.841   2.726  2.9673 -1.3076  1.4847
 3045SOL     OW10575   0.247   4.854   2.919 -0.3005  0.1810  0.1668
 3045SOL    HW110576   0.326   4.895   2.956  0.3912 -0.6516 -0.3600
 3045SOL    HW210577   0.219   4.915   2.851  0.6141 -0.1003 -0.4835
 3046SOL     OW10578   1.996   5.062   2.698  0.0273  0.3352 -0.3844
 3046SOL    HW110579   1.974   5.149   2.664 -0.3416  0.0750 -0.8157
 3046SOL    HW210580   1.963   5.002   2.632  1.1105 -0.1021 -0.5360
 3047SOL     OW10581   0.422   4.537   3.130  0.1754  0.6035  0.0215
 3047SOL    HW110582   0.455   4.448   3.136 -1.2597  0.0693  0.4099
 3047SOL    HW210583   0.495   4.592   3.160  0.8518 -0.4774  0.4108
 3048SOL     OW10584   0.542   4.028   2.264  0.1337 -0.4941 -0.0199
 3048SOL    HW110585   0.452   4.045   2.239 -0.3723 -0.9778  1.3650
 3048SOL    HW210586   0.582   4.115   2.272 -0.7636 -0.1819  1.2602
 3049SOL     OW10587   0.380   6.741   1.117 -0.7235 -0.0106 -0.3311
 3049SOL    HW110588   0.405   6.651   1.137  0.2198  0.4356  0.5704
 3049SOL    HW210589   0.288   6.734   1.091 -1.7563 -0.8677  2.9924
 3050SOL     OW10590   0.146   5.143   3.586 -0.1254  0.2190  0.2461
 3050SOL    HW110591   0.237   5.150   3.614  0.3883  2.2143 -1.6202
 3050SOL    HW210592   0.097   5.193   3.650  0.0362 -0.8839  1.2774
 3051SOL     OW10593   1.684   3.290   2.520 -0.0543 -0.1327 -0.2911
 3051SOL    HW110594   1.705   3.319   2.431 -1.3664  0.0080 -0.5878
 3051SOL    HW210595   1.598   3.328   2.538  0.3062  0.0671  1.1611
 3052SOL     OW10596   7.406   4.118   3.123 -0.9870 -0.4458  0.5803
 3052SOL    HW110597   7.388   4.196   3.071 -2.1747  0.5458  2.3596
 3052SOL    HW210598   7.461   4.149   3.195 -1.2017 -1.2938  1.1323
 3053SOL     OW10599   7.348   3.633   1.825  0.7445  0.1574 -0.7222
 3053SOL    HW110600   7.354   3.728   1.812  0.0168  0.1137 -1.4501
 3053SOL    HW210601   7.301   3.601   1.748 -1.2961 -0.4813  0.6950
 3054SOL     OW10602   1.135   4.847   3.121 -0.3297  0.4180 -0.0724
 3054SOL    HW110603   1.138   4.808   3.034  1.2792  0.4092 -0.0493
 3054SOL    HW210604   1.107   4.937   3.107  0.7055  0.6583 -0.7307
 3055SOL     OW10605   7.513   7.811   3.097  0.0698  0.0477  0.2436
 3055SOL    HW110606   7.500   7.843   3.186 -0.9397  1.5704 -0.4222
 3055SOL    HW210607   7.574   7.873   3.057 -1.0413  0.5551 -0.7238
 3056SOL     OW10608   0.503   4.740   2.128 -0.1251 -0.5867 -0.7709
 3056SOL    HW110609   0.568   4.696   2.074  0.3841 -1.0794  0.2104
 3056SOL    HW210610   0.439   4.672   2.150 -2.1468  0.2918 -3.3336
 3057SOL     OW10611   0.974   3.214   2.611 -0.0675 -0.5555 -0.7637
 3057SOL    HW110612   1.047   3.238   2.554  0.1100 -1.1094 -0.7738
 3057SOL    HW210613   0.897   3.251   2.568  0.4408  2.1270  0.4586
 3058SOL     OW10614   2.449   5.437   1.535 -0.0658  0.4369  0.0639
 3058SOL    HW110615   2.463   5.440   1.630 -1.2311 -0.0532  0.2690
 3058SOL    HW210616   2.374   5.378   1.524  0.6518 -0.2701 -1.2327
 3059SOL     OW10617   7.840   7.058   0.817  0.2790  0.7510  0.3473
 3059SOL    HW110618   7.935   7.053   0.831  0.4332  0.6833 -0.6704
 3059SOL    HW210619   7.826   7.145   0.778  0.1359  0.1207 -1.0444
 3060SOL     OW10620   1.907   3.876   1.080 -0.8128  0.1558  0.1736
 3060SOL    HW110621   1.976   3.811   1.095 -0.2936  0.6136 -0.1875
 3060SOL    HW210622   1.919   3.941   1.149 -0.1473  0.8329 -0.5562
 3061SOL     OW10623   0.238   5.694   2.484 -0.1626  0.0468 -0.2559
 3061SOL    HW110624   0.327   5.660   2.498 -0.1678  0.5971  1.2746
 3061SOL    HW210625   0.242   5.735   2.398  1.2531  0.6121  0.0482
 3062SOL     OW10626   2.035   6.009   3.011 -0.4664 -0.2490 -0.0171
 3062SOL    HW110627   2.051   6.056   2.929 -1.1379 -2.6492 -1.6232
 3062SOL    HW210628   2.123   5.983   3.040 -0.3521 -1.8730 -1.6087
 3063SOL     OW10629   0.301   6.876   2.757 -0.4337  0.0317  0.6523
 3063SOL    HW110630   0.278   6.852   2.847  0.9353  2.8362  1.8585
 3063SOL    HW210631   0.394   6.855   2.749 -0.2703  0.8471  0.3007
 3064SOL     OW10632   2.236   4.199   1.811  0.0856  0.9141 -0.6307
 3064SOL    HW110633   2.176   4.188   1.737 -0.3020  1.6040 -0.4284
 3064SOL    HW210634   2.179   4.220   1.885  0.0771 -3.1507  0.7507
 3065SOL     OW10635   1.589   4.692   2.066 -0.1820 -0.2798 -0.1390
 3065SOL    HW110636   1.584   4.669   2.159  1.0920  1.1880  0.3507
 3065SOL    HW210637   1.669   4.744   2.059  0.0904 -0.8907 -2.1970
 3066SOL     OW10638   7.266   4.665   2.261  0.2996  0.4994 -0.0796
 3066SOL    HW110639   7.192   4.682   2.320  0.4025  3.2854 -0.6195
 3066SOL    HW210640   7.226   4.625   2.184 -0.3056 -0.1000  0.5263
 3067SOL     OW10641   0.357   6.136   2.433 -0.0714 -0.4020 -0.2754
 3067SOL    HW110642   0.388   6.177   2.514  0.5147  1.1702 -1.2404
 3067SOL    HW210643   0.357   6.207   2.369  0.0598 -1.7348 -1.8199
 3068SOL     OW10644   0.981   3.075   2.155  0.4912 -0.0434 -0.6601
 3068SOL    HW110645   1.046   3.045   2.219 -0.0004 -0.1692 -0.2195
 3068SOL    HW210646   0.992   3.015   2.080  0.6683 -0.2571 -0.4648
 3069SOL     OW10647   0.819   7.834   4.626  0.2474 -0.6883 -0.4251
 3069SOL    HW110648   0.755   7.763   4.621  0.7215 -1.0122 -2.7236
 3069SOL    HW210649   0.891   7.805   4.571  0.0707  1.9506 -2.1954
 3070SOL     OW10650   1.214   4.306   3.099 -0.5788 -0.2670  0.5436
 3070SOL    HW110651   1.275   4.234   3.115 -0.3748 -0.0678  0.6666
 3070SOL    HW210652   1.178   4.287   3.012 -0.0298 -0.1651  0.2880
 3071SOL     OW10653   0.659   4.051   0.635  0.1907  0.2810 -0.3860
 3071SOL    HW110654   0.609   4.081   0.559  0.8298 -1.3605 -1.5198
 3071SOL    HW210655   0.662   3.956   0.626 -0.5999 -0.1022  2.2826
 3072SOL     OW10656   0.535   5.421  12.230  0.1092  0.1480 -0.0672
 3072SOL    HW110657   0.585   5.391  12.306  0.6005 -1.0039 -0.8096
 3072SOL    HW210658   0.546   5.351  12.166 -1.1096  0.6499 -0.8451
 3073SOL     OW10659   6.882   3.616   4.213  0.2248  0.1180  0.1247
 3073SOL    HW110660   6.902   3.565   4.134  2.8169 -1.1782  1.4901
 3073SOL    HW210661   6.961   3.611   4.266 -1.3637  1.0117  2.8049
 3074SOL     OW10662   0.554   5.478   1.828 -0.0889 -0.5635  0.0627
 3074SOL    HW110663   0.579   5.512   1.914  0.4981  1.1351 -0.7358
 3074SOL    HW210664   0.482   5.534   1.799  0.2894 -0.5485 -0.9049
 3075SOL     OW10665   0.048   4.156   3.405  0.6312 -0.0160  0.0019
 3075SOL    HW110666   0.141   4.179   3.404  0.5659  0.2442 -0.2240
 3075SOL    HW210667   0.037   4.104   3.485  0.9708 -0.0521  0.0261
 3076SOL     OW10668   0.303   4.525   2.122 -0.7910  0.1961  0.4734
 3076SOL    HW110669   0.366   4.479   2.067  0.4373  2.2777  0.0202
 3076SOL    HW210670   0.315   4.488   2.210  0.2862 -0.2030  0.1709
 3077SOL     OW10671   7.437   5.575   0.661  0.6257  0.0610  0.3279
 3077SOL    HW110672   7.419   5.571   0.567 -1.0846  2.5436  0.4542
 3077SOL    HW210673   7.501   5.645   0.670  0.2941  0.2754  1.0637
 3078SOL     OW10674   0.649   4.441   1.326  0.2254  0.2595 -0.1981
 3078SOL    HW110675   0.653   4.347   1.343 -2.1841  0.0275 -0.5620
 3078SOL    HW210676   0.678   4.450   1.235 -1.8944 -0.5214 -1.0214
 3079SOL     OW10677   1.171   4.259   3.574  0.2142 -0.2889  0.4422
 3079SOL    HW110678   1.244   4.251   3.635 -0.7253 -0.7195  1.5531
 3079SOL    HW210679   1.105   4.310   3.622 -0.6941 -0.9654 -0.0478
 3080SOL     OW10680   0.365   4.084   1.622 -0.0856 -0.0772  0.2295
 3080SOL    HW110681   0.380   4.128   1.538  0.5210 -1.0726 -0.1998
 3080SOL    HW210682   0.270   4.076   1.627 -0.1179 -0.2927 -0.5247
 3081SOL     OW10683   1.140   6.372   2.830  0.3646 -1.0185 -0.6613
 3081SOL    HW110684   1.150   6.411   2.743  2.4230  0.5841  0.2017
 3081SOL    HW210685   1.070   6.423   2.871  0.0933 -1.1009 -1.0124
 3082SOL     OW10686   7.691   5.269   0.970 -0.2852 -0.4641  0.2359
 3082SOL    HW110687   7.765   5.219   0.935  0.4343  0.3882  0.4905
 3082SOL    HW210688   7.717   5.360   0.959 -1.0458 -0.1619  0.8802
 3083SOL     OW10689   0.851   4.110   2.324 -0.1695 -0.5769  0.3644
 3083SOL    HW110690   0.922   4.104   2.260 -1.1268  1.0277 -0.8962
 3083SOL    HW210691   0.880   4.177   2.386 -0.5248 -0.0002 -0.0880
 3084SOL     OW10692   0.754   5.319   3.496 -0.2333 -0.3379 -0.2752
 3084SOL    HW110693   0.701   5.257   3.446 -2.5909  1.9123 -0.7953
 3084SOL    HW210694   0.798   5.373   3.430  0.1110 -0.1239  0.1208
 3085SOL     OW10695   2.723   3.460   2.575 -0.3221  0.1258 -0.6014
 3085SOL    HW110696   2.665   3.535   2.557 -0.6275 -0.0888 -0.5044
 3085SOL    HW210697   2.687   3.420   2.654 -0.8380 -0.7993 -1.2786
 3086SOL     OW10698   0.641   5.678   3.073 -0.6283  0.4340  0.6862
 3086SOL    HW110699   0.572   5.733   3.108 -1.0870 -0.4880  1.2586
 3086SOL    HW210700   0.596   5.613   3.019 -0.0028  1.2912 -0.9436
 3087SOL     OW10701   3.557   6.595   0.894  0.0176 -0.0812 -0.5838
 3087SOL    HW110702   3.646   6.591   0.927 -0.2716 -1.9042  0.1156
 3087SOL    HW210703   3.517   6.513   0.922 -1.9479  0.7553 -0.7053
 3088SOL     OW10704   0.047   4.591   1.285  0.0351 -0.5867  0.5417
 3088SOL    HW110705  -0.047   4.586   1.302  0.0853 -1.3302  0.6516
 3088SOL    HW210706   0.064   4.516   1.227 -0.1458  1.8042 -2.9146
 3089SOL     OW10707   7.871   3.919   1.979 -0.4344 -0.2927  0.1148
 3089SOL    HW110708   7.849   4.008   2.004 -2.7070 -0.8561  0.3045
 3089SOL    HW210709   7.808   3.864   2.024  0.0865 -1.9195 -1.0050
 3090SOL     OW10710   2.180   4.336   3.559  0.2033  0.0031 -0.3115
 3090SOL    HW110711   2.256   4.390   3.581 -0.8221  1.5912 -0.5431
 3090SOL    HW210712   2.188   4.320   3.465  0.0661  0.4513 -0.3975
 3091SOL     OW10713   0.650   4.972   2.179 -0.0341 -0.3320 -0.2920
 3091SOL    HW110714   0.622   4.886   2.146  1.5694 -0.3127 -1.8760
 3091SOL    HW210715   0.743   4.960   2.201 -0.2934  0.5008  1.4180
 3092SOL     OW10716   0.003   5.670   4.334  0.0938  0.3497 -0.4813
 3092SOL    HW110717  -0.090   5.669   4.359  0.0919  0.7742 -0.4634
 3092SOL    HW210718   0.047   5.622   4.404 -0.0138  0.8360 -0.0671
 3093SOL     OW10719   0.871   3.410   2.853  0.3508  0.4701 -0.3239
 3093SOL    HW110720   0.911   3.361   2.781 -0.1248 -0.1692 -0.1584
 3093SOL    HW210721   0.788   3.365   2.870  0.4196  0.6533  0.5703
 3094SOL     OW10722   1.073   4.344   1.545 -0.0613  0.0463  0.1491
 3094SOL    HW110723   1.038   4.287   1.613 -0.1566  0.0587  0.1124
 3094SOL    HW210724   1.026   4.427   1.557 -0.3056 -0.0501 -0.1254
 3095SOL     OW10725   0.388   4.697   1.304  0.4906 -0.5483  0.4551
 3095SOL    HW110726   0.299   4.714   1.273  0.4888  0.4807  0.9961
 3095SOL    HW210727   0.390   4.602   1.319 -0.3475 -0.6599 -0.0632
 3096SOL     OW10728   0.208   6.474   3.893  0.2589  0.5106 -0.0457
 3096SOL    HW110729   0.124   6.466   3.847 -0.1504  1.3985  0.5248
 3096SOL    HW210730   0.224   6.568   3.897  0.7633  0.3957  0.7799
 3097SOL     OW10731   2.235   5.401   2.149 -0.4315  0.1083  0.5203
 3097SOL    HW110732   2.283   5.379   2.070 -0.8898 -1.5365  0.6572
 3097SOL    HW210733   2.295   5.379   2.221 -0.3485  0.7364  0.6462
 3098SOL     OW10734   2.179   4.609   2.712 -0.2131  0.4285 -0.5803
 3098SOL    HW110735   2.266   4.645   2.689  0.2390  0.4764  1.1232
 3098SOL    HW210736   2.118   4.675   2.679  0.3083 -0.0138 -2.5953
 3099SOL     OW10737   7.998   3.266   3.488  0.2806  0.2224  0.0887
 3099SOL    HW110738   7.975   3.176   3.510 -2.4547  1.1474  1.6192
 3099SOL    HW210739   8.092   3.271   3.502  0.3476 -2.1501  0.9419
 3100SOL     OW10740   6.687   3.832   2.245  0.8153  0.6563  0.4572
 3100SOL    HW110741   6.713   3.792   2.328  1.2602  1.5683  0.7789
 3100SOL    HW210742   6.738   3.785   2.179  0.9905  0.3966  0.7742
 3101SOL     OW10743   7.419   4.769   1.449  0.1091 -0.2823  0.1376
 3101SOL    HW110744   7.329   4.747   1.469  0.4889  0.3575  2.9094
 3101SOL    HW210745   7.415   4.818   1.367 -1.5819 -3.4491 -1.8599
 3102SOL     OW10746   0.912   3.652   1.150 -0.1458 -0.0441  0.4604
 3102SOL    HW110747   0.947   3.733   1.187  0.8182  1.7414 -3.7435
 3102SOL    HW210748   0.989   3.601   1.125 -0.6967 -0.7388  0.1191
 3103SOL     OW10749   0.722   5.943   4.028  0.1340  0.4923 -0.1804
 3103SOL    HW110750   0.740   5.872   3.966 -0.1876 -1.5403  1.9111
 3103SOL    HW210751   0.781   5.926   4.101 -2.7887 -0.0952  2.1917
 3104SOL     OW10752   0.811   4.439   3.975  0.0745  0.5176 -0.6274
 3104SOL    HW110753   0.863   4.490   4.038  1.2954  0.3436 -1.4507
 3104SOL    HW210754   0.838   4.349   3.990 -2.9743 -0.1789  1.6754
 3105SOL     OW10755   0.298   5.225   1.956  0.5003 -0.0517 -0.0884
 3105SOL    HW110756   0.348   5.238   2.037 -0.7982  0.3168  0.6859
 3105SOL    HW210757   0.263   5.312   1.935  1.5625  0.0512 -1.5799
 3106SOL     OW10758   6.887   4.818   1.170 -0.1727  0.2210 -0.7122
 3106SOL    HW110759   6.797   4.786   1.171 -0.0115 -0.3558 -2.2319
 3106SOL    HW210760   6.934   4.754   1.116  1.6715 -0.8098  1.8956
 3107SOL     OW10761   0.748   3.850   2.368  0.1015 -0.2067 -0.0913
 3107SOL    HW110762   0.669   3.872   2.417  0.6209 -0.6956  0.9881
 3107SOL    HW210763   0.800   3.930   2.369  0.1991 -0.2716  0.3443
 3108SOL     OW10764   1.128   5.641   3.739 -0.2781  0.0606  0.4179
 3108SOL    HW110765   1.216   5.612   3.766 -0.3952  0.1159  0.8698
 3108SOL    HW210766   1.069   5.579   3.781 -0.4284 -0.3268 -0.3681
 3109SOL     OW10767   7.862   3.068   3.082 -0.4179 -0.0194 -0.0439
 3109SOL    HW110768   7.955   3.051   3.068 -0.5957 -2.2557  1.0456
 3109SOL    HW210769   7.860   3.124   3.160  0.0107 -1.4953  1.0831
 3110SOL     OW10770   0.248   3.931   3.462 -0.2755  0.7918 -0.5900
 3110SOL    HW110771   0.285   3.852   3.502 -0.1011  1.7804  1.3468
 3110SOL    HW210772   0.313   3.958   3.398  0.0660 -0.1637 -0.6614
 3111SOL     OW10773   0.566   2.988   1.346 -0.1552 -0.3888  0.9239
 3111SOL    HW110774   0.626   2.929   1.300 -0.1156 -0.3610  0.9385
 3111SOL    HW210775   0.622   3.061   1.374 -0.0957 -0.6148  1.3931
 3112SOL     OW10776   1.806   5.828   3.433  0.4246 -0.4849 -0.1724
 3112SOL    HW110777   1.882   5.775   3.413  2.9206  2.5043  0.6049
 3112SOL    HW210778   1.808   5.840   3.528 -2.0468 -1.6580  0.1044
 3113SOL     OW10779   6.777   4.425   2.574 -0.3029 -0.7315  0.6746
 3113SOL    HW110780   6.854   4.372   2.555 -0.2381 -0.7794  1.0735
 3113SOL    HW210781   6.798   4.470   2.656  0.4499  1.4401 -0.6357
 3114SOL     OW10782   0.044   3.135   2.784  0.2017 -0.6645  0.0036
 3114SOL    HW110783   0.032   3.048   2.747 -0.7629 -0.9392  0.9190
 3114SOL    HW210784   0.051   3.121   2.879 -1.4365  0.3486  0.3174
 3115SOL     OW10785   0.190   5.083   2.788  0.2278  0.0601  0.3398
 3115SOL    HW110786   0.113   5.093   2.731  0.7560 -1.8070 -0.7858
 3115SOL    HW210787   0.260   5.129   2.741  0.5402 -1.0391 -0.3108
 3116SOL     OW10788   0.813   3.755   2.715 -0.1503 -0.4067 -0.9143
 3116SOL    HW110789   0.731   3.760   2.765  0.5437 -1.9248  0.4662
 3116SOL    HW210790   0.875   3.713   2.774  1.9752  1.6483 -1.5331
 3117SOL     OW10791   1.045   4.768   2.840 -0.3533  0.2692 -0.1276
 3117SOL    HW110792   0.973   4.830   2.836  1.6835  2.7771 -0.1753
 3117SOL    HW210793   1.081   4.767   2.751 -1.5976 -2.7268 -0.7322
 3118SOL     OW10794   0.926   4.970   1.525  0.3770  0.1995  0.1310
 3118SOL    HW110795   0.962   5.018   1.599  1.4958 -0.8269  0.2907
 3118SOL    HW210796   0.955   5.019   1.448  0.0982  0.6949  0.3399
 3119SOL     OW10797   1.229   4.395   1.117  0.3567  0.3988  0.1515
 3119SOL    HW110798   1.220   4.410   1.023 -0.1278 -0.7748 -0.0164
 3119SOL    HW210799   1.150   4.346   1.141  0.5659  0.5182  1.1299
 3120SOL     OW10800   0.554   3.638   2.323  0.2482 -0.1559  0.1669
 3120SOL    HW110801   0.562   3.545   2.303  1.0966  0.2398 -1.5073
 3120SOL    HW210802   0.489   3.642   2.393  0.3848 -2.0158  0.4446
 3121SOL     OW10803   0.699   5.030   4.954  0.6615  0.1209 -0.1677
 3121SOL    HW110804   0.693   4.936   4.936 -1.3108  0.2656 -0.5116
 3121SOL    HW210805   0.752   5.064   4.882 -0.0527 -0.5194 -1.0352
 3122SOL     OW10806   1.036   5.090   3.058 -0.2179  0.3844 -0.3249
 3122SOL    HW110807   0.946   5.121   3.044 -0.5041 -0.0712  0.4464
 3122SOL    HW210808   1.053   5.106   3.151 -0.3761 -1.7316  0.1104
 3123SOL     OW10809   7.786   3.308   3.868 -0.0204  0.0673 -0.4269
 3123SOL    HW110810   7.776   3.374   3.936 -0.8671 -0.1952 -0.2857
 3123SOL    HW210811   7.807   3.358   3.789 -1.7368  0.6287 -0.5721
 3124SOL     OW10812   1.066   5.663   2.377 -0.1341  0.1561  0.0784
 3124SOL    HW110813   1.085   5.674   2.470  0.3615 -0.9558  0.1306
 3124SOL    HW210814   0.983   5.615   2.375  0.7571 -1.4703  0.0201
 3125SOL     OW10815   1.100   5.511   0.422  0.3517 -0.8202  0.5827
 3125SOL    HW110816   1.123   5.604   0.414 -0.3970 -0.7216 -0.6899
 3125SOL    HW210817   1.005   5.510   0.419  0.3380 -1.6092  1.0303
 3126SOL     OW10818   7.917   4.730   3.528  0.4976  0.2975 -0.1729
 3126SOL    HW110819   7.881   4.676   3.458  1.4357  0.1414 -0.5341
 3126SOL    HW210820   7.993   4.773   3.490  1.1575  0.0448  0.8053
 3127SOL     OW10821   7.167   5.687   1.771 -0.5596 -0.2986 -0.0946
 3127SOL    HW110822   7.210   5.601   1.774 -0.1190 -0.1327 -1.2095
 3127SOL    HW210823   7.239   5.750   1.779 -0.5089 -0.0175 -2.2126
 3128SOL     OW10824   1.235   3.936   1.255 -0.4021 -0.2127 -0.2925
 3128SOL    HW110825   1.212   3.970   1.341 -0.0814  1.3260 -0.7855
 3128SOL    HW210826   1.319   3.893   1.268  0.2124  1.0282 -0.0541
 3129SOL     OW10827   2.498   5.396   3.901 -0.0208  0.3392  0.1446
 3129SOL    HW110828   2.437   5.354   3.840  0.5255 -0.6977  0.2700
 3129SOL    HW210829   2.456   5.388   3.986  0.4799 -0.8544  0.3126
 3130SOL     OW10830   1.376   3.737   2.319 -0.4051  0.0907 -0.3899
 3130SOL    HW110831   1.376   3.794   2.242 -1.0598  1.1517  0.3748
 3130SOL    HW210832   1.468   3.721   2.337 -0.1990  1.0723 -0.5132
 3131SOL     OW10833   6.474   5.371   2.593 -0.1392 -0.5740 -0.1580
 3131SOL    HW110834   6.490   5.369   2.687  2.1890  0.0989 -0.4740
 3131SOL    HW210835   6.540   5.311   2.556  0.3901  0.7693 -1.4900
 3132SOL     OW10836   1.310   4.696   2.014 -0.2684 -0.1792 -0.0138
 3132SOL    HW110837   1.295   4.602   2.015 -1.3980 -0.0228 -0.7385
 3132SOL    HW210838   1.405   4.705   2.023 -0.2288 -1.3418  1.0594
 3133SOL     OW10839   0.714   5.316   3.788 -0.1450  0.2698  0.6199
 3133SOL    HW110840   0.762   5.341   3.709 -0.4452 -1.2472 -0.0814
 3133SOL    HW210841   0.630   5.282   3.756 -0.6911  0.5906  1.6615
 3134SOL     OW10842   7.070   6.034   1.715 -0.2528 -0.0897  0.0179
 3134SOL    HW110843   7.137   6.059   1.778  1.7156  1.9324 -2.6498
 3134SOL    HW210844   6.990   6.076   1.747  1.1349  2.6240  0.2146
 3135SOL     OW10845   0.741   5.004   4.476  0.2131 -0.3847 -0.3824
 3135SOL    HW110846   0.768   5.042   4.560  0.0995 -2.2919  0.5844
 3135SOL    HW210847   0.726   4.911   4.496 -0.8388 -0.6763 -2.2981
 3136SOL     OW10848   0.253   1.423   3.732  1.0886 -0.4730  0.7567
 3136SOL    HW110849   0.255   1.485   3.804 -0.5675  1.2009 -0.5507
 3136SOL    HW210850   0.198   1.351   3.764  0.4604  0.2015  1.2330
 3137SOL     OW10851   0.834   2.874   5.730 -0.1070  0.1258 -0.3719
 3137SOL    HW110852   0.789   2.810   5.674 -0.3446 -0.0798  0.0458
 3137SOL    HW210853   0.892   2.821   5.785  0.5502  0.3796 -0.8136
 3138SOL     OW10854   1.344   4.484   2.820 -0.6744  0.1036  0.1567
 3138SOL    HW110855   1.357   4.526   2.735 -1.6714  1.6252  0.7250
 3138SOL    HW210856   1.256   4.446   2.815  0.4994 -2.8108 -0.6551
 3139SOL     OW10857   1.480   3.895   3.902 -0.5185 -0.4737  0.3227
 3139SOL    HW110858   1.510   3.905   3.992  0.3187 -0.7783  0.0901
 3139SOL    HW210859   1.560   3.898   3.850 -0.9847 -0.3916 -0.4033
 3140SOL     OW10860   0.211   5.454   3.647 -0.0574 -0.7967  0.2425
 3140SOL    HW110861   0.280   5.389   3.664  0.4497 -0.0912  0.9878
 3140SOL    HW210862   0.223   5.519   3.716 -0.1849  0.3813 -0.8065
 3141SOL     OW10863   0.276   7.400   2.280 -0.1584 -0.3707 -0.4127
 3141SOL    HW110864   0.245   7.331   2.338 -1.1532  0.7096  0.4090
 3141SOL    HW210865   0.268   7.480   2.332 -0.0325  0.4946 -1.6731
 3142SOL     OW10866   0.086   5.094   1.673  0.3144 -0.1184  0.5469
 3142SOL    HW110867   0.003   5.051   1.651 -0.1002  0.0030  1.8411
 3142SOL    HW210868   0.114   5.053   1.754  1.3547  0.0946  0.3101
 3143SOL     OW10869   0.066   5.446   0.560 -0.1898 -0.1093 -0.0351
 3143SOL    HW110870   0.076   5.354   0.587  1.7293  0.2738  0.7002
 3143SOL    HW210871   0.068   5.495   0.641  2.3454  0.8278 -0.5914
 3144SOL     OW10872   6.403   4.589   2.215 -0.4098 -0.4428  0.4014
 3144SOL    HW110873   6.424   4.577   2.308 -1.5771 -2.1105  0.5035
 3144SOL    HW210874   6.386   4.683   2.206  1.4371  0.0430  1.4722
 3145SOL     OW10875   0.800   4.582   2.086 -0.2852 -0.4343 -0.0844
 3145SOL    HW110876   0.840   4.529   2.017  0.2528  1.4725 -1.3030
 3145SOL    HW210877   0.771   4.662   2.042 -0.4329  0.6094  1.7837
 3146SOL     OW10878   0.366   4.167   2.975 -0.4837  0.2704 -0.1195
 3146SOL    HW110879   0.387   4.179   2.882 -1.1762  0.2931 -0.2802
 3146SOL    HW210880   0.446   4.192   3.021 -0.3509  0.9096 -0.6762
 3147SOL     OW10881   0.147   5.305   3.347  0.2963  0.4794  0.2037
 3147SOL    HW110882   0.116   5.246   3.416  1.1698 -0.9570 -0.5796
 3147SOL    HW210883   0.231   5.337   3.379 -0.9391  2.8004  1.4271
 3148SOL     OW10884   0.076   4.106   1.621 -0.3224  0.0461  0.0207
 3148SOL    HW110885   0.022   4.029   1.638  1.2294 -1.2500 -0.7335
 3148SOL    HW210886   0.048   4.136   1.534  1.3641 -1.7485 -1.2189
 3149SOL     OW10887   1.004   5.191   1.666 -0.7172 -0.6253  0.1659
 3149SOL    HW110888   1.062   5.256   1.626 -0.6037 -1.2193 -0.6488
 3149SOL    HW210889   0.930   5.242   1.698 -0.1474  0.0339  0.4516
 3150SOL     OW10890   0.373   5.281   2.693  0.5130  0.4387  0.7474
 3150SOL    HW110891   0.306   5.324   2.641  0.1297 -0.8891  0.1197
 3150SOL    HW210892   0.455   5.303   2.649  0.4212  1.2899  0.9791
 3151SOL     OW10893   7.997   6.462   2.830 -0.5652  0.4199 -0.1931
 3151SOL    HW110894   8.015   6.385   2.885  1.6108  1.6813  0.9913
 3151SOL    HW210895   8.001   6.428   2.740 -0.1280 -0.9345  0.3113
 3152SOL     OW10896   0.228   4.725   3.232  0.4409 -0.3255  0.4397
 3152SOL    HW110897   0.203   4.794   3.295  1.1659 -1.6291  2.2423
 3152SOL    HW210898   0.323   4.733   3.225  0.2690  0.4456 -1.3219
 3153SOL     OW10899   1.108   5.167   4.715 -0.3845  0.2071  0.0873
 3153SOL    HW110900   1.185   5.223   4.706 -0.4829  0.2194 -0.8417
 3153SOL    HW210901   1.096   5.156   4.809  1.1395 -0.3314  0.2457
 3154SOL     OW10902   6.180   6.259   1.588 -0.2164  0.1442  0.1022
 3154SOL    HW110903   6.168   6.353   1.605 -0.8507  0.2863 -1.0680
 3154SOL    HW210904   6.120   6.240   1.516 -1.6134 -1.6062  1.6171
 3155SOL     OW10905   2.234   4.787   2.446  0.1900  0.0285 -0.1620
 3155SOL    HW110906   2.204   4.878   2.444 -1.7427 -0.5413 -0.0228
 3155SOL    HW210907   2.154   4.736   2.464  0.7360 -1.8818 -2.6138
 3156SOL     OW10908   1.675   4.893   1.604  0.4327 -0.2377  0.3422
 3156SOL    HW110909   1.596   4.876   1.553 -0.5609 -0.0109  1.7350
 3156SOL    HW210910   1.648   4.877   1.695  2.4451 -1.8029  0.7335
 3157SOL     OW10911   0.655   4.496   3.423  0.1581 -0.2282  0.2217
 3157SOL    HW110912   0.626   4.421   3.372  1.2063 -0.7560  0.3754
 3157SOL    HW210913   0.739   4.469   3.460  0.1323  0.7028  0.9925
 3158SOL     OW10914   7.925   5.187   0.900  0.1186  0.2022 -0.4267
 3158SOL    HW110915   7.907   5.179   0.806  1.9822  1.7500 -0.9801
 3158SOL    HW210916   8.021   5.188   0.906  0.0308  0.7167  1.4227
 3159SOL     OW10917   1.411   5.645   4.501 -0.5091  0.1173 -0.8022
 3159SOL    HW110918   1.479   5.578   4.508 -0.3807  0.1724 -1.4659
 3159SOL    HW210919   1.337   5.600   4.460 -1.3677 -0.2937  1.1020
 3160SOL     OW10920   0.362   5.926   1.644  0.0095  0.2039  0.2271
 3160SOL    HW110921   0.293   5.934   1.579  1.0200 -1.9591 -1.2304
 3160SOL    HW210922   0.316   5.912   1.727 -1.2815  1.8578 -0.1835
 3161SOL     OW10923   1.223   5.895   2.094 -0.3809 -0.3593 -0.1724
 3161SOL    HW110924   1.257   5.835   2.027  0.2512 -0.1962 -0.0051
 3161SOL    HW210925   1.279   5.880   2.170 -1.7122 -1.2546  0.6651
 3162SOL     OW10926   1.753   4.442   2.771 -1.0588 -0.2722  0.3651
 3162SOL    HW110927   1.749   4.530   2.734 -0.4449 -0.0108  0.8933
 3162SOL    HW210928   1.795   4.454   2.857 -2.3040 -0.8640  1.0931
 3163SOL     OW10929   1.448   3.294   2.990  0.1828 -0.7281 -0.1433
 3163SOL    HW110930   1.421   3.282   3.081 -0.3225 -1.2297 -0.3570
 3163SOL    HW210931   1.367   3.315   2.943  0.4573 -0.3726 -0.4643
 3164SOL     OW10932   1.506   4.703   2.947 -0.1540  0.3488  0.3012
 3164SOL    HW110933   1.445   4.650   2.897  0.5420  0.2297 -0.4425
 3164SOL    HW210934   1.517   4.656   3.030  0.3251 -0.5879 -0.2810
 3165SOL     OW10935   1.540   4.135   2.605  0.2289  0.0402  0.2099
 3165SOL    HW110936   1.621   4.186   2.603  0.3279 -0.1183  0.1621
 3165SOL    HW210937   1.517   4.130   2.698  0.2601  0.1074  0.2213
 3166SOL     OW10938   0.180   3.573   0.755  0.4131  0.0201  0.2774
 3166SOL    HW110939   0.130   3.557   0.835 -0.9379  3.9360  0.4432
 3166SOL    HW210940   0.266   3.600   0.785  0.4148 -0.0438  0.3304
 3167SOL     OW10941   1.043   4.195   1.774  0.0134  0.3732 -0.4646
 3167SOL    HW110942   1.122   4.215   1.824  0.0291 -0.6179 -0.0785
 3167SOL    HW210943   1.021   4.105   1.798 -0.2778  0.0481 -1.8519
 3168SOL     OW10944   1.323   4.230   1.550 -0.1022  0.2920 -0.2767
 3168SOL    HW110945   1.240   4.276   1.551 -0.7098 -0.7882  0.4041
 3168SOL    HW210946   1.300   4.137   1.551  1.0946 -0.0464 -1.0447
 3169SOL     OW10947   7.759   6.303   3.735 -0.0977 -0.1504  0.0632
 3169SOL    HW110948   7.703   6.225   3.734  0.7881 -0.7847 -0.5118
 3169SOL    HW210949   7.796   6.308   3.647  0.0074  0.8210  0.1481
 3170SOL     OW10950   7.119   4.781   2.480 -0.5342  0.0516  0.3189
 3170SOL    HW110951   7.073   4.743   2.555 -2.4230  1.4318 -0.0678
 3170SOL    HW210952   7.198   4.819   2.518 -1.0217 -0.0395  1.4843
 3171SOL     OW10953   0.142   4.892   3.452 -0.3051  0.1015  0.6388
 3171SOL    HW110954   0.166   4.963   3.512  0.7923  1.1848 -0.9759
 3171SOL    HW210955   0.120   4.937   3.370 -0.5630 -1.3705 -0.1295
 3172SOL     OW10956   0.405   5.784   3.758  0.6673  0.4197  0.3099
 3172SOL    HW110957   0.455   5.752   3.834 -0.3934  0.6375  1.1207
 3172SOL    HW210958   0.427   5.723   3.688 -0.6786 -1.6708  1.6068
 3173SOL     OW10959   6.457   3.924   2.710 -0.1128 -0.1498 -0.5017
 3173SOL    HW110960   6.518   3.937   2.638 -1.3539  1.5279 -1.2944
 3173SOL    HW210961   6.507   3.873   2.774  1.8490  0.4919 -1.4460
 3174SOL     OW10962   0.483   5.593   1.510 -0.5892 -0.0227  0.0107
 3174SOL    HW110963   0.492   5.666   1.450 -0.3896 -0.0042  0.0623
 3174SOL    HW210964   0.418   5.623   1.574 -1.7740 -0.5268 -0.9192
 3175SOL     OW10965   0.558   4.518   2.420 -0.0396 -0.6911 -0.6459
 3175SOL    HW110966   0.574   4.554   2.507 -2.4940  0.4715 -0.5658
 3175SOL    HW210967   0.644   4.492   2.388  1.2740  1.1165  1.1529
 3176SOL     OW10968   2.031   3.598   2.689  1.0345  0.6529 -0.1755
 3176SOL    HW110969   1.968   3.634   2.752  2.4149  0.3103  1.4468
 3176SOL    HW210970   1.999   3.509   2.671  1.2669  0.3148  0.9944
 3177SOL     OW10971   7.971   4.654   4.522 -0.4782  0.4567 -0.5331
 3177SOL    HW110972   7.918   4.629   4.598  1.3303 -1.1855  0.2677
 3177SOL    HW210973   7.952   4.588   4.456 -0.2111  0.4543 -0.6105
 3178SOL     OW10974   0.067   4.674   2.229  0.2395 -0.1336  0.0834
 3178SOL    HW110975   0.117   4.747   2.264 -0.6754  0.5779 -0.0436
 3178SOL    HW210976   0.131   4.605   2.215  1.5226  1.3748 -1.9192
 3179SOL     OW10977   1.517   4.527   3.187  0.8038  0.2251 -0.1821
 3179SOL    HW110978   1.492   4.455   3.129 -1.0548  0.6019  0.0792
 3179SOL    HW210979   1.608   4.510   3.208  0.3349 -2.2746  0.1740
 3180SOL     OW10980   1.139   4.086   0.808 -0.1020 -0.5570  0.7358
 3180SOL    HW110981   1.167   4.174   0.833 -1.1221 -0.3484  1.2185
 3180SOL    HW210982   1.067   4.066   0.869 -0.8354 -1.1391 -0.2951
 3181SOL     OW10983   1.868   5.169   1.691 -0.5825 -0.2671 -0.3051
 3181SOL    HW110984   1.831   5.100   1.745  1.2308 -1.3095 -0.3174
 3181SOL    HW210985   1.826   5.157   1.605  0.0653 -1.6907 -0.4499
 3182SOL     OW10986   1.466   4.359   2.377 -0.1263  0.3153 -0.1254
 3182SOL    HW110987   1.380   4.399   2.362 -0.0223  1.4295  1.8167
 3182SOL    HW210988   1.447   4.282   2.430 -0.1168 -1.0336 -1.9856
 3183SOL     OW10989   1.596   2.954   3.257  0.2178  0.0655 -0.2754
 3183SOL    HW110990   1.527   2.987   3.199  1.1783  2.3925 -0.2191
 3183SOL    HW210991   1.627   2.874   3.216 -0.9959  0.1710 -1.4648
 3184SOL     OW10992   0.464   6.449   0.899  0.0590 -0.0086  0.1861
 3184SOL    HW110993   0.507   6.373   0.861 -1.3464 -0.0720 -1.4226
 3184SOL    HW210994   0.486   6.447   0.992  3.2414 -0.1576 -0.4851
 3185SOL     OW10995   0.624   5.677   4.498  0.4238 -0.1855 -0.1989
 3185SOL    HW110996   0.549   5.661   4.442  0.3258 -0.5948  0.0437
 3185SOL    HW210997   0.648   5.591   4.533  0.7946 -0.0132 -0.0095
 3186SOL     OW10998   1.222   3.968   3.989  0.2017 -0.1429  0.0373
 3186SOL    HW110999   1.296   3.911   4.010  0.2365 -0.7676 -1.6126
 3186SOL    HW211000   1.222   3.973   3.893 -3.0422 -1.7071 -0.1747
 3187SOL     OW11001   2.159   7.556   1.872  0.0980  0.3195  0.3625
 3187SOL    HW111002   2.089   7.538   1.809  0.4960 -3.1852  0.6858
 3187SOL    HW211003   2.218   7.481   1.864  2.5468  1.9486  1.8313
 3188SOL     OW11004   1.775   4.613   3.349  0.2679  0.1912 -0.3936
 3188SOL    HW111005   1.775   4.674   3.275  0.3521  0.9460  0.2066
 3188SOL    HW211006   1.823   4.660   3.418  0.9334 -0.8400 -0.1371
 3189SOL     OW11007   7.069   6.547   4.254 -0.1110  0.0819 -0.7150
 3189SOL    HW111008   7.121   6.466   4.252  0.2358  0.2358  0.8296
 3189SOL    HW211009   6.980   6.518   4.236 -0.2394 -0.9064  1.2614
 3190SOL     OW11010   7.748   4.780   1.544  0.2090  0.7015  0.1173
 3190SOL    HW111011   7.836   4.818   1.535 -0.1120  1.5678  0.4541
 3190SOL    HW211012   7.763   4.687   1.560  1.0748  0.8595  0.2858
 3191SOL     OW11013   7.604   4.993   3.978  0.3429  0.1604  0.1054
 3191SOL    HW111014   7.666   5.006   3.906 -0.5492 -2.6313 -1.3307
 3191SOL    HW211015   7.518   4.988   3.935 -0.3498 -0.4692  1.4856
 3192SOL     OW11016   0.920   3.816   3.934 -0.0418 -0.1632 -0.4194
 3192SOL    HW111017   0.955   3.901   3.908 -0.0771 -0.3568 -1.1111
 3192SOL    HW211018   0.993   3.755   3.925 -1.0136 -1.0347 -4.1535
 3193SOL     OW11019   1.379   5.842   2.816 -0.3241 -0.0129 -0.3437
 3193SOL    HW111020   1.307   5.888   2.858 -1.8380 -0.8501 -1.8968
 3193SOL    HW211021   1.392   5.887   2.733  0.0881 -0.6430 -0.6313
 3194SOL     OW11022   2.707   6.559   3.272  0.2730  0.0965  0.0301
 3194SOL    HW111023   2.644   6.492   3.297 -0.0876 -0.7706 -2.8732
 3194SOL    HW211024   2.771   6.560   3.343 -1.0189 -1.5885  1.2863
 3195SOL     OW11025   0.681   4.158   1.302 -0.0312 -0.3160 -0.6911
 3195SOL    HW111026   0.663   4.094   1.233  0.7394 -0.1190 -1.0858
 3195SOL    HW211027   0.598   4.165   1.350 -0.1096 -1.6582 -0.5899
 3196SOL     OW11028   1.076   5.189   3.323  0.0277 -0.3412  0.7206
 3196SOL    HW111029   1.088   5.111   3.377  1.1015 -1.0188 -0.4406
 3196SOL    HW211030   1.123   5.258   3.371 -0.7079 -0.4544  1.6227
 3197SOL     OW11031   1.729   4.731  11.989 -0.4312  0.4702  0.1672
 3197SOL    HW111032   1.685   4.766  12.066  0.1803  1.3038  0.1482
 3197SOL    HW211033   1.809   4.783  11.981 -0.7814  0.8252 -1.3962
 3198SOL     OW11034   7.175   4.535   1.462  0.9571  0.3249 -0.1674
 3198SOL    HW111035   7.134   4.465   1.411 -0.2367 -0.0699  1.2676
 3198SOL    HW211036   7.248   4.492   1.507  0.8220  0.2265 -0.0423
 3199SOL     OW11037   6.555   5.114   1.109 -0.0216  0.3927  0.1797
 3199SOL    HW111038   6.518   5.146   1.026 -0.2287 -1.4041 -0.4829
 3199SOL    HW211039   6.646   5.142   1.107  0.3554 -0.7562 -1.3510
 3200SOL     OW11040   0.122   4.283   2.604  0.3323 -0.1381 -0.3419
 3200SOL    HW111041   0.084   4.371   2.598  1.8568  0.6311  0.6955
 3200SOL    HW211042   0.060   4.234   2.658 -0.0178  0.6052 -0.0566
 3201SOL     OW11043   0.206   3.408   3.203  0.1835  0.3223 -0.5384
 3201SOL    HW111044   0.274   3.413   3.136 -0.3892  1.9549 -1.0505
 3201SOL    HW211045   0.129   3.448   3.162 -0.5972  0.0709  0.6143
 3202SOL     OW11046   7.622   4.476   2.407 -0.4193  0.0076 -0.4546
 3202SOL    HW111047   7.583   4.547   2.355 -0.3309 -0.3330 -0.9939
 3202SOL    HW211048   7.550   4.440   2.457 -0.5130  0.3233 -0.3622
 3203SOL     OW11049   7.847   4.586   1.698 -0.4304  0.3206  0.5131
 3203SOL    HW111050   7.911   4.521   1.668  0.4632  1.3333  0.1601
 3203SOL    HW211051   7.895   4.638   1.763 -1.7466 -0.6040  2.3255
 3204SOL     OW11052   7.611   5.450   1.803  0.1627 -0.6123  0.2123
 3204SOL    HW111053   7.703   5.424   1.811  0.0377 -1.0898  0.1492
 3204SOL    HW211054   7.591   5.436   1.710  0.1594 -0.0568  0.1293
 3205SOL     OW11055   7.850   4.558   4.289 -0.2509  0.3570 -0.4777
 3205SOL    HW111056   7.788   4.509   4.342  0.7342 -0.1558  0.2321
 3205SOL    HW211057   7.796   4.610   4.230 -1.3460 -1.3114 -1.0167
 3206SOL     OW11058   1.379   4.255   5.259  0.0111 -0.2847  0.1462
 3206SOL    HW111059   1.311   4.294   5.312  1.1911  2.8776 -0.4656
 3206SOL    HW211060   1.333   4.190   5.205 -1.6774 -1.4240  2.7608
 3207SOL     OW11061   0.096   5.033   3.201 -0.1369  0.0442 -0.7687
 3207SOL    HW111062   0.153   5.109   3.205 -1.4373  1.0097  1.7981
 3207SOL    HW211063   0.027   5.058   3.140 -1.6051  1.8605  1.4437
 3208SOL     OW11064   7.664   4.974   2.972 -0.1415  0.1503  0.2411
 3208SOL    HW111065   7.701   4.899   2.926  0.3197 -0.6710  1.8808
 3208SOL    HW211066   7.739   5.027   2.997 -0.2985  0.0121  1.0188
 3209SOL     OW11067   0.905   4.720   6.570  0.1015  0.5066 -0.5182
 3209SOL    HW111068   0.870   4.704   6.658  0.6010  1.6636 -0.0830
 3209SOL    HW211069   1.000   4.725   6.583  0.3408 -1.1170 -1.4382
 3210SOL     OW11070   0.714   5.447   4.117 -0.2471 -0.4531  0.5119
 3210SOL    HW111071   0.631   5.482   4.150 -0.3639 -0.1961 -0.0431
 3210SOL    HW211072   0.777   5.516   4.136 -0.5395  0.2300 -0.8875
 3211SOL     OW11073   2.449   3.290   3.143  0.1123  0.0750  0.3257
 3211SOL    HW111074   2.489   3.342   3.073  0.7760  1.7490  1.8489
 3211SOL    HW211075   2.520   3.273   3.204 -0.8112  0.3272  1.5188
 3212SOL     OW11076   1.682   4.674   5.355  0.4786  0.1270 -0.2751
 3212SOL    HW111077   1.740   4.685   5.279  1.7221  4.1152  0.9993
 3212SOL    HW211078   1.632   4.756   5.360 -2.1716 -1.4365  1.2354
 3213SOL     OW11079   1.702   4.164   5.745  0.4755  0.3691  0.3480
 3213SOL    HW111080   1.730   4.082   5.706  2.4637  1.1575 -0.0090
 3213SOL    HW211081   1.607   4.158   5.749  0.5947 -2.0409  0.5987
 3214SOL     OW11082   1.536   5.282   4.278 -0.7212  0.6961  0.0983
 3214SOL    HW111083   1.548   5.363   4.229  0.9864  0.5490  0.1877
 3214SOL    HW211084   1.609   5.227   4.251 -0.3788  0.1741  1.9246
 3215SOL     OW11085   0.183   5.278   6.581 -0.9003 -0.1337 -0.1543
 3215SOL    HW111086   0.251   5.346   6.582 -1.5268  0.5760 -1.9480
 3215SOL    HW211087   0.232   5.196   6.587  0.1317  0.3697 -1.2808
 3216SOL     OW11088   1.006   4.299   5.441  0.1607  0.1771 -0.3504
 3216SOL    HW111089   1.035   4.379   5.485 -0.3366 -0.1461  0.5770
 3216SOL    HW211090   1.067   4.231   5.471  1.2387  0.3779 -1.9407
 3217SOL     OW11091   1.364   5.126   4.897  0.6318  0.4897  0.5950
 3217SOL    HW111092   1.280   5.130   4.943  1.5711 -0.7745  2.6048
 3217SOL    HW211093   1.419   5.190   4.942  0.9480  0.8644 -0.2997
 3218SOL     OW11094   2.415   4.188   4.933  0.2470 -0.1665  0.4197
 3218SOL    HW111095   2.462   4.139   5.001 -0.1613 -1.2481 -0.0536
 3218SOL    HW211096   2.346   4.128   4.904 -1.0220  1.1371  0.6361
 3219SOL     OW11097   2.054   3.642   3.454 -0.0821  0.1922 -0.8581
 3219SOL    HW111098   2.049   3.553   3.489 -0.0555 -0.0494 -1.4570
 3219SOL    HW211099   1.975   3.651   3.399 -0.9487  1.1062  0.4702
 3220SOL     OW11100   1.172   5.354   2.561 -0.7539 -0.3130  0.6984
 3220SOL    HW111101   1.152   5.261   2.548 -0.1896 -0.1594 -1.6854
 3220SOL    HW211102   1.104   5.384   2.622 -1.9723 -1.9101  0.2236
 3221SOL     OW11103   0.497   4.797   5.878 -1.1315 -0.9150 -0.5051
 3221SOL    HW111104   0.505   4.887   5.909 -2.7076 -0.3628 -1.6155
 3221SOL    HW211105   0.526   4.743   5.952  3.5112  0.4760 -0.9868
 3222SOL     OW11106   1.543   7.104   3.783 -0.1963  0.0885  0.4205
 3222SOL    HW111107   1.481   7.060   3.725 -2.0628  2.2556  0.6349
 3222SOL    HW211108   1.563   7.039   3.851 -0.1507 -1.5383 -1.0940
 3223SOL     OW11109   1.941   4.432   4.458  0.1570  0.3310  0.0778
 3223SOL    HW111110   1.895   4.507   4.496  0.6491  0.6913 -0.0278
 3223SOL    HW211111   1.926   4.440   4.364 -0.8285 -0.4049  0.1587
 3224SOL     OW11112   1.235   5.009   5.510 -0.3712  0.2416 -0.0185
 3224SOL    HW111113   1.303   4.949   5.540  2.0805  1.2214 -3.1404
 3224SOL    HW211114   1.169   4.953   5.470  0.1905 -0.5540  0.1443
 3225SOL     OW11115   0.268   5.932   2.689  0.8086 -0.3679 -0.0532
 3225SOL    HW111116   0.359   5.927   2.719  0.6195 -0.0377  0.6076
 3225SOL    HW211117   0.261   5.863   2.623  1.2544 -1.1206  0.6595
 3226SOL     OW11118   0.959   5.464   3.852  0.2493 -0.0039 -0.0017
 3226SOL    HW111119   1.017   5.388   3.862  0.0032 -0.3887 -1.2279
 3226SOL    HW211120   0.874   5.426   3.830  0.4633  0.6103 -2.1348
 3227SOL     OW11121   0.164   4.115   3.680  0.7205 -0.5756  0.3023
 3227SOL    HW111122   0.200   4.203   3.678 -0.8621  0.1272 -1.9067
 3227SOL    HW211123   0.222   4.064   3.623 -1.2139  0.4346 -2.8407
 3228SOL     OW11124   1.951   6.369   3.988 -0.7495  0.0968 -0.4054
 3228SOL    HW111125   1.964   6.359   3.894 -1.7284 -1.6649 -0.3885
 3228SOL    HW211126   1.859   6.395   3.997 -1.1682 -1.4992  0.1277
 3229SOL     OW11127   7.802   5.286   2.239 -0.0083  0.0234 -0.4496
 3229SOL    HW111128   7.762   5.212   2.283  1.3094 -2.5119 -3.1968
 3229SOL    HW211129   7.887   5.298   2.282 -0.1676 -0.1649 -0.0906
 3230SOL     OW11130   0.929   5.218   4.082  0.1499  0.3453  0.3980
 3230SOL    HW111131   0.935   5.144   4.143  1.0362  0.5470  0.5738
 3230SOL    HW211132   0.930   5.296   4.138  1.6568  0.5536  0.1201
 3231SOL     OW11133   1.121   4.523   3.213  0.4874 -0.4812  0.1403
 3231SOL    HW111134   1.039   4.474   3.207  1.4813 -2.0330 -2.3902
 3231SOL    HW211135   1.184   4.470   3.165  2.8141  1.0818  1.2791
 3232SOL     OW11136   0.059   2.969   6.250  0.5644 -0.0851 -0.1273
 3232SOL    HW111137  -0.017   2.911   6.253 -0.2043  0.6866 -2.2700
 3232SOL    HW211138   0.134   2.910   6.238 -0.2251 -0.7401 -2.5551
 3233SOL     OW11139   1.129   4.606   3.517 -0.0880  0.5039  0.0169
 3233SOL    HW111140   1.212   4.563   3.536  1.0825  1.5382 -2.3387
 3233SOL    HW211141   1.121   4.674   3.585 -0.4863 -1.3770  1.9491
 3234SOL     OW11142   0.410   4.387   4.195  0.0151  0.3467 -0.0768
 3234SOL    HW111143   0.422   4.301   4.234 -2.2651 -0.4262 -0.9308
 3234SOL    HW211144   0.404   4.370   4.101  0.4008  1.5678 -0.3400
 3235SOL     OW11145   0.884   6.182   4.010  0.2677  0.2362 -0.0822
 3235SOL    HW111146   0.892   6.191   4.105 -1.0027  1.1637 -0.0360
 3235SOL    HW211147   0.830   6.104   3.997  2.7278 -1.5606 -0.1720
 3236SOL     OW11148   0.660   2.452   3.146 -0.4606 -0.3391  0.1539
 3236SOL    HW111149   0.746   2.479   3.113 -0.9844  1.0814 -0.1378
 3236SOL    HW211150   0.668   2.358   3.160  0.8749 -0.3744 -0.6724
 3237SOL     OW11151   0.303   5.040   5.540 -0.8977 -0.0520 -0.1431
 3237SOL    HW111152   0.351   4.958   5.526 -0.8948  0.1102 -1.2082
 3237SOL    HW211153   0.306   5.084   5.455 -1.3414  0.8223  0.2774
 3238SOL     OW11154   0.612   2.789   4.819  0.8157 -0.2636 -0.7426
 3238SOL    HW111155   0.574   2.815   4.903  2.8160 -0.5987  0.3274
 3238SOL    HW211156   0.571   2.847   4.755  0.7474  1.4093  0.7592
 3239SOL     OW11157   0.746   5.425   5.906 -0.5044  0.2660  0.0230
 3239SOL    HW111158   0.761   5.504   5.853  0.5715 -0.6576 -1.1052
 3239SOL    HW211159   0.679   5.376   5.858 -0.0525 -0.2348 -0.1032
 3240SOL     OW11160   2.533   5.447   4.584  0.1715 -0.0175 -0.3034
 3240SOL    HW111161   2.482   5.372   4.613  1.3159 -0.6291  0.1823
 3240SOL    HW211162   2.623   5.424   4.605  0.5114  1.6517  0.2232
 3241SOL     OW11163   7.767   4.251   4.139 -0.4418 -0.8686 -0.4641
 3241SOL    HW111164   7.782   4.157   4.126 -0.4344 -0.6181 -2.8962
 3241SOL    HW211165   7.855   4.287   4.153 -0.4196 -1.1993  0.2602
 3242SOL     OW11166   1.114   4.024   2.351  0.3540  0.3917 -0.1349
 3242SOL    HW111167   1.071   3.962   2.409  0.4012 -0.3212 -0.8589
 3242SOL    HW211168   1.196   4.046   2.397 -0.1185  0.6919  0.5831
 3243SOL     OW11169   2.304   4.045   4.559  0.1658 -0.2740 -0.0634
 3243SOL    HW111170   2.247   4.017   4.631  3.1815 -1.4931  2.0584
 3243SOL    HW211171   2.359   3.968   4.541  1.9531  1.1710 -1.0766
 3244SOL     OW11172   0.111   3.100   4.457 -0.4675 -0.0141  0.3875
 3244SOL    HW111173   0.032   3.057   4.423 -0.6996  0.6231  0.1125
 3244SOL    HW211174   0.100   3.192   4.434  0.4411  0.0513  0.1884
 3245SOL     OW11175   1.239   5.390   6.001  0.0691  0.2037 -1.1338
 3245SOL    HW111176   1.245   5.485   6.001  0.3273  0.2388  1.4295
 3245SOL    HW211177   1.320   5.361   5.960  1.0370  1.0893  0.0948
 3246SOL     OW11178   1.071   5.612   6.970 -0.2522 -0.5209  0.2356
 3246SOL    HW111179   1.111   5.530   6.943  1.6475 -0.5859  2.8400
 3246SOL    HW211180   1.032   5.593   7.055 -0.6954  1.0129  0.4130
 3247SOL     OW11181   0.137   4.989   6.031  0.3442 -0.3856 -0.0699
 3247SOL    HW111182   0.108   4.898   6.040 -1.0748 -0.0756 -1.1319
 3247SOL    HW211183   0.095   5.019   5.950 -0.5604  1.7076  1.1102
 3248SOL     OW11184   7.439   3.331   2.934 -0.1549 -0.2749 -0.3122
 3248SOL    HW111185   7.526   3.314   2.969  0.6325  0.0261 -2.0493
 3248SOL    HW211186   7.404   3.244   2.914  0.2689 -0.3276 -0.8262
 3249SOL     OW11187   1.427   5.004   4.213  0.1855  0.3138  0.2496
 3249SOL    HW111188   1.401   5.096   4.220 -0.6400  0.1604 -0.5073
 3249SOL    HW211189   1.425   4.971   4.303 -2.8847  0.1927  0.2610
 3250SOL     OW11190   7.293   6.449   3.545  0.3048 -0.2803  0.4914
 3250SOL    HW111191   7.277   6.458   3.451  0.2568 -0.2104  0.5060
 3250SOL    HW211192   7.382   6.484   3.557  0.2614 -0.1710  0.4917
 3251SOL     OW11193   0.421   3.161   1.886 -0.1508  0.2376 -0.6372
 3251SOL    HW111194   0.478   3.219   1.834 -0.6294  0.0069 -1.4411
 3251SOL    HW211195   0.351   3.218   1.917  1.3799  0.9326  1.8558
 3252SOL     OW11196   1.628   2.894   5.507 -0.5645 -0.6946  0.2339
 3252SOL    HW111197   1.713   2.869   5.543  0.7427  2.4032 -0.3061
 3252SOL    HW211198   1.648   2.930   5.421 -1.9535  2.3968  1.0416
 3253SOL     OW11199   3.194   5.867   3.465 -0.1510 -0.5984  0.4101
 3253SOL    HW111200   3.142   5.904   3.394  1.3041 -2.4213 -1.7470
 3253SOL    HW211201   3.174   5.773   3.463  1.8884 -1.0861  0.6070
 3254SOL     OW11202   0.302   4.692   3.586 -0.3630 -0.2025  0.7721
 3254SOL    HW111203   0.329   4.772   3.631 -0.1080 -0.1819  0.5883
 3254SOL    HW211204   0.282   4.720   3.497 -0.5460 -0.2984  0.7830
 3255SOL     OW11205   1.916   3.880   3.176  0.1083  0.5343 -0.3494
 3255SOL    HW111206   1.911   3.943   3.247 -0.3156  0.8319 -0.6384
 3255SOL    HW211207   1.829   3.882   3.136 -1.0351 -2.5543  1.6039
 3256SOL     OW11208   0.401   5.313   4.439  0.8433  0.5384  0.2875
 3256SOL    HW111209   0.338   5.251   4.402  0.4169  2.2464 -2.0932
 3256SOL    HW211210   0.357   5.397   4.436  2.2192  1.3391  1.3252
 3257SOL     OW11211   0.657   4.761   3.455  0.0661 -0.3564  0.6204
 3257SOL    HW111212   0.565   4.779   3.476 -0.7165 -2.5452 -0.6209
 3257SOL    HW211213   0.661   4.666   3.443  1.7309 -0.0070 -2.7874
 3258SOL     OW11214   0.451   3.943   3.262  0.5613  0.3656 -0.3220
 3258SOL    HW111215   0.537   3.902   3.276  0.4088 -0.0556 -0.5847
 3258SOL    HW211216   0.472   4.031   3.232  0.9266 -0.0990 -1.4874
 3259SOL     OW11217   1.055   5.252   6.277  0.3666  0.1214  0.0350
 3259SOL    HW111218   0.971   5.291   6.302  1.4175  2.0025  0.8438
 3259SOL    HW211219   1.097   5.229   6.360  1.1273  0.2826 -0.2969
 3260SOL     OW11220   1.825   6.834   3.227 -0.0002  0.6406  0.1659
 3260SOL    HW111221   1.906   6.787   3.207  0.8249  1.8996  0.4257
 3260SOL    HW211222   1.828   6.913   3.173 -1.6702  0.1441 -0.7467
 3261SOL     OW11223   7.532   2.359   5.484  0.2096  0.3693 -0.3287
 3261SOL    HW111224   7.441   2.389   5.494  0.0606 -0.3688  0.6469
 3261SOL    HW211225   7.572   2.424   5.427 -1.2442  0.0802 -1.7666
 3262SOL     OW11226   0.871   4.556   2.857 -0.0769  0.2955 -0.0868
 3262SOL    HW111227   0.832   4.538   2.943 -2.3615  0.4132 -1.0389
 3262SOL    HW211228   0.924   4.634   2.871 -1.6302  1.2247  0.9273
 3263SOL     OW11229   0.982   4.528   4.146  0.2870  0.1154  0.5013
 3263SOL    HW111230   1.008   4.502   4.235 -0.9081  0.6226  1.0142
 3263SOL    HW211231   0.989   4.623   4.146 -0.5773  0.1816  0.3338
 3264SOL     OW11232   1.806   3.556   5.374  0.6442 -0.3318  0.4680
 3264SOL    HW111233   1.847   3.546   5.288 -1.5194  1.4320 -0.8751
 3264SOL    HW211234   1.713   3.539   5.359  0.1636  0.3264  2.4029
 3265SOL     OW11235   7.446   6.137   3.584  0.4866  0.2577 -0.4574
 3265SOL    HW111236   7.498   6.211   3.550  0.9528 -0.3337 -1.0532
 3265SOL    HW211237   7.361   6.145   3.540  0.4783  0.5393 -0.3909
 3266SOL     OW11238   2.523   5.200   5.425 -0.2535  0.5664 -0.2068
 3266SOL    HW111239   2.554   5.140   5.493  1.4632 -0.2249 -1.5977
 3266SOL    HW211240   2.580   5.277   5.435 -0.6406  0.8454 -0.1472
 3267SOL     OW11241   7.709   2.982   2.809 -0.2688  0.1399  0.2351
 3267SOL    HW111242   7.758   2.990   2.891  0.3290 -2.1896  0.1804
 3267SOL    HW211243   7.750   3.046   2.750 -0.2089  1.3053  1.4863
 3268SOL     OW11244   1.242   5.637   6.011  0.1058 -0.6659 -0.2962
 3268SOL    HW111245   1.310   5.682   5.962 -1.2203  0.8326 -0.8620
 3268SOL    HW211246   1.210   5.702   6.074 -2.1067 -0.6066 -1.3679
 3269SOL     OW11247   7.447   2.443   5.078  0.6371  0.1086  0.3649
 3269SOL    HW111248   7.530   2.481   5.108  1.0395 -2.2758  2.5956
 3269SOL    HW211249   7.389   2.447   5.154  0.4335 -2.7960  0.4743
 3270SOL     OW11250   1.304   2.815   6.627 -0.0296  0.3094  0.2383
 3270SOL    HW111251   1.300   2.751   6.698  1.2308 -1.7312 -1.4186
 3270SOL    HW211252   1.383   2.792   6.578 -1.3900  0.9341 -2.4398
 3271SOL     OW11253   0.140   5.910   6.451 -0.2271  0.2793  0.0303
 3271SOL    HW111254   0.235   5.905   6.443 -0.4211 -0.9326 -2.2472
 3271SOL    HW211255   0.110   5.820   6.434 -1.7834  0.5854  0.9722
 3272SOL     OW11256   0.989   3.821   5.014 -0.0270  0.2085 -0.2461
 3272SOL    HW111257   1.000   3.902   5.063 -0.1382 -0.2088  0.4929
 3272SOL    HW211258   1.078   3.789   4.999  0.1881  1.7300 -2.7874
 3273SOL     OW11259   1.464   3.678   4.425 -0.0005  0.1697 -0.4648
 3273SOL    HW111260   1.536   3.657   4.484 -2.8566 -3.4345  2.1756
 3273SOL    HW211261   1.460   3.605   4.364 -0.9810  0.6646 -1.0245
 3274SOL     OW11262   1.287   3.605   4.636  0.8109 -0.2052  0.4130
 3274SOL    HW111263   1.331   3.522   4.653  1.7929  0.0829 -0.6140
 3274SOL    HW211264   1.340   3.647   4.569 -1.4262 -0.1875 -1.4922
 3275SOL     OW11265   0.713   4.393   4.537 -0.3311 -0.4931 -0.2038
 3275SOL    HW111266   0.673   4.312   4.569 -0.5466 -0.3775 -0.1795
 3275SOL    HW211267   0.705   4.388   4.442 -0.5253 -0.4063 -0.1916
 3276SOL     OW11268   1.791   3.641   3.309  0.4259 -0.1387 -0.2072
 3276SOL    HW111269   1.729   3.715   3.311  0.7054  0.0688  1.2678
 3276SOL    HW211270   1.848   3.660   3.235 -0.8398  0.0070 -1.1923
 3277SOL     OW11271   0.170   3.366   4.700  0.4177  0.1782  0.0956
 3277SOL    HW111272   0.209   3.368   4.613 -1.2437 -1.2286 -0.7164
 3277SOL    HW211273   0.148   3.274   4.715  1.5150  0.2176  2.4207
 3278SOL     OW11274   0.746   4.346   5.057 -0.6608  0.5429 -0.3571
 3278SOL    HW111275   0.768   4.415   4.994 -0.9726  1.0149  0.0454
 3278SOL    HW211276   0.651   4.356   5.070 -0.2945  1.7481  1.7047
 3279SOL     OW11277   1.497   4.401   7.107 -0.5822 -0.5464  0.3896
 3279SOL    HW111278   1.422   4.419   7.164 -2.6442  0.2745 -2.3565
 3279SOL    HW211279   1.475   4.319   7.062  1.1336 -1.3512  0.9272
 3280SOL     OW11280   1.526   3.577   5.521  0.5077 -0.2065 -1.2302
 3280SOL    HW111281   1.497   3.490   5.548 -1.0605  0.4529 -0.6803
 3280SOL    HW211282   1.504   3.583   5.428 -0.7746  0.1276 -0.9194
 3281SOL     OW11283   0.904   5.359   4.526  0.3771  0.0704 -0.0780
 3281SOL    HW111284   0.810   5.370   4.515  0.7341  1.5395 -2.3608
 3281SOL    HW211285   0.936   5.446   4.551  0.9804 -0.8058  2.4818
 3282SOL     OW11286   2.247   5.159   4.935 -0.2629 -0.4307 -0.2544
 3282SOL    HW111287   2.306   5.142   4.861 -1.5806 -0.0697 -1.4311
 3282SOL    HW211288   2.277   5.243   4.970 -1.0947  0.6466 -1.9537
 3283SOL     OW11289   1.614   4.184   5.413  0.8449  0.0252  0.7501
 3283SOL    HW111290   1.574   4.175   5.500 -0.0280  1.2024  0.4880
 3283SOL    HW211291   1.544   4.220   5.359  2.0333  1.4135  0.0871
 3284SOL     OW11292   1.927   3.911   5.089  0.2180  0.1203  0.0922
 3284SOL    HW111293   1.930   3.816   5.084  1.6284  0.1538  0.0356
 3284SOL    HW211294   1.989   3.942   5.023  0.8132  1.0292  1.0295
 3285SOL     OW11295   7.290   1.352   4.810  0.5614 -0.5238 -0.6278
 3285SOL    HW111296   7.327   1.440   4.816  2.4595 -1.3353  0.7315
 3285SOL    HW211297   7.329   1.314   4.731 -0.9633  0.0911 -1.7361
 3286SOL     OW11298   1.978   3.395   3.619 -0.0614 -0.6062 -0.3871
 3286SOL    HW111299   1.899   3.363   3.662 -1.6457  0.5600 -2.2769
 3286SOL    HW211300   2.031   3.316   3.603 -0.9394 -1.4290  0.7019
 3287SOL     OW11301   1.174   4.289   4.788  0.9277  0.5794  0.4364
 3287SOL    HW111302   1.108   4.237   4.742 -1.9272  3.5241  0.8448
 3287SOL    HW211303   1.191   4.241   4.869  0.5566 -1.0688 -0.4241
 3288SOL     OW11304   2.603   4.673   5.968  0.2072 -0.0500 -0.2118
 3288SOL    HW111305   2.627   4.752   5.920  0.5119  0.4928  0.8181
 3288SOL    HW211306   2.672   4.662   6.032 -0.3522 -0.5971  0.3103
 3289SOL     OW11307   0.317   4.366   5.537  0.3498 -0.4016  0.3949
 3289SOL    HW111308   0.326   4.453   5.497  0.2248 -0.3753  0.4238
 3289SOL    HW211309   0.387   4.362   5.601  1.5114 -1.0147 -0.8563
 3290SOL     OW11310   1.799   4.768   3.589 -0.0837 -0.1948  0.7514
 3290SOL    HW111311   1.753   4.821   3.655  0.3461  1.1661  0.0016
 3290SOL    HW211312   1.890   4.767   3.618 -0.3809 -2.2534  1.8245
 3291SOL     OW11313   6.891   6.799   4.906 -0.2677  0.3872  0.1322
 3291SOL    HW111314   6.908   6.893   4.902  0.7016  0.1864 -2.5569
 3291SOL    HW211315   6.967   6.759   4.864 -1.9637 -1.3820 -1.4667
 3292SOL     OW11316   2.200   5.450   3.325  0.0103 -0.0755 -0.1541
 3292SOL    HW111317   2.287   5.476   3.355  0.1879 -0.2414 -0.5291
 3292SOL    HW211318   2.207   5.356   3.309  0.0039  0.0734 -1.0375
 3293SOL     OW11319   1.323   3.909   3.280 -0.1128 -0.0213 -0.0138
 3293SOL    HW111320   1.249   3.850   3.265  1.0317 -2.0355  1.7949
 3293SOL    HW211321   1.316   3.933   3.372  2.2711 -1.4806  0.6133
 3294SOL     OW11322   0.245   3.646   3.660  0.5655  0.2441 -0.5599
 3294SOL    HW111323   0.247   3.575   3.595  0.9807 -1.5462  1.3307
 3294SOL    HW211324   0.159   3.639   3.701  0.9125  0.3076  0.1933
 3295SOL     OW11325   2.415   4.548   4.577 -0.5633  0.3943  0.7209
 3295SOL    HW111326   2.502   4.587   4.583 -0.9840  1.6061 -0.6150
 3295SOL    HW211327   2.356   4.616   4.609 -1.0631 -0.2108  1.0900
 3296SOL     OW11328   2.826   4.586   6.099  0.1463  0.0939  0.7489
 3296SOL    HW111329   2.849   4.521   6.032  0.9603  0.4615  0.6717
 3296SOL    HW211330   2.884   4.567   6.172 -0.5127 -0.0894  1.2326
 3297SOL     OW11331   1.566   5.339   6.174 -0.0749 -0.0558  0.3331
 3297SOL    HW111332   1.495   5.402   6.159 -1.8807 -1.6334  1.7477
 3297SOL    HW211333   1.539   5.260   6.127  1.8025 -0.0773 -0.8165
 3298SOL     OW11334   2.924   5.339   5.803 -0.1438 -0.3159  0.1148
 3298SOL    HW111335   2.898   5.365   5.891  0.4375  1.5941 -0.2347
 3298SOL    HW211336   2.917   5.419   5.751 -1.6845 -1.6431 -1.9042
 3299SOL     OW11337   1.540   4.775   6.095  0.6364 -0.1488 -0.6567
 3299SOL    HW111338   1.445   4.791   6.092  0.5635  0.2627  1.7186
 3299SOL    HW211339   1.579   4.860   6.074  0.4598 -0.0538 -0.6088
 3300SOL     OW11340   7.928   3.393   7.132  0.2866 -0.1687 -0.0324
 3300SOL    HW111341   8.019   3.422   7.124  0.5337 -0.9590 -0.1863
 3300SOL    HW211342   7.931   3.323   7.198 -0.3654  0.4297  0.6516
 3301SOL     OW11343   2.062   5.225   7.174 -0.3773 -0.1777  0.2429
 3301SOL    HW111344   2.117   5.285   7.224  0.5734 -0.0366 -0.9496
 3301SOL    HW211345   1.975   5.236   7.212  0.1850  0.4189  1.4113
 3302SOL     OW11346   7.944   3.941   2.335  0.5846  0.4452  0.0560
 3302SOL    HW111347   7.887   3.946   2.412 -0.5122  0.5751 -0.7540
 3302SOL    HW211348   7.952   3.847   2.317 -1.9864  0.4799 -1.6974
 3303SOL     OW11349   1.076   4.822   5.377  0.3772 -0.3955 -0.3990
 3303SOL    HW111350   1.144   4.769   5.336 -1.0826 -2.9991  0.2870
 3303SOL    HW211351   0.994   4.776   5.356 -0.8417  0.6672  1.6380
 3304SOL     OW11352   0.567   5.519   6.246 -0.0208  0.2978 -0.1772
 3304SOL    HW111353   0.527   5.602   6.271  1.6659  1.0493  0.1698
 3304SOL    HW211354   0.496   5.455   6.251 -1.3745  1.7292 -0.5740
 3305SOL     OW11355   0.184   5.251   6.071 -0.1793 -0.3754 -0.0249
 3305SOL    HW111356   0.204   5.157   6.071  0.7269 -0.1915  0.1557
 3305SOL    HW211357   0.269   5.293   6.064 -0.5816  0.4403 -0.0838
 3306SOL     OW11358   7.759   4.889   2.624 -0.2768  0.4729  0.2579
 3306SOL    HW111359   7.678   4.839   2.624 -0.7246  1.1680 -0.4081
 3306SOL    HW211360   7.810   4.853   2.552 -1.6320  2.5216 -1.8447
 3307SOL     OW11361   0.497   4.819   3.212  0.2638 -0.0920 -0.1564
 3307SOL    HW111362   0.500   4.880   3.286  0.2265  2.0174 -1.7994
 3307SOL    HW211363   0.572   4.843   3.158  0.0571 -1.3139 -1.0271
 3308SOL     OW11364   1.437   4.670   2.629 -0.0158 -0.2582  0.9137
 3308SOL    HW111365   1.499   4.635   2.566 -0.3571 -2.9023  1.9056
 3308SOL    HW211366   1.483   4.743   2.671  1.2608 -0.2898 -0.3890
 3309SOL     OW11367   2.855   6.943   5.426  0.3336  0.5001 -0.0641
 3309SOL    HW111368   2.764   6.914   5.432  0.5362 -0.1270  0.0160
 3309SOL    HW211369   2.849   7.038   5.417 -0.2909  0.6471  1.5168
 3310SOL     OW11370   1.398   4.029   2.406  0.1223  0.8649  0.3678
 3310SOL    HW111371   1.463   3.998   2.342 -1.2553 -0.0267 -0.6637
 3310SOL    HW211372   1.451   4.067   2.476  1.7712  0.0155 -0.3313
 3311SOL     OW11373   0.777   5.570   3.633  0.0139  0.1965  0.1430
 3311SOL    HW111374   0.821   5.541   3.553  0.2131  1.0881 -0.0779
 3311SOL    HW211375   0.686   5.580   3.609  0.4437  2.8204 -0.6685
 3312SOL     OW11376   7.701   3.423   5.549  0.4030  0.3532 -0.7610
 3312SOL    HW111377   7.616   3.461   5.572  0.5761  0.3867 -0.1593
 3312SOL    HW211378   7.685   3.378   5.466 -0.2651  0.1359 -0.5212
 3313SOL     OW11379   1.406   4.933   4.471  0.5103  0.1111  0.5143
 3313SOL    HW111380   1.474   4.995   4.496  0.3860  0.7106 -0.5628
 3313SOL    HW211381   1.424   4.854   4.522  2.2838  0.0996 -0.0689
 3314SOL     OW11382   1.148   3.306   4.951  0.2051  0.1486 -0.1572
 3314SOL    HW111383   1.057   3.336   4.947  0.2554  0.4205  0.6138
 3314SOL    HW211384   1.144   3.219   4.991  0.2241 -0.1385 -0.7695
 3315SOL     OW11385   7.315   3.665   4.496  0.1623  0.2399  0.2178
 3315SOL    HW111386   7.293   3.738   4.438 -0.5827 -0.9303 -1.0251
 3315SOL    HW211387   7.403   3.638   4.468 -0.6982 -1.1455 -1.3139
 3316SOL     OW11388   1.477   4.939   7.256 -0.5174  0.2839 -0.1488
 3316SOL    HW111389   1.390   4.941   7.297 -0.2408  1.0323  0.4232
 3316SOL    HW211390   1.533   4.988   7.316  0.3636 -0.3961 -0.3824
 3317SOL     OW11391   1.927   3.437   5.136 -0.4522  0.2271  0.3768
 3317SOL    HW111392   1.887   3.359   5.098 -0.0510 -0.7063  1.7702
 3317SOL    HW211393   1.965   3.483   5.062 -1.1817 -0.6168 -0.5477
 3318SOL     OW11394   1.662   4.705   4.295  0.1740  0.2660  0.5207
 3318SOL    HW111395   1.568   4.685   4.286  0.3594 -0.0951 -0.8762
 3318SOL    HW211396   1.689   4.733   4.207  1.9009 -2.0139  0.2307
 3319SOL     OW11397   0.491   4.361   5.143  0.0169  0.4602 -0.3387
 3319SOL    HW111398   0.441   4.299   5.196  1.3826 -1.5165 -1.2343
 3319SOL    HW211399   0.494   4.441   5.195 -0.1368 -0.8636  1.7986
 3320SOL     OW11400   7.921   5.142   4.520  0.2392  0.7452  0.1804
 3320SOL    HW111401   8.014   5.127   4.500  0.0602 -0.2272  0.0657
 3320SOL    HW211402   7.896   5.068   4.575  0.6730  3.2304  4.0923
 3321SOL     OW11403   0.020   3.095   6.499 -0.3606  0.0283 -0.1832
 3321SOL    HW111404   0.023   3.067   6.407  3.3737 -0.1732 -0.1640
 3321SOL    HW211405   0.008   3.013   6.548 -0.2875 -0.1465 -0.4527
 3322SOL     OW11406   1.986   5.350   6.439  0.2087 -0.0075 -0.2286
 3322SOL    HW111407   1.985   5.318   6.349  1.2284  1.2534 -0.7222
 3322SOL    HW211408   2.009   5.443   6.431 -0.3211  0.2766  1.2909
 3323SOL     OW11409   2.686   3.329   4.039 -0.0863  0.3469  0.3770
 3323SOL    HW111410   2.773   3.291   4.036  0.1350  0.8588  0.3195
 3323SOL    HW211411   2.677   3.378   3.957 -0.8706 -0.6514 -0.1685
 3324SOL     OW11412   0.461   5.259   3.969 -0.1225  0.1192  0.2354
 3324SOL    HW111413   0.377   5.250   4.012 -0.9798 -0.1918 -1.4278
 3324SOL    HW211414   0.444   5.238   3.877  1.3794  1.7945 -0.5037
 3325SOL     OW11415   1.746   3.227   6.014 -0.1913 -0.2084  0.4577
 3325SOL    HW111416   1.806   3.240   5.941  0.1826  0.1172  0.8219
 3325SOL    HW211417   1.795   3.174   6.077 -0.3404 -0.0793  0.6841
 3326SOL     OW11418   0.740   5.392   2.774 -0.0850  0.1216 -0.1372
 3326SOL    HW111419   0.689   5.339   2.713  0.0881 -0.2868  0.0682
 3326SOL    HW211420   0.736   5.344   2.856  0.1804  0.3645  0.0184
 3327SOL     OW11421   0.400   5.496   5.023 -0.4394 -0.3178  0.5948
 3327SOL    HW111422   0.337   5.536   5.082 -2.3392 -1.0302 -0.8163
 3327SOL    HW211423   0.425   5.566   4.963 -1.4617 -0.4691 -0.0426
 3328SOL     OW11424   0.880   3.480   4.222  1.0693 -0.5266 -0.3498
 3328SOL    HW111425   0.883   3.485   4.127 -2.9596  2.5285 -0.5810
 3328SOL    HW211426   0.806   3.422   4.241 -1.2249  2.4549  0.5815
 3329SOL     OW11427   1.994   4.699   4.154 -0.1590  0.2325 -0.5264
 3329SOL    HW111428   1.944   4.627   4.193 -1.5361  0.3317 -1.9654
 3329SOL    HW211429   1.982   4.688   4.060  1.6517  0.9464 -0.8904
 3330SOL     OW11430   1.030   5.695   4.942  0.0065 -0.1951 -0.2724
 3330SOL    HW111431   0.941   5.699   4.976 -0.5311  0.9791 -1.6772
 3330SOL    HW211432   1.071   5.776   4.973  0.4876 -0.5803  0.1075
 3331SOL     OW11433   1.077   4.661   4.557 -0.2319  0.0342  0.1009
 3331SOL    HW111434   1.047   4.734   4.502  1.0456 -0.0927 -0.8059
 3331SOL    HW211435   1.172   4.671   4.560  0.1219 -2.2973 -1.0800
 3332SOL     OW11436   1.897   4.563   5.562 -0.4330 -0.2478 -0.4085
 3332SOL    HW111437   1.858   4.509   5.631 -0.7486 -1.3302 -1.3931
 3332SOL    HW211438   1.823   4.588   5.506 -0.0573 -0.2195 -0.8983
 3333SOL     OW11439   0.132   4.268   4.479 -0.3573 -0.8739  0.4465
 3333SOL    HW111440   0.170   4.181   4.490  3.2211  0.6439  1.6124
 3333SOL    HW211441   0.176   4.304   4.402  1.2779  1.1970  2.2105
 3334SOL     OW11442   1.020   4.524   4.854  0.0298  0.1147  0.1115
 3334SOL    HW111443   0.930   4.492   4.856  0.2604 -0.6006 -0.5444
 3334SOL    HW211444   1.072   4.448   4.828  0.6650  0.8411 -0.8020
 3335SOL     OW11445   1.135   4.951   4.535 -0.2296  0.3239 -0.0827
 3335SOL    HW111446   1.144   5.026   4.594  0.1016 -0.8308  1.3944
 3335SOL    HW211447   1.213   4.955   4.479 -0.4662  1.3461 -0.3566
 3336SOL     OW11448   7.770   4.401   5.154 -0.1002 -0.3620 -0.1574
 3336SOL    HW111449   7.843   4.347   5.123 -0.7759 -1.3014 -0.1588
 3336SOL    HW211450   7.718   4.343   5.208 -1.3175  0.0352 -0.8455
 3337SOL     OW11451   2.742   3.082   5.787 -0.2206 -0.3632 -0.2665
 3337SOL    HW111452   2.655   3.122   5.779 -1.0804 -2.3093 -1.1883
 3337SOL    HW211453   2.795   3.127   5.722 -0.5970  0.6503  0.1022
 3338SOL     OW11454   0.775   4.332   7.232  0.3339 -0.2489  0.5316
 3338SOL    HW111455   0.769   4.428   7.226  1.0748 -0.2412 -0.2671
 3338SOL    HW211456   0.686   4.302   7.212  0.7843  0.1745 -2.6334
 3339SOL     OW11457   0.096   2.203   6.356  0.0632  0.6656 -0.0907
 3339SOL    HW111458   0.114   2.110   6.341 -1.6315  0.1332  0.8630
 3339SOL    HW211459   0.083   2.239   6.268 -0.6297 -0.3315 -0.4217
 3340SOL     OW11460   0.437   4.330   5.778  0.0600  0.0796 -0.0884
 3340SOL    HW111461   0.415   4.407   5.830  0.9800  0.1471  0.2147
 3340SOL    HW211462   0.362   4.271   5.789 -1.2603  1.4318 -1.3654
 3341SOL     OW11463   0.135   2.622   4.260 -0.0614 -0.4058  0.1084
 3341SOL    HW111464   0.060   2.566   4.278  0.5330 -0.3620  3.3757
 3341SOL    HW211465   0.211   2.565   4.271  0.5363  0.7675  3.0649
 3342SOL     OW11466   2.584   5.003   3.910 -0.1218 -0.1351  0.0700
 3342SOL    HW111467   2.659   5.027   3.964 -0.0676  0.1137 -0.1157
 3342SOL    HW211468   2.582   4.908   3.912  0.8668 -0.1865 -0.8523
 3343SOL     OW11469   0.869   5.278   5.492  0.0627 -0.3076 -0.8752
 3343SOL    HW111470   0.905   5.256   5.578  0.2142 -2.4388 -1.4108
 3343SOL    HW211471   0.807   5.349   5.509 -0.2172 -0.9621  1.0702
 3344SOL     OW11472   7.899   4.638   5.523 -0.0226 -0.3513  0.2975
 3344SOL    HW111473   7.844   4.568   5.489 -1.4223  0.8685 -0.0389
 3344SOL    HW211474   7.967   4.593   5.574 -0.2847 -1.9811 -0.7360
 3345SOL     OW11475   0.088   3.710   2.640 -0.1106 -0.1969  0.4629
 3345SOL    HW111476   0.041   3.690   2.560 -0.0974  2.4894 -0.3332
 3345SOL    HW211477   0.021   3.737   2.702 -0.0051 -0.9261  0.8994
 3346SOL     OW11478   1.663   5.014   7.800  0.3101  0.0575  0.8512
 3346SOL    HW111479   1.703   4.946   7.854  0.7050 -0.6252 -0.2517
 3346SOL    HW211480   1.712   5.094   7.821  1.0767 -0.3938  0.8260
 3347SOL     OW11481   1.211   4.198   5.571 -0.4866 -0.3714 -0.0430
 3347SOL    HW111482   1.240   4.272   5.625 -0.0039 -0.6066  0.0204
 3347SOL    HW211483   1.160   4.143   5.632  0.6962 -1.0284  0.3813
 3348SOL     OW11484   2.811   3.745   2.381  1.1424  0.1285 -0.1984
 3348SOL    HW111485   2.906   3.739   2.389  1.1884 -1.2545 -1.4301
 3348SOL    HW211486   2.796   3.798   2.303  0.8917  0.4425  0.0574
 3349SOL     OW11487   1.692   4.297   4.702 -0.8254  0.1912  0.1635
 3349SOL    HW111488   1.766   4.238   4.687 -1.5396 -0.8997  0.8255
 3349SOL    HW211489   1.661   4.319   4.614 -0.0195  0.2795 -0.1066
 3350SOL     OW11490   1.281   4.638   5.249  0.0643  0.0541  0.5425
 3350SOL    HW111491   1.303   4.684   5.168 -2.4001 -0.4108 -0.4899
 3350SOL    HW211492   1.362   4.595   5.275  1.2533  1.2591 -0.9548
 3351SOL     OW11493   0.989   3.825   3.562  0.2083 -0.0371  0.7741
 3351SOL    HW111494   0.900   3.861   3.570  0.7792  1.8421 -0.7860
 3351SOL    HW211495   1.042   3.898   3.531  2.0498 -1.4951  0.3438
 3352SOL     OW11496   7.982   5.173   6.260  0.3908  0.7475 -0.7850
 3352SOL    HW111497   7.958   5.200   6.171 -1.8182 -1.9980 -1.1712
 3352SOL    HW211498   8.043   5.101   6.247  1.5962  1.5836  0.0306
 3353SOL     OW11499   2.487   3.259   4.752  0.1192  0.0712 -0.1840
 3353SOL    HW111500   2.451   3.301   4.674 -0.5249 -0.7955 -0.3691
 3353SOL    HW211501   2.506   3.331   4.812 -2.2314  0.5671  0.0464
 3354SOL     OW11502   1.469   5.061   6.151  0.2220 -0.0306  0.4956
 3354SOL    HW111503   1.388   5.011   6.141 -0.9518  2.0707 -1.4865
 3354SOL    HW211504   1.507   5.063   6.063  0.9999  1.2370  0.8281
 3355SOL     OW11505   0.936   4.876   5.613 -0.0674 -0.1037  0.2655
 3355SOL    HW111506   0.858   4.837   5.573 -0.3351  2.5275 -2.0602
 3355SOL    HW211507   1.006   4.861   5.549  0.8215 -0.4082  1.2786
 3356SOL     OW11508   1.128   4.806   3.678 -0.0591  0.4479 -0.0891
 3356SOL    HW111509   1.174   4.885   3.648  0.8911  0.4803  1.3402
 3356SOL    HW211510   1.132   4.811   3.773  1.6936 -2.2139  0.0973
 3357SOL     OW11511   1.710   4.913   5.084  0.2715  0.3479 -0.4162
 3357SOL    HW111512   1.660   4.939   5.162  0.5178 -1.1158  0.2805
 3357SOL    HW211513   1.657   4.944   5.010 -1.5328 -0.8391  0.3066
 3358SOL     OW11514   0.568   6.147   3.834 -0.4006  0.6450  0.2153
 3358SOL    HW111515   0.484   6.108   3.810 -0.1618  0.5074 -0.4255
 3358SOL    HW211516   0.597   6.097   3.910 -0.3184 -0.1384 -0.3174
 3359SOL     OW11517   1.515   5.405   5.867  0.1767  0.5042  0.1058
 3359SOL    HW111518   1.500   5.498   5.852 -0.9660  0.4602  0.7965
 3359SOL    HW211519   1.604   5.389   5.837  0.5007  1.8889  0.2738
 3360SOL     OW11520   1.537   3.483   3.862 -0.4950 -0.0157  0.1047
 3360SOL    HW111521   1.521   3.507   3.953 -1.9119 -0.1690 -0.0838
 3360SOL    HW211522   1.450   3.467   3.826 -0.0834  1.5049 -1.6964
 3361SOL     OW11523   7.676   4.195   3.871 -0.1643  0.6630  0.8786
 3361SOL    HW111524   7.619   4.157   3.805  1.0115 -1.9233  1.2281
 3361SOL    HW211525   7.764   4.168   3.844  0.5280  1.3307  2.3715
 3362SOL     OW11526   2.775   5.273   3.961  0.0655  0.1734  0.1395
 3362SOL    HW111527   2.685   5.288   3.935  0.2090  0.5205 -0.1733
 3362SOL    HW211528   2.779   5.301   4.053 -0.4642 -1.1331  0.5771
 3363SOL     OW11529   1.498   5.435   4.859  0.4137  0.0673  0.5245
 3363SOL    HW111530   1.418   5.461   4.905  0.5805 -0.1871  0.9684
 3363SOL    HW211531   1.552   5.514   4.859 -0.1762  0.4900 -0.5370
 3364SOL     OW11532   0.076   5.722   1.820 -0.7851  0.5794 -0.3935
 3364SOL    HW111533   0.118   5.786   1.878 -0.9965 -0.5844  1.1092
 3364SOL    HW211534  -0.010   5.760   1.801 -0.6495  1.0656 -0.0613
 3365SOL     OW11535   0.869   5.203   2.340 -0.1687 -0.1379 -0.2665
 3365SOL    HW111536   0.825   5.287   2.349 -2.9286 -0.9934 -3.6150
 3365SOL    HW211537   0.963   5.226   2.340 -0.7619  2.7185  0.3667
 3366SOL     OW11538   7.166   6.323   4.759 -0.5761  0.2965 -0.4418
 3366SOL    HW111539   7.255   6.293   4.779  0.2084  1.8347 -1.3882
 3366SOL    HW211540   7.133   6.258   4.697  0.6371  0.6501 -1.5341
 3367SOL     OW11541   2.372   3.284   5.632 -0.1639  0.0414  0.2544
 3367SOL    HW111542   2.448   3.252   5.583 -1.2663 -0.1982 -1.3762
 3367SOL    HW211543   2.308   3.212   5.626 -1.2020  0.9674 -0.0159
 3368SOL     OW11544   2.080   5.510   4.726 -0.5735  0.1271 -0.3240
 3368SOL    HW111545   2.063   5.576   4.659  0.1028  0.6373 -0.0101
 3368SOL    HW211546   1.998   5.461   4.734 -0.6001 -0.0845 -1.6681
 3369SOL     OW11547   0.681   4.020   5.573  0.5997 -0.2585 -0.5991
 3369SOL    HW111548   0.768   3.980   5.580 -0.4423 -2.7563 -0.7722
 3369SOL    HW211549   0.645   3.985   5.492 -1.2627 -0.8188  0.4101
 3370SOL     OW11550   1.339   4.990   3.747  0.3675 -0.2932 -0.1805
 3370SOL    HW111551   1.369   4.921   3.806 -2.6900 -0.3502  1.5031
 3370SOL    HW211552   1.300   5.056   3.805  0.1714  1.2473 -1.9710
 3371SOL     OW11553   2.227   3.350   4.505  0.5518  0.0368 -0.2775
 3371SOL    HW111554   2.165   3.340   4.432  1.2201 -0.2147 -0.8303
 3371SOL    HW211555   2.273   3.432   4.485  0.1755  0.3936  0.3059
 3372SOL     OW11556   1.237   7.005   3.089  0.3309  0.6063  0.3387
 3372SOL    HW111557   1.249   7.010   2.994 -1.7092  0.1084  0.0111
 3372SOL    HW211558   1.232   7.096   3.117  0.5258  0.7495 -0.0779
 3373SOL     OW11559   0.448   5.928   4.425 -0.1381 -0.1581  0.2529
 3373SOL    HW111560   0.368   5.977   4.444 -0.3173 -0.4786  0.3317
 3373SOL    HW211561   0.466   5.946   4.333 -1.8515 -2.2578 -0.5899
 3374SOL     OW11562   0.045   4.378   6.192  0.5293  0.4074 -0.3633
 3374SOL    HW111563   0.010   4.349   6.107  0.3949 -0.7206  0.0484
 3374SOL    HW211564   0.057   4.472   6.183  1.6505  0.1430 -2.0334
 3375SOL     OW11565   6.820   3.150   1.573  0.1278  0.2204 -0.3258
 3375SOL    HW111566   6.865   3.067   1.557  1.7185  0.9399  0.2259
 3375SOL    HW211567   6.866   3.213   1.517  0.4130  1.1501  0.9235
 3376SOL     OW11568   1.379   3.176   4.849 -0.2412 -0.0469  0.4185
 3376SOL    HW111569   1.340   3.097   4.812  1.0432 -1.1548  1.3616
 3376SOL    HW211570   1.316   3.245   4.827 -1.4511 -1.3231 -0.3324
 3377SOL     OW11571   7.600   3.751   1.980 -0.2173  0.3702 -0.4341
 3377SOL    HW111572   7.561   3.837   1.999  2.6459  1.6264  0.2349
 3377SOL    HW211573   7.600   3.705   2.064  1.2516  1.0773 -0.0151
 3378SOL     OW11574   2.512   4.122   3.379  0.1732 -0.2843 -0.1339
 3378SOL    HW111575   2.464   4.042   3.401  0.9664 -0.5319  0.7875
 3378SOL    HW211576   2.540   4.157   3.464  2.0834 -0.4367 -0.6691
 3379SOL     OW11577   1.593   5.423   5.507  0.1260  0.6818  0.2766
 3379SOL    HW111578   1.683   5.438   5.536  0.3925 -1.0803  0.5029
 3379SOL    HW211579   1.541   5.488   5.555  1.1096  0.7781  1.2597
 3380SOL     OW11580   0.877   6.314   3.386  0.4496  0.0572  0.5040
 3380SOL    HW111581   0.821   6.357   3.451 -2.0183  0.5961 -1.7925
 3380SOL    HW211582   0.869   6.221   3.406 -1.0502  0.1455  0.4239
 3381SOL     OW11583   0.244   3.699   6.332  0.3949  0.7552 -0.7401
 3381SOL    HW111584   0.299   3.763   6.286 -1.2811  1.3964 -1.9728
 3381SOL    HW211585   0.240   3.624   6.272 -0.0287  0.6852 -0.6231
 3382SOL     OW11586   2.724   4.391   4.941  0.0371  0.0413  0.0336
 3382SOL    HW111587   2.646   4.335   4.947 -0.9449  1.4498  1.0905
 3382SOL    HW211588   2.747   4.389   4.848 -0.7682 -1.0245 -0.1708
 3383SOL     OW11589   6.802   4.994   5.383  0.1094  0.3350  0.3954
 3383SOL    HW111590   6.730   4.933   5.399 -1.2893  2.1327  1.3814
 3383SOL    HW211591   6.827   5.025   5.470  0.3990  1.5509 -0.0971
 3384SOL     OW11592   0.900   3.409   4.950  0.1159  0.8509 -0.4388
 3384SOL    HW111593   0.821   3.358   4.967 -0.5519  1.7538 -0.7776
 3384SOL    HW211594   0.874   3.473   4.883  1.6414 -0.1227 -2.0678
 3385SOL     OW11595   2.323   4.968   7.244 -0.3438  0.2940  0.7728
 3385SOL    HW111596   2.396   4.946   7.186  0.3955 -0.1056  1.8110
 3385SOL    HW211597   2.365   5.005   7.322 -1.3184  0.9890  0.9893
 3386SOL     OW11598   0.712   6.457   3.556  0.0652 -0.0588  0.2349
 3386SOL    HW111599   0.635   6.405   3.579  0.0465  0.2957  1.0254
 3386SOL    HW211600   0.680   6.522   3.494  0.2053 -1.3254 -1.2089
 3387SOL     OW11601   2.809   4.850   5.323  0.1100 -0.2692 -0.0227
 3387SOL    HW111602   2.869   4.777   5.309  0.2650 -0.2670  0.6026
 3387SOL    HW211603   2.804   4.894   5.238  0.8508 -0.3748 -0.1282
 3388SOL     OW11604   1.599   4.366   6.162 -0.1590 -0.3547  0.1907
 3388SOL    HW111605   1.672   4.421   6.133 -1.3801  0.5193 -1.3971
 3388SOL    HW211606   1.600   4.374   6.257  0.5685  1.3226  0.0917
 3389SOL     OW11607   0.418   5.148   5.005  0.1068  0.2117  0.3891
 3389SOL    HW111608   0.513   5.141   4.998  0.0246 -0.4272 -0.3278
 3389SOL    HW211609   0.385   5.086   4.939 -0.8065  1.5906 -0.4858
 3390SOL     OW11610   7.531   5.422   4.471  0.9432 -0.5645  0.5886
 3390SOL    HW111611   7.482   5.344   4.498 -0.3323 -0.4445 -1.1873
 3390SOL    HW211612   7.609   5.388   4.428  0.2755 -0.9072 -0.3912
 3391SOL     OW11613   2.115   5.223   4.237 -0.0278 -0.2339  0.1435
 3391SOL    HW111614   2.135   5.265   4.321 -3.1817 -1.6680  1.8191
 3391SOL    HW211615   2.168   5.144   4.236  0.5569  0.1517  0.4445
 3392SOL     OW11616   2.682   4.622   5.124 -0.4818  0.1722 -0.8029
 3392SOL    HW111617   2.638   4.543   5.093 -0.9074  0.7652 -1.7925
 3392SOL    HW211618   2.690   4.677   5.045 -0.9611  1.4643  0.0163
 3393SOL     OW11619   6.837   4.627   4.938 -0.3748 -0.4418 -0.7089
 3393SOL    HW111620   6.882   4.594   4.860 -1.2592 -1.6264 -0.7519
 3393SOL    HW211621   6.893   4.603   5.011  1.7528  2.8883 -1.0523
 3394SOL     OW11622   0.795   5.528   3.278 -0.4367 -0.2907 -0.4922
 3394SOL    HW111623   0.712   5.539   3.232 -1.5574 -1.0672  1.2129
 3394SOL    HW211624   0.816   5.615   3.311 -1.9919 -0.5135  1.2613
 3395SOL     OW11625   7.886   3.632   5.650 -0.4142  0.0523  0.4617
 3395SOL    HW111626   7.899   3.615   5.743 -0.0056 -1.0929  0.2122
 3395SOL    HW211627   7.815   3.573   5.624  0.8595 -1.1805 -0.3777
 3396SOL     OW11628   1.986   3.168   4.253  0.1670  0.2083  0.0745
 3396SOL    HW111629   1.988   3.096   4.190  0.6669  0.7359 -0.5279
 3396SOL    HW211630   2.059   3.224   4.227  1.3255 -0.2928  2.0127
 3397SOL     OW11631   0.354   5.691   3.285  0.1492  0.1017 -0.3373
 3397SOL    HW111632   0.381   5.625   3.221 -0.4103 -0.1422 -0.3293
 3397SOL    HW211633   0.274   5.655   3.324  0.3343  0.3758  0.3040
 3398SOL     OW11634   3.034   5.258   4.415 -1.0030 -0.3563 -0.1255
 3398SOL    HW111635   3.061   5.348   4.396 -3.2329  0.7762  1.5640
 3398SOL    HW211636   2.951   5.247   4.370 -0.6405 -1.7042 -0.5232
 3399SOL     OW11637   1.432   4.819   5.080  0.0827  0.2947  0.3088
 3399SOL    HW111638   1.413   4.871   5.002 -1.1430 -1.6323 -0.7635
 3399SOL    HW211639   1.494   4.872   5.130 -0.9520  2.6782 -0.7672
 3400SOL     OW11640   7.610   5.154   3.501  0.5950 -0.2354  0.4213
 3400SOL    HW111641   7.582   5.127   3.414 -1.3050 -0.7201  1.1283
 3400SOL    HW211642   7.651   5.076   3.538 -1.7210 -1.1856  1.1724
 3401SOL     OW11643   1.465   5.195   6.410 -0.6686 -0.3870  0.4195
 3401SOL    HW111644   1.414   5.123   6.373 -1.4709  1.0815 -1.5550
 3401SOL    HW211645   1.511   5.232   6.334  3.1056 -1.3464  2.0149
 3402SOL     OW11646   2.144   3.284   5.907 -0.1637  0.4794 -0.4310
 3402SOL    HW111647   2.210   3.350   5.888 -0.1085  0.3594 -0.6711
 3402SOL    HW211648   2.194   3.204   5.923 -0.1534  0.7780  1.1922
 3403SOL     OW11649   1.831   4.483   4.221  0.0889 -0.0552 -0.4161
 3403SOL    HW111650   1.739   4.477   4.194  0.0534  1.2632 -0.6911
 3403SOL    HW211651   1.879   4.440   4.151 -0.3463 -1.4588  0.1097
 3404SOL     OW11652   0.907   5.625   4.133 -0.1324 -0.6448  0.4207
 3404SOL    HW111653   0.986   5.571   4.129  1.1208  1.2016 -3.0354
 3404SOL    HW211654   0.937   5.711   4.162 -0.8090  0.1451 -1.1448
 3405SOL     OW11655   2.721   3.820   4.331  0.0098 -0.1829  0.5748
 3405SOL    HW111656   2.772   3.849   4.255  1.7983  1.3445  2.2491
 3405SOL    HW211657   2.728   3.724   4.329 -1.3549 -0.3017 -2.0108
 3406SOL     OW11658   0.754   4.229   3.614 -0.1602  0.0405 -0.0312
 3406SOL    HW111659   0.830   4.287   3.620 -0.3180  0.2581 -0.1199
 3406SOL    HW211660   0.763   4.187   3.528  0.1732 -0.3760  0.2048
 3407SOL     OW11661   1.054   4.041   4.205  0.4417 -0.1061  0.7609
 3407SOL    HW111662   1.120   4.003   4.147  0.2832 -0.3814  0.7621
 3407SOL    HW211663   1.033   3.970   4.266  0.1765 -0.0010  0.7886
 3408SOL     OW11664   0.025   6.291   3.060 -0.7918  0.0134 -0.1086
 3408SOL    HW111665   0.095   6.226   3.070 -0.9549 -0.3162 -1.0458
 3408SOL    HW211666  -0.052   6.249   3.098 -0.5754  0.2259  0.5772
 3409SOL     OW11667   1.198   5.193   4.010 -0.0130  0.3416  0.0895
 3409SOL    HW111668   1.121   5.215   4.062 -0.3355  0.5182 -0.4540
 3409SOL    HW211669   1.175   5.219   3.920  0.4563 -0.1347 -0.1757
 3410SOL     OW11670   1.020   4.728   7.184 -0.3493  0.6230  0.2992
 3410SOL    HW111671   1.087   4.666   7.215 -1.1135  0.0628  0.8758
 3410SOL    HW211672   0.994   4.776   7.262 -1.2021  0.2638  0.2436
 3411SOL     OW11673   0.761   4.904   5.880 -0.3600 -0.0409  0.0110
 3411SOL    HW111674   0.809   4.887   5.961 -0.5135 -0.6474 -0.0221
 3411SOL    HW211675   0.789   4.835   5.820  0.2669  0.7919 -0.6914
 3412SOL     OW11676   6.793   3.840   5.578  0.5590  0.3639 -0.0216
 3412SOL    HW111677   6.881   3.804   5.583  0.4056  0.1209  1.1591
 3412SOL    HW211678   6.784   3.869   5.487  2.0868  1.0000 -0.0068
 3413SOL     OW11679   1.652   6.636   6.409  0.4929 -0.3920 -0.3145
 3413SOL    HW111680   1.572   6.634   6.355  0.4059 -1.1970 -0.1624
 3413SOL    HW211681   1.723   6.637   6.345  0.3741  0.0269 -0.4485
 3414SOL     OW11682   1.581   4.910   8.628 -0.2575  0.1968 -0.7168
 3414SOL    HW111683   1.585   4.839   8.563  1.5840  0.1054 -0.5424
 3414SOL    HW211684   1.514   4.882   8.690 -0.5412 -0.7221 -1.4215
 3415SOL     OW11685   2.169   5.977   5.122 -0.2027  0.0837  0.1777
 3415SOL    HW111686   2.172   6.034   5.199  1.1057  0.9244 -0.4375
 3415SOL    HW211687   2.246   6.003   5.071 -1.3118 -0.0679 -1.6723
 3416SOL     OW11688   0.758   4.934   6.678  0.4659  0.5639 -0.5209
 3416SOL    HW111689   0.698   4.946   6.604  0.3457 -1.0284 -0.7174
 3416SOL    HW211690   0.812   4.859   6.653  1.2219  0.7488  0.5093
 3417SOL     OW11691   2.193   5.057   5.495  0.0769  0.1620  0.1370
 3417SOL    HW111692   2.220   5.149   5.495  0.8514 -0.0486 -0.8479
 3417SOL    HW211693   2.125   5.051   5.427  0.5753 -0.1332 -0.3452
 3418SOL     OW11694   2.099   4.392   6.367  0.2100  0.2368  0.4778
 3418SOL    HW111695   2.118   4.479   6.401 -0.1943 -0.0042  1.3620
 3418SOL    HW211696   2.093   4.337   6.446 -0.2848 -0.4382 -0.0233
 3419SOL     OW11697   2.629   4.554   6.749 -0.3242 -0.0498 -0.7594
 3419SOL    HW111698   2.682   4.632   6.736 -0.2346  0.1958  0.9040
 3419SOL    HW211699   2.692   4.486   6.773 -0.4828 -0.4506 -1.4591
 3420SOL     OW11700   1.610   4.923   6.543 -0.3421 -0.1089 -0.0182
 3420SOL    HW111701   1.691   4.909   6.493  1.0782 -0.1768  2.1431
 3420SOL    HW211702   1.599   5.018   6.544 -2.3309 -0.1828 -3.2282
 3421SOL     OW11703   5.927   3.537   8.062  0.2426  0.2069  0.3319
 3421SOL    HW111704   6.008   3.583   8.042 -1.1090  1.7610 -1.9835
 3421SOL    HW211705   5.874   3.600   8.111 -0.1493 -0.2501  0.5080
 3422SOL     OW11706   2.016   7.039   5.846 -0.3791  0.0462  0.0777
 3422SOL    HW111707   2.030   6.953   5.885 -0.5157 -0.3219 -0.6649
 3422SOL    HW211708   1.922   7.054   5.854 -0.6050 -0.5736 -1.1803
 3423SOL     OW11709   0.785   4.170   7.453  0.6103  0.4230  0.1296
 3423SOL    HW111710   0.786   4.219   7.536 -1.7220 -1.0653  1.1365
 3423SOL    HW211711   0.787   4.237   7.385 -0.7097  1.8711  1.4379
 3424SOL     OW11712   0.103   4.659   7.936 -0.0078  0.5201 -0.1077
 3424SOL    HW111713   0.013   4.670   7.967  0.2118 -0.3211  0.8738
 3424SOL    HW211714   0.105   4.570   7.902  0.0894  1.0158 -1.4593
 3425SOL     OW11715   0.097   4.531   5.694 -0.7075  0.2554 -0.3729
 3425SOL    HW111716   0.178   4.541   5.644 -0.3576 -0.2790  0.0717
 3425SOL    HW211717   0.117   4.573   5.778 -1.5004  1.7207 -0.8829
 3426SOL     OW11718   1.370   6.287   8.581  0.3129 -0.2377  0.8863
 3426SOL    HW111719   1.461   6.316   8.568  0.0980 -0.0785 -0.4159
 3426SOL    HW211720   1.364   6.206   8.529  0.2983 -1.4763  2.7246
 3427SOL     OW11721   0.744   5.017   7.658 -0.4653  0.0832  0.0756
 3427SOL    HW111722   0.718   4.928   7.636 -0.1043  0.0435 -0.2041
 3427SOL    HW211723   0.840   5.017   7.650 -0.4849  0.5698 -0.2152
 3428SOL     OW11724   7.742   4.824   8.258 -0.3888 -0.4201  0.2862
 3428SOL    HW111725   7.777   4.770   8.329 -0.9183  0.5028  1.2808
 3428SOL    HW211726   7.687   4.764   8.208 -0.0962 -1.0626  0.7120
 3429SOL     OW11727   0.849   3.725   4.750 -0.4411  0.9433 -0.1773
 3429SOL    HW111728   0.862   3.815   4.722  1.3079  1.0586  0.8547
 3429SOL    HW211729   0.882   3.723   4.840  2.0249 -1.2391 -0.9994
 3430SOL     OW11730   1.607   4.536   6.554 -0.3886  0.0262  0.0456
 3430SOL    HW111731   1.626   4.583   6.472  0.2761 -0.5276 -0.1298
 3430SOL    HW211732   1.653   4.453   6.544 -0.0763  0.0635  1.1019
 3431SOL     OW11733   7.450   4.758   7.243 -0.1388 -0.2479 -0.6896
 3431SOL    HW111734   7.533   4.787   7.205  0.2972  0.8965  0.9802
 3431SOL    HW211735   7.458   4.663   7.250  1.2408 -0.1221 -0.1649
 3432SOL     OW11736   2.354   3.806   5.091 -0.1597 -0.2167 -0.1576
 3432SOL    HW111737   2.356   3.785   4.997  0.9024 -1.2969  0.0798
 3432SOL    HW211738   2.317   3.893   5.095  0.9869  0.3939 -1.6987
 3433SOL     OW11739   1.633   4.593   5.877 -0.0470  0.1592 -0.0981
 3433SOL    HW111740   1.610   4.603   5.969  1.6393  2.6856  0.1378
 3433SOL    HW211741   1.548   4.585   5.833 -0.9696  0.5178  1.5111
 3434SOL     OW11742   1.843   4.616   7.862 -0.0485  0.8067 -0.2315
 3434SOL    HW111743   1.830   4.699   7.908 -3.0021  0.0351  0.5281
 3434SOL    HW211744   1.870   4.555   7.931  3.4334  1.2979 -0.9991
 3435SOL     OW11745   2.475   5.024   6.009 -0.0667  0.2891 -0.2683
 3435SOL    HW111746   2.506   5.046   5.921  0.6892  1.0257  0.1604
 3435SOL    HW211747   2.382   5.045   6.008  0.2784  2.0231 -0.3901
 3436SOL     OW11748   1.400   5.057   8.067 -0.0759  0.7468 -0.1896
 3436SOL    HW111749   1.393   5.126   8.002 -0.4373 -0.5480 -1.5808
 3436SOL    HW211750   1.318   5.009   8.060  0.0320  0.3603  0.9731
 3437SOL     OW11751   0.762   5.121   6.211  0.1118  0.1506 -0.1985
 3437SOL    HW111752   0.739   5.050   6.271 -0.5577  1.3910  1.0621
 3437SOL    HW211753   0.815   5.079   6.144  0.4548 -1.3921  0.9830
 3438SOL     OW11754   7.935   4.571   8.235 -0.1990  0.4674 -0.0506
 3438SOL    HW111755   7.872   4.588   8.166 -1.7570 -1.1025  0.8929
 3438SOL    HW211756   7.970   4.484   8.214  0.7726  0.8226  0.0771
 3439SOL     OW11757   0.639   2.792   6.037 -0.4731  0.5746  0.7713
 3439SOL    HW111758   0.709   2.858   6.036 -0.0696  0.1615  1.2438
 3439SOL    HW211759   0.623   2.774   6.129 -1.3450  0.8023  0.6680
 3440SOL     OW11760   7.589   3.932   7.181  0.2628 -0.3868 -0.6886
 3440SOL    HW111761   7.652   3.945   7.109 -0.0643  2.3370 -0.6061
 3440SOL    HW211762   7.578   4.019   7.218  0.3937 -1.6917  2.7181
 3441SOL     OW11763   0.519   3.961   5.234  0.6141 -0.3226  0.1387
 3441SOL    HW111764   0.566   3.969   5.151  0.0900  0.0305 -0.1334
 3441SOL    HW211765   0.430   3.937   5.209  0.0659  1.1918  0.4851
 3442SOL     OW11766   1.133   5.147   6.554  0.2215 -0.3756 -0.3398
 3442SOL    HW111767   1.184   5.077   6.514  2.8975  0.9514  0.4535
 3442SOL    HW211768   1.120   5.119   6.644  0.8357 -0.1105 -0.1628
 3443SOL     OW11769   6.445   2.095   6.432 -0.0295  0.4347 -0.3808
 3443SOL    HW111770   6.392   2.153   6.487  1.8713  1.4742  0.4863
 3443SOL    HW211771   6.478   2.029   6.493  0.7755  0.6274 -0.5960
 3444SOL     OW11772   2.056   6.076   6.021 -0.0116  0.4860 -0.5043
 3444SOL    HW111773   2.051   6.047   5.930  0.1628  0.1880 -0.4195
 3444SOL    HW211774   1.998   6.017   6.068  0.5658  0.0866 -0.2862
 3445SOL     OW11775   2.853   4.090   5.939  0.1813  0.1269 -0.0046
 3445SOL    HW111776   2.934   4.074   5.986  0.1029 -2.7782 -0.6814
 3445SOL    HW211777   2.881   4.124   5.854  0.7528 -1.0590 -0.3164
 3446SOL     OW11778   0.446   4.351   7.993  0.3741  0.0602  0.0552
 3446SOL    HW111779   0.414   4.427   8.042  0.4568  0.3532 -0.3392
 3446SOL    HW211780   0.458   4.283   8.059  0.2219  0.3655  0.4006
 3447SOL     OW11781   3.167   5.937   5.153  0.0303 -0.7050  0.1943
 3447SOL    HW111782   3.142   6.020   5.193 -1.1075 -0.3911 -1.0874
 3447SOL    HW211783   3.090   5.881   5.163 -0.2457 -0.6570 -1.3832
 3448SOL     OW11784   0.394   4.031   6.446  0.0632 -0.0882  0.0318
 3448SOL    HW111785   0.349   3.978   6.512  0.8190  0.2253  0.8097
 3448SOL    HW211786   0.420   3.968   6.379 -1.9772 -0.2117 -0.7223
 3449SOL     OW11787   1.423   4.658   8.003 -0.1200 -0.5788 -0.3962
 3449SOL    HW111788   1.356   4.710   7.958  0.0698  0.0227  0.0037
 3449SOL    HW211789   1.454   4.714   8.074 -1.4178 -2.0261  1.4162
 3450SOL     OW11790   2.350   4.516   8.816  0.1751 -0.1792  0.1692
 3450SOL    HW111791   2.300   4.598   8.819 -1.1747 -0.9441 -0.4102
 3450SOL    HW211792   2.430   4.534   8.865  0.2674  1.7150 -0.6110
 3451SOL     OW11793   1.646   4.614   6.316 -0.3040 -0.3358 -0.1498
 3451SOL    HW111794   1.567   4.617   6.262  0.8589 -2.0927 -2.1099
 3451SOL    HW211795   1.718   4.633   6.256  1.0240 -1.8313  0.8593
 3452SOL     OW11796   7.144   5.022   5.233 -0.4390  0.3903  0.7732
 3452SOL    HW111797   7.172   5.070   5.155 -0.5208 -0.6094  0.1001
 3452SOL    HW211798   7.100   5.086   5.287 -0.3201  1.1203  0.0221
 3453SOL     OW11799   2.280   6.677   8.013  0.0802 -0.3730  0.3715
 3453SOL    HW111800   2.275   6.581   8.010  1.5616 -0.5270  1.6528
 3453SOL    HW211801   2.194   6.705   8.043 -0.5809 -1.2386 -0.6250
 3454SOL     OW11802   0.273   4.213   6.140 -0.9467  0.4137  0.4882
 3454SOL    HW111803   0.214   4.284   6.168 -0.2173  1.1632  0.1674
 3454SOL    HW211804   0.358   4.237   6.176  0.2032  1.7713 -2.7258
 3455SOL     OW11805   2.533   4.899   7.086 -0.4749  0.3092  0.3094
 3455SOL    HW111806   2.621   4.937   7.075 -0.5114 -0.4349 -4.6127
 3455SOL    HW211807   2.543   4.808   7.058 -2.6162 -0.1231  0.8149
 3456SOL     OW11808   2.382   4.804   6.447 -0.4651  0.2465 -0.2089
 3456SOL    HW111809   2.358   4.872   6.383  0.2917 -0.2775 -1.0636
 3456SOL    HW211810   2.474   4.787   6.431 -0.8427 -1.6183 -0.6107
 3457SOL     OW11811   7.427   4.158   6.253  0.3222  0.3288 -0.5700
 3457SOL    HW111812   7.458   4.242   6.219 -1.0885  0.9644 -0.3357
 3457SOL    HW211813   7.454   4.094   6.186  1.4807  0.9336 -0.7073
 3458SOL     OW11814   1.734   3.847   5.898  0.1747 -0.2319 -0.1910
 3458SOL    HW111815   1.702   3.776   5.953 -0.2249 -0.2187 -0.3989
 3458SOL    HW211816   1.748   3.920   5.959 -2.6405  0.6054 -0.3645
 3459SOL     OW11817   7.033   5.657   7.434 -0.2375  0.4933  0.0989
 3459SOL    HW111818   7.057   5.601   7.508 -0.5598  0.8438  0.4797
 3459SOL    HW211819   6.965   5.609   7.388 -0.7892  0.7342  0.6476
 3460SOL     OW11820   0.459   5.631   6.546  0.0910 -0.1965  0.4207
 3460SOL    HW111821   0.532   5.667   6.595  0.0110 -0.7019  0.9142
 3460SOL    HW211822   0.434   5.552   6.593 -1.6035  0.6267  0.9962
 3461SOL     OW11823   1.382   6.934   5.148  0.6850 -0.3024 -0.6480
 3461SOL    HW111824   1.291   6.963   5.154  0.5601 -0.8643  0.4033
 3461SOL    HW211825   1.394   6.909   5.056 -0.0203  0.3872 -0.9366
 3462SOL     OW11826   0.589   3.787   6.517 -0.0964 -0.1364 -0.5256
 3462SOL    HW111827   0.563   3.830   6.435 -0.9950  0.6836  0.1670
 3462SOL    HW211828   0.521   3.812   6.580  0.2457 -1.2643  0.3216
 3463SOL     OW11829   7.055   4.860   5.681 -0.3192  0.1117 -0.1175
 3463SOL    HW111830   6.978   4.904   5.646 -1.4357 -0.3807  1.5917
 3463SOL    HW211831   7.025   4.771   5.700  1.2273 -0.6935 -1.2220
 3464SOL     OW11832   0.236   5.753   7.261  0.5567 -0.4194  0.4243
 3464SOL    HW111833   0.197   5.763   7.347 -1.2512 -0.1530 -0.3772
 3464SOL    HW211834   0.269   5.663   7.259  0.8790 -0.3306  1.4763
 3465SOL     OW11835   7.572   4.154   7.324 -0.0044  0.3565 -0.4749
 3465SOL    HW111836   7.486   4.124   7.351 -0.4652  1.5514 -0.5499
 3465SOL    HW211837   7.609   4.196   7.402  0.5440 -0.2062 -0.4230
 3466SOL     OW11838   2.187   3.337   6.431  0.3735  0.4762  0.6944
 3466SOL    HW111839   2.249   3.345   6.358 -0.7593 -0.5778 -0.4533
 3466SOL    HW211840   2.203   3.249   6.466 -0.1938  0.3416  0.6268
 3467SOL     OW11841   1.854   4.523   6.165 -0.4400 -0.3897 -0.2788
 3467SOL    HW111842   1.875   4.616   6.167  0.1988 -0.5289 -0.3021
 3467SOL    HW211843   1.917   4.486   6.103 -0.9948 -0.7640 -0.6301
 3468SOL     OW11844   2.678   3.421   7.470 -0.0978 -0.7949 -0.1457
 3468SOL    HW111845   2.673   3.491   7.405 -0.0629 -0.4048  0.2666
 3468SOL    HW211846   2.751   3.447   7.527 -1.4040 -0.0697  1.2743
 3469SOL     OW11847   3.042   5.172   7.149  0.0917  0.2218 -0.2859
 3469SOL    HW111848   3.137   5.176   7.140  0.0370  1.7762 -0.5179
 3469SOL    HW211849   3.009   5.234   7.083 -0.9707  1.2851  1.1648
 3470SOL     OW11850   0.652   5.373   7.007 -0.0774 -0.2785  0.0013
 3470SOL    HW111851   0.631   5.331   6.924 -1.7288  0.4841 -0.0071
 3470SOL    HW211852   0.742   5.346   7.026 -0.5099 -2.4743 -0.7959
 3471SOL     OW11853   0.003   4.805   6.302  0.0350  0.0610 -0.0584
 3471SOL    HW111854   0.026   4.768   6.217 -0.4484  0.5670 -0.4154
 3471SOL    HW211855  -0.091   4.818   6.298  0.2572  1.8150 -0.1443
 3472SOL     OW11856   0.793   4.613   7.466 -0.3705 -0.2060 -0.3967
 3472SOL    HW111857   0.759   4.527   7.491  1.8981 -1.6202 -1.8077
 3472SOL    HW211858   0.846   4.641   7.540 -0.9698 -0.0874 -0.0055
 3473SOL     OW11859   7.195   3.143   3.809 -1.1977 -0.2891  0.3803
 3473SOL    HW111860   7.195   3.222   3.864  0.9631 -0.9317  1.3890
 3473SOL    HW211861   7.255   3.083   3.853 -0.5965 -1.4468 -1.8700
 3474SOL     OW11862   0.950   5.066   8.643 -0.6135  0.6165  0.3035
 3474SOL    HW111863   0.987   5.088   8.729  1.2043  0.4475 -0.3975
 3474SOL    HW211864   1.026   5.048   8.588 -1.8011 -1.7509 -0.7039
 3475SOL     OW11865   2.094   5.212   5.835 -0.0789  0.0839  0.1172
 3475SOL    HW111866   2.107   5.126   5.874  0.2109  0.6710  1.3539
 3475SOL    HW211867   2.163   5.219   5.770 -0.8588 -1.0970 -0.8969
 3476SOL     OW11868   2.106   5.238   8.773  0.8139  0.0737  0.7962
 3476SOL    HW111869   2.131   5.154   8.812 -0.2523 -0.7629 -0.2512
 3476SOL    HW211870   2.161   5.245   8.695 -0.6440 -0.7806 -0.3672
 3477SOL     OW11871   1.262   4.952   6.434  0.3605 -0.1615 -0.0162
 3477SOL    HW111872   1.319   4.893   6.483  0.7935 -0.1377 -0.4743
 3477SOL    HW211873   1.272   4.925   6.343 -0.0334  0.1215 -0.1475
 3478SOL     OW11874   2.288   3.540   5.918 -0.1157  0.3358 -0.0132
 3478SOL    HW111875   2.241   3.602   5.974  1.3641  0.5486  1.0455
 3478SOL    HW211876   2.264   3.566   5.829 -2.0786  0.3436  0.4757
 3479SOL     OW11877   1.778   4.886   6.781 -0.0022  0.6832  0.0878
 3479SOL    HW111878   1.819   4.799   6.787 -0.9269  0.3265  1.4513
 3479SOL    HW211879   1.745   4.890   6.691 -1.4421 -1.0712  0.4975
 3480SOL     OW11880   3.208   3.017   8.180  0.4259  0.1667  0.0404
 3480SOL    HW111881   3.138   2.986   8.123  0.0655  0.0638  0.5296
 3480SOL    HW211882   3.262   3.072   8.124 -0.0182  0.2103 -0.3534
 3481SOL     OW11883   1.387   4.001   7.245 -0.1838 -0.0127 -0.2568
 3481SOL    HW111884   1.446   3.934   7.281  0.6269  0.8727  0.1141
 3481SOL    HW211885   1.374   4.062   7.317  0.8307  1.3649 -1.1865
 3482SOL     OW11886   2.087   5.459   7.629  0.0457 -0.2009  0.6917
 3482SOL    HW111887   1.993   5.438   7.630  0.2468 -1.1427  0.6973
 3482SOL    HW211888   2.129   5.379   7.597  0.7316  0.6889 -0.7636
 3483SOL     OW11889   0.223   3.672   7.469 -0.0057 -0.1245  0.0186
 3483SOL    HW111890   0.141   3.719   7.481  0.3026  0.4208 -0.0087
 3483SOL    HW211891   0.221   3.643   7.378 -1.3955 -2.4694  0.7099
 3484SOL     OW11892   2.844   5.802   7.350 -0.0112  0.1120  0.0426
 3484SOL    HW111893   2.809   5.885   7.317  1.3211  0.8880  0.4963
 3484SOL    HW211894   2.935   5.801   7.321 -0.0356 -1.2460 -0.0300
 3485SOL     OW11895   2.013   3.297   7.036  0.2130 -0.4755 -0.2685
 3485SOL    HW111896   1.922   3.275   7.014  0.1824 -0.7073  0.0777
 3485SOL    HW211897   2.018   3.392   7.028  0.0358 -0.4979 -0.6478
 3486SOL     OW11898   7.026   2.420   6.721  0.4536  0.0743 -0.0236
 3486SOL    HW111899   7.076   2.350   6.679  0.5211 -0.4053  0.8421
 3486SOL    HW211900   6.937   2.410   6.686  0.7430  0.3361 -0.8446
 3487SOL     OW11901   1.767   4.408   9.153 -0.0308  0.0597 -0.3623
 3487SOL    HW111902   1.830   4.408   9.081 -0.0701  1.1341 -0.4039
 3487SOL    HW211903   1.802   4.343   9.214 -0.8969 -2.1870 -2.0902
 3488SOL     OW11904   1.725   4.291   7.919 -0.1458  0.3015 -0.0896
 3488SOL    HW111905   1.684   4.211   7.886 -1.1739  0.2551  1.2191
 3488SOL    HW211906   1.674   4.362   7.881 -0.2574  0.2951  0.0493
 3489SOL     OW11907   2.270   4.636   7.102 -0.1620 -0.4434  0.0436
 3489SOL    HW111908   2.357   4.641   7.064 -0.5870  0.4722 -0.8668
 3489SOL    HW211909   2.211   4.658   7.030 -1.2217 -1.9279  0.4089
 3490SOL     OW11910   1.317   5.890   7.547  0.0453 -0.0272 -0.2441
 3490SOL    HW111911   1.379   5.953   7.582  2.4452 -2.7145  0.7771
 3490SOL    HW211912   1.253   5.877   7.617 -1.0220  1.8106 -0.8090
 3491SOL     OW11913   3.146   5.430   6.656 -1.2352 -0.2333  0.1490
 3491SOL    HW111914   3.090   5.435   6.578 -0.5989  0.8012 -0.2619
 3491SOL    HW211915   3.147   5.337   6.679 -0.9877 -0.6334 -1.4002
 3492SOL     OW11916   3.001   3.392   5.908  0.5993  0.0890 -0.3150
 3492SOL    HW111917   3.053   3.461   5.867  1.3273  0.1162  0.6088
 3492SOL    HW211918   3.027   3.312   5.861  2.6708 -0.1496  1.0877
 3493SOL     OW11919   3.228   5.430   6.152  0.2161 -0.4512 -0.0431
 3493SOL    HW111920   3.266   5.443   6.065 -1.1922  0.3788 -0.5667
 3493SOL    HW211921   3.291   5.374   6.198  1.3827 -0.2256 -1.3088
 3494SOL     OW11922   1.185   4.176   6.698 -0.1622  0.3854 -0.6082
 3494SOL    HW111923   1.160   4.087   6.725 -1.5977  0.5290 -1.3351
 3494SOL    HW211924   1.173   4.229   6.776 -1.5569  0.3162 -0.7447
 3495SOL     OW11925   0.589   3.473   5.118  0.3601 -0.6104 -0.2384
 3495SOL    HW111926   0.612   3.380   5.120  0.2231 -0.6792 -1.1472
 3495SOL    HW211927   0.642   3.513   5.187  0.9411 -1.2481 -0.3035
 3496SOL     OW11928   2.159   5.449   7.331  0.4295  0.5227 -0.7494
 3496SOL    HW111929   2.088   5.440   7.394  1.8234  0.1062  0.8230
 3496SOL    HW211930   2.162   5.543   7.311  2.0895  1.2625  2.4413
 3497SOL     OW11931   1.740   5.512   7.049 -0.0326 -0.2935  0.0660
 3497SOL    HW111932   1.686   5.524   6.971 -0.0382 -3.5853 -0.6139
 3497SOL    HW211933   1.810   5.452   7.021  0.3181 -1.1159  2.4151
 3498SOL     OW11934   2.137   6.161   8.424  0.0530 -0.2612 -0.5761
 3498SOL    HW111935   2.157   6.254   8.433  0.1469 -0.5213  3.4465
 3498SOL    HW211936   2.175   6.137   8.339  3.0750  2.6286 -0.2649
 3499SOL     OW11937   0.839   6.435   5.399  0.4986 -0.3238  0.3868
 3499SOL    HW111938   0.818   6.385   5.320  0.7428  0.9054 -0.4764
 3499SOL    HW211939   0.924   6.474   5.381 -0.9597  2.8847 -0.2797
 3500SOL     OW11940   1.450   3.160   6.183 -0.3733 -0.4444  0.1665
 3500SOL    HW111941   1.546   3.156   6.186 -0.4258 -2.1135  0.5661
 3500SOL    HW211942   1.423   3.137   6.272 -1.1598  0.2547  0.1217
 3501SOL     OW11943   1.897   4.956   7.460  0.3682  0.1773 -0.0708
 3501SOL    HW111944   1.957   5.013   7.508  0.7731  0.7154 -1.1796
 3501SOL    HW211945   1.942   4.872   7.454  0.7438  0.3936 -0.3421
 3502SOL     OW11946   7.466   4.740   7.520 -0.2759 -0.4144 -0.0222
 3502SOL    HW111947   7.450   4.713   7.429 -2.8483  0.9299 -0.0743
 3502SOL    HW211948   7.466   4.659   7.570  0.9798 -1.1587 -1.1535
 3503SOL     OW11949   6.834   5.644   7.748  0.0863 -0.8084 -0.3276
 3503SOL    HW111950   6.826   5.549   7.751 -0.9907 -0.7349  2.4735
 3503SOL    HW211951   6.754   5.675   7.707 -0.2666 -1.0676  0.1640
 3504SOL     OW11952   2.500   5.271   6.862  0.0530  0.1472  0.8664
 3504SOL    HW111953   2.543   5.253   6.778 -0.2397  0.0673  0.7340
 3504SOL    HW211954   2.493   5.366   6.865 -0.3825  0.1251  0.5775
 3505SOL     OW11955   0.025   3.852   6.373 -0.2089  0.0449  0.0285
 3505SOL    HW111956   0.003   3.907   6.297 -0.4318  1.4436  1.0646
 3505SOL    HW211957   0.109   3.813   6.350 -1.0174 -0.8607 -1.6032
 3506SOL     OW11958   7.029   4.247   5.868 -0.2603  0.7210  0.1819
 3506SOL    HW111959   7.027   4.240   5.773  0.9396  1.8213  0.0491
 3506SOL    HW211960   6.944   4.285   5.891 -1.0674 -0.7088 -0.3051
 3507SOL     OW11961   0.702   3.813   8.250 -0.4830 -0.9865 -0.0247
 3507SOL    HW111962   0.662   3.893   8.215 -1.9315 -2.4391 -1.9605
 3507SOL    HW211963   0.768   3.844   8.311  1.6605  1.8315 -3.3789
 3508SOL     OW11964   1.366   6.817   6.641 -0.2568  0.9414 -0.1105
 3508SOL    HW111965   1.388   6.886   6.580 -1.6702  0.9924 -0.6091
 3508SOL    HW211966   1.440   6.756   6.637  0.3147  1.6649 -0.7847
 3509SOL     OW11967   1.602   4.702   7.138 -0.1160 -0.2451  0.0014
 3509SOL    HW111968   1.569   4.737   7.055 -1.0938  0.1529  0.5303
 3509SOL    HW211969   1.557   4.754   7.205 -1.6444 -2.4623  0.8445
 3510SOL     OW11970   2.698   4.155   6.564 -0.3914  0.0268  0.2262
 3510SOL    HW111971   2.763   4.084   6.564 -1.6891 -1.2321  1.5263
 3510SOL    HW211972   2.665   4.157   6.654 -1.6357  1.1151 -0.2267
 3511SOL     OW11973   7.961   3.166   6.088 -0.2525  0.4232  0.2933
 3511SOL    HW111974   7.982   3.090   6.034 -0.6195  0.1555  0.5216
 3511SOL    HW211975   7.973   3.135   6.178 -0.6295  0.5629  0.3941
 3512SOL     OW11976   0.572   4.106   6.691  0.0935  0.1089 -0.3777
 3512SOL    HW111977   0.607   4.177   6.638  0.8578 -0.7006 -0.9734
 3512SOL    HW211978   0.500   4.070   6.639 -0.6957  0.8193  0.1937
 3513SOL     OW11979   1.321   5.491   6.824  0.1179  0.1510  0.2259
 3513SOL    HW111980   1.292   5.410   6.866 -0.3310 -0.5048 -1.2763
 3513SOL    HW211981   1.316   5.473   6.730  0.9780  1.5921 -0.1351
 3514SOL     OW11982   1.532   3.755   8.174 -0.6334 -0.1244 -0.2124
 3514SOL    HW111983   1.444   3.757   8.137 -0.6616 -0.8600 -0.1967
 3514SOL    HW211984   1.590   3.779   8.102 -0.9265  1.6300  0.0895
 3515SOL     OW11985   7.896   4.120   7.271  0.5207  0.6518 -0.0824
 3515SOL    HW111986   7.904   4.170   7.352  0.4521  1.2049 -0.4162
 3515SOL    HW211987   7.817   4.067   7.282  0.5753  0.6416  0.2545
 3516SOL     OW11988   6.656   3.452   6.061 -0.3510 -0.2569 -0.0256
 3516SOL    HW111989   6.587   3.473   5.998 -0.0541  0.7469 -0.0340
 3516SOL    HW211990   6.722   3.520   6.048 -1.0276  1.0048  2.5084
 3517SOL     OW11991   2.366   4.868   5.553 -0.4001  0.0292  0.5699
 3517SOL    HW111992   2.306   4.942   5.564  0.8359  0.7903  2.7543
 3517SOL    HW211993   2.316   4.793   5.584 -0.7154  0.4083  1.0045
 3518SOL     OW11994   0.653   5.212   6.551  0.4701 -0.0811  0.4133
 3518SOL    HW111995   0.641   5.118   6.566  3.4898 -0.3462  2.0386
 3518SOL    HW211996   0.642   5.252   6.637 -0.8745  1.1017 -0.2823
 3519SOL     OW11997   6.601   6.396   7.655 -0.2215 -0.1381 -0.2223
 3519SOL    HW111998   6.532   6.460   7.673  1.4592  1.7753 -0.1694
 3519SOL    HW211999   6.626   6.414   7.564 -0.1378 -1.1798 -0.4187
 3520SOL     OW12000   7.503   3.952   5.164 -0.1728 -0.2483  0.0471
 3520SOL    HW112001   7.536   3.929   5.077  0.3565  2.9323 -0.7182
 3520SOL    HW212002   7.559   3.904   5.225  1.8844  0.2794 -1.3342
 3521SOL     OW12003   2.250   6.022   9.205  0.4799  0.3277  0.0894
 3521SOL    HW112004   2.192   6.024   9.281  2.3004  1.2207  1.5656
 3521SOL    HW212005   2.284   5.932   9.203 -1.7261 -0.5412 -1.4907
 3522SOL     OW12006   7.903   2.524   6.390 -0.0027  0.4679 -0.5660
 3522SOL    HW112007   7.938   2.454   6.445 -0.7978  0.4984 -0.0139
 3522SOL    HW212008   7.854   2.478   6.321 -0.8256  0.4803  0.0018
 3523SOL     OW12009   1.962   3.667   5.916 -0.0788 -0.1732 -0.2438
 3523SOL    HW112010   1.930   3.757   5.916 -0.8592 -0.4506 -0.0716
 3523SOL    HW212011   1.937   3.633   5.830 -1.3150 -0.7622  0.3325
 3524SOL     OW12012   2.080   5.640   6.470 -0.0938 -0.4195 -0.0089
 3524SOL    HW112013   2.132   5.717   6.448 -0.3986 -0.2491 -0.1285
 3524SOL    HW212014   2.096   5.625   6.563 -1.2924  0.7444  0.4174
 3525SOL     OW12015   1.211   5.796   6.270  0.3680 -0.4222  0.5421
 3525SOL    HW112016   1.190   5.889   6.259 -0.6689 -0.4708  1.7799
 3525SOL    HW212017   1.302   5.788   6.242  0.5285  1.0081  0.5855
 3526SOL     OW12018   0.301   5.639   8.176 -0.2284  0.0625  0.0017
 3526SOL    HW112019   0.324   5.731   8.162 -0.5692  0.5034  2.0330
 3526SOL    HW212020   0.236   5.620   8.109 -0.2783  1.3518 -0.3454
 3527SOL     OW12021   0.433   3.235   6.867  0.3756  0.4056 -0.4023
 3527SOL    HW112022   0.386   3.230   6.784  0.8848  0.8277 -0.7202
 3527SOL    HW212023   0.363   3.237   6.933 -0.0170 -0.6972 -0.7604
 3528SOL     OW12024   0.831   5.726   6.390  0.2933 -0.0213  0.9061
 3528SOL    HW112025   0.888   5.648   6.395 -0.1077 -0.3647  0.2644
 3528SOL    HW212026   0.813   5.736   6.297 -0.7693  0.0331  1.1073
 3529SOL     OW12027   7.313   3.195   6.308 -0.2368  0.0655  0.2329
 3529SOL    HW112028   7.366   3.119   6.285  0.0532  0.1815  0.5101
 3529SOL    HW212029   7.277   3.174   6.394 -2.0664 -0.7681 -0.6748
 3530SOL     OW12030   0.396   3.744   6.987  0.5187  0.1490  0.0276
 3530SOL    HW112031   0.449   3.664   6.980 -0.9652 -0.8076 -0.8429
 3530SOL    HW212032   0.313   3.714   7.024 -1.4366  0.5257 -3.5783
 3531SOL     OW12033   7.615   4.371   6.485 -0.1869  0.7888 -0.1460
 3531SOL    HW112034   7.637   4.342   6.573 -0.0688  0.2578 -0.3486
 3531SOL    HW212035   7.591   4.291   6.438  0.1132  1.0198 -0.6989
 3532SOL     OW12036   1.670   4.095   7.183 -0.1567  0.3930 -0.4296
 3532SOL    HW112037   1.604   4.132   7.242 -0.5134 -0.2071 -0.4481
 3532SOL    HW212038   1.629   4.016   7.147  1.2516 -1.0453  0.9742
 3533SOL     OW12039   7.823   5.896   4.466 -0.1646  0.1169  0.0329
 3533SOL    HW112040   7.908   5.898   4.510 -0.5170 -1.3595  0.8348
 3533SOL    HW212041   7.843   5.905   4.373  0.7681  0.8676  0.2934
 3534SOL     OW12042   0.696   5.765   6.636 -0.1114 -0.3879  1.0636
 3534SOL    HW112043   0.753   5.710   6.690 -0.1101 -1.3356  0.1269
 3534SOL    HW212044   0.733   5.759   6.548 -1.3869 -0.6669  0.5211
 3535SOL     OW12045   6.419   4.333   5.480 -0.1376 -0.2840  0.8601
 3535SOL    HW112046   6.425   4.359   5.388  0.3664 -0.9999  0.6841
 3535SOL    HW212047   6.480   4.260   5.488 -0.5334 -0.5317  1.6555
 3536SOL     OW12048   1.406   5.540   8.107 -0.2167 -0.4599 -0.0215
 3536SOL    HW112049   1.356   5.620   8.125 -1.4585 -0.9840 -0.9684
 3536SOL    HW212050   1.497   5.568   8.107 -0.6681  1.1564 -1.2953
 3537SOL     OW12051   0.776   3.061   6.526  0.4956 -0.2202 -0.0592
 3537SOL    HW112052   0.805   3.008   6.452 -1.0828 -1.7677  0.3517
 3537SOL    HW212053   0.700   3.109   6.493  0.5515  0.0519  0.2004
 3538SOL     OW12054   7.724   4.352   6.815  0.4358 -0.0277  0.4263
 3538SOL    HW112055   7.719   4.258   6.827 -1.5602  0.3307  3.1359
 3538SOL    HW212056   7.816   4.373   6.830  0.6879 -1.4058  0.9133
 3539SOL     OW12057   1.329   4.345   8.580  0.2365 -0.3805 -0.4396
 3539SOL    HW112058   1.356   4.399   8.654  0.4449  1.0494 -1.5150
 3539SOL    HW212059   1.399   4.356   8.516  0.1272 -1.7019 -0.8227
 3540SOL     OW12060   7.673   4.628   6.267 -0.9459 -0.5116 -0.5455
 3540SOL    HW112061   7.741   4.616   6.333 -1.9984  2.9539  1.4596
 3540SOL    HW212062   7.608   4.561   6.287  0.8447 -2.5477 -1.2018
 3541SOL     OW12063   3.796   3.622   7.387 -0.2192 -0.5726 -0.4231
 3541SOL    HW112064   3.811   3.704   7.340 -0.7724  0.7589  1.6174
 3541SOL    HW212065   3.737   3.572   7.329  2.2572 -0.8039 -2.9695
 3542SOL     OW12066   1.565   5.791   7.571  0.1052 -0.0669 -0.5099
 3542SOL    HW112067   1.567   5.886   7.567 -3.5680  0.2969  1.4656
 3542SOL    HW212068   1.506   5.765   7.500 -0.1604 -0.7028 -0.0685
 3543SOL     OW12069   1.999   3.288   5.558  0.1423 -0.5050 -0.0113
 3543SOL    HW112070   1.969   3.205   5.521 -0.5227  0.5563 -2.0486
 3543SOL    HW212071   2.076   3.311   5.506  0.6010 -0.0487  0.8396
 3544SOL     OW12072   0.871   5.664   7.798 -0.6787  0.8169 -0.1281
 3544SOL    HW112073   0.918   5.701   7.872 -0.9767  0.3211  0.3137
 3544SOL    HW212074   0.814   5.597   7.836  2.2543 -2.5930 -1.1632
 3545SOL     OW12075   0.594   2.986   5.674 -0.1059 -0.0833 -0.2238
 3545SOL    HW112076   0.658   2.973   5.743 -0.2500  3.7922  0.8425
 3545SOL    HW212077   0.642   2.970   5.592  1.7590  1.0754  0.6010
 3546SOL     OW12078   0.931   5.301   7.920 -0.5312 -0.1734 -0.1945
 3546SOL    HW112079   1.009   5.341   7.959  1.3452 -1.8821 -1.9505
 3546SOL    HW212080   0.866   5.371   7.918  1.8781  2.1806 -1.2572
 3547SOL     OW12081   1.882   4.800   6.130  0.4935 -0.0910 -0.3038
 3547SOL    HW112082   1.877   4.850   6.048 -0.0465 -0.7831 -0.7006
 3547SOL    HW212083   1.841   4.857   6.195  0.3699  0.2072 -0.6377
 3548SOL     OW12084   2.299   5.289   5.664  0.2624  0.1327 -0.2634
 3548SOL    HW112085   2.304   5.348   5.588  2.2565 -0.4987 -0.6839
 3548SOL    HW212086   2.390   5.267   5.683 -0.2638 -0.5278  1.7152
 3549SOL     OW12087   2.657   7.262   6.621 -0.0458  0.1927  0.2806
 3549SOL    HW112088   2.722   7.325   6.589  0.3885 -0.8236 -0.9129
 3549SOL    HW212089   2.707   7.202   6.677 -0.4576  0.8778  1.4135
 3550SOL     OW12090   2.869   7.175   6.828  0.1708  0.7692  0.2343
 3550SOL    HW112091   2.922   7.219   6.762  1.4151  2.4246  2.2417
 3550SOL    HW212092   2.875   7.082   6.805 -0.3788  1.3430 -2.5769
 3551SOL     OW12093   0.714   5.422   6.709  0.1728 -0.3442  0.3073
 3551SOL    HW112094   0.750   5.490   6.766  0.7746 -0.9687  0.6986
 3551SOL    HW212095   0.778   5.415   6.638 -0.4037  0.1982 -0.2687
 3552SOL     OW12096   1.317   4.051   7.675 -0.2376 -0.3593 -0.0750
 3552SOL    HW112097   1.300   3.969   7.627 -0.0756 -0.4852  0.0795
 3552SOL    HW212098   1.366   4.105   7.614  0.9059 -0.9346  0.3125
 3553SOL     OW12099   1.465   3.409   6.575 -0.4175 -0.6865  0.1438
 3553SOL    HW112100   1.518   3.330   6.578 -0.7903 -1.0715 -1.9653
 3553SOL    HW212101   1.401   3.393   6.505 -0.7882  1.2913 -0.0407
 3554SOL     OW12102   2.559   5.882   7.807  0.4719 -0.0813 -0.5124
 3554SOL    HW112103   2.558   5.916   7.896  0.8604 -1.0623 -0.1171
 3554SOL    HW212104   2.571   5.959   7.751 -0.3619  0.6142  0.2355
 3555SOL     OW12105   1.469   6.007   6.454  0.2336  0.2321 -0.2790
 3555SOL    HW112106   1.426   5.973   6.532 -0.6321  0.2427 -0.7447
 3555SOL    HW212107   1.419   6.085   6.430  0.8780  0.5903 -0.4819
 3556SOL     OW12108   2.402   4.433   6.580 -0.4089  0.5375  0.3143
 3556SOL    HW112109   2.493   4.419   6.607 -0.6768  0.3044  1.1375
 3556SOL    HW212110   2.385   4.525   6.598 -0.5038  0.4470  0.6987
 3557SOL     OW12111   1.831   6.803   6.955 -0.1212 -0.3672 -0.0499
 3557SOL    HW112112   1.763   6.858   6.915  1.7275  1.5400 -0.7503
 3557SOL    HW212113   1.913   6.837   6.919  1.3151 -1.7549  1.7441
 3558SOL     OW12114   7.935   5.245   6.724  0.5123 -0.1922  0.0364
 3558SOL    HW112115   8.024   5.243   6.689 -0.5327  1.2900 -3.0231
 3558SOL    HW212116   7.878   5.244   6.647 -2.2374 -2.2726  1.8897
 3559SOL     OW12117   3.651   6.614   6.644 -0.3015 -0.4321 -0.5652
 3559SOL    HW112118   3.637   6.602   6.737 -1.4956  0.0875 -0.6635
 3559SOL    HW212119   3.586   6.559   6.602 -0.6501  0.3539 -1.0747
 3560SOL     OW12120   1.929   5.342   6.875  0.3790  0.7694 -0.2185
 3560SOL    HW112121   2.024   5.326   6.882  0.4333  1.4831  0.8706
 3560SOL    HW212122   1.890   5.270   6.924  0.2429 -0.6078 -2.2493
 3561SOL     OW12123   1.801   4.461   8.157  0.0405 -0.2769 -0.2334
 3561SOL    HW112124   1.828   4.384   8.208 -1.0812 -0.4170  0.1757
 3561SOL    HW212125   1.729   4.430   8.102 -0.7460  0.5851  0.2822
 3562SOL     OW12126   2.040   5.899   5.823  0.1146 -0.6422  0.1492
 3562SOL    HW112127   2.016   5.834   5.890  1.2231 -0.2649  0.9410
 3562SOL    HW212128   2.134   5.884   5.808  0.7990  1.7944  1.5269
 3563SOL     OW12129   1.250   4.600   7.194  0.3796 -0.0521 -0.2892
 3563SOL    HW112130   1.284   4.603   7.105 -1.6470 -0.4635 -1.1232
 3563SOL    HW212131   1.266   4.510   7.222  3.8746  0.8125  1.0454
 3564SOL     OW12132   1.447   4.499   4.939  0.1470 -0.3507  0.4290
 3564SOL    HW112133   1.500   4.528   5.014  0.1518  0.1006  0.2517
 3564SOL    HW212134   1.471   4.559   4.868 -0.3954 -0.3168  0.2711
 3565SOL     OW12135   0.427   5.416   6.702 -0.0354  0.2004 -0.1279
 3565SOL    HW112136   0.429   5.341   6.762  1.3962 -0.4246 -0.9015
 3565SOL    HW212137   0.518   5.444   6.697 -0.6638  2.7484  1.0172
 3566SOL     OW12138   0.815   4.277   6.878  0.1337  0.2592  1.0415
 3566SOL    HW112139   0.750   4.340   6.910 -0.2988  0.6529 -0.5256
 3566SOL    HW212140   0.884   4.332   6.840  0.9471 -0.1830  1.8281
 3567SOL     OW12141   2.316   5.844   5.776  0.1144 -0.2259 -0.3495
 3567SOL    HW112142   2.292   5.751   5.771  0.9832 -0.7065  2.4931
 3567SOL    HW212143   2.407   5.844   5.806  0.3435  1.5670 -0.9260
 3568SOL     OW12144   2.197   4.539   7.564  0.3753  0.5885  0.2969
 3568SOL    HW112145   2.241   4.614   7.523  2.4075 -0.4995  0.3441
 3568SOL    HW212146   2.152   4.577   7.639  0.0138  1.9915 -0.5867
 3569SOL     OW12147   2.746   2.708   7.823  0.0549 -0.1021  0.0372
 3569SOL    HW112148   2.717   2.695   7.913  0.7164  1.0191  0.4327
 3569SOL    HW212149   2.816   2.772   7.830 -0.2924  0.4502 -1.3417
 3570SOL     OW12150   0.458   5.542   7.067  0.0257  0.0182  0.2902
 3570SOL    HW112151   0.517   5.489   7.014 -2.1163 -1.2726 -0.9497
 3570SOL    HW212152   0.448   5.624   7.018  1.6301  0.7234  1.0934
 3571SOL     OW12153   2.081   4.294   8.439 -0.1610 -0.5215 -0.0560
 3571SOL    HW112154   2.097   4.252   8.355 -1.4671 -0.8609 -0.1480
 3571SOL    HW212155   2.156   4.269   8.493 -0.5673 -2.4093 -0.3265
 3572SOL     OW12156   0.665   4.273   5.993 -0.0255 -0.0852 -0.0506
 3572SOL    HW112157   0.722   4.345   6.020  0.5455 -1.4165  2.6211
 3572SOL    HW212158   0.674   4.269   5.898  2.2500  1.4443  0.0377
 3573SOL     OW12159   7.675   5.630   8.167 -0.0320  0.5095  0.1193
 3573SOL    HW112160   7.595   5.596   8.127 -1.1503  2.6897  0.3497
 3573SOL    HW212161   7.742   5.618   8.100 -0.3800 -1.7973  0.0935
 3574SOL     OW12162   2.695   3.713   5.565  0.4848  0.1965 -0.2983
 3574SOL    HW112163   2.623   3.717   5.627 -0.0705  1.0435 -0.9853
 3574SOL    HW212164   2.772   3.741   5.615  0.2338 -0.1490  0.2805
 3575SOL     OW12165   6.795   4.357   5.239  0.0479 -0.6824 -0.6943
 3575SOL    HW112166   6.825   4.267   5.230 -0.4782 -0.7493 -2.1317
 3575SOL    HW212167   6.707   4.357   5.200  0.1829  0.5147 -1.0506
 3576SOL     OW12168   1.534   6.245   7.136  0.6905  0.5370  0.2343
 3576SOL    HW112169   1.626   6.271   7.128  0.7232  0.0695 -1.3428
 3576SOL    HW212170   1.487   6.307   7.080  0.3184 -0.4253 -0.5632
 3577SOL     OW12171   0.352   3.719   5.027 -0.0486 -0.0599 -0.0308
 3577SOL    HW112172   0.434   3.742   4.984  0.8158 -0.2981  1.3905
 3577SOL    HW212173   0.306   3.802   5.038  1.6001  0.6808  2.2037
 3578SOL     OW12174   1.010   5.449   6.661  0.4641  0.0076  0.2699
 3578SOL    HW112175   1.072   5.521   6.653  2.0498 -1.4520 -1.5277
 3578SOL    HW212176   1.044   5.397   6.734 -0.3525  0.7115  1.1853
 3579SOL     OW12177   2.010   5.552   6.720 -0.7977  0.7572  0.1928
 3579SOL    HW112178   2.039   5.591   6.802 -2.7779 -1.2897  2.0215
 3579SOL    HW212179   1.951   5.481   6.747  0.1751 -1.4631 -2.9309
 3580SOL     OW12180   2.935   6.654   5.104  0.2239  0.1362  0.2541
 3580SOL    HW112181   3.011   6.700   5.139  0.9817 -0.5330 -0.4663
 3580SOL    HW212182   2.888   6.623   5.182  1.4555 -0.6573  0.7171
 3581SOL     OW12183   0.672   4.985   6.941 -0.2920 -0.3241 -0.2015
 3581SOL    HW112184   0.711   4.982   6.853  1.4314 -0.6607  0.5333
 3581SOL    HW212185   0.667   4.894   6.968 -0.9363 -0.2283  0.0208
 3582SOL     OW12186   0.822   5.234   7.467  0.0834  0.1938  0.0074
 3582SOL    HW112187   0.766   5.229   7.390  0.3734  1.6136 -0.3057
 3582SOL    HW212188   0.768   5.198   7.538 -1.2708  1.5923 -0.2746
 3583SOL     OW12189   7.809   5.811   7.332  0.6086 -0.7907  0.1481
 3583SOL    HW112190   7.717   5.815   7.304  0.3341  1.2138  1.1470
 3583SOL    HW212191   7.851   5.754   7.268 -1.1282 -0.9456 -0.9233
 3584SOL     OW12192   1.692   5.140   8.367 -0.1377 -0.2610  0.4578
 3584SOL    HW112193   1.721   5.086   8.294  0.1865  1.0746 -0.4331
 3584SOL    HW212194   1.629   5.201   8.329  1.1274  1.4294  0.9418
 3585SOL     OW12195   1.727   2.501   7.715 -0.3116  0.0301 -0.2828
 3585SOL    HW112196   1.732   2.470   7.624  0.5158  1.1356 -0.6347
 3585SOL    HW212197   1.724   2.596   7.707 -0.7619  0.1237  0.8495
 3586SOL     OW12198   1.125   4.297   9.293  0.5962  0.2579  0.1450
 3586SOL    HW112199   1.088   4.227   9.346  0.8593  0.4418  0.5780
 3586SOL    HW212200   1.097   4.377   9.337 -1.5277  0.5209 -1.5326
 3587SOL     OW12201   2.484   3.549   7.615  0.1048 -0.3135 -0.4855
 3587SOL    HW112202   2.469   3.504   7.698 -0.1452 -2.0091 -1.4086
 3587SOL    HW212203   2.535   3.487   7.563  1.0968  1.1043 -1.2774
 3588SOL     OW12204   0.563   4.932   7.276  0.4429 -0.4944  0.4229
 3588SOL    HW112205   0.587   4.872   7.205  0.5473 -1.3865  1.1933
 3588SOL    HW212206   0.468   4.944   7.265  0.7357  0.8443 -0.9583
 3589SOL     OW12207   1.575   3.844   4.891  0.8655  0.1542 -0.2175
 3589SOL    HW112208   1.630   3.768   4.907 -0.7357 -0.7927  1.0942
 3589SOL    HW212209   1.602   3.908   4.958  0.6813 -0.1365  0.1363
 3590SOL     OW12210   7.948   5.451   8.469  0.8271  0.1282  0.1581
 3590SOL    HW112211   7.886   5.425   8.401  0.8929 -1.7783  0.7796
 3590SOL    HW212212   7.910   5.531   8.507 -1.3917 -1.0835  0.6527
 3591SOL     OW12213   0.945   5.557   6.147  0.1127 -0.0474 -0.1089
 3591SOL    HW112214   1.026   5.544   6.098 -0.3869 -0.1336 -0.9520
 3591SOL    HW212215   0.917   5.646   6.124 -0.3342 -0.2350 -0.3051
 3592SOL     OW12216   7.489   4.122   5.565  0.5081  0.4731  0.1015
 3592SOL    HW112217   7.575   4.085   5.543  0.9607  1.0846  0.7968
 3592SOL    HW212218   7.509   4.199   5.617 -0.4863 -0.2018  1.5373
 3593SOL     OW12219   3.843   5.800   5.770 -0.0659  0.1592 -0.4900
 3593SOL    HW112220   3.755   5.837   5.762 -0.0425  0.2079 -0.5193
 3593SOL    HW212221   3.901   5.866   5.733 -0.1095 -0.2993 -1.3861
 3594SOL     OW12222   0.028   4.406   7.858  0.0457 -0.4889 -0.6114
 3594SOL    HW112223   0.071   4.320   7.864 -0.8347 -0.8142  3.2557
 3594SOL    HW212224  -0.065   4.386   7.856 -0.1627  0.3978 -3.0490
 3595SOL     OW12225   0.200   5.710   6.718  0.0283  0.7477  0.6337
 3595SOL    HW112226   0.276   5.653   6.708 -0.7751 -0.7626  2.4241
 3595SOL    HW212227   0.149   5.696   6.638 -0.6181 -1.9202  1.4028
 3596SOL     OW12228   0.156   5.462   7.553  0.2174 -0.1996  0.5642
 3596SOL    HW112229   0.165   5.396   7.484 -0.9814  0.8556 -0.6643
 3596SOL    HW212230   0.216   5.533   7.526  1.1824 -0.5697  1.6486
 3597SOL     OW12231   2.483   2.701   6.575 -0.2577 -0.3224 -0.3680
 3597SOL    HW112232   2.525   2.632   6.523 -0.6975 -0.9461  0.0869
 3597SOL    HW212233   2.546   2.773   6.575  1.5564 -1.7552  1.5737
 3598SOL     OW12234   1.625   3.664   8.450  0.4947  0.3240  0.2897
 3598SOL    HW112235   1.537   3.660   8.489  0.7779 -3.0162  0.8764
 3598SOL    HW212236   1.609   3.688   8.358 -0.7261  2.3346  0.9651
 3599SOL     OW12237   1.930   6.049   6.405 -0.0415 -0.4647 -0.2765
 3599SOL    HW112238   1.909   6.142   6.404 -0.1225 -0.4301  1.4855
 3599SOL    HW212239   1.882   6.012   6.330 -0.3240  0.8338 -0.7511
 3600SOL     OW12240   0.427   3.996   8.374  0.1069  0.7700  0.0412
 3600SOL    HW112241   0.408   3.902   8.382  1.6929  0.5248  1.3777
 3600SOL    HW212242   0.378   4.036   8.446  0.4885  0.7875  0.2931
 3601SOL     OW12243   1.850   5.815   7.827 -0.6622 -0.1816  0.1929
 3601SOL    HW112244   1.931   5.866   7.832 -0.4415 -0.4110 -0.8387
 3601SOL    HW212245   1.780   5.881   7.821 -0.5198  0.0108  0.6063
 3602SOL     OW12246   0.904   2.740   7.015 -0.3802 -0.2129 -0.0030
 3602SOL    HW112247   0.966   2.669   7.031  0.5278  0.7027  0.7297
 3602SOL    HW212248   0.956   2.808   6.971 -0.2674  1.4035  2.4001
 3603SOL     OW12249   5.899   3.518   5.395  0.3157  0.3151 -0.2109
 3603SOL    HW112250   5.830   3.526   5.461 -0.4725 -0.2886 -0.9334
 3603SOL    HW212251   5.868   3.571   5.321  1.2838  1.1536 -0.0412
 3604SOL     OW12252   0.606   4.434   6.381  0.2043  0.1400 -0.1321
 3604SOL    HW112253   0.614   4.367   6.313  1.6256  2.5025 -2.4709
 3604SOL    HW212254   0.689   4.482   6.377 -0.4792  1.6368  1.9229
 3605SOL     OW12255   7.078   3.836   7.812  0.1404 -0.4460  0.4313
 3605SOL    HW112256   7.142   3.899   7.847 -2.7152  1.8072  2.0736
 3605SOL    HW212257   7.121   3.797   7.736  3.3719  0.9654  1.3698
 3606SOL     OW12258   2.570   3.818   7.601  0.2661 -0.2459  0.5231
 3606SOL    HW112259   2.664   3.827   7.615  0.3501 -1.0693  0.5518
 3606SOL    HW212260   2.554   3.724   7.604 -0.2892 -0.2518 -1.2454
 3607SOL     OW12261   1.007   4.251   6.420  0.1740  0.4089  0.1985
 3607SOL    HW112262   1.005   4.240   6.325 -0.2158  0.0380  0.2450
 3607SOL    HW212263   0.948   4.325   6.436 -1.6798 -1.0238  0.3310
 3608SOL     OW12264   1.914   4.388   7.500 -0.0584  0.3617 -0.4287
 3608SOL    HW112265   1.967   4.424   7.571 -1.5058  1.0520  0.3532
 3608SOL    HW212266   1.859   4.322   7.541 -1.2743  1.1198 -0.7727
 3609SOL     OW12267   7.579   2.404   6.905  0.5370  0.0678  0.1107
 3609SOL    HW112268   7.508   2.340   6.901  0.7852 -0.2535  0.7233
 3609SOL    HW212269   7.585   2.439   6.816 -0.2934 -0.0044  0.0140
 3610SOL     OW12270   6.921   4.314   8.109  0.2351 -0.6449  0.3280
 3610SOL    HW112271   6.949   4.236   8.061  0.0639 -0.6631  0.2574
 3610SOL    HW212272   6.987   4.325   8.177 -0.2773 -1.4458  0.9770
 3611SOL     OW12273   0.935   4.934   8.212  0.3399 -0.2335  0.3206
 3611SOL    HW112274   1.006   4.945   8.275  0.1721 -2.0084  0.8622
 3611SOL    HW212275   0.897   4.849   8.233 -0.2674 -0.4928 -1.6413
 3612SOL     OW12276   1.293   3.331   8.623 -0.2156 -0.2481  0.1219
 3612SOL    HW112277   1.388   3.337   8.625 -0.2400 -0.0651  0.6652
 3612SOL    HW212278   1.267   3.390   8.552 -0.0521  1.3554  1.3393
 3613SOL     OW12279   0.116   5.001   8.285  0.1466 -0.6054  0.2440
 3613SOL    HW112280   0.030   5.010   8.244  1.5080 -0.1775 -2.7559
 3613SOL    HW212281   0.158   5.086   8.274  1.2933 -1.0625  0.8651
 3614SOL     OW12282   0.740   4.821   8.897  0.1588  0.0439  0.3358
 3614SOL    HW112283   0.827   4.860   8.898  0.0503  0.4160 -1.2176
 3614SOL    HW212284   0.745   4.754   8.829 -0.6887 -0.0976  0.4070
 3615SOL     OW12285   0.424   6.228   7.933 -0.1989 -0.2375 -0.0289
 3615SOL    HW112286   0.433   6.297   7.868  0.4568 -0.7933 -0.5363
 3615SOL    HW212287   0.510   6.221   7.974 -0.3770 -0.4649  0.3181
 3616SOL     OW12288   1.046   4.350   8.776 -0.0886 -0.1841  0.0902
 3616SOL    HW112289   0.966   4.382   8.818 -0.9463  0.2238 -1.7622
 3616SOL    HW212290   1.097   4.312   8.848 -0.8137  1.7624  1.7356
 3617SOL     OW12291   2.020   5.063   8.452 -0.7045 -0.0502 -0.0363
 3617SOL    HW112292   2.033   5.158   8.456 -0.7366 -0.0841  1.1615
 3617SOL    HW212293   2.107   5.027   8.468 -0.4986 -0.2393 -1.4374
 3618SOL     OW12294   0.206   5.124  10.050 -0.0527 -0.1617 -0.0011
 3618SOL    HW112295   0.131   5.172  10.087  0.9413  0.3698  1.4078
 3618SOL    HW212296   0.271   5.124  10.120  0.7255 -1.9118 -0.6613
 3619SOL     OW12297   1.593   4.450   8.516  0.2766 -0.8285 -0.1495
 3619SOL    HW112298   1.616   4.505   8.591 -0.5263  2.2838 -2.0220
 3619SOL    HW212299   1.669   4.392   8.505  1.4941  0.3236  1.5822
 3620SOL     OW12300   7.946   5.365   7.684  0.5694  0.2141  0.2826
 3620SOL    HW112301   7.893   5.444   7.692  0.3173  0.0596  0.1424
 3620SOL    HW212302   8.026   5.395   7.640 -0.5535 -0.0331 -2.1130
 3621SOL     OW12303   0.750   6.078  10.460 -0.1047 -0.4443  0.4461
 3621SOL    HW112304   0.668   6.046  10.423 -2.1745 -0.1935  4.2564
 3621SOL    HW212305   0.803   6.000  10.472 -0.6919 -0.9402 -0.1258
 3622SOL     OW12306   1.286   4.790   9.105  0.1456  0.3597 -0.2526
 3622SOL    HW112307   1.200   4.753   9.084  0.2551  1.3522 -2.7385
 3622SOL    HW212308   1.268   4.882   9.124  0.4999  0.2262  0.7838
 3623SOL     OW12309   0.667   7.433   9.218 -0.5770  0.4654 -0.4411
 3623SOL    HW112310   0.666   7.339   9.196 -0.1804 -0.0277  1.4652
 3623SOL    HW212311   0.575   7.459   9.214 -0.5068  0.6740 -3.3739
 3624SOL     OW12312   0.010   5.068   7.879  0.1835 -0.2212  0.4436
 3624SOL    HW112313  -0.044   5.027   7.812 -0.6899  2.3861 -0.5798
 3624SOL    HW212314  -0.047   5.132   7.921  2.3647  2.7811 -0.8081
 3625SOL     OW12315   0.818   4.846   7.936 -0.1313  0.1191  0.2476
 3625SOL    HW112316   0.869   4.853   8.017 -0.6185 -1.1865  0.6900
 3625SOL    HW212317   0.860   4.908   7.876  0.6987  0.5648  1.2572
 3626SOL     OW12318   1.105   5.591   7.512  0.2178  0.4254 -0.0035
 3626SOL    HW112319   1.173   5.537   7.472  0.7837  1.4820 -0.5031
 3626SOL    HW212320   1.068   5.536   7.581  0.2512 -0.8707 -0.9852
 3627SOL     OW12321   0.732   4.440   9.796  0.2548 -0.6104 -0.1335
 3627SOL    HW112322   0.749   4.472   9.707  2.2690 -1.0858  0.0320
 3627SOL    HW212323   0.655   4.384   9.786  0.5021 -0.7416 -1.6270
 3628SOL     OW12324   0.198   5.274   7.921  0.3587  0.2073  0.2703
 3628SOL    HW112325   0.141   5.198   7.917  0.3890  0.1495  0.7982
 3628SOL    HW212326   0.285   5.241   7.900 -0.0419  0.6110 -2.3486
 3629SOL     OW12327   1.197   5.046   9.143 -0.1017  0.4352  0.7268
 3629SOL    HW112328   1.136   5.119   9.152  0.3166  0.7169  1.4009
 3629SOL    HW212329   1.283   5.085   9.161  0.2407 -0.0197  0.1105
 3630SOL     OW12330   1.232   5.861   8.452 -0.0888 -0.1100 -0.3147
 3630SOL    HW112331   1.140   5.883   8.438 -0.4138 -1.6947 -0.9157
 3630SOL    HW212332   1.247   5.879   8.545 -0.9507  0.3733 -0.2606
 3631SOL     OW12333   0.367   4.608   6.477 -0.1506  0.0245  0.3503
 3631SOL    HW112334   0.452   4.616   6.433 -1.3948 -0.2770 -2.3522
 3631SOL    HW212335   0.334   4.523   6.448 -0.8349 -0.5033  2.4826
 3632SOL     OW12336   0.673   4.980   9.375 -0.5554  0.0889 -0.3631
 3632SOL    HW112337   0.753   5.017   9.411 -0.5910 -0.4429  0.2752
 3632SOL    HW212338   0.614   4.970   9.450 -0.7972 -0.5930 -0.6344
 3633SOL     OW12339   6.529   4.572   8.189 -0.1175  0.4305  0.5903
 3633SOL    HW112340   6.542   4.598   8.097 -2.6105  0.7935  0.2532
 3633SOL    HW212341   6.521   4.655   8.236 -2.1780  0.3324  0.5136
 3634SOL     OW12342   1.218   4.609   7.481  0.6768 -0.1946 -0.4118
 3634SOL    HW112343   1.244   4.596   7.389 -0.3979  0.8923 -0.8955
 3634SOL    HW212344   1.277   4.552   7.530 -0.1801 -2.5558 -1.9447
 3635SOL     OW12345   2.445   2.970   8.202  0.0397 -0.4688  0.9245
 3635SOL    HW112346   2.445   2.880   8.168 -1.1818 -0.1903  0.1644
 3635SOL    HW212347   2.534   3.002   8.183  0.3025 -1.3117  0.6770
 3636SOL     OW12348   1.946   4.128   7.317  0.0522  0.5474  0.5527
 3636SOL    HW112349   2.021   4.144   7.260 -0.0988  1.2263  0.5303
 3636SOL    HW212350   1.870   4.146   7.261 -0.0893  1.8178  1.1178
 3637SOL     OW12351   1.212   5.408   9.143 -0.0949  0.2028 -0.8733
 3637SOL    HW112352   1.224   5.398   9.048  0.6951  0.0248 -0.7629
 3637SOL    HW212353   1.136   5.353   9.163  0.6903 -1.0331 -1.1692
 3638SOL     OW12354   1.773   4.273   9.640 -0.5102  0.5805  1.0048
 3638SOL    HW112355   1.830   4.316   9.577 -0.9744 -0.8338 -0.4646
 3638SOL    HW212356   1.763   4.336   9.711  1.1952  1.6595  0.3362
 3639SOL     OW12357   0.815   6.698   9.603  0.5751 -0.4306  0.6079
 3639SOL    HW112358   0.863   6.628   9.557 -0.1874 -0.6861  0.1775
 3639SOL    HW212359   0.731   6.702   9.558 -0.0671 -0.4450  1.7605
 3640SOL     OW12360   0.664   5.299   9.446  0.7706  0.0441  0.0720
 3640SOL    HW112361   0.729   5.229   9.452 -0.8711 -1.5396  0.1569
 3640SOL    HW212362   0.611   5.289   9.525  1.2598  2.2413  0.7515
 3641SOL     OW12363   0.642   3.298   7.332  0.0802  0.3350 -0.0362
 3641SOL    HW112364   0.576   3.320   7.397 -0.8384  0.1958 -0.8853
 3641SOL    HW212365   0.602   3.324   7.248  0.8871 -0.2226 -0.6117
 3642SOL     OW12366   0.116   6.431   8.483 -0.1880 -0.2809  0.1764
 3642SOL    HW112367   0.060   6.353   8.492  0.8373 -1.0924 -0.2241
 3642SOL    HW212368   0.074   6.497   8.538 -1.5040 -0.8725 -0.0584
 3643SOL     OW12369   1.256   5.836   7.267  0.4051 -0.6271 -0.2927
 3643SOL    HW112370   1.311   5.905   7.229 -1.3981  0.6609 -0.6980
 3643SOL    HW212371   1.256   5.855   7.361 -0.8907  0.5859 -0.5105
 3644SOL     OW12372   0.560   6.858   8.990  0.1515  0.1539 -0.5506
 3644SOL    HW112373   0.544   6.947   8.959 -0.8104 -0.2540 -1.2813
 3644SOL    HW212374   0.604   6.814   8.918 -1.4370 -0.5903 -1.1087
 3645SOL     OW12375   0.748   2.098  10.531  0.0462  0.1132  0.3439
 3645SOL    HW112376   0.815   2.123  10.594  0.7821 -0.4745 -0.1763
 3645SOL    HW212377   0.794   2.041  10.469 -0.9889 -0.4988  0.1091
 3646SOL     OW12378   2.309   6.333   8.696  0.2207 -0.2301 -0.4074
 3646SOL    HW112379   2.403   6.343   8.707  0.2676  0.2280 -1.1130
 3646SOL    HW212380   2.293   6.358   8.605 -0.5395 -0.6160 -0.3878
 3647SOL     OW12381   2.103   5.931   7.893 -0.0340 -0.8131 -0.2616
 3647SOL    HW112382   2.176   5.876   7.919  0.5626  0.0067 -0.1828
 3647SOL    HW212383   2.136   5.982   7.819 -0.2300  0.2319  0.3640
 3648SOL     OW12384   0.126   3.866   7.231 -0.2656  0.1785 -0.0478
 3648SOL    HW112385   0.084   3.839   7.313  0.3122  0.5240  0.3796
 3648SOL    HW212386   0.163   3.785   7.196 -0.3518  0.0572  0.1358
 3649SOL     OW12387   7.524   4.516   7.985 -0.0082 -0.1290 -0.2927
 3649SOL    HW112388   7.549   4.599   7.944  0.1725  0.5074  1.0715
 3649SOL    HW212389   7.497   4.539   8.073 -1.2405 -1.3637 -0.3025
 3650SOL     OW12390   0.198   5.562   7.915 -0.2252  0.1417  0.5437
 3650SOL    HW112391   0.187   5.467   7.917  0.1406  0.1074  1.0382
 3650SOL    HW212392   0.283   5.575   7.872  0.3916  0.1797  1.7264
 3651SOL     OW12393   1.923   5.633   8.691  0.2423  0.3973 -0.0390
 3651SOL    HW112394   1.939   5.595   8.777 -0.2701 -0.3011 -0.2443
 3651SOL    HW212395   2.010   5.642   8.652  0.3300 -1.4968 -0.3633
 3652SOL     OW12396   0.748   5.482   8.352 -0.7906  0.4872  0.7608
 3652SOL    HW112397   0.708   5.547   8.295 -0.6724 -1.7373 -2.1233
 3652SOL    HW212398   0.833   5.518   8.376 -1.7186  2.3829  1.3409
 3653SOL     OW12399   0.592   3.437   8.768 -0.0407 -0.0448 -0.2298
 3653SOL    HW112400   0.546   3.509   8.725 -0.8331  0.5483  1.5181
 3653SOL    HW212401   0.525   3.395   8.822  1.3538  0.6759  2.1913
 3654SOL     OW12402   0.822   3.445   7.923  0.0025 -0.2116  0.4999
 3654SOL    HW112403   0.809   3.482   8.010  0.9221  0.9973  0.1426
 3654SOL    HW212404   0.916   3.446   7.910 -0.0879 -0.8990 -0.2946
 3655SOL     OW12405   7.596   4.593   6.833  0.4348  0.1646  0.1926
 3655SOL    HW112406   7.639   4.509   6.818  1.2142  0.7844 -1.2465
 3655SOL    HW212407   7.613   4.643   6.753 -1.1049  1.2357  0.4918
 3656SOL     OW12408   7.646   6.364   8.711  0.0732  0.1083  0.6979
 3656SOL    HW112409   7.705   6.371   8.786  0.5598 -0.2804  0.3592
 3656SOL    HW212410   7.635   6.270   8.698 -1.9546  0.1423  1.7803
 3657SOL     OW12411   0.495   7.136   9.594 -0.2183  0.2971  0.1461
 3657SOL    HW112412   0.546   7.064   9.557 -0.2322  0.1036  0.5033
 3657SOL    HW212413   0.453   7.177   9.518 -0.1439 -0.0192 -0.0653
 3658SOL     OW12414   6.912   4.441   7.146 -0.0469  0.0878  0.0067
 3658SOL    HW112415   6.920   4.533   7.124  0.3995  0.0638  0.0515
 3658SOL    HW212416   6.860   4.439   7.226  0.7294  0.3693  0.5303
 3659SOL     OW12417   0.637   4.666  10.014 -0.4082 -0.0146 -0.2900
 3659SOL    HW112418   0.565   4.663   9.951 -0.1362  1.2530 -0.7001
 3659SOL    HW212419   0.674   4.754  10.004 -0.0274  0.0443  1.2756
 3660SOL     OW12420   3.077   6.478   8.825  0.3423  0.3323 -0.2746
 3660SOL    HW112421   3.089   6.522   8.741  0.0483 -0.6827 -0.8531
 3660SOL    HW212422   3.162   6.438   8.843  0.0416 -0.5344 -0.7276
 3661SOL     OW12423   0.803   3.341   8.582  0.4607 -0.3052  0.3959
 3661SOL    HW112424   0.774   3.411   8.642  1.2980 -0.0828  0.5467
 3661SOL    HW212425   0.744   3.268   8.602 -0.4035  0.3373  0.2644
 3662SOL     OW12426   2.291   5.367  10.523  0.6720  0.5678  0.2057
 3662SOL    HW112427   2.350   5.388  10.451 -0.7185  1.8114 -0.6366
 3662SOL    HW212428   2.304   5.274  10.539  1.2677  0.3416 -1.4251
 3663SOL     OW12429   1.735   6.505   5.921  0.3793 -0.2247 -0.2349
 3663SOL    HW112430   1.643   6.518   5.946  0.5663  0.4242  0.1470
 3663SOL    HW212431   1.776   6.467   5.999  0.5760  0.1203 -0.1670
 3664SOL     OW12432   1.919   5.908   8.667 -0.1015  0.5258 -0.2712
 3664SOL    HW112433   1.959   5.948   8.744 -0.2544 -0.5920  0.4132
 3664SOL    HW212434   1.913   5.815   8.689  0.8550  0.0003 -2.0580
 3665SOL     OW12435   0.652   4.022   8.590 -0.1863 -0.3537  0.1233
 3665SOL    HW112436   0.620   3.934   8.607 -1.2712 -0.3230 -1.5077
 3665SOL    HW212437   0.574   4.078   8.598  0.3097  0.3441  0.2534
 3666SOL     OW12438   7.507   5.382   8.248  0.3001  0.2596  0.3639
 3666SOL    HW112439   7.420   5.375   8.211  1.1680  0.9138 -1.9368
 3666SOL    HW212440   7.516   5.303   8.302 -1.6562  0.1549  0.6088
 3667SOL     OW12441   0.280   5.657   6.150 -0.1046 -0.6139 -0.0862
 3667SOL    HW112442   0.277   5.584   6.211  2.4641 -0.0931  0.8072
 3667SOL    HW212443   0.254   5.620   6.066  2.6316 -3.0386 -0.0320
 3668SOL     OW12444   7.297   3.629   7.984  0.1596 -0.3956 -0.2041
 3668SOL    HW112445   7.211   3.660   8.012  0.4946 -0.0666  0.4741
 3668SOL    HW212446   7.344   3.708   7.958  0.1159 -0.6178 -0.9931
 3669SOL     OW12447   0.318   4.357   8.686  0.0091  0.6312  0.1635
 3669SOL    HW112448   0.225   4.346   8.702 -0.2472 -1.3567 -2.1317
 3669SOL    HW212449   0.353   4.392   8.768 -2.1106 -2.3595  2.5953
 3670SOL     OW12450   1.881   4.636   9.356  0.0026  0.2772  0.0497
 3670SOL    HW112451   1.928   4.563   9.396  0.3782  1.5687  2.1173
 3670SOL    HW212452   1.805   4.595   9.313  0.1517 -1.3281  1.2142
 3671SOL     OW12453   7.484   5.931   6.725  0.5222 -0.4156  0.4377
 3671SOL    HW112454   7.443   5.857   6.769 -0.1857  0.2190  0.8648
 3671SOL    HW212455   7.452   5.926   6.635  0.0736 -0.3401  0.5917
 3672SOL     OW12456   6.929   3.035   8.790 -0.8593  0.2299  0.8003
 3672SOL    HW112457   6.979   3.082   8.723 -2.3702 -0.8266 -1.1807
 3672SOL    HW212458   6.996   2.991   8.843  0.4018  1.3189  0.1696
 3673SOL     OW12459   7.987   6.872   8.622 -0.1558  0.6055 -0.1853
 3673SOL    HW112460   7.897   6.887   8.595  0.0058  1.4619 -0.2520
 3673SOL    HW212461   8.038   6.877   8.541  0.3187  3.0911  0.2107
 3674SOL     OW12462   7.388   7.404   7.179  0.7985  0.3125  0.4043
 3674SOL    HW112463   7.473   7.365   7.157 -0.3341 -1.4922 -1.0683
 3674SOL    HW212464   7.336   7.330   7.212 -0.5015  1.1980  0.4133
 3675SOL     OW12465   0.160   4.168   8.076  0.5444 -0.3033 -0.7934
 3675SOL    HW112466   0.133   4.135   8.161 -0.8258  0.0203 -1.0747
 3675SOL    HW212467   0.155   4.263   8.084  0.3593 -0.2711 -1.2415
 3676SOL     OW12468   0.954   3.997   9.428  0.2363 -0.3382 -0.2872
 3676SOL    HW112469   1.037   4.025   9.466 -0.0206  0.5902 -0.3936
 3676SOL    HW212470   0.968   4.000   9.333  0.3115 -0.9277 -0.3036
 3677SOL     OW12471   0.982   3.073   5.621  0.5196 -0.6553  0.0014
 3677SOL    HW112472   1.015   3.129   5.692 -1.8775  0.3426  0.4310
 3677SOL    HW212473   0.931   3.005   5.666  1.7322 -2.0530 -0.6421
 3678SOL     OW12474   1.690   4.606   8.729  0.2064  0.5665  0.2946
 3678SOL    HW112475   1.610   4.595   8.781  0.1754 -0.1231  0.1114
 3678SOL    HW212476   1.757   4.630   8.793 -0.0225  0.5786  0.5311
 3679SOL     OW12477   0.160   6.931   8.393 -0.1562  0.4686  0.4515
 3679SOL    HW112478   0.245   6.969   8.369  0.0952  0.1376  0.8010
 3679SOL    HW212479   0.128   6.891   8.312 -0.7396  1.9909 -0.0979
 3680SOL     OW12480   0.800   4.445   8.930  0.3021 -0.0437 -0.2319
 3680SOL    HW112481   0.793   4.499   8.851  1.2488 -1.9595 -1.7221
 3680SOL    HW212482   0.713   4.406   8.939  0.4310 -0.4975 -0.8755
 3681SOL     OW12483   1.034   5.730   8.015 -0.4954 -0.0379 -0.0827
 3681SOL    HW112484   1.041   5.764   8.105 -2.3546 -0.2350  0.1727
 3681SOL    HW212485   1.056   5.637   8.023  3.7331  0.7309 -0.6392
 3682SOL     OW12486   6.957   4.070   7.965 -0.2441  0.4382  0.0134
 3682SOL    HW112487   6.904   4.004   7.920  1.5278 -1.1328  0.0772
 3682SOL    HW212488   7.047   4.052   7.936  0.3797  2.5022  0.4858
 3683SOL     OW12489   1.014   4.672   7.637  0.2069  0.7099 -0.2887
 3683SOL    HW112490   1.085   4.631   7.587 -0.1176 -1.0628  0.6221
 3683SOL    HW212491   1.059   4.718   7.708  0.5048  0.8013 -0.5312
 3684SOL     OW12492   1.042   6.734   7.174  0.4286 -0.1156  0.0559
 3684SOL    HW112493   1.086   6.813   7.205 -0.5786  0.9456 -1.0511
 3684SOL    HW212494   0.961   6.767   7.134  1.3393 -1.3536 -3.1402
 3685SOL     OW12495   7.662   4.097   8.951 -0.1242  0.0214 -0.5240
 3685SOL    HW112496   7.567   4.105   8.947 -0.0821  0.3137 -0.8855
 3685SOL    HW212497   7.685   4.134   9.037 -0.5667 -2.2553  0.6577
 3686SOL     OW12498   7.033   4.208   7.251  0.5417  0.4433  0.3436
 3686SOL    HW112499   6.966   4.205   7.319 -0.4347  1.6619 -0.5226
 3686SOL    HW212500   7.008   4.282   7.196  2.6649  1.0107  0.0418
 3687SOL     OW12501   0.754   4.918   8.541  0.4661  0.5818 -0.0039
 3687SOL    HW112502   0.821   4.979   8.570  0.4899 -0.4327  2.3142
 3687SOL    HW212503   0.791   4.831   8.558 -1.3796  0.0005  1.3753
 3688SOL     OW12504   6.978   7.340   7.655  0.0734  0.0956 -0.3265
 3688SOL    HW112505   6.951   7.345   7.747 -0.7546 -2.8273 -0.3173
 3688SOL    HW212506   6.912   7.390   7.608 -1.2649 -0.8854  0.4265
 3689SOL     OW12507   2.337   6.410   8.139  0.0847  0.2250 -0.1394
 3689SOL    HW112508   2.349   6.316   8.154  0.5773  0.0057 -1.6624
 3689SOL    HW212509   2.247   6.427   8.167 -0.4056 -0.9628 -0.8594
 3690SOL     OW12510   2.092   6.053   9.428 -0.0427 -0.3191 -0.1361
 3690SOL    HW112511   2.155   6.019   9.493  2.0649  1.9432 -0.8268
 3690SOL    HW212512   2.061   6.135   9.466 -0.6862 -0.2008 -0.9030
 3691SOL     OW12513   1.588   6.057   7.328  0.4664  0.0675 -0.2104
 3691SOL    HW112514   1.566   6.131   7.271 -0.8849 -0.6391 -0.6541
 3691SOL    HW212515   1.527   6.065   7.402 -1.8019 -2.1742 -1.6761
 3692SOL     OW12516   0.332   6.307   8.567  0.4883  0.5150 -0.1756
 3692SOL    HW112517   0.396   6.369   8.603  0.2115  0.7400 -0.0631
 3692SOL    HW212518   0.255   6.361   8.546 -0.1547  0.0633  0.9085
 3693SOL     OW12519   1.721   3.080  10.199 -0.0379 -0.3809  0.2337
 3693SOL    HW112520   1.760   3.111  10.117 -0.8779 -0.3339 -0.1618
 3693SOL    HW212521   1.629   3.068  10.178 -0.5960  1.1814  1.6055
 3694SOL     OW12522   2.171   3.756   9.194  0.1325 -0.1280 -0.0176
 3694SOL    HW112523   2.160   3.832   9.251  0.2109 -0.0556 -0.0972
 3694SOL    HW212524   2.091   3.706   9.204 -0.6888  0.8686 -1.3117
 3695SOL     OW12525   0.074   4.796   7.461  0.0437  0.0728  0.1900
 3695SOL    HW112526   0.019   4.868   7.493 -0.8000  0.0153 -1.0899
 3695SOL    HW212527   0.054   4.723   7.519 -0.5764  0.3056  0.2734
 3696SOL     OW12528   1.028   4.737   8.926 -0.0529 -0.6402 -0.0345
 3696SOL    HW112529   1.059   4.753   8.837  1.4940  0.9674  0.7524
 3696SOL    HW212530   0.993   4.648   8.923  2.4824 -1.6880 -1.5990
 3697SOL     OW12531   7.632   3.146   8.243 -0.0875 -0.5591  0.4008
 3697SOL    HW112532   7.658   3.190   8.162  0.8611 -1.6008  0.1130
 3697SOL    HW212533   7.598   3.061   8.214  0.3091 -0.9598  1.0993
 3698SOL     OW12534   1.603   6.315   8.229  0.2484 -0.4290 -0.7896
 3698SOL    HW112535   1.634   6.404   8.211 -2.1806  0.4279 -1.0655
 3698SOL    HW212536   1.592   6.313   8.324 -1.4698  0.2630 -0.9338
 3699SOL     OW12537   7.702   4.045   7.718 -0.3303  0.0926  0.1677
 3699SOL    HW112538   7.630   3.982   7.715 -1.9370  1.8459  0.5435
 3699SOL    HW212539   7.677   4.114   7.658  1.7992  0.0541 -0.8708
 3700SOL     OW12540   1.581   6.782   7.405  0.5450  0.1991 -0.2162
 3700SOL    HW112541   1.523   6.854   7.383  2.4559  1.8911  0.0343
 3700SOL    HW212542   1.609   6.747   7.321  0.1969  0.2099 -0.3407
 3701SOL     OW12543   1.928   5.631   9.153 -0.1123  0.5336  0.0912
 3701SOL    HW112544   1.937   5.690   9.228  0.6342 -0.5822  0.9124
 3701SOL    HW212545   1.999   5.568   9.163  0.3310  0.6487 -1.8529
 3702SOL     OW12546   1.238   5.942   9.791 -0.2515  0.1945 -0.6606
 3702SOL    HW112547   1.250   5.974   9.701 -0.4080 -0.1264 -0.7977
 3702SOL    HW212548   1.145   5.959   9.809 -0.4426 -0.5783 -0.8942
 3703SOL     OW12549   1.718   5.362   8.831 -0.1156 -1.1246  0.2415
 3703SOL    HW112550   1.626   5.347   8.810 -0.0992  1.1086 -1.8605
 3703SOL    HW212551   1.763   5.360   8.746  1.6645 -1.4379  1.1389
 3704SOL     OW12552   0.395   6.143   8.328 -0.4554  0.0561 -0.1513
 3704SOL    HW112553   0.321   6.189   8.289  1.2341  1.9218 -1.3540
 3704SOL    HW212554   0.395   6.170   8.420 -1.7370 -0.6725  0.0876
 3705SOL     OW12555   1.124   4.558   9.337 -0.0257 -0.4707 -0.5923
 3705SOL    HW112556   1.199   4.538   9.393 -1.0851  1.0522  1.5295
 3705SOL    HW212557   1.090   4.640   9.372 -2.5133 -0.9626 -1.6719
 3706SOL     OW12558   7.917   4.777   8.910  0.0561 -0.2285  0.4363
 3706SOL    HW112559   8.005   4.811   8.890  0.0873 -0.5465  0.0232
 3706SOL    HW212560   7.865   4.855   8.928  0.0708  0.0772 -0.7305
 3707SOL     OW12561   1.599   6.597   9.552  0.2272 -0.6050 -0.4561
 3707SOL    HW112562   1.519   6.648   9.559  0.8880  0.4003 -0.1004
 3707SOL    HW212563   1.613   6.586   9.458 -0.3852 -0.8818 -0.5159
 3708SOL     OW12564   2.276   6.329   7.595 -0.4470 -0.3587  0.2789
 3708SOL    HW112565   2.367   6.321   7.565 -0.5352  0.5022 -0.2850
 3708SOL    HW212566   2.283   6.366   7.683 -0.2559  2.3491 -0.7738
 3709SOL     OW12567   1.567   4.526   8.998 -0.0731  0.0095 -0.0484
 3709SOL    HW112568   1.632   4.470   9.039  0.4634 -0.1249 -1.0612
 3709SOL    HW212569   1.496   4.531   9.062  1.3452  0.9824  1.5273
 3710SOL     OW12570   0.339   5.575   9.216  0.0762 -0.0413 -0.1641
 3710SOL    HW112571   0.250   5.598   9.187 -0.3964 -0.9254  0.5464
 3710SOL    HW212572   0.346   5.612   9.303 -0.1788 -1.3025  0.4152
 3711SOL     OW12573   6.527   2.889   7.730  0.0613 -0.4410  0.0348
 3711SOL    HW112574   6.530   2.952   7.802 -1.1232 -0.2742 -0.0319
 3711SOL    HW212575   6.606   2.906   7.679 -0.7397  1.7049 -0.5589
 3712SOL     OW12576   1.102   5.229   8.228 -0.5763  0.3524 -0.6498
 3712SOL    HW112577   1.009   5.207   8.222 -0.6182  0.2909  0.1334
 3712SOL    HW212578   1.133   5.180   8.304 -0.3632  1.9626  0.3411
 3713SOL     OW12579   2.438   5.626   8.120 -0.6314 -0.4047  0.2589
 3713SOL    HW112580   2.515   5.591   8.166  0.5498 -0.2529 -1.4952
 3713SOL    HW212581   2.414   5.704   8.169 -0.3627 -1.0453  1.4688
 3714SOL     OW12582   1.606   6.639   9.005 -0.5626  0.2353  0.6029
 3714SOL    HW112583   1.559   6.578   8.948  0.5223  1.0224 -1.2204
 3714SOL    HW212584   1.603   6.722   8.958 -1.7122  1.5682  2.8773
 3715SOL     OW12585   2.080   4.454   9.780  0.1746 -0.3319 -0.0697
 3715SOL    HW112586   2.149   4.475   9.843 -0.5158 -0.1102  0.6266
 3715SOL    HW212587   2.028   4.534   9.775 -1.4863 -1.2620  1.3227
 3716SOL     OW12588   1.677   6.571   8.210 -0.1484  0.5006 -0.2610
 3716SOL    HW112589   1.621   6.614   8.275  1.5384  2.8190 -0.2232
 3716SOL    HW212590   1.681   6.632   8.137  0.1420 -0.8744 -1.4451
 3717SOL     OW12591   1.188   6.276   9.257 -0.1107  0.2034 -0.2076
 3717SOL    HW112592   1.134   6.340   9.211 -1.0360 -1.7896 -2.0899
 3717SOL    HW212593   1.144   6.192   9.241  2.3506 -1.2263  0.0511
 3718SOL     OW12594   1.511   5.076  10.576 -0.2934  0.0887 -0.2392
 3718SOL    HW112595   1.561   5.110  10.501 -0.4420 -1.0648 -0.8803
 3718SOL    HW212596   1.480   5.155  10.621 -0.2721  0.8139 -1.4355
 3719SOL     OW12597   1.467   4.196   9.035 -0.5705  0.9772  0.1901
 3719SOL    HW112598   1.478   4.178   9.128  0.2666  1.6284  0.2214
 3719SOL    HW212599   1.554   4.181   8.997 -1.2064 -0.6702 -0.7323
 3720SOL     OW12600   2.483   3.877   8.842 -0.6304 -0.2167 -0.0945
 3720SOL    HW112601   2.550   3.837   8.787 -1.5561  0.1427 -1.5068
 3720SOL    HW212602   2.440   3.804   8.885  2.1726 -0.4181  2.7783
 3721SOL     OW12603   1.847   4.756   8.531 -0.2879 -0.3766  0.0273
 3721SOL    HW112604   1.782   4.711   8.586 -0.7441 -0.1118 -0.2833
 3721SOL    HW212605   1.908   4.687   8.505 -0.1054 -0.5174  0.8042
 3722SOL     OW12606   0.909   3.061   8.441 -0.3612 -0.0957  0.3864
 3722SOL    HW112607   0.963   3.038   8.516  1.8168 -0.5292 -1.2233
 3722SOL    HW212608   0.935   3.150   8.418 -0.3519 -0.2937 -0.3855
 3723SOL     OW12609   0.675   0.944   8.919  0.3063 -0.1536  0.3788
 3723SOL    HW112610   0.661   1.002   8.995  1.7475  0.0371  0.5138
 3723SOL    HW212611   0.741   0.988   8.867  0.1344 -0.8363 -0.4372
 3724SOL     OW12612   0.467   5.094   8.353 -0.1958 -0.6258  0.0239
 3724SOL    HW112613   0.450   5.026   8.287 -0.7795  0.4272 -0.9449
 3724SOL    HW212614   0.424   5.062   8.432 -0.3158 -1.4655 -0.3663
 3725SOL     OW12615   1.266   4.135  10.293  0.4334 -0.1407 -0.0128
 3725SOL    HW112616   1.360   4.141  10.278  0.1540 -0.2070 -2.1684
 3725SOL    HW212617   1.244   4.213  10.344  1.4911  0.4300 -0.4013
 3726SOL     OW12618   0.344   3.586   9.071  0.2258 -0.2034  0.3814
 3726SOL    HW112619   0.306   3.640   9.141 -0.5781  1.3316 -1.1436
 3726SOL    HW212620   0.270   3.535   9.038  0.6820 -1.2069  0.8713
 3727SOL     OW12621   1.888   1.717   8.408  0.0484 -0.0874  0.2441
 3727SOL    HW112622   1.947   1.792   8.417  0.6924 -0.6793  1.0435
 3727SOL    HW212623   1.855   1.701   8.496 -0.7532 -0.2316 -0.0673
 3728SOL     OW12624   1.725   4.414   7.316 -0.1728  0.4653 -0.2801
 3728SOL    HW112625   1.665   4.355   7.362 -1.2391  1.3310 -0.5042
 3728SOL    HW212626   1.810   4.401   7.359 -0.6261 -0.4280  0.3771
 3729SOL     OW12627   0.550   3.516   8.315 -0.2323  0.4238  0.0865
 3729SOL    HW112628   0.501   3.462   8.377  2.6799 -1.9441  0.5088
 3729SOL    HW212629   0.634   3.532   8.357  1.7623 -0.9744 -2.9586
 3730SOL     OW12630   1.039   7.239  10.458  0.6147  0.4496 -0.0141
 3730SOL    HW112631   0.987   7.182  10.514 -0.9920  1.4546 -0.3783
 3730SOL    HW212632   1.128   7.205  10.463  0.0459 -0.9570  1.1789
 3731SOL     OW12633   1.266   5.299   8.568  0.2352 -0.2569 -0.5335
 3731SOL    HW112634   1.245   5.214   8.530  0.5454  0.2675 -1.9443
 3731SOL    HW212635   1.278   5.357   8.493  0.1165  1.0223  0.3951
 3732SOL     OW12636   7.900   6.251   8.448 -0.1400  0.2526 -0.0381
 3732SOL    HW112637   7.952   6.171   8.436  0.0026  0.4048 -0.4411
 3732SOL    HW212638   7.821   6.221   8.494 -0.4084 -0.2426 -0.7934
 3733SOL     OW12639   0.274   3.810   5.857 -0.3978  0.1044  0.5870
 3733SOL    HW112640   0.236   3.757   5.787 -0.6683  1.3175 -0.2234
 3733SOL    HW212641   0.352   3.849   5.818 -1.6306  2.4166  0.2162
 3734SOL     OW12642   2.456   7.085   6.728  0.1056  0.1836 -0.3406
 3734SOL    HW112643   2.493   7.156   6.675 -0.7096  1.4186  0.6659
 3734SOL    HW212644   2.508   7.086   6.808 -0.3326  0.1042 -0.0509
 3735SOL     OW12645   1.455   6.666   6.246 -0.1755  0.0452 -0.1538
 3735SOL    HW112646   1.477   6.616   6.167  1.2127 -0.1565  0.3336
 3735SOL    HW212647   1.387   6.728   6.217  0.0460 -0.2792 -1.4127
 3736SOL     OW12648   0.818   5.414   8.768 -0.1316 -0.6009 -0.4625
 3736SOL    HW112649   0.848   5.363   8.843 -1.3833 -0.5986  0.0705
 3736SOL    HW212650   0.898   5.438   8.721  0.8195  0.6135  1.6470
 3737SOL     OW12651   0.700   5.076   8.791  0.1829  0.3610  0.0754
 3737SOL    HW112652   0.782   5.055   8.747  0.9828  1.4514  0.9746
 3737SOL    HW212653   0.687   5.004   8.853  0.3010  0.0388 -0.2683
 3738SOL     OW12654   1.451   3.936  10.044 -0.1195 -0.1336  0.6589
 3738SOL    HW112655   1.400   3.873  10.094 -1.2841  1.4896  1.6173
 3738SOL    HW212656   1.501   3.985  10.110 -2.3914  2.6740  0.5194
 3739SOL     OW12657   6.650   4.850   6.609  0.2389 -0.2785 -0.7965
 3739SOL    HW112658   6.640   4.778   6.671 -3.1213  0.8359  0.1873
 3739SOL    HW212659   6.597   4.824   6.534 -0.2825  0.7507 -0.7980
 3740SOL     OW12660   7.366   6.213   6.889 -0.3697 -0.1336  0.2754
 3740SOL    HW112661   7.341   6.298   6.854 -2.4136 -0.2151  1.3933
 3740SOL    HW212662   7.462   6.211   6.881 -0.4732 -0.2350 -5.4011
 3741SOL     OW12663   1.679   6.699   7.174  0.5650 -0.1934  0.5432
 3741SOL    HW112664   1.707   6.747   7.096 -0.7901 -0.8286 -0.3730
 3741SOL    HW212665   1.678   6.608   7.147  0.1013 -0.4317  1.3243
 3742SOL     OW12666   7.933   5.350   6.042 -0.6298 -0.0415  1.2266
 3742SOL    HW112667   8.019   5.308   6.039  0.1258  1.3121  2.5000
 3742SOL    HW212668   7.924   5.394   5.958 -1.8585 -3.3557 -0.5613
 3743SOL     OW12669   0.885   4.466   7.846  0.0474 -0.0706  0.2272
 3743SOL    HW112670   0.903   4.488   7.938 -1.7085  2.0343  0.1438
 3743SOL    HW212671   0.952   4.512   7.797 -0.4292  0.7518  0.3410
 3744SOL     OW12672   7.556   6.566   9.464 -0.1832  0.1852 -0.7006
 3744SOL    HW112673   7.637   6.537   9.422  0.9072 -0.5769  1.7049
 3744SOL    HW212674   7.540   6.653   9.428  2.2159  0.7218 -0.6613
 3745SOL     OW12675   1.231   6.427   9.458  0.1661 -0.2035  0.3273
 3745SOL    HW112676   1.232   6.371   9.380  0.3842 -0.1403  0.2840
 3745SOL    HW212677   1.139   6.451   9.469 -0.1271 -1.5219  1.0237
 3746SOL     OW12678   7.355   4.524   7.715 -0.8116 -0.7105  0.0808
 3746SOL    HW112679   7.296   4.533   7.641  1.4126  1.4137 -1.5554
 3746SOL    HW212680   7.310   4.569   7.787 -1.6853 -0.1315 -0.8051
 3747SOL     OW12681   1.140   4.249   8.346 -0.1225 -0.1354 -0.6039
 3747SOL    HW112682   1.130   4.263   8.252  1.2831  0.4141 -0.6936
 3747SOL    HW212683   1.235   4.253   8.361 -0.1755 -2.0646  0.5607
 3748SOL     OW12684   7.729   6.164   7.700 -0.0847 -0.0344  0.0276
 3748SOL    HW112685   7.780   6.176   7.780 -0.3141  0.5539  0.0879
 3748SOL    HW212686   7.773   6.220   7.635 -1.3160  1.4101  0.3794
 3749SOL     OW12687   0.479   5.393   8.613 -0.3015  0.2326  0.0396
 3749SOL    HW112688   0.534   5.331   8.565  0.2422  1.0140 -0.3670
 3749SOL    HW212689   0.493   5.371   8.705  0.0369 -0.1238 -0.0914
 3750SOL     OW12690   0.177   3.662   9.290 -0.2035  0.2445  0.1189
 3750SOL    HW112691   0.133   3.743   9.266 -1.0305 -0.1305  0.3448
 3750SOL    HW212692   0.153   3.648   9.382  1.4466  0.7131  0.6564
 3751SOL     OW12693   1.495   4.069   6.749  0.3724 -0.1681 -0.1080
 3751SOL    HW112694   1.432   4.060   6.678  0.3680  0.5848 -0.2057
 3751SOL    HW212695   1.550   3.990   6.742 -0.6356 -0.9045  0.0735
 3752SOL     OW12696   6.395   6.044   6.624  0.0219 -0.2168  0.1474
 3752SOL    HW112697   6.391   6.000   6.709  3.2390 -1.2391 -0.1039
 3752SOL    HW212698   6.428   5.977   6.564  1.0596  1.4030 -1.1724
 3753SOL     OW12699   1.222   3.825   9.391 -0.1921 -0.0446 -0.1057
 3753SOL    HW112700   1.247   3.863   9.475 -1.2397 -1.6164  0.9624
 3753SOL    HW212701   1.126   3.825   9.392 -0.2892  1.5442 -2.1014
 3754SOL     OW12702   1.755   4.836   8.031  0.1257 -0.0139 -0.2528
 3754SOL    HW112703   1.817   4.836   8.103  0.4505 -1.3613 -0.5018
 3754SOL    HW212704   1.671   4.813   8.071  0.4456 -1.5049 -0.3788
 3755SOL     OW12705   0.947   4.664   9.855  0.2078 -0.1808  0.5947
 3755SOL    HW112706   1.018   4.606   9.827 -0.2582 -0.7786  0.6257
 3755SOL    HW212707   0.902   4.688   9.774 -1.2810 -2.0926  0.7684
 3756SOL     OW12708   1.151   7.634   9.648 -0.3969 -0.4841 -0.0313
 3756SOL    HW112709   1.061   7.625   9.680 -1.4500  1.1679 -2.2075
 3756SOL    HW212710   1.179   7.719   9.682  0.7934 -1.4497  1.5048
 3757SOL     OW12711   0.417   5.612   7.751  0.6699  0.5442  0.4246
 3757SOL    HW112712   0.455   5.570   7.674 -0.3750  0.4404 -0.0478
 3757SOL    HW212713   0.456   5.699   7.753  1.1943  0.3228  0.1611
 3758SOL     OW12714   1.292   5.740   8.222 -1.0508  0.1485  0.7863
 3758SOL    HW112715   1.291   5.753   8.317  0.5032  1.2862  0.6900
 3758SOL    HW212716   1.274   5.827   8.186 -0.1096  0.0504  0.0428
 3759SOL     OW12717   1.760   5.243   7.897  0.4170 -0.1086  0.5242
 3759SOL    HW112718   1.800   5.201   7.973 -1.0282 -0.9165  0.8819
 3759SOL    HW212719   1.710   5.316   7.934 -3.1938 -2.5269  0.9517
 3760SOL     OW12720   1.934   5.804   8.131  0.3024 -0.0433 -0.3086
 3760SOL    HW112721   1.950   5.854   8.051  1.4938  0.6157  0.3281
 3760SOL    HW212722   1.911   5.716   8.099 -1.1837  0.7074 -1.4132
 3761SOL     OW12723   1.267   4.685  10.099  0.3961 -0.1807  0.4713
 3761SOL    HW112724   1.234   4.634  10.025 -0.8493  0.2425  0.7131
 3761SOL    HW212725   1.268   4.625  10.173 -1.0493  0.1152  0.7522
 3762SOL     OW12726   0.996   4.165   7.187 -0.2117 -0.4979 -0.0677
 3762SOL    HW112727   0.909   4.202   7.197  0.3056  0.4283  1.2509
 3762SOL    HW212728   1.035   4.172   7.274  0.4376 -2.8505 -0.0891
 3763SOL     OW12729   1.153   4.269   6.978 -0.3361 -0.0491 -0.4672
 3763SOL    HW112730   1.241   4.235   6.991  0.4213  1.9978  0.1423
 3763SOL    HW212731   1.101   4.228   7.047  0.2649 -0.7838 -0.4371
 3764SOL     OW12732   1.251   3.576   7.229  0.1852 -0.1024 -0.4508
 3764SOL    HW112733   1.248   3.489   7.269  0.2083 -0.1275 -0.5031
 3764SOL    HW212734   1.325   3.619   7.271  0.5101 -0.3012 -0.8135
 3765SOL     OW12735   7.460   6.662   8.862 -0.1262 -0.2107 -1.1143
 3765SOL    HW112736   7.376   6.621   8.885  0.9561 -1.9919 -0.1087
 3765SOL    HW212737   7.512   6.656   8.942  0.6995  1.6733 -1.4495
 3766SOL     OW12738   1.777   5.028   9.779 -0.0496 -0.3632 -0.4047
 3766SOL    HW112739   1.736   4.951   9.740  1.0494 -0.9320 -0.4801
 3766SOL    HW212740   1.740   5.033   9.867 -2.0916  0.5720 -1.2408
 3767SOL     OW12741   7.184   3.977   8.227  0.0263 -0.3754  0.1275
 3767SOL    HW112742   7.170   4.015   8.313 -1.4924  1.4826 -0.8554
 3767SOL    HW212743   7.128   3.899   8.225 -0.2661 -0.1819  0.6804
 3768SOL     OW12744   1.380   4.461   7.639 -0.1405 -0.3905  0.2301
 3768SOL    HW112745   1.404   4.378   7.598 -2.6544 -0.5718 -1.1263
 3768SOL    HW212746   1.460   4.492   7.680  0.9146 -3.4604  0.7985
 3769SOL     OW12747   0.790   4.234   7.952 -0.2738  0.2995 -0.0303
 3769SOL    HW112748   0.820   4.311   7.904  0.6075 -1.0119 -1.7451
 3769SOL    HW212749   0.703   4.215   7.916 -1.3569  1.5549  1.7835
 3770SOL     OW12750   2.878   6.686   8.416  0.3497  0.0950  0.4117
 3770SOL    HW112751   2.865   6.709   8.508 -0.8294 -1.8055  0.7914
 3770SOL    HW212752   2.819   6.612   8.402  0.8577  0.0376 -1.7630
 3771SOL     OW12753   2.694   5.328   6.664 -0.7922  0.3578  0.3255
 3771SOL    HW112754   2.721   5.377   6.587 -0.9730 -0.3985 -0.2344
 3771SOL    HW212755   2.744   5.366   6.736  1.8612 -1.0048 -0.6650
 3772SOL     OW12756   0.277   5.846   9.004 -0.6718  0.9202  0.3763
 3772SOL    HW112757   0.197   5.874   9.050 -0.8996 -0.1720  0.6648
 3772SOL    HW212758   0.323   5.928   8.985 -1.5742  1.5284  0.7273
 3773SOL     OW12759   0.986   6.352   9.737 -0.1018  0.2868  0.4726
 3773SOL    HW112760   0.999   6.317   9.825  1.2913  0.2318  0.2598
 3773SOL    HW212761   0.919   6.294   9.699  0.4377 -0.6779  0.9492
 3774SOL     OW12762   1.698   5.404   9.096  0.2853  0.0755  0.4582
 3774SOL    HW112763   1.694   5.403   9.001  0.2981  2.1791  0.4025
 3774SOL    HW212764   1.763   5.470   9.118 -0.8502  0.7789  1.9247
 3775SOL     OW12765   1.093   4.103   8.068  0.2316 -0.3872 -0.6150
 3775SOL    HW112766   1.124   4.151   7.991  0.2287  0.6367 -0.0001
 3775SOL    HW212767   1.130   4.015   8.058  2.2229  0.3947 -0.5829
 3776SOL     OW12768   0.097   5.624   9.114 -0.0896  0.2884 -0.0669
 3776SOL    HW112769   0.058   5.712   9.112  0.5044  0.6317  1.5040
 3776SOL    HW212770   0.026   5.567   9.142 -0.9843 -0.0958 -2.8336
 3777SOL     OW12771   1.546   3.398   8.537 -0.0698 -0.0332 -0.4485
 3777SOL    HW112772   1.548   3.488   8.503 -0.0185 -0.0733 -0.5527
 3777SOL    HW212773   1.609   3.351   8.482  0.7013  0.1086  0.2882
 3778SOL     OW12774   1.907   6.126   8.120 -0.0272  0.6935 -0.1213
 3778SOL    HW112775   1.901   6.132   8.216  2.0107  1.0215  0.0290
 3778SOL    HW212776   1.853   6.049   8.098  2.2772 -1.6354  1.7154
 3779SOL     OW12777   7.724   6.500   8.438  0.5525 -0.2728  0.0248
 3779SOL    HW112778   7.680   6.467   8.517  2.9321  0.9935  2.0247
 3779SOL    HW212779   7.815   6.472   8.448  0.8463 -0.4600 -2.5552
 3780SOL     OW12780   0.062   4.897  11.005  0.2453 -0.1650 -0.0203
 3780SOL    HW112781  -0.020   4.924  11.046  0.0834  0.2929 -0.6406
 3780SOL    HW212782   0.074   4.957  10.932  0.9799 -0.4220 -0.1230
 3781SOL     OW12783   0.131   2.643   5.526 -0.2327 -0.3664  0.2851
 3781SOL    HW112784   0.199   2.700   5.562 -0.2179 -0.5768  0.5956
 3781SOL    HW212785   0.060   2.648   5.589 -1.0389  0.8659 -0.6785
 3782SOL     OW12786   2.359   4.364  10.362  0.0825  0.1575 -0.9574
 3782SOL    HW112787   2.421   4.343  10.432 -0.1616 -0.6033 -0.9582
 3782SOL    HW212788   2.274   4.336  10.397 -0.1778  0.6504 -1.1873
 3783SOL     OW12789   7.619   5.897   7.828 -0.0420  0.3414  0.1429
 3783SOL    HW112790   7.532   5.938   7.831 -0.2573 -0.1420  0.7990
 3783SOL    HW212791   7.671   5.956   7.774 -0.6016  0.9858  0.2823
 3784SOL     OW12792   7.844   4.635   7.990  0.5654  0.0914 -0.4056
 3784SOL    HW112793   7.770   4.695   7.998  0.3387 -0.3835  1.6294
 3784SOL    HW212794   7.810   4.560   7.943  0.8127  1.4219 -2.8596
 3785SOL     OW12795   1.775   6.362   7.153  0.0994  0.4241  0.2413
 3785SOL    HW112796   1.852   6.315   7.187 -0.5520  0.0916  1.3049
 3785SOL    HW212797   1.787   6.361   7.058  1.6130  0.7450  0.3951
 3786SOL     OW12798   2.446   5.918   7.260  0.0645 -0.1517  0.0185
 3786SOL    HW112799   2.440   5.949   7.351 -1.0249 -0.5878  0.1106
 3786SOL    HW212800   2.532   5.876   7.255  0.8076  1.2557  0.3971
 3787SOL     OW12801   0.900   4.862   9.161  0.0084 -0.3645  0.4030
 3787SOL    HW112802   0.895   4.956   9.145 -1.6811 -0.4561  0.2104
 3787SOL    HW212803   0.947   4.827   9.085  0.4528  0.2814  0.3679
 3788SOL     OW12804   1.814   6.640   8.715  0.7061 -0.3683 -0.5989
 3788SOL    HW112805   1.727   6.602   8.704  0.2747  0.0448  1.0193
 3788SOL    HW212806   1.807   6.726   8.673 -0.0642  0.1466  0.5274
 3789SOL     OW12807   1.156   6.802   9.278 -0.3068 -0.0830  0.2170
 3789SOL    HW112808   1.202   6.769   9.201 -3.1520 -1.0784 -1.2009
 3789SOL    HW212809   1.104   6.727   9.308 -1.5653  1.1475  1.2483
 3790SOL     OW12810   2.226   4.257   7.931 -0.6082 -0.4417  0.4244
 3790SOL    HW112811   2.266   4.200   7.865 -0.6293  0.5517 -0.4686
 3790SOL    HW212812   2.267   4.342   7.917 -0.7442 -0.1682  1.5910
 3791SOL     OW12813   0.818   4.030   8.354  1.2254 -0.3785 -0.0277
 3791SOL    HW112814   0.748   4.038   8.418  0.1759 -0.3277 -1.1608
 3791SOL    HW212815   0.898   4.029   8.407  0.4739  0.8804  1.1991
 3792SOL     OW12816   0.573   4.707   7.083 -0.0434 -0.3059 -0.0604
 3792SOL    HW112817   0.480   4.717   7.104  0.0693  0.3534  0.1355
 3792SOL    HW212818   0.581   4.615   7.055 -0.7297 -0.3984  0.0202
 3793SOL     OW12819   2.792   3.669  10.479  0.2212  0.3223  0.3799
 3793SOL    HW112820   2.794   3.747  10.423  2.4300  0.7150  0.9037
 3793SOL    HW212821   2.844   3.604  10.431  0.9549  0.1992  1.3079
 3794SOL     OW12822   1.780   5.956   9.698  0.2088 -0.4566  0.1517
 3794SOL    HW112823   1.805   6.000   9.779  1.0985 -0.3687 -0.1578
 3794SOL    HW212824   1.785   6.024   9.631 -0.5151 -0.5311  0.0117
 3795SOL     OW12825   1.742   6.386   6.882  0.0100  0.6815  0.2701
 3795SOL    HW112826   1.735   6.310   6.825 -0.3296 -0.2862  1.5413
 3795SOL    HW212827   1.696   6.456   6.836  1.9667  0.7062 -1.8085
 3796SOL     OW12828   1.193   3.944   6.820 -0.0080 -0.1505  0.0500
 3796SOL    HW112829   1.253   3.871   6.809 -0.2263 -0.5542  1.3594
 3796SOL    HW212830   1.181   3.951   6.914 -0.4422  1.2149 -0.0819
 3797SOL     OW12831   1.540   4.807   8.196  0.1073 -0.4701  0.0465
 3797SOL    HW112832   1.511   4.898   8.211  1.6455 -0.1170  1.0405
 3797SOL    HW212833   1.552   4.772   8.284  2.8999 -0.5046 -0.2876
 3798SOL     OW12834   1.466   4.795   9.568 -0.6419  0.4957 -0.0773
 3798SOL    HW112835   1.461   4.769   9.476 -1.7041 -0.6133  0.2734
 3798SOL    HW212836   1.383   4.840   9.585 -1.8625 -1.9901  1.0896
 3799SOL     OW12837   6.929   5.502   9.069  0.4680  0.2081  0.0501
 3799SOL    HW112838   7.011   5.517   9.022  0.0075  3.8485  0.1651
 3799SOL    HW212839   6.864   5.491   9.001  0.5365  0.8156 -0.1208
 3800SOL     OW12840   0.594   4.305   8.654  0.4107 -0.6315  0.0275
 3800SOL    HW112841   0.508   4.335   8.626  0.3909  0.1391  0.8591
 3800SOL    HW212842   0.585   4.289   8.748  1.0647 -0.9402  0.0438
 3801SOL     OW12843   1.579   3.626  10.056 -0.0941  0.5738  0.5289
 3801SOL    HW112844   1.568   3.628   9.961 -1.3483 -0.2424  0.6388
 3801SOL    HW212845   1.507   3.678  10.090  1.0157  1.8537  1.0217
 3802SOL     OW12846   7.407   4.144   9.001  0.2452 -0.3487  0.0995
 3802SOL    HW112847   7.340   4.155   8.934 -0.8659 -1.1970  1.0140
 3802SOL    HW212848   7.414   4.230   9.043  0.6132  0.0586 -0.7857
 3803SOL     OW12849   2.185   5.439   8.159 -0.3173  0.6478 -0.1098
 3803SOL    HW112850   2.240   5.481   8.226  0.4169  1.7178 -1.3497
 3803SOL    HW212851   2.246   5.393   8.102 -0.9110  0.0160 -0.2583
 3804SOL     OW12852   7.895   5.056   9.297  0.2400 -0.1037  0.0048
 3804SOL    HW112853   7.983   5.020   9.297 -0.6055 -2.4692 -1.9799
 3804SOL    HW212854   7.903   5.140   9.251  1.2124 -1.2254 -2.0328
 3805SOL     OW12855   2.154   5.734   7.329  0.4838  0.3912 -0.2934
 3805SOL    HW112856   2.087   5.790   7.290 -1.3818 -0.0203  2.0919
 3805SOL    HW212857   2.237   5.771   7.299 -0.7394  2.6300 -1.1389
 3806SOL     OW12858   0.308   7.361   7.579 -0.4899 -0.1904 -0.1348
 3806SOL    HW112859   0.366   7.378   7.505 -0.2472  0.4519  0.1942
 3806SOL    HW212860   0.324   7.270   7.603 -1.6335 -0.8859 -1.7937
 3807SOL     OW12861   2.084   3.089   9.775 -0.1909  0.0823  0.1783
 3807SOL    HW112862   2.167   3.043   9.763  0.0538  1.0960 -2.6520
 3807SOL    HW212863   2.098   3.176   9.738 -2.7025  0.0426 -1.1213
 3808SOL     OW12864   6.781   5.658   7.995  0.4096  0.3361 -0.5023
 3808SOL    HW112865   6.800   5.662   7.901 -1.4281 -0.2112 -0.9214
 3808SOL    HW212866   6.769   5.565   8.013 -1.8859  0.6261 -0.3111
 3809SOL     OW12867   1.072   6.003   9.391 -0.2063  0.7523 -0.0148
 3809SOL    HW112868   1.152   5.980   9.344 -0.4499 -0.2062  0.0215
 3809SOL    HW212869   1.011   6.030   9.323  0.3917  2.2928  0.0223
 3810SOL     OW12870   1.387   3.651   8.553 -0.2499 -0.1749  0.4164
 3810SOL    HW112871   1.367   3.744   8.560  0.7968  0.1803 -0.7993
 3810SOL    HW212872   1.327   3.619   8.486  2.4473  0.7405 -2.7168
 3811SOL     OW12873   0.548   4.102   8.168 -0.2824 -0.5895  0.2277
 3811SOL    HW112874   0.506   4.061   8.093 -1.3625 -0.5217  0.7894
 3811SOL    HW212875   0.497   4.075   8.244  1.0041 -0.9428  1.0002
 3812SOL     OW12876   0.493   3.224  11.284 -0.8995  0.2392 -0.1766
 3812SOL    HW112877   0.485   3.138  11.327 -0.0759  0.2715  0.0504
 3812SOL    HW212878   0.489   3.205  11.191 -1.4482  0.0339 -0.1149
 3813SOL     OW12879   0.296   4.966   7.264 -0.5792  0.2852 -0.0492
 3813SOL    HW112880   0.240   5.041   7.281 -0.5607  0.0471  1.1368
 3813SOL    HW212881   0.284   4.948   7.171  1.1175  3.1432 -0.9666
 3814SOL     OW12882   1.719   7.014   6.838  0.3681 -0.7376 -0.1179
 3814SOL    HW112883   1.776   7.036   6.765 -0.1688  0.4799 -0.1881
 3814SOL    HW212884   1.718   7.092   6.893 -0.5799 -1.0295  0.3092
 3815SOL     OW12885   0.832   5.182   8.202 -0.0503  0.0695 -0.1572
 3815SOL    HW112886   0.817   5.193   8.108 -3.8711 -0.7817  0.1895
 3815SOL    HW212887   0.857   5.090   8.212  0.9274  0.3042 -0.3525
 3816SOL     OW12888   7.014   5.797   9.813 -0.0156  0.1731  0.6063
 3816SOL    HW112889   7.079   5.746   9.861  0.2131 -0.1074  0.0184
 3816SOL    HW212890   7.045   5.887   9.818  1.0134 -0.0830 -0.5564
 3817SOL     OW12891   7.188   4.283   9.497  0.6035 -0.5921  0.7493
 3817SOL    HW112892   7.134   4.204   9.505 -0.3535  0.1222  1.6741
 3817SOL    HW212893   7.267   4.254   9.452  0.1145 -1.9998  0.7545
 3818SOL     OW12894   6.437   3.770  10.535  0.0278 -0.3688 -0.3284
 3818SOL    HW112895   6.414   3.730  10.451 -0.7994 -0.2729 -0.1611
 3818SOL    HW212896   6.489   3.847  10.511  1.2971 -1.2987 -0.6642
 3819SOL     OW12897   1.598   6.213   9.887 -0.1849  0.5062 -0.4709
 3819SOL    HW112898   1.674   6.155   9.894 -0.6621 -0.1039 -0.2835
 3819SOL    HW212899   1.615   6.264   9.807  1.0187  1.2713  0.2423
 3820SOL     OW12900   2.378   3.217   9.478  0.5784  0.3722 -0.1372
 3820SOL    HW112901   2.344   3.296   9.435  0.1375  1.0401  1.3944
 3820SOL    HW212902   2.397   3.244   9.567 -1.3765 -1.7020  1.0020
 3821SOL     OW12903   7.083   7.307  10.329  0.4023  0.6401 -0.2218
 3821SOL    HW112904   7.004   7.360  10.340 -0.6843 -0.8597 -0.5245
 3821SOL    HW212905   7.149   7.350  10.383  0.3474  3.7816 -2.3830
 3822SOL     OW12906   0.122   4.858  10.574 -0.1685  0.2403 -0.0939
 3822SOL    HW112907   0.090   4.884  10.487 -0.6662  1.9993  0.5662
 3822SOL    HW212908   0.109   4.936  10.628 -1.0183 -1.1873  1.8798
 3823SOL     OW12909   1.478   4.233  11.023  0.4839  0.3680 -0.2409
 3823SOL    HW112910   1.508   4.181  10.949 -0.2466 -0.7792  0.2479
 3823SOL    HW212911   1.445   4.169  11.086 -0.7616  1.4330  0.2359
 3824SOL     OW12912   7.304   4.062  10.688  0.2311 -0.7909 -0.0652
 3824SOL    HW112913   7.261   4.142  10.719  2.5776 -0.0964  1.6527
 3824SOL    HW212914   7.248   3.991  10.720 -0.8536  0.0978  0.0881
 3825SOL     OW12915   0.798   7.015  11.065  0.4262  0.9454  0.4809
 3825SOL    HW112916   0.835   6.931  11.091  0.9713  1.4098  1.2448
 3825SOL    HW212917   0.786   7.008  10.970  1.5639  0.4250  0.3573
 3826SOL     OW12918   1.413   6.609   9.920  0.0506 -0.2460  0.3207
 3826SOL    HW112919   1.417   6.565   9.834  1.8900  1.0470 -0.3116
 3826SOL    HW212920   1.440   6.699   9.902 -2.0254  0.7833  1.8653
 3827SOL     OW12921   1.113   3.255  10.472  0.1673  0.3633  0.4156
 3827SOL    HW112922   1.098   3.218  10.559 -1.4603  1.6600  0.7476
 3827SOL    HW212923   1.065   3.338  10.473  0.3679  0.5529 -1.6116
 3828SOL     OW12924   7.778   4.299  11.089  0.0641  0.3001  0.1240
 3828SOL    HW112925   7.828   4.269  11.013 -0.7784  2.1640 -1.2208
 3828SOL    HW212926   7.767   4.220  11.142  3.6795 -0.4035  0.1241
 3829SOL     OW12927   7.576   5.497  10.351  0.1338 -0.3728  0.0144
 3829SOL    HW112928   7.531   5.516  10.269  1.9310  0.5140 -0.8177
 3829SOL    HW212929   7.517   5.437  10.397 -0.8043 -1.1230 -2.0343
 3830SOL     OW12930   2.773   6.073  10.272  0.0190  0.0797  0.3781
 3830SOL    HW112931   2.822   6.099  10.350 -2.3194 -0.3850  2.1228
 3830SOL    HW212932   2.796   6.138  10.206 -0.4542  2.5600  2.4977
 3831SOL     OW12933   0.478   4.354   9.391 -0.5413 -0.1340  0.3579
 3831SOL    HW112934   0.409   4.369   9.327  0.9706  0.4405 -1.2247
 3831SOL    HW212935   0.529   4.435   9.391 -0.5525 -0.0775  2.4014
 3832SOL     OW12936   0.874   5.127   9.467  0.2585  0.0282  0.3425
 3832SOL    HW112937   0.961   5.122   9.506  0.3855  2.0625  0.4292
 3832SOL    HW212938   0.889   5.154   9.377 -0.2770  1.7721  0.7240
 3833SOL     OW12939   7.921   6.964   9.915 -0.5889 -0.0765  0.1599
 3833SOL    HW112940   7.844   6.908   9.926 -1.2427  0.5737 -0.9926
 3833SOL    HW212941   7.941   6.994  10.004 -1.4248 -0.5571  0.5244
 3834SOL     OW12942   0.892   4.482   9.578 -0.6830 -0.1472  0.7026
 3834SOL    HW112943   0.987   4.472   9.582 -0.0584  3.3621 -0.9714
 3834SOL    HW212944   0.868   4.447   9.493 -0.4651  0.9342  0.1711
 3835SOL     OW12945   6.904   5.971   9.244  0.1207 -0.2966 -0.4857
 3835SOL    HW112946   6.975   5.976   9.180  0.3377 -1.8105 -0.4007
 3835SOL    HW212947   6.843   5.906   9.209  0.6947 -1.8595  1.1900
 3836SOL     OW12948   1.209   7.066   9.329 -0.4299  0.6065 -0.1911
 3836SOL    HW112949   1.202   6.972   9.315  0.0609  0.6243 -0.5824
 3836SOL    HW212950   1.122   7.092   9.359 -0.6069  0.0507 -0.2088
 3837SOL     OW12951   7.801   6.298   9.371 -0.3686 -0.3152 -0.0442
 3837SOL    HW112952   7.787   6.245   9.292 -1.9107 -0.4164  0.2723
 3837SOL    HW212953   7.756   6.250   9.441 -0.1315  0.4262  0.6325
 3838SOL     OW12954   1.652   5.167   9.444 -0.5768  0.0522 -0.2579
 3838SOL    HW112955   1.704   5.247   9.437 -0.0797 -0.3441 -1.3241
 3838SOL    HW212956   1.713   5.097   9.421 -0.9794 -0.6483  0.7437
 3839SOL     OW12957   2.216   3.037   9.351  0.2197  0.1559 -0.4769
 3839SOL    HW112958   2.279   3.084   9.404  1.2028 -1.1341 -0.4616
 3839SOL    HW212959   2.131   3.069   9.381  0.8189  1.0586  0.3175
 3840SOL     OW12960   7.837   5.960  10.431 -0.1447 -0.3242 -0.1049
 3840SOL    HW112961   7.928   5.951  10.400 -0.2895  0.0259 -0.6438
 3840SOL    HW212962   7.846   5.976  10.525  0.3377 -0.6707 -0.0861
 3841SOL     OW12963   0.770   3.629  10.739  0.1288  0.5366 -0.1175
 3841SOL    HW112964   0.829   3.695  10.703 -1.4574  1.2256 -1.5881
 3841SOL    HW212965   0.691   3.678  10.764  0.7317 -0.0797  3.4243
 3842SOL     OW12966   2.628   5.319  11.057 -0.1963  0.6963  0.2634
 3842SOL    HW112967   2.676   5.250  11.102 -2.1433 -0.1173  1.1973
 3842SOL    HW212968   2.569   5.272  10.998 -0.9478  1.5896  0.2825
 3843SOL     OW12969   7.439   3.982   7.647 -0.4840  0.2438  0.1378
 3843SOL    HW112970   7.434   4.077   7.657  0.7984  0.4428 -0.6916
 3843SOL    HW212971   7.382   3.963   7.573  0.9785  0.7254 -1.1879
 3844SOL     OW12972   0.193   4.931   9.573  0.4811  0.1397  0.1781
 3844SOL    HW112973   0.136   4.926   9.496 -0.1810 -0.5210  0.6988
 3844SOL    HW212974   0.133   4.925   9.647  1.1588  0.3066  0.7445
 3845SOL     OW12975   1.050   3.338   8.785  0.3633  0.0643 -0.0135
 3845SOL    HW112976   1.140   3.317   8.761  0.1995  0.3133 -0.8638
 3845SOL    HW212977   0.999   3.320   8.706 -0.3958 -0.4295  0.5627
 3846SOL     OW12978   1.151   3.942  11.519  0.0299 -0.1506  0.2050
 3846SOL    HW112979   1.213   3.899  11.461 -1.5146 -1.7738 -0.3433
 3846SOL    HW212980   1.169   4.035  11.509 -0.2636 -0.3218 -3.0896
 3847SOL     OW12981   0.572   4.402   0.047  0.1912 -0.5813 -0.1596
 3847SOL    HW112982   0.579   4.453   0.128 -0.6705  0.6294 -0.8134
 3847SOL    HW212983   0.558   4.468  -0.021 -1.2171 -1.7147 -1.0042
 3848SOL     OW12984   2.086   5.746   8.914 -0.4982 -0.7528 -0.6148
 3848SOL    HW112985   2.136   5.683   8.861 -0.2014 -0.2883 -0.8926
 3848SOL    HW212986   2.100   5.717   9.004 -0.0401 -0.8585 -0.7143
 3849SOL     OW12987   2.722   4.105   9.906 -0.0982 -0.0552 -0.2317
 3849SOL    HW112988   2.672   4.111   9.825  1.8865  1.1954 -1.4692
 3849SOL    HW212989   2.804   4.062   9.880 -0.0145 -1.0419  1.4740
 3850SOL     OW12990   0.427   4.637   9.831  0.4828  0.2824  0.4716
 3850SOL    HW112991   0.466   4.555   9.800  1.0166  0.2664  1.1577
 3850SOL    HW212992   0.361   4.659   9.765 -1.0621 -1.7199  1.2578
 3851SOL     OW12993   0.538   4.035   9.718  0.0208 -0.6217 -0.7107
 3851SOL    HW112994   0.466   4.002   9.664 -0.1039 -0.7902 -0.4441
 3851SOL    HW212995   0.498   4.103   9.772  0.1385 -0.4739 -0.8110
 3852SOL     OW12996   2.003   5.178   9.160  1.0623 -0.3770  0.2249
 3852SOL    HW112997   1.981   5.128   9.239 -0.7907 -0.9128 -0.5652
 3852SOL    HW212998   1.932   5.158   9.099  1.0920  2.0134 -0.6899
 3853SOL     OW12999   0.628   3.851  10.816  0.2282 -0.1464 -0.5824
 3853SOL    HW113000   0.608   3.908  10.890 -0.8589 -2.6459  1.2116
 3853SOL    HW213001   0.724   3.841  10.819  0.1667 -0.6389  0.9164
 3854SOL     OW13002   1.194   5.033  10.351 -0.2280  0.1821  0.1657
 3854SOL    HW113003   1.193   5.055  10.444 -1.9977  0.4395  0.1229
 3854SOL    HW213004   1.233   5.109  10.308 -1.3647  0.9926  0.5223
 3855SOL     OW13005   0.288   4.485  11.870  0.3489  0.0317 -0.3308
 3855SOL    HW113006   0.362   4.425  11.881  0.8571  0.9366  1.7747
 3855SOL    HW213007   0.272   4.519  11.958 -0.9678  1.7540 -1.1803
 3856SOL     OW13008   7.803   5.150  10.497 -0.1914 -0.2250 -0.5098
 3856SOL    HW113009   7.826   5.232  10.453 -0.4934 -0.6145 -1.4088
 3856SOL    HW213010   7.852   5.153  10.580  1.2307  0.0434 -1.3307
 3857SOL     OW13011   7.978   4.298  10.888 -0.5377 -0.1812  0.5353
 3857SOL    HW113012   7.966   4.392  10.900  0.1669  0.1568 -1.1250
 3857SOL    HW213013   8.073   4.286  10.881 -0.5640 -1.1366  1.4724
 3858SOL     OW13014   1.280   5.409   9.905 -0.4720 -0.3389 -0.1689
 3858SOL    HW113015   1.306   5.417   9.997 -1.9172  2.3725  0.1079
 3858SOL    HW213016   1.267   5.499   9.876 -0.7740 -1.1549 -2.8555
 3859SOL     OW13017   0.587   5.324  10.283  0.2679  0.0699  0.0290
 3859SOL    HW113018   0.679   5.300  10.272  0.6872  1.3156  0.6239
 3859SOL    HW213019   0.580   5.350  10.374 -0.0285  2.5579 -0.6407
 3860SOL     OW13020   2.031   4.815  10.094 -0.5391  0.4303  0.4104
 3860SOL    HW113021   2.033   4.724  10.124 -5.0248 -0.2887 -0.7517
 3860SOL    HW213022   1.998   4.865  10.168  2.2158  1.3520  1.1601
 3861SOL     OW13023   0.957   4.333  10.014 -0.6771 -0.1418 -0.5599
 3861SOL    HW113024   0.972   4.280  10.092  0.0054  0.1979 -0.4504
 3861SOL    HW213025   1.038   4.324   9.963 -0.4786  0.9110 -0.4646
 3862SOL     OW13026   1.849   4.986   9.414  0.6397  0.3608  0.8531
 3862SOL    HW113027   1.938   4.960   9.439  1.5401  0.4344 -1.8727
 3862SOL    HW213028   1.811   4.907   9.376 -0.1407  0.5647  1.2110
 3863SOL     OW13029   0.117   4.495   9.986 -0.0885 -0.0060  0.1946
 3863SOL    HW113030   0.124   4.531   9.898  0.9748 -0.7550 -0.0489
 3863SOL    HW213031   0.111   4.572  10.043  0.9235  0.5373 -0.4041
 3864SOL     OW13032   7.884   5.416   8.861  0.2173 -0.0669 -0.3241
 3864SOL    HW113033   7.858   5.441   8.950  0.6594 -2.4510  0.5527
 3864SOL    HW213034   7.919   5.497   8.823  0.1527  0.9958  1.7128
 3865SOL     OW13035   2.620   5.615   9.189  0.2649 -0.0848  0.0436
 3865SOL    HW113036   2.652   5.623   9.279  1.0244 -1.1968 -0.1126
 3865SOL    HW213037   2.699   5.622   9.135  0.1597 -1.9266 -0.3988
 3866SOL     OW13038   1.961   4.639  11.287  0.4835  0.1649  0.9908
 3866SOL    HW113039   1.952   4.545  11.272  1.5317  0.0789  0.8119
 3866SOL    HW213040   1.879   4.665  11.328  0.7151 -1.0813  2.3040
 3867SOL     OW13041   0.414   5.978   9.358 -0.6826  0.2496 -0.2525
 3867SOL    HW113042   0.403   5.888   9.386 -3.1924  0.7774  0.6709
 3867SOL    HW213043   0.464   5.972   9.276 -0.5425 -1.9167 -0.0546
 3868SOL     OW13044   0.194   4.930   9.197  0.3876 -0.0738 -0.2406
 3868SOL    HW113045   0.182   4.939   9.103  1.3254 -1.9392 -0.5918
 3868SOL    HW213046   0.247   5.005   9.222 -1.2036  1.3130 -0.8759
 3869SOL     OW13047   7.855   3.852  11.384  0.1521  0.0160 -0.2188
 3869SOL    HW113048   7.813   3.891  11.460  1.5023 -0.4035  0.7865
 3869SOL    HW213049   7.843   3.758  11.395  0.3299 -0.0453 -0.5397
 3870SOL     OW13050   7.460   4.468   8.754  0.4685 -0.4018 -0.1841
 3870SOL    HW113051   7.388   4.405   8.753  0.7989 -0.8211  0.7402
 3870SOL    HW213052   7.539   4.414   8.757  0.7913  0.0576 -0.3236
 3871SOL     OW13053   7.989   5.319  10.102 -0.0565  0.6378  0.0544
 3871SOL    HW113054   8.025   5.305  10.189 -3.6516 -0.8611  1.4476
 3871SOL    HW213055   7.950   5.407  10.106 -1.2469  0.1048  0.3794
 3872SOL     OW13056   1.061   5.483   8.630  0.0422 -0.2622 -0.2258
 3872SOL    HW113057   1.135   5.423   8.636  1.1712  0.7962 -2.3987
 3872SOL    HW213058   1.065   5.516   8.540 -1.3422  2.0085  0.4869
 3873SOL     OW13059   1.335   1.893   8.023  0.1929 -0.7659  0.3079
 3873SOL    HW113060   1.269   1.938   8.075  0.8730 -0.3757  0.8433
 3873SOL    HW213061   1.285   1.829   7.972 -0.6713 -0.0472  0.2234
 3874SOL     OW13062   0.029   5.864  11.071 -0.0291  0.1447 -0.0047
 3874SOL    HW113063  -0.066   5.878  11.068  0.0466  0.5989 -0.7098
 3874SOL    HW213064   0.062   5.931  11.131 -0.0933  0.4117 -0.2637
 3875SOL     OW13065   0.319   5.378   9.907  0.2680  0.5107 -0.1672
 3875SOL    HW113066   0.277   5.293   9.893  0.8441  0.1510  0.2144
 3875SOL    HW213067   0.247   5.441   9.906 -0.1672  0.0211 -0.4613
 3876SOL     OW13068   0.789   6.182   9.660 -0.2290  0.4366  0.2491
 3876SOL    HW113069   0.786   6.097   9.615  0.3660  1.1781 -1.2731
 3876SOL    HW213070   0.715   6.230   9.625 -0.8524  0.3992  1.4735
 3877SOL     OW13071   0.843   3.752  12.160  0.3100 -0.4520  0.1612
 3877SOL    HW113072   0.822   3.760  12.066  1.6369  0.8894 -0.0429
 3877SOL    HW213073   0.905   3.822  12.177  3.5208 -3.2429  1.0690
 3878SOL     OW13074   1.487   5.243   8.740 -0.0892  0.9555 -0.9015
 3878SOL    HW113075   1.433   5.299   8.684 -1.1333  0.2180 -0.6622
 3878SOL    HW213076   1.473   5.154   8.707 -0.5365  0.5310  0.3518
 3879SOL     OW13077   1.045   3.680  11.642 -0.3032  0.3743 -0.2198
 3879SOL    HW113078   1.028   3.629  11.563  0.1942  1.8291 -1.3296
 3879SOL    HW213079   0.986   3.755  11.635 -2.2391 -0.7728  2.2028
 3880SOL     OW13080   0.169   6.952  10.130  0.2050 -0.2103 -0.0356
 3880SOL    HW113081   0.209   6.893  10.066  0.9549  0.6588 -0.3819
 3880SOL    HW213082   0.197   6.917  10.215  0.0914 -0.7408 -0.2144
 3881SOL     OW13083   0.660   3.243  10.459  0.2675  0.1886  0.2988
 3881SOL    HW113084   0.681   3.257  10.552 -0.0738  0.1175  0.3882
 3881SOL    HW213085   0.727   3.181  10.429  1.0221  1.0238  0.2169
 3882SOL     OW13086   0.731   2.996   9.122  0.0998 -0.2434  0.1694
 3882SOL    HW113087   0.765   3.020   9.036 -0.4800  0.3182  0.0810
 3882SOL    HW213088   0.670   2.925   9.104 -0.5577  0.3431  0.0069
 3883SOL     OW13089   0.014   5.628   8.730  0.4245 -0.4135 -0.1305
 3883SOL    HW113090  -0.027   5.675   8.657 -0.3055  0.6178  0.9119
 3883SOL    HW213091   0.088   5.583   8.690  1.9502  2.6042 -1.0271
 3884SOL     OW13092   0.254   6.824  10.378 -0.3433  0.2118  0.0132
 3884SOL    HW113093   0.344   6.795  10.359  0.6995  3.0107  0.2393
 3884SOL    HW213094   0.199   6.757  10.338  1.8279 -0.5075 -2.0263
 3885SOL     OW13095   1.504   4.444  10.270 -0.1311 -0.5513  0.2622
 3885SOL    HW113096   1.491   4.349  10.260 -0.0921 -0.6537  1.1233
 3885SOL    HW213097   1.504   4.477  10.180  0.9811 -1.5108 -0.1144
 3886SOL     OW13098   0.188   2.317   9.139 -0.4050 -0.3711  0.7160
 3886SOL    HW113099   0.282   2.299   9.138 -0.1566  0.7934  0.8796
 3886SOL    HW213100   0.181   2.406   9.173 -1.5914 -0.5227  0.9242
 3887SOL     OW13101   2.263   3.438   9.320 -0.1934 -0.1071  0.0992
 3887SOL    HW113102   2.237   3.467   9.232 -1.2826 -0.7987  0.1795
 3887SOL    HW213103   2.184   3.447   9.372 -0.2161 -1.9811  0.4422
 3888SOL     OW13104   7.949   4.660  10.330 -0.0893 -0.3355 -0.5361
 3888SOL    HW113105   8.023   4.659  10.269  0.7884  0.2075  0.4842
 3888SOL    HW213106   7.937   4.752  10.352 -1.9885 -0.2467 -1.7282
 3889SOL     OW13107   1.088   6.865   9.654  0.0906  0.3286  0.2594
 3889SOL    HW113108   1.006   6.908   9.630  0.2352  0.1438 -0.5862
 3889SOL    HW213109   1.061   6.781   9.692 -0.0912  0.0377 -0.5132
 3890SOL     OW13110   0.323   6.711   8.769 -0.0807 -0.0571 -0.0229
 3890SOL    HW113111   0.362   6.649   8.708  1.1916  2.2250 -1.6968
 3890SOL    HW213112   0.255   6.754   8.717  0.0750  0.9640  0.6040
 3891SOL     OW13113   0.959   3.776  10.572 -0.4305  0.3063 -0.4223
 3891SOL    HW113114   0.909   3.810  10.498  2.4073  1.4762 -1.9833
 3891SOL    HW213115   0.951   3.843  10.639 -0.5517  0.7211 -0.8423
 3892SOL     OW13116   0.343   2.703   9.498 -0.8012 -0.0498  0.2244
 3892SOL    HW113117   0.292   2.698   9.417 -2.5198  0.5419  1.2098
 3892SOL    HW213118   0.397   2.781   9.487 -0.7606 -0.1660 -0.4787
 3893SOL     OW13119   2.176   5.917   9.904 -0.8506  0.1157 -0.1868
 3893SOL    HW113120   2.114   5.903   9.832 -0.2077 -0.2739 -0.6735
 3893SOL    HW213121   2.244   5.851   9.890 -1.3701 -0.8598  1.5278
 3894SOL     OW13122   2.492   3.660   9.265 -0.1362  0.3268 -0.2223
 3894SOL    HW113123   2.448   3.612   9.335 -0.6015  0.8285 -0.1614
 3894SOL    HW213124   2.585   3.640   9.277 -0.2047  0.4542  0.5745
 3895SOL     OW13125   0.930   4.922  10.596  0.1516 -0.1027  0.0505
 3895SOL    HW113126   0.880   4.976  10.658  0.7339 -0.9191  1.2668
 3895SOL    HW213127   1.009   4.898  10.644 -0.2675 -2.3644 -0.3051
 3896SOL     OW13128   1.886   5.033  11.220 -0.0570  0.4731 -0.2561
 3896SOL    HW113129   1.796   5.031  11.188  0.1886  1.1214 -1.0302
 3896SOL    HW213130   1.886   4.977  11.297 -1.0255  0.1253 -0.5002
 3897SOL     OW13131   1.433   4.279   8.329  0.1488  0.3928  0.3986
 3897SOL    HW113132   1.512   4.320   8.366  2.8541 -1.8411 -2.3686
 3897SOL    HW213133   1.409   4.334   8.255  0.2609  0.0862  0.1316
 3898SOL     OW13134   0.804   4.680   9.349 -0.5407 -0.0447 -0.5042
 3898SOL    HW113135   0.840   4.682   9.437 -1.0903  0.3768 -0.2819
 3898SOL    HW213136   0.859   4.742   9.300 -0.5484  0.0989 -0.3336
 3899SOL     OW13137   1.956   6.888  10.651  0.7288  0.0160  0.5139
 3899SOL    HW113138   1.937   6.961  10.709  1.4264  1.3655 -0.8935
 3899SOL    HW213139   2.042   6.857  10.681  1.1538  0.7981  0.1230
 3900SOL     OW13140   1.196   4.089   9.525  0.3216 -0.1893 -0.4874
 3900SOL    HW113141   1.213   4.063   9.616 -0.5298  0.2725 -0.1865
 3900SOL    HW213142   1.194   4.184   9.527 -0.4534 -0.1943 -0.8525
 3901SOL     OW13143   7.245   5.639   9.489  0.5184  0.3346  0.1528
 3901SOL    HW113144   7.313   5.686   9.537  1.9026 -0.1088 -1.2832
 3901SOL    HW213145   7.288   5.610   9.409 -0.9500 -1.3123 -0.1001
 3902SOL     OW13146   0.546   3.805  11.188  0.1463 -0.3950 -0.1187
 3902SOL    HW113147   0.478   3.778  11.126 -1.5357  0.2255  1.3731
 3902SOL    HW213148   0.564   3.896  11.164  0.0957 -0.4044 -0.1948
 3903SOL     OW13149   0.800   3.517  11.133  0.0898 -0.0752 -0.0994
 3903SOL    HW113150   0.778   3.510  11.226  0.0233 -2.1830 -0.2373
 3903SOL    HW213151   0.825   3.429  11.107  2.2859  0.9065 -1.5765
 3904SOL     OW13152   0.982   5.897  11.716  0.3331  0.3702  0.1419
 3904SOL    HW113153   0.995   5.956  11.790 -0.1528  0.9351 -0.2115
 3904SOL    HW213154   1.044   5.926  11.650  0.2997  0.2967  0.0771
 3905SOL     OW13155   2.382   3.177  10.324 -0.0512 -0.4250  0.1796
 3905SOL    HW113156   2.393   3.123  10.246  1.3978 -0.5097  0.4119
 3905SOL    HW213157   2.470   3.211  10.342 -0.8636  1.7818  0.2079
 3906SOL     OW13158   1.393   5.212   9.477 -0.2859 -0.3124  0.2013
 3906SOL    HW113159   1.486   5.193   9.464 -0.2763  0.2518 -0.5717
 3906SOL    HW213160   1.378   5.193   9.570  0.6296 -0.2645  0.3682
 3907SOL     OW13161   1.963   4.069  11.356  0.5104 -0.3074 -0.0778
 3907SOL    HW113162   1.970   3.983  11.314  0.4306  0.0217 -0.7848
 3907SOL    HW213163   2.037   4.072  11.417  2.7365  0.4893 -2.5946
 3908SOL     OW13164   1.727   5.677   9.481  0.2349  0.4544  0.0023
 3908SOL    HW113165   1.800   5.734   9.456  0.3426  0.3851  0.1546
 3908SOL    HW213166   1.667   5.735   9.527 -0.5800  0.8722 -1.5147
 3909SOL     OW13167   7.376   3.855  11.358 -0.1746  0.1141  0.5916
 3909SOL    HW113168   7.392   3.779  11.414  1.1868 -1.0935 -1.3022
 3909SOL    HW213169   7.461   3.873  11.317 -1.0241  1.1563 -0.8192
 3910SOL     OW13170   1.314   4.712  11.702  0.1736 -0.1251 -0.0083
 3910SOL    HW113171   1.251   4.729  11.632  0.4050  0.0872 -0.1667
 3910SOL    HW213172   1.273   4.749  11.780  0.2899  0.3981 -0.1923
 3911SOL     OW13173   6.591   5.764  10.194 -0.4291  0.3234  0.0878
 3911SOL    HW113174   6.617   5.704  10.264 -1.1665 -0.3647 -0.2174
 3911SOL    HW213175   6.500   5.784  10.213  0.1269  2.3849  0.9139
 3912SOL     OW13176   0.324   4.375  10.814 -0.7790 -0.1891  0.2882
 3912SOL    HW113177   0.341   4.468  10.796 -0.1921 -0.5236 -0.9817
 3912SOL    HW213178   0.337   4.366  10.908  0.6304  0.7193  0.2046
 3913SOL     OW13179   0.635   6.378   9.870  0.0142 -0.4499  0.0454
 3913SOL    HW113180   0.722   6.368   9.832  0.7953  1.0702  1.2947
 3913SOL    HW213181   0.605   6.289   9.886  1.2504 -1.0041 -0.5825
 3914SOL     OW13182   2.515   6.242   9.669  0.1468  0.3879  0.0092
 3914SOL    HW113183   2.564   6.181   9.724 -0.3978  0.8001  0.9678
 3914SOL    HW213184   2.443   6.190   9.633  0.3567  0.1840 -0.1205
 3915SOL     OW13185   2.016   5.562   9.719  0.5122 -0.0026  0.7144
 3915SOL    HW113186   2.068   5.603   9.650  1.4474  0.4133  1.6489
 3915SOL    HW213187   1.973   5.488   9.675 -0.3034  1.2729 -0.7238
 3916SOL     OW13188   2.003   5.014   9.914  0.2977  0.3421 -0.1991
 3916SOL    HW113189   2.003   4.946   9.981 -0.1157  0.6797  0.1510
 3916SOL    HW213190   1.916   5.008   9.873 -0.4410  1.8219  1.0527
 3917SOL     OW13191   7.957   4.928  10.349  0.1884 -0.0679 -0.0342
 3917SOL    HW113192   7.891   4.946  10.282  0.2165  0.7774  0.1447
 3917SOL    HW213193   7.941   4.996  10.415 -1.4458 -2.2788  2.0404
 3918SOL     OW13194   0.160   3.772  11.159 -0.3103 -0.2899  0.7451
 3918SOL    HW113195   0.147   3.679  11.177 -0.7647 -0.6678 -1.3050
 3918SOL    HW213196   0.235   3.775  11.100 -0.0954  0.6729  1.0504
 3919SOL     OW13197   0.683   4.272  11.301 -0.3677 -0.5235 -0.5550
 3919SOL    HW113198   0.603   4.265  11.249 -0.8906  1.8427 -0.2003
 3919SOL    HW213199   0.744   4.320  11.245 -0.3523  0.5518  0.3497
 3920SOL     OW13200   2.392   4.969  11.071 -0.6920  0.2666  0.3284
 3920SOL    HW113201   2.403   5.050  11.021  1.6477 -0.0691  0.1870
 3920SOL    HW213202   2.349   4.909  11.009  0.8428  0.3142 -0.8547
 3921SOL     OW13203   7.177   4.547  11.368 -0.1628  0.2154 -0.4917
 3921SOL    HW113204   7.217   4.570  11.284  1.0090  0.3876  0.0955
 3921SOL    HW213205   7.185   4.452  11.373 -0.8963  0.1218 -0.8832
 3922SOL     OW13206   2.201   6.181   9.918  0.2314  0.0864 -0.0372
 3922SOL    HW113207   2.185   6.089   9.937  0.5829 -0.5537 -2.5905
 3922SOL    HW213208   2.155   6.228   9.988  0.0327 -1.9880  1.3068
 3923SOL     OW13209   7.786   6.598   9.333 -0.2854 -0.3017  0.4414
 3923SOL    HW113210   7.811   6.507   9.317  1.5427  0.0408  1.0660
 3923SOL    HW213211   7.833   6.621   9.414 -1.2919  0.9831  0.6857
 3924SOL     OW13212   2.284   4.059  10.980 -0.4023  0.3903  0.3253
 3924SOL    HW113213   2.276   3.982  10.923 -2.1545  0.4833  0.3960
 3924SOL    HW213214   2.305   4.131  10.921 -0.7256  0.2090 -0.0141
 3925SOL     OW13215   6.892   4.291   9.311  0.1025  0.4103  0.1430
 3925SOL    HW113216   6.986   4.307   9.316 -0.0418  0.9794  1.6008
 3925SOL    HW213217   6.854   4.351   9.376 -1.2732  0.2461 -0.4666
 3926SOL     OW13218   5.616   4.877  11.043  0.3386 -0.2835 -0.4503
 3926SOL    HW113219   5.523   4.885  11.065  0.9310  1.0763  1.9680
 3926SOL    HW213220   5.642   4.792  11.077 -0.4317 -1.6819 -3.1346
 3927SOL     OW13221   6.972   4.882   9.371 -0.0799  0.0216  0.4750
 3927SOL    HW113222   6.913   4.929   9.312 -0.5710 -0.4842  0.5559
 3927SOL    HW213223   6.979   4.794   9.334  0.3614 -0.0219  0.6506
 3928SOL     OW13224   2.092   5.180  11.131 -0.0942  0.2407 -0.1348
 3928SOL    HW113225   2.163   5.157  11.191  0.3044  1.2737 -0.1887
 3928SOL    HW213226   2.018   5.126  11.158  0.4246 -0.1398  0.5427
 3929SOL     OW13227   1.322   3.685  10.135 -0.4016  0.0012  0.0018
 3929SOL    HW113228   1.248   3.744  10.118  0.6574  1.4824  0.4403
 3929SOL    HW213229   1.318   3.667  10.229 -0.1330  0.1829  0.0489
 3930SOL     OW13230   0.802   3.811   9.668  0.2449 -0.0030 -0.3490
 3930SOL    HW113231   0.781   3.835   9.758  0.3971  0.0717 -0.3334
 3930SOL    HW213232   0.853   3.730   9.677 -0.7890 -0.6771 -0.4366
 3931SOL     OW13233   1.427   6.471   8.874 -0.6573  0.0165 -0.4872
 3931SOL    HW113234   1.335   6.492   8.859 -0.2266  1.1152 -1.7789
 3931SOL    HW213235   1.425   6.393   8.930 -2.3552  0.1976 -0.2464
 3932SOL     OW13236   7.460   4.793   9.671 -0.1938 -0.5367 -0.1992
 3932SOL    HW113237   7.525   4.757   9.731  1.0862 -0.2809 -1.3841
 3932SOL    HW213238   7.475   4.748   9.588 -1.7495 -0.6902 -0.4298
 3933SOL     OW13239   2.461   3.815  11.897 -0.1370 -0.2487  0.0064
 3933SOL    HW113240   2.409   3.869  11.957 -0.3735  2.3306 -2.3228
 3933SOL    HW213241   2.397   3.777  11.837  0.2905 -0.7470 -0.1390
 3934SOL     OW13242   1.691   3.857  11.704  0.1640  0.3673 -0.1996
 3934SOL    HW113243   1.723   3.821  11.787  0.2600 -1.3850 -0.9421
 3934SOL    HW213244   1.614   3.908  11.727 -0.8668 -1.5420  0.8125
 3935SOL     OW13245   1.587   4.409  10.709  1.1129 -0.3465  0.3595
 3935SOL    HW113246   1.536   4.435  10.786 -0.1613 -0.9365 -0.2573
 3935SOL    HW213247   1.576   4.480  10.647  3.2547  0.7757  1.1676
 3936SOL     OW13248   7.973   5.875   9.527  0.3536 -0.4844 -0.1627
 3936SOL    HW113249   8.004   5.936   9.459 -2.3036  0.4436 -0.6721
 3936SOL    HW213250   7.922   5.810   9.479 -0.0534 -0.8628  0.7730
 3937SOL     OW13251   0.196   5.431   8.907 -0.1117 -0.1161 -0.9646
 3937SOL    HW113252   0.190   5.436   8.812  0.6009  0.6018 -0.9868
 3937SOL    HW213253   0.141   5.503   8.939  1.7339  1.3743 -0.9437
 3938SOL     OW13254   7.436   5.435   9.009 -0.6434  0.0932  0.1343
 3938SOL    HW113255   7.361   5.382   8.981 -1.1964  0.7955  0.2517
 3938SOL    HW213256   7.416   5.458   9.099  0.5842 -1.2026  0.7756
 3939SOL     OW13257   1.533   3.909   9.796  0.1739 -0.0870  0.2559
 3939SOL    HW113258   1.581   3.827   9.790  0.7937  0.1910  1.3132
 3939SOL    HW213259   1.498   3.910   9.885  2.1265  1.8428  1.0870
 3940SOL     OW13260   1.019   3.592  11.330  0.6821  0.2509 -0.5315
 3940SOL    HW113261   1.018   3.515  11.273 -0.4457  0.0741 -0.2863
 3940SOL    HW213262   0.955   3.652  11.290  0.3953  0.4094  0.1585
 3941SOL     OW13263   0.291   3.816  10.705 -0.0387  0.0727  0.0271
 3941SOL    HW113264   0.217   3.872  10.682 -1.1099 -0.1865  2.5739
 3941SOL    HW213265   0.252   3.732  10.727  1.3645 -1.0788 -1.6470
 3942SOL     OW13266   1.208   5.845   7.798 -0.3385  0.0977  0.3844
 3942SOL    HW113267   1.175   5.819   7.884 -2.5371  1.4448  0.0199
 3942SOL    HW213268   1.213   5.940   7.802 -1.0744  0.2284 -1.1514
 3943SOL     OW13269   7.441   6.509   8.609  0.6488 -0.3804  0.0430
 3943SOL    HW113270   7.458   6.603   8.620 -0.8909 -0.2052  1.2617
 3943SOL    HW213271   7.510   6.466   8.659  2.6857 -0.0502 -2.2492
 3944SOL     OW13272   0.652   6.617  10.535 -1.3111  0.5137 -0.3960
 3944SOL    HW113273   0.656   6.527  10.503  1.6026  0.6334 -0.6017
 3944SOL    HW213274   0.638   6.670  10.456 -0.8098  0.3742 -0.5802
 3945SOL     OW13275   0.568   3.876   9.946  0.2387 -0.4314 -0.0259
 3945SOL    HW113276   0.566   3.944   9.879 -0.2724 -0.6927 -0.2776
 3945SOL    HW213277   0.542   3.796   9.901 -0.9759 -0.4476  0.6593
 3946SOL     OW13278   7.629   4.163   9.947  0.0564  0.1198  0.0714
 3946SOL    HW113279   7.649   4.234   9.886  3.2937 -0.5891  0.1153
 3946SOL    HW213280   7.600   4.091   9.891  0.6344  0.2525 -0.4145
 3947SOL     OW13281   7.422   5.695   9.734 -0.7645  0.2389 -0.0603
 3947SOL    HW113282   7.509   5.699   9.696  0.1267  4.4435  1.7603
 3947SOL    HW213283   7.430   5.636   9.808 -0.0374 -0.8940 -1.0161
 3948SOL     OW13284   0.677   5.269  12.439  0.0920  0.1488  0.7509
 3948SOL    HW113285   0.713   5.181  12.451 -0.8684 -0.4242 -0.4579
 3948SOL    HW213286   0.627   5.285  12.519  1.5489  0.2706  1.6914
 3949SOL     OW13287   2.506   3.574   9.729 -0.4425 -0.3630  0.2295
 3949SOL    HW113288   2.476   3.636   9.796 -0.9443 -0.5065  0.1371
 3949SOL    HW213289   2.569   3.518   9.775  1.6443  1.5062 -0.1666
 3950SOL     OW13290   1.555   5.346  10.724 -0.1808 -0.3454  0.0512
 3950SOL    HW113291   1.471   5.373  10.687 -0.4102  0.3184  1.0161
 3950SOL    HW213292   1.614   5.342  10.648 -0.5001  1.4746 -0.3536
 3951SOL     OW13293   7.987   4.303  11.761  0.2625  0.6617  0.0819
 3951SOL    HW113294   7.973   4.328  11.670  0.7849 -0.2450 -0.2668
 3951SOL    HW213295   8.057   4.361  11.791 -0.4824  1.5322  0.1777
 3952SOL     OW13296   6.887   3.871   9.484 -0.5167 -0.5886 -0.3122
 3952SOL    HW113297   6.936   3.788   9.481 -1.1508 -0.9554 -1.7780
 3952SOL    HW213298   6.812   3.853   9.540 -1.4036 -1.4902 -1.7170
 3953SOL     OW13299   0.479   4.315  10.235 -0.5789 -0.2516  0.2678
 3953SOL    HW113300   0.532   4.246  10.275 -0.1183 -0.4925 -0.7282
 3953SOL    HW213301   0.481   4.387  10.299  0.1520 -0.6132  0.6644
 3954SOL     OW13302   7.105   4.967  10.426 -0.5851  0.3639  0.0749
 3954SOL    HW113303   7.089   5.018  10.346 -1.1178 -2.0306 -1.4526
 3954SOL    HW213304   7.042   5.001  10.489 -1.3520  1.1628 -1.0875
 3955SOL     OW13305   0.110   4.630  11.704  0.1175  0.1810 -0.3610
 3955SOL    HW113306   0.178   4.610  11.769  0.8137  2.0214 -0.4368
 3955SOL    HW213307   0.152   4.613  11.620  0.7375  1.8386 -0.4282
 3956SOL     OW13308   6.783   6.390  10.927  0.6044 -0.3301  0.4153
 3956SOL    HW113309   6.781   6.475  10.972  1.2173 -0.2383  0.2751
 3956SOL    HW213310   6.803   6.412  10.836 -1.4887 -0.4442 -0.1094
 3957SOL     OW13311   0.305   7.281   9.402  0.9905 -0.2758  0.2696
 3957SOL    HW113312   0.237   7.235   9.450  0.7422  0.2003  0.3739
 3957SOL    HW213313   0.274   7.371   9.394  2.1574  0.2729  1.4325
 3958SOL     OW13314   1.995   6.810  10.090  0.4895  0.1010  0.7621
 3958SOL    HW113315   1.912   6.859  10.087  0.3610 -0.1404  0.1059
 3958SOL    HW213316   2.059   6.869  10.051  0.3683 -0.1736  0.1264
 3959SOL     OW13317   1.573   5.849   0.521 -0.1908  0.0575 -0.3270
 3959SOL    HW113318   1.638   5.838   0.591  0.5899  1.2431 -0.8332
 3959SOL    HW213319   1.489   5.838   0.565  0.3223 -0.4096  0.5690
 3960SOL     OW13320   7.260   3.068  10.734 -0.1929 -0.3126  0.3664
 3960SOL    HW113321   7.319   3.042  10.805  1.2967 -0.0642 -0.7300
 3960SOL    HW213322   7.317   3.111  10.670 -1.7830  1.0917 -0.1683
 3961SOL     OW13323   2.091   3.347   9.704  0.0848  0.1364 -0.4876
 3961SOL    HW113324   2.182   3.367   9.727 -0.1315  0.7754 -0.1517
 3961SOL    HW213325   2.040   3.414   9.750 -0.4095  1.0387 -2.2453
 3962SOL     OW13326   1.906   3.595   9.066  0.4998 -0.4585 -0.1768
 3962SOL    HW113327   1.845   3.611   9.137 -0.8908  0.7353 -1.5709
 3962SOL    HW213328   1.851   3.589   8.988  2.0909 -0.0072 -1.3910
 3963SOL     OW13329   0.186   5.757   9.680  0.3017  0.0009 -0.2937
 3963SOL    HW113330   0.112   5.777   9.622 -0.6032  2.1176  1.4687
 3963SOL    HW213331   0.225   5.842   9.698  2.4540 -0.9580 -0.1846
 3964SOL     OW13332   7.200   6.279  12.198 -0.2066 -0.1061 -0.3863
 3964SOL    HW113333   7.134   6.262  12.130 -0.7576 -0.4722  0.2235
 3964SOL    HW213334   7.265   6.210  12.186 -1.1909 -1.2584  0.5325
 3965SOL     OW13335   7.110   7.479  11.918  0.5109  0.4402  0.0270
 3965SOL    HW113336   7.028   7.492  11.965  0.8443 -0.4481  0.8821
 3965SOL    HW213337   7.113   7.385  11.902  2.0987  0.2154  1.3991
 3966SOL     OW13338   0.117   7.211   9.071 -0.0369 -0.1014 -0.1167
 3966SOL    HW113339   0.073   7.283   9.116 -0.2591 -0.9259  1.0259
 3966SOL    HW213340   0.169   7.254   9.003 -1.0675  1.0395 -0.2272
 3967SOL     OW13341   2.649   5.098  12.151  0.1007  0.2880 -0.0821
 3967SOL    HW113342   2.726   5.064  12.198 -0.2577  0.0409  0.3281
 3967SOL    HW213343   2.668   5.081  12.059 -0.5741 -2.0931  0.1740
 3968SOL     OW13344   0.822   4.127   9.766 -0.1387  0.1805  0.1237
 3968SOL    HW113345   0.830   4.222   9.759 -0.3803  0.2356  0.5611
 3968SOL    HW213346   0.823   4.110   9.861  0.2301 -0.2790  0.0426
 3969SOL     OW13347   0.516   3.497  10.502  0.2645  0.2173 -0.1656
 3969SOL    HW113348   0.571   3.572  10.522  0.7543 -0.4381  1.0269
 3969SOL    HW213349   0.559   3.423  10.545 -2.0581 -0.1424  1.7479
 3970SOL     OW13350   1.558   6.561   8.601 -0.0190  0.0208  0.3595
 3970SOL    HW113351   1.521   6.649   8.613 -1.2096 -0.2453 -1.0504
 3970SOL    HW213352   1.516   6.528   8.522  1.6989 -1.1634 -0.1279
 3971SOL     OW13353   1.818   4.915  11.463 -0.3957 -0.2262  0.5987
 3971SOL    HW113354   1.738   4.961  11.488 -1.4652 -1.0345 -1.1248
 3971SOL    HW213355   1.814   4.832  11.511 -0.2341  0.0319  1.0581
 3972SOL     OW13356   1.575   5.887   8.555  0.0773  0.3310 -0.0938
 3972SOL    HW113357   1.669   5.866   8.554 -0.1382 -0.6768 -0.2747
 3972SOL    HW213358   1.554   5.895   8.648  0.0372 -0.9455  0.0224
 3973SOL     OW13359   1.813   5.563   8.453  0.3799 -0.6279 -0.0718
 3973SOL    HW113360   1.821   5.591   8.544 -0.7002 -0.0042 -0.1590
 3973SOL    HW213361   1.890   5.600   8.410 -0.4628  1.3685  0.0313
 3974SOL     OW13362   6.605   7.377   9.578 -0.2654 -0.4649  0.0335
 3974SOL    HW113363   6.555   7.458   9.584 -0.8487 -0.8193 -0.0256
 3974SOL    HW213364   6.545   7.314   9.539  0.8815 -0.3263 -2.1220
 3975SOL     OW13365   1.096   5.192   9.924 -0.0983 -0.5823 -0.0393
 3975SOL    HW113366   1.161   5.140   9.971 -1.4564  0.3020  3.0610
 3975SOL    HW213367   1.140   5.275   9.908  0.0902 -0.5686  0.5235
 3976SOL     OW13368   0.153   7.508   9.346  0.6147  0.3902 -0.4074
 3976SOL    HW113369   0.146   7.584   9.403  1.0120 -1.1160  1.7805
 3976SOL    HW213370   0.062   7.483   9.329  0.4472 -0.4834  1.5465
 3977SOL     OW13371   1.090   4.595  10.962 -0.6163 -0.0948 -0.3911
 3977SOL    HW113372   1.073   4.671  11.017 -0.4266  0.6783 -1.3786
 3977SOL    HW213373   1.023   4.532  10.988  0.0685 -0.1484  1.4138
 3978SOL     OW13374   7.619   6.292  10.360  0.5176 -0.2711  0.3944
 3978SOL    HW113375   7.536   6.320  10.323 -0.3613 -3.5593 -0.4480
 3978SOL    HW213376   7.685   6.335  10.305 -0.6620  0.4768 -0.4836
 3979SOL     OW13377   1.247   4.492   9.893  0.1469  0.0482  0.4976
 3979SOL    HW113378   1.239   4.468   9.801 -0.9242 -0.1076  0.6182
 3979SOL    HW213379   1.236   4.409   9.940 -1.6201  0.4161  0.8340
 3980SOL     OW13380   0.217   5.489   8.631  0.0606  0.4392 -0.1778
 3980SOL    HW113381   0.186   5.491   8.540  1.3633  1.6618 -0.6390
 3980SOL    HW213382   0.304   5.449   8.625 -0.5257 -1.0675  0.8006
 3981SOL     OW13383   1.220   4.333  10.504  0.4944  0.2746 -0.0821
 3981SOL    HW113384   1.281   4.300  10.569  0.5868  0.1214 -0.2462
 3981SOL    HW213385   1.143   4.359  10.554  0.3147 -0.4440  0.0210
 3982SOL     OW13386   0.421   4.459  10.473  0.0146 -0.0382  0.3303
 3982SOL    HW113387   0.468   4.438  10.553  1.1719  1.0042 -0.0431
 3982SOL    HW213388   0.409   4.554  10.476  1.8423  0.3441 -1.5866
 3983SOL     OW13389   0.632   4.697   9.128 -0.4791  0.2168 -0.2264
 3983SOL    HW113390   0.655   4.761   9.061 -0.3849  0.6575  0.2174
 3983SOL    HW213391   0.702   4.704   9.193 -0.4359 -0.3804 -0.2020
 3984SOL     OW13392   7.533   5.110  12.417  0.3990  0.2782  0.2707
 3984SOL    HW113393   7.612   5.160  12.434  0.0338  0.9434  0.0633
 3984SOL    HW213394   7.475   5.171  12.370  1.5601 -1.5436 -4.0658
 3985SOL     OW13395   0.943   3.664   9.986 -0.0184  0.1044  0.3230
 3985SOL    HW113396   0.997   3.617  10.049  0.4927 -0.2761 -0.3947
 3985SOL    HW213397   0.861   3.681  10.033 -0.4023 -1.9186  0.4531
 3986SOL     OW13398   1.292   6.124   9.537 -0.1876  0.0412 -0.5856
 3986SOL    HW113399   1.203   6.089   9.531 -0.4752  0.8480 -1.2226
 3986SOL    HW213400   1.280   6.216   9.562  0.4801  0.0952 -0.4371
 3987SOL     OW13401   6.767   5.912   8.923 -0.1139 -0.1736 -0.0797
 3987SOL    HW113402   6.810   5.850   8.863  0.4366  0.1668 -0.0429
 3987SOL    HW213403   6.673   5.900   8.906 -0.0472 -1.3659  0.2661
 3988SOL     OW13404   0.446   4.117  10.815 -0.2775  0.7096  0.0484
 3988SOL    HW113405   0.437   4.122  10.910  0.5653  1.1695  0.1050
 3988SOL    HW213406   0.423   4.204  10.784  3.1185  1.7556  0.1479
 3989SOL     OW13407   1.507   4.522   9.991  0.5903  0.0879 -0.0258
 3989SOL    HW113408   1.547   4.587   9.933  0.7509  0.3626  0.3880
 3989SOL    HW213409   1.416   4.517   9.962  0.7436  0.0054 -0.4942
 3990SOL     OW13410   0.350   6.158  12.052  0.7315 -0.0589 -0.4448
 3990SOL    HW113411   0.305   6.083  12.014  1.8499 -2.3982  2.4352
 3990SOL    HW213412   0.443   6.135  12.049  1.1557  1.4626  0.0471
 3991SOL     OW13413   7.869   5.213   9.877 -0.2416  0.0299 -0.5798
 3991SOL    HW113414   7.818   5.145   9.920  0.0787 -0.3345 -0.7695
 3991SOL    HW213415   7.927   5.247   9.945  0.2916 -0.5722 -0.7239
 3992SOL     OW13416   0.580   3.723   8.583 -0.5815  0.1374 -0.0629
 3992SOL    HW113417   0.515   3.675   8.635  0.6755 -1.4636  0.1064
 3992SOL    HW213418   0.553   3.709   8.492 -1.0996  0.4419  0.0373
 3993SOL     OW13419   0.332   4.178   9.803  0.3226  0.1831  0.6268
 3993SOL    HW113420   0.296   4.212   9.884  0.7100  0.7984  0.5409
 3993SOL    HW213421   0.256   4.167   9.746  0.1194  0.2889  0.8779
 3994SOL     OW13422   0.975   5.047   8.920  0.3197 -0.7331  0.6398
 3994SOL    HW113423   1.067   5.049   8.948  0.5611  1.7736 -0.0950
 3994SOL    HW213424   0.929   5.101   8.984  0.0473  1.0612 -0.9662
 3995SOL     OW13425   0.432   5.516  10.148  0.2171 -0.1407 -0.8171
 3995SOL    HW113426   0.478   5.448  10.199 -3.3927 -2.1481  0.1691
 3995SOL    HW213427   0.413   5.474  10.064 -0.9142  0.1157 -0.7023
 3996SOL     OW13428   1.278   5.403   8.896  0.1541 -0.4165 -0.3375
 3996SOL    HW113429   1.327   5.321   8.902 -1.1639 -1.3199 -1.4244
 3996SOL    HW213430   1.317   5.447   8.820  0.0600 -0.5825 -0.4812
 3997SOL     OW13431   0.619   6.331   9.512  0.2249  0.1554  0.4581
 3997SOL    HW113432   0.622   6.330   9.416  1.4335  1.1580  0.4483
 3997SOL    HW213433   0.555   6.399   9.532  0.8795  0.8247  0.3336
 3998SOL     OW13434   7.620   4.631  10.675 -0.0431 -0.0868  0.1732
 3998SOL    HW113435   7.600   4.553  10.725 -0.1091 -0.9210 -1.1178
 3998SOL    HW213436   7.662   4.599  10.595 -0.9020  1.1276 -0.8033
 3999SOL     OW13437   2.192   5.080   9.743  0.0723  0.8616  0.3715
 3999SOL    HW113438   2.135   5.079   9.819  0.1781 -1.4578  0.5109
 3999SOL    HW213439   2.270   5.031   9.770  1.0230  1.7604 -0.6041
 4000SOL     OW13440   3.354   5.287   9.599 -0.2654  0.2362 -0.0012
 4000SOL    HW113441   3.428   5.255   9.546  0.3163  0.1753  0.8340
 4000SOL    HW213442   3.395   5.328   9.675 -1.0915  0.5448  0.2859
 4001SOL     OW13443   7.535   6.660   9.741  0.2879 -0.1998 -0.0352
 4001SOL    HW113444   7.556   6.609   9.663 -0.9643 -0.7002 -0.0752
 4001SOL    HW213445   7.442   6.681   9.732  0.8099  2.4141 -0.1856
 4002SOL     OW13446   7.842   6.387  10.152 -0.4921  0.1813 -0.2402
 4002SOL    HW113447   7.906   6.381  10.223  0.4148 -0.7161 -1.0974
 4002SOL    HW213448   7.838   6.480  10.131 -1.3257  0.5634  1.4514
 4003SOL     OW13449   7.698   4.161  10.608  0.2585  0.1569 -0.6024
 4003SOL    HW113450   7.782   4.205  10.598  0.8501 -1.1578 -1.7143
 4003SOL    HW213451   7.716   4.070  10.585 -1.7159  0.0645 -2.0207
 4004SOL     OW13452   2.128   4.861  11.332 -0.5383  0.1033 -0.1633
 4004SOL    HW113453   2.134   4.859  11.237 -2.5983  0.7783 -0.3686
 4004SOL    HW213454   2.072   4.787  11.354 -0.6449  0.3556  0.4477
 4005SOL     OW13455   2.361   6.792  10.131  0.0920 -0.3551 -0.0751
 4005SOL    HW113456   2.330   6.726  10.193  0.0572 -2.1319 -1.8688
 4005SOL    HW213457   2.300   6.865  10.140  0.7102 -0.0963  2.6756
 4006SOL     OW13458   0.953   3.681   9.395  0.2079  0.0284  0.3219
 4006SOL    HW113459   0.865   3.647   9.409  0.5274 -0.1377  2.0883
 4006SOL    HW213460   1.002   3.658   9.474  1.2397  2.0109  0.3452
 4007SOL     OW13461   0.295   4.666  10.872 -0.1939  0.1741 -0.0200
 4007SOL    HW113462   0.291   4.721  10.793  0.5475  2.1193  1.2026
 4007SOL    HW213463   0.241   4.712  10.935  2.4928  0.9982  1.8652
 4008SOL     OW13464   1.525   6.514   9.262 -0.2114 -0.1504 -0.3838
 4008SOL    HW113465   1.495   6.424   9.248  0.5461 -0.5692  0.5799
 4008SOL    HW213466   1.564   6.539   9.179  0.1893 -0.9641 -0.4503
 4009SOL     OW13467   1.358   5.861  11.055  0.5702  1.1667 -0.5441
 4009SOL    HW113468   1.453   5.861  11.046  0.6550  0.9784  0.2643
 4009SOL    HW213469   1.341   5.801  11.127 -0.2975 -0.2957 -1.9189
 4010SOL     OW13470   7.581   5.059  11.352 -0.2626 -0.3006  0.1268
 4010SOL    HW113471   7.662   5.073  11.303 -1.0700  0.5230 -1.0274
 4010SOL    HW213472   7.565   5.142  11.397 -0.6454 -0.3373  0.0669
 4011SOL     OW13473   0.465   5.126  10.156 -0.3192 -0.2012 -0.1802
 4011SOL    HW113474   0.514   5.189  10.208  0.3522 -1.6304  0.9778
 4011SOL    HW213475   0.530   5.089  10.096 -0.3622 -0.8561  0.1704
 4012SOL     OW13476   0.180   7.197   9.986 -0.1505  0.1484  0.2028
 4012SOL    HW113477   0.158   7.109  10.014 -1.8636  0.4061 -0.2557
 4012SOL    HW213478   0.097   7.236   9.960  0.7100  1.5711 -0.5413
 4013SOL     OW13479   0.369   4.021   7.653 -0.6875  0.5670 -0.5842
 4013SOL    HW113480   0.385   3.927   7.656 -1.8474  0.3719  0.4641
 4013SOL    HW213481   0.394   4.047   7.565 -0.4942 -0.7564 -0.9417
 4014SOL     OW13482   7.652   3.795   9.980  0.4844 -0.3602 -0.3588
 4014SOL    HW113483   7.628   3.761  10.066  0.0398 -0.3174 -0.4661
 4014SOL    HW213484   7.574   3.839   9.948 -0.2181 -2.5362 -1.8697
 4015SOL     OW13485   7.413   5.078  10.323 -0.2926  0.5433 -0.0166
 4015SOL    HW113486   7.335   5.056  10.374  0.5857 -0.1305  1.0676
 4015SOL    HW213487   7.438   5.166  10.353 -0.1986  0.4478  0.1853
 4016SOL     OW13488   2.438   5.513  10.033 -0.2077  0.6020  0.4648
 4016SOL    HW113489   2.517   5.501   9.980 -0.7117  2.6754 -0.8929
 4016SOL    HW213490   2.366   5.488   9.974 -0.6500 -0.8212  1.5342
 4017SOL     OW13491   6.973   5.551   9.466 -0.2995  0.0870 -0.2103
 4017SOL    HW113492   7.067   5.566   9.477 -0.1029 -0.6684 -0.7877
 4017SOL    HW213493   6.959   5.461   9.494 -0.5966 -0.2767 -1.4505
 4018SOL     OW13494   0.424   3.656  11.657 -0.0813  0.4015  0.0675
 4018SOL    HW113495   0.463   3.597  11.593  0.6517  0.9339  0.0070
 4018SOL    HW213496   0.440   3.744  11.621  0.1572  0.6945  0.8849
 4019SOL     OW13497   1.080   3.099  11.412  0.0823  1.0844  0.1398
 4019SOL    HW113498   1.106   3.037  11.480 -2.3283  1.2877  1.3587
 4019SOL    HW213499   1.156   3.105  11.355  0.8504 -2.0431  0.6420
 4020SOL     OW13500   0.707   5.712   0.139 -0.0202 -0.3739 -0.0981
 4020SOL    HW113501   0.799   5.717   0.111  0.0927  0.8155  0.4395
 4020SOL    HW213502   0.702   5.770   0.215 -0.8541 -1.7315  0.9189
 4021SOL     OW13503   1.322   5.691   9.849  0.1350  0.9014  0.8722
 4021SOL    HW113504   1.275   5.774   9.853 -1.2389  0.1280  1.9518
 4021SOL    HW213505   1.345   5.673   9.940  0.8626  0.3428  0.5846
 4022SOL     OW13506   0.247   3.260  10.764 -0.3775 -0.0897  0.0901
 4022SOL    HW113507   0.197   3.179  10.774 -0.4075 -0.4068 -2.1282
 4022SOL    HW213508   0.327   3.246  10.814 -0.9947 -0.9193  0.8783
 4023SOL     OW13509   2.070   5.108   0.979  0.0103  0.0985 -0.2635
 4023SOL    HW113510   2.035   5.165   0.911 -0.8318 -1.3779 -1.1234
 4023SOL    HW213511   1.992   5.069   1.019  0.5868 -0.9800 -0.1777
 4024SOL     OW13512   2.090   4.177   0.529 -0.3424  0.3659 -0.1574
 4024SOL    HW113513   2.021   4.169   0.594 -1.7075 -1.0287 -1.6920
 4024SOL    HW213514   2.046   4.209   0.450  0.3009 -2.2146 -1.7096
 4025SOL     OW13515   1.802   4.186   0.055  0.2565  0.3730 -0.1408
 4025SOL    HW113516   1.766   4.121   0.115 -0.2742  2.1797  1.6090
 4025SOL    HW213517   1.894   4.192   0.079  0.2821  0.3378 -0.2303
 4026SOL     OW13518   1.018   4.994  11.693  0.1627 -0.1418 -0.2013
 4026SOL    HW113519   0.978   4.979  11.779  2.1117 -1.5474  0.5388
 4026SOL    HW213520   0.957   4.956  11.630 -0.3807 -0.8446  0.7330
 4027SOL     OW13521   0.732   4.544   0.578  0.2172  0.2553  0.5187
 4027SOL    HW113522   0.792   4.601   0.625 -0.8996  1.6192  0.3360
 4027SOL    HW213523   0.785   4.510   0.505  0.6398  1.8684  0.0282
 4028SOL     OW13524   7.169   3.967   1.150  0.6049  0.2093 -0.1218
 4028SOL    HW113525   7.253   3.982   1.194  0.3738  3.2744 -0.5081
 4028SOL    HW213526   7.172   4.022   1.072 -1.9401  0.8426  0.1352
 4029SOL     OW13527   0.933   6.045   1.321 -0.2407  0.2984  0.4062
 4029SOL    HW113528   1.014   5.999   1.296  0.6518  2.3933 -0.8115
 4029SOL    HW213529   0.865   6.002   1.269  0.0988 -1.2690  1.1829
 4030SOL     OW13530   0.521   3.392  11.716 -0.6940  0.0761  0.0537
 4030SOL    HW113531   0.472   3.364  11.639 -1.6734  2.2520 -0.1942
 4030SOL    HW213532   0.533   3.312  11.767 -1.3744 -1.1445 -1.6085
 4031SOL     OW13533   0.103   5.613  12.182  0.3195 -0.0750  0.9594
 4031SOL    HW113534   0.061   5.695  12.157  3.6079  1.6606  0.6741
 4031SOL    HW213535   0.108   5.562  12.101  0.7162  0.6405  0.5283
 4032SOL     OW13536   0.692   5.078  10.677 -0.2961 -0.1261 -0.6212
 4032SOL    HW113537   0.662   5.003  10.728  1.7400 -1.2718 -0.9735
 4032SOL    HW213538   0.666   5.057  10.587 -1.9075  0.8155 -0.3985
 4033SOL     OW13539   1.475   2.572  11.862  0.1816 -0.1562  0.0632
 4033SOL    HW113540   1.530   2.516  11.807 -0.5607  0.5021 -1.3940
 4033SOL    HW213541   1.502   2.661  11.840  0.3989  0.1141  1.3503
 4034SOL     OW13542   2.055   3.826  11.729 -0.2244 -0.4158 -0.2987
 4034SOL    HW113543   1.973   3.779  11.715 -0.5372  0.3456 -1.1457
 4034SOL    HW213544   2.059   3.840  11.824 -0.3737 -1.6639 -0.0977
 4035SOL     OW13545   7.222   4.822   0.465 -0.6000 -0.2979 -0.6277
 4035SOL    HW113546   7.260   4.870   0.538 -0.9408 -0.4602 -0.3389
 4035SOL    HW213547   7.233   4.880   0.390 -1.1548  0.3106 -0.2505
 4036SOL     OW13548   0.177   4.333  10.535 -0.3004  0.0266 -0.2525
 4036SOL    HW113549   0.181   4.348  10.629  1.5378 -0.5005 -0.1973
 4036SOL    HW213550   0.254   4.379  10.500 -1.5021  1.0649 -1.6456
 4037SOL     OW13551   7.408   3.744  10.443  0.1118 -0.3499  0.3900
 4037SOL    HW113552   7.402   3.839  10.435  1.8854 -0.3272 -1.7171
 4037SOL    HW213553   7.320   3.712  10.426 -0.2044  0.8799 -0.4027
 4038SOL     OW13554   7.912   4.676  11.228 -0.2579  0.1842  0.3742
 4038SOL    HW113555   7.967   4.646  11.300  0.7895  0.9258 -0.0912
 4038SOL    HW213556   7.882   4.763  11.255 -1.3234 -0.2595  0.6742
 4039SOL     OW13557   2.293   2.556   9.640  0.0106  0.1869 -0.2558
 4039SOL    HW113558   2.313   2.610   9.716 -0.9615 -0.2332  0.3145
 4039SOL    HW213559   2.355   2.483   9.645 -1.5752 -1.1500  1.5434
 4040SOL     OW13560   1.282   3.935  11.987  0.2952 -0.5407 -0.0813
 4040SOL    HW113561   1.239   3.850  11.989 -1.6573  0.4027  1.1584
 4040SOL    HW213562   1.235   3.988  12.051  2.0603  1.2128 -0.1039
 4041SOL     OW13563   2.619   4.790  12.236 -0.3903  0.0574 -0.3059
 4041SOL    HW113564   2.702   4.837  12.245 -0.0398  0.3714 -3.7657
 4041SOL    HW213565   2.552   4.859  12.235 -0.4712 -0.0097  0.2206
 4042SOL     OW13566   1.291   3.322  11.872 -0.7551  0.3332  0.0546
 4042SOL    HW113567   1.266   3.230  11.879 -1.0756  0.2026 -2.0959
 4042SOL    HW213568   1.259   3.362  11.953 -1.4702 -1.2507  0.5915
 4043SOL     OW13569   3.238   2.564  10.889 -0.3184 -0.2772 -0.3811
 4043SOL    HW113570   3.236   2.557  10.985  2.1237  1.6018 -0.0834
 4043SOL    HW213571   3.236   2.473  10.859 -0.9021 -0.9320  1.4379
 4044SOL     OW13572   0.869   5.064   0.021  0.0537 -0.0741 -0.1072
 4044SOL    HW113573   0.881   4.992  -0.040 -3.0679 -1.7109  0.9611
 4044SOL    HW213574   0.885   5.025   0.107 -0.9965  0.6677  0.4471
 4045SOL     OW13575   1.676   3.276  12.159  0.0388  0.3220  0.1540
 4045SOL    HW113576   1.723   3.305  12.237  0.2040  2.2554 -0.6242
 4045SOL    HW213577   1.684   3.180  12.161  0.1423  0.3288  2.4134
 4046SOL     OW13578   0.820   4.984  12.130 -0.1987 -0.1964 -0.1155
 4046SOL    HW113579   0.768   4.931  12.192  2.3639 -0.5970  1.8424
 4046SOL    HW213580   0.877   4.921  12.087  1.3909  0.6274  0.6831
 4047SOL     OW13581   1.329   3.031   0.798 -0.0535  0.0182 -0.1584
 4047SOL    HW113582   1.372   3.110   0.766 -1.0133  0.8963  0.6959
 4047SOL    HW213583   1.260   3.013   0.734  0.2787 -0.2471 -0.4490
 4048SOL     OW13584   1.513   4.424   0.937 -0.4777  0.5824 -0.1428
 4048SOL    HW113585   1.486   4.472   1.015 -1.1479 -0.0582  0.0352
 4048SOL    HW213586   1.468   4.467   0.865  0.8924  1.7828 -0.3260
 4049SOL     OW13587   1.927   3.090  11.501  0.4286  0.5799  0.3063
 4049SOL    HW113588   1.912   3.082  11.595  0.3215 -0.7849  0.1994
 4049SOL    HW213589   1.866   3.157  11.472 -0.2184  0.3396  1.0656
 4050SOL     OW13590   1.540   5.006  11.701  0.3084  0.5368 -0.1153
 4050SOL    HW113591   1.541   5.058  11.621 -0.6486  1.1765  0.2651
 4050SOL    HW213592   1.448   5.002  11.726 -0.0058 -3.1108 -1.2121
 4051SOL     OW13593   0.920   3.120  12.188 -0.2155 -0.6169  0.7082
 4051SOL    HW113594   0.926   3.039  12.138 -0.8948 -0.6526  0.6855
 4051SOL    HW213595   0.827   3.136  12.198 -0.0887  0.3562  0.4028
 4052SOL     OW13596   0.640   4.649  11.236  0.0042 -0.1521  0.1769
 4052SOL    HW113597   0.715   4.590  11.230  0.1980  0.1470 -0.3694
 4052SOL    HW213598   0.570   4.605  11.188  0.0751 -0.0510 -0.0190
 4053SOL     OW13599   7.715   6.482   0.537 -0.1476  0.4276 -0.1686
 4053SOL    HW113600   7.726   6.440   0.622  0.8008  0.2376 -0.3650
 4053SOL    HW213601   7.772   6.431   0.478  2.3009  2.8497 -0.1073
 4054SOL     OW13602   2.107   4.908   0.712  0.6503 -0.0259  0.0718
 4054SOL    HW113603   2.172   4.858   0.762  0.4867 -0.1386  0.1735
 4054SOL    HW213604   2.124   4.999   0.735 -0.9513 -0.2055  2.2144
 4055SOL     OW13605   1.476   2.949  12.299  0.0496  0.2590 -0.6012
 4055SOL    HW113606   1.557   2.921  12.256  1.1034  0.0070  1.4197
 4055SOL    HW213607   1.468   3.042  12.277  1.0027  0.3399 -0.6583
 4056SOL     OW13608   1.255   5.096  11.138  0.1169  0.3896 -0.0319
 4056SOL    HW113609   1.273   5.182  11.176 -0.2382  0.2248  0.5247
 4056SOL    HW213610   1.201   5.052  11.204 -1.2492  0.4156 -1.0878
 4057SOL     OW13611   2.151   5.107  10.794 -0.0989 -0.4169 -0.3796
 4057SOL    HW113612   2.244   5.123  10.811 -0.0276 -1.0497 -0.1216
 4057SOL    HW213613   2.118   5.073  10.877 -0.5129 -0.3880 -0.5325
 4058SOL     OW13614   1.576   5.115  11.448 -0.8452  0.1153  0.2993
 4058SOL    HW113615   1.556   5.209  11.453  0.7767  0.4818  0.4615
 4058SOL    HW213616   1.604   5.102  11.358 -0.2637 -0.0328  0.4981
 4059SOL     OW13617   1.006   4.654  11.747 -0.3877 -0.3929  0.1118
 4059SOL    HW113618   1.052   4.670  11.665 -1.4023 -0.2534 -0.4438
 4059SOL    HW213619   0.928   4.605  11.722  0.1430 -1.8411  1.2081
 4060SOL     OW13620   0.400   5.717   9.451  0.4942  0.2936 -0.3854
 4060SOL    HW113621   0.476   5.722   9.509  1.0887  0.6722 -1.1895
 4060SOL    HW213622   0.332   5.675   9.504  1.6181 -1.1429 -0.0343
 4061SOL     OW13623   0.137   4.844   1.244 -0.0453 -0.3537 -0.0291
 4061SOL    HW113624   0.106   4.859   1.155 -0.1302 -0.1440  0.0355
 4061SOL    HW213625   0.097   4.761   1.270 -0.7968  0.0524  0.1607
 4062SOL     OW13626   0.501   4.798   0.616 -0.4404  0.3495  0.1296
 4062SOL    HW113627   0.434   4.803   0.548 -1.2975  1.8840  1.0327
 4062SOL    HW213628   0.527   4.705   0.617 -0.5981  0.2270 -2.0568
 4063SOL     OW13629   7.030   4.476  12.259 -0.0258  0.2272  0.0524
 4063SOL    HW113630   7.111   4.440  12.223  0.0824  0.6141 -0.0928
 4063SOL    HW213631   7.060   4.533  12.330 -0.2119 -0.1801  0.4609
 4064SOL     OW13632   6.466   3.804  10.242 -0.2706 -0.2752  0.1094
 4064SOL    HW113633   6.483   3.740  10.173 -0.1162 -1.4819  1.2224
 4064SOL    HW213634   6.537   3.868  10.233 -0.4801 -0.1946 -1.0805
 4065SOL     OW13635   0.776   5.932   1.099 -0.1103 -0.1050 -0.0607
 4065SOL    HW113636   0.723   5.853   1.091  0.4541 -0.3163 -2.1549
 4065SOL    HW213637   0.718   6.002   1.070  0.6698 -0.3422 -2.4000
 4066SOL     OW13638   3.067   5.716   0.599 -0.6522 -0.5686 -0.4363
 4066SOL    HW113639   3.136   5.783   0.593 -1.3664  0.5427  2.3681
 4066SOL    HW213640   3.001   5.745   0.535  1.5368 -1.9560 -3.5952
 4067SOL     OW13641   7.001   3.718  10.645  0.6407 -0.1809 -0.7166
 4067SOL    HW113642   7.011   3.803  10.688  1.0717 -1.1484  1.2241
 4067SOL    HW213643   7.070   3.663  10.684 -1.8031 -2.4276  0.8466
 4068SOL     OW13644   0.248   4.143  11.635  0.0282 -0.2174  0.1253
 4068SOL    HW113645   0.333   4.169  11.600  0.1787  0.0017  0.6390
 4068SOL    HW213646   0.267   4.117  11.725 -0.6176  0.9156  0.6083
 4069SOL     OW13647   6.292   5.797   9.965  0.1211 -0.1987 -0.0444
 4069SOL    HW113648   6.296   5.818  10.058 -2.0064  0.8388 -0.1175
 4069SOL    HW213649   6.261   5.707   9.962 -2.8966  0.7273  0.3350
 4070SOL     OW13650   1.670   3.387  11.621 -0.9749 -0.6930  0.1609
 4070SOL    HW113651   1.726   3.334  11.678 -0.9343 -0.1172  0.6674
 4070SOL    HW213652   1.623   3.445  11.681  1.5309  2.3623 -0.5223
 4071SOL     OW13653   0.128   5.246  10.340 -0.4914 -0.0736  0.4662
 4071SOL    HW113654   0.128   5.315  10.406  1.7191 -0.7198  1.2356
 4071SOL    HW213655   0.090   5.170  10.384 -0.7714  0.0070  0.3674
 4072SOL     OW13656   0.147   3.791  11.750 -0.2285  0.1141 -0.1575
 4072SOL    HW113657   0.212   3.848  11.790 -1.0720  0.8966  0.1037
 4072SOL    HW213658   0.066   3.841  11.750 -0.7229 -0.6432 -0.9788
 4073SOL     OW13659   0.114   5.331  11.327  0.2897  0.0120  0.2696
 4073SOL    HW113660   0.045   5.279  11.286  0.7751  0.5849 -1.3594
 4073SOL    HW213661   0.072   5.414  11.349  0.0996 -0.1913  0.6888
 4074SOL     OW13662   0.426   5.113   9.841 -0.2373  0.0997 -0.8379
 4074SOL    HW113663   0.510   5.118   9.887  0.6567  1.4613 -2.5033
 4074SOL    HW213664   0.361   5.131   9.909  0.5200 -3.2975  1.0261
 4075SOL     OW13665   1.338   2.631   0.137 -0.2813  0.1914  0.2259
 4075SOL    HW113666   1.364   2.559   0.195 -0.8309  0.2701  0.5692
 4075SOL    HW213667   1.409   2.635   0.072 -0.4806 -0.9874 -0.0983
 4076SOL     OW13668   0.017   3.646   9.544 -0.4325 -0.2831  0.2315
 4076SOL    HW113669   0.027   3.560   9.585  2.7672 -0.7698 -1.2945
 4076SOL    HW213670   0.048   3.707   9.611  0.9380 -0.7095  0.0183
 4077SOL     OW13671   1.457   3.650   0.124 -0.5427  0.2270 -0.3266
 4077SOL    HW113672   1.442   3.708   0.198 -0.5752 -0.5109  0.2623
 4077SOL    HW213673   1.512   3.700   0.065 -0.2672  0.7253  0.3363
 4078SOL     OW13674   1.982   5.555   0.975  0.1753 -0.0791  0.2957
 4078SOL    HW113675   1.922   5.628   0.989 -0.4924 -0.2058 -1.6100
 4078SOL    HW213676   2.061   5.579   1.024  0.4307  2.4978 -1.2251
 4079SOL     OW13677   3.259   4.213   2.757 -0.1334 -0.2723 -0.4026
 4079SOL    HW113678   3.196   4.142   2.744 -0.0674 -0.5055  0.4923
 4079SOL    HW213679   3.212   4.291   2.727 -1.1175 -0.3401  0.8623
 4080SOL     OW13680   3.108   2.847  11.485  0.0029 -0.4403 -0.2037
 4080SOL    HW113681   3.199   2.873  11.499 -0.2401 -0.3118  1.3195
 4080SOL    HW213682   3.091   2.781  11.552 -0.8750 -0.8584 -0.8184
 4081SOL     OW13683   0.404   5.145  11.044  0.2689  0.4277  0.0437
 4081SOL    HW113684   0.337   5.092  11.086  0.9596 -0.8478 -0.4082
 4081SOL    HW213685   0.408   5.112  10.954  1.9265  0.0151  0.2343
 4082SOL     OW13686   3.109   4.939  12.327  0.2142  0.6805 -0.0174
 4082SOL    HW113687   3.155   4.874  12.381 -0.4211  1.2098  1.1986
 4082SOL    HW213688   3.174   5.008  12.314  0.4285  0.4707 -0.0806
 4083SOL     OW13689   2.034   4.685   0.516 -0.0588 -0.0484  0.1845
 4083SOL    HW113690   2.072   4.760   0.561 -0.5493  0.3618 -0.0804
 4083SOL    HW213691   1.985   4.722   0.443 -0.1080 -0.6407 -0.0910
 4084SOL     OW13692   0.222   5.956  11.931 -0.0375  0.0811 -0.6710
 4084SOL    HW113693   0.131   5.927  11.943 -0.4963  1.0006 -1.7027
 4084SOL    HW213694   0.274   5.878  11.948 -0.9029 -0.0968  1.4661
 4085SOL     OW13695   1.363   4.242  12.346 -0.0854 -0.2962  0.2104
 4085SOL    HW113696   1.420   4.242  12.424 -1.3434 -0.2768  1.1648
 4085SOL    HW213697   1.275   4.229  12.381 -0.7349  0.1489 -1.1909
 4086SOL     OW13698   1.520   4.562   0.058  0.0507  0.1443 -0.1230
 4086SOL    HW113699   1.601   4.514   0.042  0.4309  0.7650 -0.0863
 4086SOL    HW213700   1.499   4.544   0.150 -0.8896 -1.5558 -0.6473
 4087SOL     OW13701   0.392   5.354  11.327 -0.0952 -0.4195 -0.2108
 4087SOL    HW113702   0.301   5.341  11.355 -0.7430  0.9491 -1.5386
 4087SOL    HW213703   0.441   5.286  11.374 -1.6288 -0.5499  1.3277
 4088SOL     OW13704   7.188   4.389   0.855  0.2518  0.5528  0.1832
 4088SOL    HW113705   7.097   4.410   0.832  0.2194  0.0050 -0.2139
 4088SOL    HW213706   7.240   4.444   0.797  0.1799  1.1343  0.6616
 4089SOL     OW13707   1.320   4.247  11.794  0.4180 -0.1727 -0.1387
 4089SOL    HW113708   1.368   4.174  11.834 -0.7533 -0.8723  0.0278
 4089SOL    HW213709   1.349   4.249  11.703  0.0699 -1.1913 -0.2781
 4090SOL     OW13710   0.699   6.024   9.446  0.1633  0.5653 -0.4213
 4090SOL    HW113711   0.755   6.015   9.369 -0.7190  3.1981 -1.4880
 4090SOL    HW213712   0.620   6.068   9.413 -1.1387 -0.1110  1.6192
 4091SOL     OW13713   2.263   4.706  10.572  0.0992 -0.2508 -0.3550
 4091SOL    HW113714   2.230   4.791  10.543  0.9836  0.3100  0.2143
 4091SOL    HW213715   2.188   4.663  10.611 -0.4389  0.1327 -0.9386
 4092SOL     OW13716   2.310   3.695  11.723 -0.2814 -0.4333  0.2214
 4092SOL    HW113717   2.349   3.623  11.674  0.1537  1.3579 -2.2554
 4092SOL    HW213718   2.226   3.710  11.680  0.3516  1.5377 -0.4301
 4093SOL     OW13719   1.963   5.006  11.758 -0.1659 -0.6380  0.1627
 4093SOL    HW113720   1.966   5.098  11.730  0.3022 -0.2727  1.3738
 4093SOL    HW213721   2.015   4.960  11.693  1.0377  0.2184  0.4774
 4094SOL     OW13722   1.194   2.356  11.354  0.5282  0.1109 -0.1550
 4094SOL    HW113723   1.257   2.334  11.423  1.7746  1.0558 -0.9435
 4094SOL    HW213724   1.248   2.390  11.283 -0.7770 -0.2781 -1.3774
 4095SOL     OW13725   0.943   5.425  11.784  0.4062 -0.3299  0.3249
 4095SOL    HW113726   0.902   5.507  11.810  0.8577  0.2202 -0.6728
 4095SOL    HW213727   0.945   5.427  11.689  3.2951 -0.0257  0.2943
 4096SOL     OW13728   0.915   3.956  11.673 -0.1606 -0.0129 -0.1618
 4096SOL    HW113729   0.925   4.023  11.740  0.2765 -1.2577  1.0573
 4096SOL    HW213730   1.002   3.945  11.636 -0.0106 -0.6146  0.3547
 4097SOL     OW13731   2.285   4.972   1.063 -0.3950  0.2297 -0.2391
 4097SOL    HW113732   2.204   5.015   1.036 -0.3764  0.8196  0.5899
 4097SOL    HW213733   2.347   5.044   1.077  0.2293 -0.2043 -0.7178
 4098SOL     OW13734   7.949   4.283   9.957 -0.3828  0.4133 -0.2062
 4098SOL    HW113735   8.016   4.351   9.969 -0.2343  0.2311  0.0179
 4098SOL    HW213736   7.973   4.240   9.875  1.6616 -1.7273  1.3803
 4099SOL     OW13737   7.289   2.919   0.947 -0.0991  0.4324  0.1972
 4099SOL    HW113738   7.332   2.940   1.029 -1.1062  2.6274  0.2471
 4099SOL    HW213739   7.309   2.993   0.889 -0.3849 -0.4900 -1.1431
 4100SOL     OW13740   1.459   6.255   1.426  0.5955 -0.1259  0.9899
 4100SOL    HW113741   1.415   6.244   1.511 -1.8982  0.6823 -0.0895
 4100SOL    HW213742   1.403   6.207   1.365  2.4038 -0.7839 -0.2267
 4101SOL     OW13743   2.529   4.138   0.120 -0.1736  0.6020 -0.3842
 4101SOL    HW113744   2.527   4.150   0.025  1.4476  0.3552 -0.4834
 4101SOL    HW213745   2.546   4.044   0.132  1.4455  0.9173  0.0811
 4102SOL     OW13746   6.951   3.643   0.050  0.0638  0.2910 -0.3172
 4102SOL    HW113747   7.034   3.689   0.051  0.5279 -0.4957 -0.8502
 4102SOL    HW213748   6.892   3.696   0.104  1.4793 -0.2185  1.8458
 4103SOL     OW13749   2.106   3.432  12.202 -0.5123  0.5535  0.0678
 4103SOL    HW113750   2.194   3.445  12.166 -0.6393  0.8883 -0.1275
 4103SOL    HW213751   2.071   3.356  12.156 -0.0533 -0.0388  0.6652
 4104SOL     OW13752   1.358   4.470  11.061  0.9439 -0.1893 -0.1970
 4104SOL    HW113753   1.291   4.498  10.998  0.3761 -0.6162  0.2140
 4104SOL    HW213754   1.361   4.375  11.052 -1.3395 -0.6399  2.5508
 4105SOL     OW13755   1.154   4.744  11.483  0.1327 -0.6727 -0.4669
 4105SOL    HW113756   1.160   4.838  11.461  1.0299 -0.4569  0.6448
 4105SOL    HW213757   1.181   4.700  11.402 -0.4506  0.0104 -1.0588
 4106SOL     OW13758   1.338   5.864   0.636 -0.1685 -0.3359 -0.2593
 4106SOL    HW113759   1.287   5.787   0.661 -2.5156  1.1848 -0.0816
 4106SOL    HW213760   1.273   5.927   0.606  1.2999  2.7219  2.4762
 4107SOL     OW13761   7.909   4.519  12.021 -0.2673  0.0466  0.3616
 4107SOL    HW113762   7.965   4.542  12.095  1.1663 -1.4158 -0.2000
 4107SOL    HW213763   7.893   4.602  11.976  0.7939  0.6253  1.0052
 4108SOL     OW13764   1.144   3.290   0.432 -0.3370  0.2560 -0.9018
 4108SOL    HW113765   1.135   3.213   0.487  0.4992  0.2099 -0.8154
 4108SOL    HW213766   1.172   3.359   0.491  0.8806  0.1278 -1.2990
 4109SOL     OW13767   0.025   7.438   0.857  0.5380 -0.0606  0.1181
 4109SOL    HW113768   0.080   7.417   0.781  2.3961  0.3330  1.2863
 4109SOL    HW213769   0.065   7.516   0.895 -2.2962  1.7218 -0.3049
 4110SOL     OW13770   1.217   5.372  11.829 -0.1190  0.1365 -0.3457
 4110SOL    HW113771   1.265   5.452  11.853  0.0895  0.1496 -0.8002
 4110SOL    HW213772   1.125   5.399  11.830 -0.1130  0.1381  0.4264
 4111SOL     OW13773   7.894   6.928  10.438 -0.4940  0.3087 -0.1869
 4111SOL    HW113774   7.974   6.877  10.453  0.0969  0.6105 -2.0211
 4111SOL    HW213775   7.850   6.930  10.523  0.5746 -1.3537  0.4538
 4112SOL     OW13776   0.451   4.565  11.074 -0.2849  0.2582 -0.2815
 4112SOL    HW113777   0.439   4.471  11.089  1.6306 -0.0949 -0.7102
 4112SOL    HW213778   0.380   4.589  11.014 -0.6705 -0.9623 -0.3364
 4113SOL     OW13779   7.618   4.140   0.673  0.1648 -0.5822 -0.1471
 4113SOL    HW113780   7.581   4.167   0.589  0.1678 -1.1764 -0.3479
 4113SOL    HW213781   7.543   4.107   0.722  0.1563 -0.1937  0.0996
 4114SOL     OW13782   1.226   4.524  11.322  0.1501 -0.0471  0.0412
 4114SOL    HW113783   1.288   4.525  11.249  0.4769 -0.3788  0.3111
 4114SOL    HW213784   1.140   4.519  11.280  0.3078  0.3311 -0.3328
 4115SOL     OW13785   3.248   3.442  12.420  0.1302  0.0202 -0.5450
 4115SOL    HW113786   3.323   3.496  12.395 -0.5334  0.5418 -1.4919
 4115SOL    HW213787   3.181   3.464  12.355 -0.7282 -0.6805  0.0906
 4116SOL     OW13788   2.132   3.562  11.507 -0.0108  0.1183 -0.1950
 4116SOL    HW113789   2.048   3.603  11.531 -1.0030 -1.7197 -0.3128
 4116SOL    HW213790   2.144   3.583  11.414 -0.6327 -0.0332 -0.3160
 4117SOL     OW13791   0.659   5.585   0.776  0.1418 -0.2666 -0.1985
 4117SOL    HW113792   0.579   5.540   0.753  1.7087 -1.9069 -2.9030
 4117SOL    HW213793   0.716   5.517   0.813  0.8282  0.5322  0.2640
 4118SOL     OW13794   0.749   6.356  10.519 -0.1241 -0.3737  0.3542
 4118SOL    HW113795   0.710   6.276  10.483 -1.6339  0.9943 -1.3076
 4118SOL    HW213796   0.842   6.349  10.500 -0.5714 -0.6856 -2.1029
 4119SOL     OW13797   0.713   3.433  11.383  0.1356 -0.6171  0.0150
 4119SOL    HW113798   0.784   3.426  11.447 -0.1040  0.9003  0.4906
 4119SOL    HW213799   0.682   3.343  11.372  1.0345 -1.0823  1.0511
 4120SOL     OW13800   2.883   5.760   0.286  0.0503  0.6059 -0.2862
 4120SOL    HW113801   2.977   5.768   0.300  0.4744 -1.9077 -1.2310
 4120SOL    HW213802   2.871   5.771   0.192 -0.1216 -1.9849 -0.6475
 4121SOL     OW13803   2.350   4.802  11.840  0.1131 -0.0400  0.5736
 4121SOL    HW113804   2.419   4.792  11.775  0.5814  1.4728  0.8059
 4121SOL    HW213805   2.272   4.824  11.789  0.3155  0.4466  0.4762
 4122SOL     OW13806   7.065   4.623  12.473 -0.4215 -0.2801  0.0309
 4122SOL    HW113807   7.077   4.557  12.542 -3.2761 -1.6765 -0.6528
 4122SOL    HW213808   7.078   4.707  12.517 -1.1718 -1.1617  2.0522
 4123SOL     OW13809   0.498   4.386   9.674  0.6535 -0.9000  0.4530
 4123SOL    HW113810   0.472   4.367   9.584  0.9366  0.5077  0.0527
 4123SOL    HW213811   0.479   4.306   9.722 -0.6350 -1.2710 -0.6210
 4124SOL     OW13812   1.885   4.359  11.510  0.3350  0.0368  0.1089
 4124SOL    HW113813   1.845   4.428  11.562 -0.2319 -0.5345  0.4420
 4124SOL    HW213814   1.833   4.281  11.528  0.6825 -0.3808 -0.6174
 4125SOL     OW13815   1.910   3.898   0.381  0.0290 -0.3529 -0.1339
 4125SOL    HW113816   1.885   3.975   0.431  0.5700 -1.7884  2.5115
 4125SOL    HW213817   1.979   3.928   0.322  1.1704  0.9449  1.7863
 4126SOL     OW13818   1.106   6.770   0.054  0.2605  0.0905 -0.1677
 4126SOL    HW113819   1.116   6.864   0.037  1.5582  0.2204  1.1514
 4126SOL    HW213820   1.080   6.765   0.146  0.3483 -0.8602 -0.1815
 4127SOL     OW13821   3.059   4.632   0.362 -0.7461 -0.0637  0.3163
 4127SOL    HW113822   3.135   4.671   0.320 -1.3544  2.3791  1.2831
 4127SOL    HW213823   3.080   4.635   0.456 -1.9548  0.5395  0.5847
 4128SOL     OW13824   2.817   3.518  11.465  0.4428 -0.4388 -0.6628
 4128SOL    HW113825   2.893   3.576  11.473 -0.3659  0.3562  2.8861
 4128SOL    HW213826   2.759   3.562  11.402  1.7667  0.2409 -1.4445
 4129SOL     OW13827   0.019   5.431   0.222 -0.3172 -0.0358 -0.2672
 4129SOL    HW113828   0.102   5.420   0.267 -0.5281  1.6334  0.6097
 4129SOL    HW213829   0.042   5.458   0.133  0.0656 -1.3123 -0.5827
 4130SOL     OW13830   1.766   4.127   0.630 -0.4748 -0.0414  0.2910
 4130SOL    HW113831   1.725   4.213   0.640  0.5921  0.4045  1.0423
 4130SOL    HW213832   1.838   4.127   0.693 -0.0950 -1.2681 -0.1088
 4131SOL     OW13833   0.581   4.097  11.624 -0.2811  0.2384  0.2697
 4131SOL    HW113834   0.592   4.058  11.711  2.3154 -0.5712 -0.3506
 4131SOL    HW213835   0.555   4.024  11.568 -2.2918  0.8216  0.3558
 4132SOL     OW13836   0.665   4.129  10.601  0.3733 -0.6672 -0.1213
 4132SOL    HW113837   0.648   4.209  10.651  0.4509  0.2258 -1.4736
 4132SOL    HW213838   0.757   4.108  10.620  0.8433  0.5021 -0.9986
 4133SOL     OW13839   1.047   3.028   0.956 -0.1563  0.0946  0.0907
 4133SOL    HW113840   1.104   2.966   1.002  0.0391 -0.9232 -1.4266
 4133SOL    HW213841   1.032   2.987   0.871 -3.4944  0.1069  0.5512
 4134SOL     OW13842   1.648   3.636   0.519 -0.5792  0.0141 -0.3260
 4134SOL    HW113843   1.739   3.617   0.498 -0.8309 -0.8953 -0.6955
 4134SOL    HW213844   1.648   3.724   0.555  0.3928  0.1647 -0.6777
 4135SOL     OW13845   0.388   4.778  12.056 -0.1564  0.2241  0.1253
 4135SOL    HW113846   0.387   4.780  12.151  1.0132  1.4524  0.1581
 4135SOL    HW213847   0.422   4.691  12.033  2.1103  0.8116  0.9456
 4136SOL     OW13848   0.828   3.848   0.101  0.6220 -0.1318 -0.2110
 4136SOL    HW113849   0.768   3.918   0.126  0.7090  0.2832 -1.0991
 4136SOL    HW213850   0.782   3.767   0.121  0.5944  0.1739  1.0034
 4137SOL     OW13851   7.446   6.101  11.738 -0.6913  0.0074 -0.2889
 4137SOL    HW113852   7.359   6.108  11.777 -1.7246 -1.7679 -2.0362
 4137SOL    HW213853   7.429   6.080  11.646  1.5915 -1.0339 -0.5477
 4138SOL     OW13854   0.360   3.719  10.997 -0.0165  0.4012 -0.6188
 4138SOL    HW113855   0.363   3.741  10.903 -0.8393 -0.6092 -0.9032
 4138SOL    HW213856   0.400   3.633  11.002  0.4170  0.6365  0.0335
 4139SOL     OW13857   0.793   4.523  11.712  0.7811 -0.2541  0.0023
 4139SOL    HW113858   0.740   4.496  11.638  1.4339  0.4620 -0.7430
 4139SOL    HW213859   0.757   4.607  11.739 -1.1506 -1.6897  2.2219
 4140SOL     OW13860   1.408   4.465  12.200  0.0789 -0.0101 -0.1282
 4140SOL    HW113861   1.403   4.391  12.260 -0.4913 -1.2101 -1.5999
 4140SOL    HW213862   1.477   4.521  12.236  2.0904 -2.3445 -0.1482
 4141SOL     OW13863   1.138   5.186   0.077 -0.1100  0.0319 -0.2924
 4141SOL    HW113864   1.047   5.176   0.052  0.0333  0.5833 -1.0786
 4141SOL    HW213865   1.140   5.168   0.171 -0.7028 -1.7996 -0.6093
 4142SOL     OW13866   2.874   3.720  12.294  0.1378  0.7360 -0.3263
 4142SOL    HW113867   2.870   3.787  12.226  0.0532  0.7983 -0.2602
 4142SOL    HW213868   2.944   3.749  12.353  0.6608  0.3425 -0.7446
 4143SOL     OW13869   0.803   4.018  10.022  0.0025 -0.2388  0.0408
 4143SOL    HW113870   0.730   3.959  10.003 -0.2756  0.1490 -0.0955
 4143SOL    HW213871   0.832   3.992  10.110  0.5691 -1.2860 -0.4397
 4144SOL     OW13872   7.114   4.391   0.130 -0.5641 -0.8756 -0.3188
 4144SOL    HW113873   7.146   4.432   0.210 -1.5955 -1.3703  0.3625
 4144SOL    HW213874   7.191   4.349   0.092  0.2365  0.5381 -0.3373
 4145SOL     OW13875   0.364   3.941   0.201 -0.2170  0.7037  0.5934
 4145SOL    HW113876   0.378   3.883   0.276  2.1393  0.1146 -0.2247
 4145SOL    HW213877   0.424   3.910   0.135 -1.4930  1.8681 -1.2131
 4146SOL     OW13878   1.728   4.699  10.256  0.4197 -0.9334 -0.2295
 4146SOL    HW113879   1.667   4.730  10.322 -0.3692 -3.4716  0.3513
 4146SOL    HW213880   1.725   4.765  10.187 -1.7962 -0.1952  0.5082
 4147SOL     OW13881   1.765   4.927   2.551  0.2205  0.3388  0.0669
 4147SOL    HW113882   1.684   4.926   2.602  0.0268 -0.2038 -0.2337
 4147SOL    HW213883   1.761   5.009   2.502  2.0813  2.7182  3.4608
 4148SOL     OW13884   7.700   4.761   0.507  0.3348 -0.2821 -0.3122
 4148SOL    HW113885   7.642   4.834   0.531  0.8553  0.5727 -1.5399
 4148SOL    HW213886   7.784   4.784   0.545  0.7723  0.3209 -1.5810
 4149SOL     OW13887   2.248   4.224  12.394 -0.3158  0.2326  0.0210
 4149SOL    HW113888   2.343   4.226  12.385 -0.3997  2.0084 -0.9283
 4149SOL    HW213889   2.225   4.132  12.386  1.2264 -0.0908 -1.0621
 4150SOL     OW13890   0.205   5.555  11.880 -0.1324  0.5705  0.3941
 4150SOL    HW113891   0.254   5.498  11.821 -0.0918  1.3941 -0.4006
 4150SOL    HW213892   0.114   5.527  11.869 -0.2584  1.3584 -0.8634
 4151SOL     OW13893   2.005   3.016  12.417  0.1393  0.2384  0.0946
 4151SOL    HW113894   2.025   3.067  12.495  1.7263  0.0701 -0.1706
 4151SOL    HW213895   1.921   2.974  12.436 -0.6246  2.0001  0.7672
 4152SOL     OW13896   7.251   4.371  12.125 -0.3398  0.3079  0.1040
 4152SOL    HW113897   7.224   4.373  12.033  1.9400  0.1313 -0.6398
 4152SOL    HW213898   7.347   4.373  12.121 -0.1256 -1.6029  2.4025
 4153SOL     OW13899   2.156   3.978  12.406 -0.6411  0.2294  0.1262
 4153SOL    HW113900   2.180   3.896  12.450  1.3039  0.7389  0.1157
 4153SOL    HW213901   2.096   3.951  12.337  1.1483 -1.4597 -0.9031
 4154SOL     OW13902   1.901   4.845  10.715  0.0629 -0.5356 -0.3978
 4154SOL    HW113903   1.818   4.842  10.668  0.6875 -2.1594 -1.4770
 4154SOL    HW213904   1.876   4.859  10.807 -1.5426 -2.5100 -0.4551
 4155SOL     OW13905   2.638   2.554   0.452  0.0649  0.7672 -0.6592
 4155SOL    HW113906   2.710   2.615   0.465  1.0011 -0.2232 -1.0542
 4155SOL    HW213907   2.612   2.528   0.541  1.2490 -0.0514 -0.5297
 4156SOL     OW13908   1.291   5.321  10.560 -0.0162 -0.2409  0.2457
 4156SOL    HW113909   1.210   5.295  10.604  0.9631 -1.2232  1.5157
 4156SOL    HW213910   1.294   5.416  10.570 -0.9702 -0.1973  0.2393
 4157SOL     OW13911   7.549   4.409  10.803 -0.0873  0.4978  0.0344
 4157SOL    HW113912   7.462   4.417  10.763  0.7784 -0.3656 -2.1757
 4157SOL    HW213913   7.556   4.316  10.826 -0.1063  0.7596  1.1320
 4158SOL     OW13914   0.090   4.296   0.163 -0.3960 -0.3670  0.3506
 4158SOL    HW113915   0.176   4.254   0.166 -0.2742 -0.0839  0.8384
 4158SOL    HW213916   0.102   4.370   0.104 -0.3736 -0.4759  0.2166
 4159SOL     OW13917   1.955   4.392   0.420  0.1619  0.6061  0.0848
 4159SOL    HW113918   1.970   4.468   0.475  1.1018 -0.0870  0.8178
 4159SOL    HW213919   2.024   4.396   0.353 -0.4210  0.9499 -0.5109
 4160SOL     OW13920   3.264   3.645  11.990 -0.5067 -0.2564 -0.2113
 4160SOL    HW113921   3.234   3.684  11.907 -1.9842 -0.6427  0.1210
 4160SOL    HW213922   3.273   3.552  11.971 -0.9378 -0.3599  0.0878
 4161SOL     OW13923   0.544   5.246  11.582 -0.1571  0.2024  0.0719
 4161SOL    HW113924   0.627   5.247  11.535  0.6036  0.1131  1.3519
 4161SOL    HW213925   0.518   5.154  11.583  1.0337 -0.1750  1.7819
 4162SOL     OW13926   2.133   5.606  11.488  0.4061 -0.4688  0.2942
 4162SOL    HW113927   2.123   5.585  11.581  1.5631 -1.4364  0.2328
 4162SOL    HW213928   2.188   5.535  11.453  0.6743  0.3104 -0.9436
 4163SOL     OW13929   1.474   6.982   1.086  0.4633 -0.3626 -0.0894
 4163SOL    HW113930   1.500   6.892   1.066 -0.7022 -0.7894  0.2817
 4163SOL    HW213931   1.386   6.990   1.050  1.1468  1.1640 -1.6167
 4164SOL     OW13932   7.229   5.101   1.065 -0.2486 -0.3609  0.7999
 4164SOL    HW113933   7.215   5.188   1.102 -0.6581 -0.1578  0.1871
 4164SOL    HW213934   7.319   5.103   1.032  0.3399 -0.7494  2.3063
 4165SOL     OW13935   7.877   6.869   0.583 -0.0090  0.1489  0.1702
 4165SOL    HW113936   7.786   6.843   0.592 -0.3703  0.9889 -0.9214
 4165SOL    HW213937   7.879   6.961   0.611  0.5919  0.0224  0.5843
 4166SOL     OW13938   0.836   5.231   1.389  0.4833  0.4371  0.7347
 4166SOL    HW113939   0.927   5.247   1.363  0.2352  1.1561  0.2873
 4166SOL    HW213940   0.806   5.314   1.425 -0.5753  0.7983 -0.8657
 4167SOL     OW13941   0.991   7.529   1.159 -0.6653  0.0776 -0.2317
 4167SOL    HW113942   1.037   7.509   1.240 -0.5121  0.4834 -0.2138
 4167SOL    HW213943   0.898   7.519   1.181 -0.5778 -1.4201 -0.4564
 4168SOL     OW13944   7.731   7.387  11.206 -0.5936  0.3915 -0.5750
 4168SOL    HW113945   7.689   7.327  11.268 -0.9587  0.9446 -0.2784
 4168SOL    HW213946   7.792   7.332  11.157 -1.8936 -0.5209 -1.2604
 4169SOL     OW13947   1.303   5.587  12.456  0.1172  0.1841 -0.4096
 4169SOL    HW113948   1.220   5.546  12.483 -0.2780  0.7468 -0.7478
 4169SOL    HW213949   1.349   5.518  12.408  0.1864 -0.3680  0.4248
 4170SOL     OW13950   0.146   5.677   1.321  0.1553 -0.3025  0.1202
 4170SOL    HW113951   0.117   5.621   1.393  2.5952 -1.1030  0.6054
 4170SOL    HW213952   0.094   5.757   1.330 -0.1697 -0.6860  2.3015
 4171SOL     OW13953   1.928   6.602   2.114 -0.5743 -0.1518 -0.5603
 4171SOL    HW113954   1.907   6.670   2.050  0.3453 -0.3878 -1.1303
 4171SOL    HW213955   2.023   6.597   2.114 -0.6214 -1.3121 -0.3864
 4172SOL     OW13956   1.166   7.655   2.030 -0.1105  0.9643 -0.2007
 4172SOL    HW113957   1.252   7.668   1.989 -0.0593  0.6054 -0.2115
 4172SOL    HW213958   1.140   7.567   2.004 -0.2727  0.8944  0.1888
 4173SOL     OW13959   7.752   7.192   1.710  0.2229 -0.3800 -0.4329
 4173SOL    HW113960   7.672   7.143   1.728  0.3622 -1.3543 -2.2446
 4173SOL    HW213961   7.729   7.283   1.729 -0.8484 -0.8029  0.4444
 4174SOL     OW13962   7.034   6.477   0.319  0.4428  0.5307  0.6494
 4174SOL    HW113963   7.107   6.458   0.377  0.4640 -0.7781  0.2347
 4174SOL    HW213964   7.026   6.572   0.319  0.3342  0.5646  2.8956
 4175SOL     OW13965   1.083   6.462   0.477  0.1396 -0.0598  0.3598
 4175SOL    HW113966   1.155   6.436   0.420  1.0281 -0.2803  1.5537
 4175SOL    HW213967   1.026   6.385   0.479  0.0729 -0.0347 -0.2492
 4176SOL     OW13968   7.773   4.987   2.269 -0.6163 -0.3811  0.6455
 4176SOL    HW113969   7.788   5.001   2.176 -2.0892 -0.6082  0.3522
 4176SOL    HW213970   7.812   4.902   2.288 -0.1673 -0.2590  0.2895
 4177SOL     OW13971   3.155   5.807   0.173 -0.0982 -0.6798 -0.1724
 4177SOL    HW113972   3.244   5.784   0.149 -0.5632 -1.6211 -1.0384
 4177SOL    HW213973   3.099   5.758   0.112 -1.2555 -1.4465  1.4247
 4178SOL     OW13974   6.978   7.663   0.936 -0.4605  0.2189 -0.1447
 4178SOL    HW113975   6.946   7.573   0.931  0.1762  0.0199 -0.8986
 4178SOL    HW213976   6.899   7.717   0.938 -0.8912 -0.2021 -2.7492
 4179SOL     OW13977   0.612   7.471   1.793 -0.2129  0.1368 -0.0148
 4179SOL    HW113978   0.613   7.416   1.870 -0.9979  0.5647  0.3144
 4179SOL    HW213979   0.559   7.423   1.729  0.2740 -0.1277 -0.2247
 4180SOL     OW13980   0.517   6.973   0.521 -0.2232  0.3959 -0.1066
 4180SOL    HW113981   0.516   7.057   0.567 -0.8238  0.4607 -0.2312
 4180SOL    HW213982   0.533   6.909   0.589 -1.6982  0.4326  0.3138
 4181SOL     OW13983   7.014   7.809   1.333 -0.6856  0.5615 -0.3745
 4181SOL    HW113984   7.052   7.733   1.290  0.0545 -0.1308  1.4021
 4181SOL    HW213985   7.071   7.882   1.308  0.9039 -0.1697  0.9078
 4182SOL     OW13986   7.528   7.570   2.926  0.1100  0.0050  0.2870
 4182SOL    HW113987   7.439   7.540   2.909  0.4262 -1.9937  1.7781
 4182SOL    HW213988   7.516   7.648   2.981 -0.7022  1.3975 -1.7500
 4183SOL     OW13989   0.099   7.601   0.324  0.0237 -0.1697 -0.3391
 4183SOL    HW113990   0.136   7.664   0.262 -0.8038 -1.6171 -2.3953
 4183SOL    HW213991   0.173   7.576   0.380  0.9577  0.7012 -1.1458
 4184SOL     OW13992   2.991   5.674   2.434  0.5376  0.1168  0.2543
 4184SOL    HW113993   2.907   5.632   2.418  0.6727 -0.5580  1.2259
 4184SOL    HW213994   3.016   5.645   2.522  3.3564 -2.4447 -1.2101
 4185SOL     OW13995   1.026   5.961   0.845 -0.0422  0.0823  0.6675
 4185SOL    HW113996   0.939   5.925   0.825 -0.0032  0.5778 -0.4811
 4185SOL    HW213997   1.068   5.968   0.759  1.1298 -0.1273  1.2162
 4186SOL     OW13998   2.868   0.727  12.191 -0.2786  0.2261 -0.2070
 4186SOL    HW113999   2.932   0.719  12.120 -0.0502 -0.7519  0.0952
 4186SOL    HW214000   2.906   0.677  12.263 -0.7057  0.8644  0.4711
 4187SOL     OW14001   7.704   7.616  11.376 -0.0442 -0.1076  0.1803
 4187SOL    HW114002   7.746   7.553  11.319 -1.5371 -0.1190 -0.9829
 4187SOL    HW214003   7.765   7.628  11.449  1.1541 -1.3589 -0.5776
 4188SOL     OW14004   2.645   4.515   0.141  0.1095 -0.4943  0.2540
 4188SOL    HW114005   2.679   4.576   0.207 -0.3794 -0.0670  0.1194
 4188SOL    HW214006   2.677   4.429   0.168 -1.7417 -0.6566  2.2170
 4189SOL     OW14007   0.378   5.837   0.061 -0.2664  0.6902  0.9150
 4189SOL    HW114008   0.298   5.822   0.111 -0.4974  1.0846  0.6715
 4189SOL    HW214009   0.348   5.877  -0.021 -0.1724 -2.2152 -0.6752
 4190SOL     OW14010   0.579   6.101   1.534 -0.2689  0.3182 -0.1537
 4190SOL    HW114011   0.560   6.120   1.442  1.2779  1.2128 -0.3274
 4190SOL    HW214012   0.508   6.044   1.562  0.1267 -1.4484 -2.3964
 4191SOL     OW14013   7.528   0.193   1.282 -0.2698  0.0048 -0.3831
 4191SOL    HW114014   7.548   0.219   1.192 -0.5258  0.8620 -0.2021
 4191SOL    HW214015   7.446   0.238   1.302  0.4204  0.8417  0.7036
 4192SOL     OW14016   2.083   7.243   0.648  0.6787  0.3152  0.0055
 4192SOL    HW114017   2.147   7.284   0.706  0.4198  0.8050 -0.0462
 4192SOL    HW214018   2.093   7.290   0.565 -0.7540  1.4287  0.4201
 4193SOL     OW14019   1.919   6.191  12.230  0.2619 -0.5153 -0.1727
 4193SOL    HW114020   1.919   6.095  12.231  1.5695 -0.5327  0.2881
 4193SOL    HW214021   1.904   6.216  12.321  1.6924 -0.3298  0.0374
 4194SOL     OW14022   6.792   5.469   1.713  0.2798  0.1839 -0.5218
 4194SOL    HW114023   6.820   5.385   1.677 -0.8626  0.4295 -2.0916
 4194SOL    HW214024   6.708   5.487   1.670 -0.4207  1.2575  1.1676
 4195SOL     OW14025   1.650   6.480   1.101  0.2889  0.7959  0.0903
 4195SOL    HW114026   1.645   6.431   1.183 -2.2764 -2.4156 -1.7385
 4195SOL    HW214027   1.685   6.417   1.037 -0.7949  2.1289 -1.9303
 4196SOL     OW14028   2.741   0.044   1.890  0.2706 -0.4429  0.1677
 4196SOL    HW114029   2.655   0.067   1.926 -0.8994 -0.0725 -2.5591
 4196SOL    HW214030   2.804   0.071   1.957 -1.6975 -0.4958  2.1615
 4197SOL     OW14031   0.568   7.160   1.899 -0.5062  0.0054 -0.4711
 4197SOL    HW114032   0.508   7.093   1.932 -0.3725  0.7446  1.4085
 4197SOL    HW214033   0.536   7.181   1.811  0.1877 -3.3874 -1.6780
 4198SOL     OW14034   0.750   6.209   0.793  0.0971 -0.0607  0.3814
 4198SOL    HW114035   0.793   6.246   0.870  1.5059 -2.7245  0.9802
 4198SOL    HW214036   0.667   6.174   0.826 -0.2255  0.5750  0.2576
 4199SOL     OW14037   1.100   0.898   2.080 -0.4426 -0.4352  0.1684
 4199SOL    HW114038   1.177   0.954   2.083 -1.7774  1.4402  0.9791
 4199SOL    HW214039   1.089   0.868   2.171 -0.9688 -0.2671  0.1632
 4200SOL     OW14040   7.592   6.957   0.549  0.3484  0.1537 -0.4805
 4200SOL    HW114041   7.544   6.907   0.615  1.4522 -1.0786 -0.5439
 4200SOL    HW214042   7.568   7.048   0.564 -0.1655 -0.2031  0.9995
 4201SOL     OW14043   1.370   6.167   1.684  0.7086 -0.7298 -0.0166
 4201SOL    HW114044   1.315   6.093   1.711  0.0753  0.3133  1.6877
 4201SOL    HW214045   1.442   6.167   1.747  2.5178 -1.7892 -1.9362
 4202SOL     OW14046   1.946   0.921   1.452 -0.4353  0.3780 -0.4074
 4202SOL    HW114047   1.945   1.013   1.426 -1.7784  0.6105  0.3933
 4202SOL    HW214048   1.927   0.921   1.546  1.3706 -0.6294  0.0182
 4203SOL     OW14049   8.000   6.824   1.861 -0.5413  0.2939 -0.3260
 4203SOL    HW114050   7.965   6.769   1.791  0.6301  0.5117 -1.1181
 4203SOL    HW214051   7.923   6.852   1.911 -1.5352  1.0690 -2.2154
 4204SOL     OW14052   0.648   6.170   2.001  0.1372  0.4726  0.6749
 4204SOL    HW114053   0.586   6.237   1.973  0.2287  0.0761 -0.5598
 4204SOL    HW214054   0.608   6.088   1.972  0.7893  0.1352  0.7185
 4205SOL     OW14055   1.203   7.367   2.226  0.1274  0.3250  0.3048
 4205SOL    HW114056   1.177   7.398   2.139  1.2767 -0.7136 -0.4371
 4205SOL    HW214057   1.208   7.447   2.279 -1.3456  0.8998 -0.3413
 4206SOL     OW14058   0.315   5.625   1.726  0.2969  0.2588  0.2364
 4206SOL    HW114059   0.275   5.550   1.770 -1.0393  0.1941 -0.9797
 4206SOL    HW214060   0.246   5.691   1.723  1.4168  1.5335  1.1768
 4207SOL     OW14061   1.683   5.227   1.049  0.0195 -0.3477 -0.2050
 4207SOL    HW114062   1.710   5.136   1.037 -2.5985 -1.0648 -1.1814
 4207SOL    HW214063   1.605   5.223   1.104 -1.0745  1.1622 -1.5555
 4208SOL     OW14064   2.211   0.320   3.250 -0.1160  0.5444  0.0469
 4208SOL    HW114065   2.265   0.399   3.255 -0.7481  0.9702  0.2583
 4208SOL    HW214066   2.178   0.320   3.160 -2.5684  2.2154  0.8139
 4209SOL     OW14067   0.882   6.091   1.595 -0.1644  0.1510  0.0342
 4209SOL    HW114068   0.928   6.093   1.511 -0.1686  3.5849 -0.0356
 4209SOL    HW214069   0.790   6.102   1.572 -0.0212  2.7943  0.4303
 4210SOL     OW14070   2.873   6.708   1.883  0.2232  0.1353  0.1481
 4210SOL    HW114071   2.811   6.642   1.915 -0.1056  0.4895  0.2483
 4210SOL    HW214072   2.946   6.704   1.945  1.2489 -1.6940 -1.1029
 4211SOL     OW14073   1.973   6.863   0.900 -0.3393  0.5879  0.6103
 4211SOL    HW114074   1.933   6.893   0.982 -1.6630 -1.0612  0.6054
 4211SOL    HW214075   1.940   6.774   0.888 -0.0882  0.7478 -1.6588
 4212SOL     OW14076   2.073   7.568   0.631  0.5112 -0.1555 -0.1574
 4212SOL    HW114077   2.072   7.608   0.718 -1.9020  0.3868 -0.3514
 4212SOL    HW214078   2.150   7.511   0.631  2.6372  2.5096  1.0351
 4213SOL     OW14079   0.854   6.350   1.987 -0.0772  0.2051  0.4483
 4213SOL    HW114080   0.802   6.269   1.990 -1.2140  0.9188  0.6890
 4213SOL    HW214081   0.873   6.369   2.079 -1.3766  1.1531  0.5591
 4214SOL     OW14082   6.307   5.637   1.343  0.3773  0.0687 -0.1092
 4214SOL    HW114083   6.228   5.588   1.321  0.4340 -0.0259 -0.1019
 4214SOL    HW214084   6.361   5.632   1.265  1.5208 -2.1071  0.7619
 4215SOL     OW14085   1.808   6.223   0.429  0.0626 -0.4014  0.5792
 4215SOL    HW114086   1.801   6.248   0.521  0.3627  0.1331  0.4601
 4215SOL    HW214087   1.888   6.266   0.398 -0.1655 -0.3804  0.0095
 4216SOL     OW14088   0.961   6.935   1.388 -0.3618  0.4137  0.2620
 4216SOL    HW114089   0.973   6.994   1.462 -0.5528  0.1670  0.4899
 4216SOL    HW214090   0.946   6.849   1.428 -1.7119  0.5003 -0.0379
 4217SOL     OW14091   0.264   6.973  11.901 -0.4890  0.5144  0.3040
 4217SOL    HW114092   0.320   6.958  11.826 -1.3205  1.6325 -0.5822
 4217SOL    HW214093   0.234   6.886  11.928 -0.1784  0.1081 -0.6543
 4218SOL     OW14094   1.080   6.244   1.758 -0.2008 -0.6014 -0.1523
 4218SOL    HW114095   1.024   6.194   1.698 -0.5356 -2.1623  1.3950
 4218SOL    HW214096   1.021   6.275   1.826 -0.1110  2.4621 -1.2828
 4219SOL     OW14097   1.758   5.986   1.729  1.0590 -0.0852 -0.7124
 4219SOL    HW114098   1.848   5.976   1.761 -0.0628 -1.7438  2.2620
 4219SOL    HW214099   1.736   5.901   1.691 -0.6447 -1.4472  2.8640
 4220SOL     OW14100   7.221   6.679   0.644 -0.5887  0.1722 -0.1769
 4220SOL    HW114101   7.214   6.711   0.734 -0.3698  1.0671 -0.4624
 4220SOL    HW214102   7.259   6.753   0.595  1.6605 -1.1166 -0.5370
 4221SOL     OW14103   7.575   4.564   1.741  0.5231 -0.1987  0.1409
 4221SOL    HW114104   7.665   4.594   1.725  0.1383  1.2075  0.5135
 4221SOL    HW214105   7.560   4.582   1.833 -0.3461  0.1623 -0.0592
 4222SOL     OW14106   0.163   6.364  12.000 -0.0406 -0.5719  0.1739
 4222SOL    HW114107   0.222   6.427  11.959 -0.9729  0.0923 -0.1929
 4222SOL    HW214108   0.220   6.299  12.040  0.9198 -1.2126 -2.1316
 4223SOL     OW14109   0.112   6.703   0.201 -0.0630 -0.6431 -0.5561
 4223SOL    HW114110   0.043   6.735   0.259  0.0211 -0.6446 -0.4560
 4223SOL    HW214111   0.150   6.628   0.248  0.4502 -0.2362 -0.3149
 4224SOL     OW14112   0.692   4.758  11.808  0.4062  0.0669  0.0695
 4224SOL    HW114113   0.607   4.788  11.842 -0.0776 -0.9833 -0.1774
 4224SOL    HW214114   0.714   4.820  11.740 -1.1950 -0.7967 -1.3192
 4225SOL     OW14115   5.731   7.020   1.282 -0.3155  0.5627 -0.0672
 4225SOL    HW114116   5.732   7.042   1.375 -1.9324  1.1344 -0.1549
 4225SOL    HW214117   5.649   6.973   1.269  0.8418 -1.4024 -0.8332
 4226SOL     OW14118   2.485   7.528   1.312  0.2410  0.1519  1.0675
 4226SOL    HW114119   2.527   7.463   1.368 -0.1189 -0.6017  0.4740
 4226SOL    HW214120   2.452   7.478   1.237  0.6220  1.1307  0.2276
 4227SOL     OW14121   0.562   6.596  12.277  0.0977 -0.0358  0.6472
 4227SOL    HW114122   0.567   6.518  12.220 -0.5205 -0.7616  1.5706
 4227SOL    HW214123   0.643   6.644  12.257  0.3156 -0.7178 -0.2059
 4228SOL     OW14124   1.871   7.213   1.258 -0.3874 -0.2132 -0.0726
 4228SOL    HW114125   1.779   7.221   1.232 -0.2087  2.2328 -0.1528
 4228SOL    HW214126   1.868   7.205   1.353 -0.6560  0.4411 -0.0245
 4229SOL     OW14127   1.488   6.138  12.388 -0.1088  0.1123  0.0126
 4229SOL    HW114128   1.410   6.128  12.334 -0.1825 -1.7132  0.3829
 4229SOL    HW214129   1.484   6.228  12.420 -0.6962  0.8506 -2.0137
 4230SOL     OW14130   1.025   6.858   0.711 -0.0926 -0.4194  0.1260
 4230SOL    HW114131   1.044   6.899   0.627 -2.1024 -0.8015 -0.5577
 4230SOL    HW214132   0.999   6.769   0.690 -1.3765 -0.2919  1.0507
 4231SOL     OW14133   2.779   7.751   2.433  0.1308  0.0764  0.8471
 4231SOL    HW114134   2.797   7.657   2.440 -0.1449  0.0736  1.5733
 4231SOL    HW214135   2.715   7.757   2.362 -0.2718 -0.3436  1.1667
 4232SOL     OW14136   0.568   6.305   0.008 -0.1138 -0.2339 -0.3009
 4232SOL    HW114137   0.555   6.227   0.062  0.3647  0.3589  0.7079
 4232SOL    HW214138   0.624   6.275  -0.063  1.3036 -0.5233  0.8787
 4233SOL     OW14139   0.297   7.099   0.052 -0.3766  0.2353  0.1420
 4233SOL    HW114140   0.359   7.035   0.018  0.0574  0.0502  1.2450
 4233SOL    HW214141   0.311   7.098   0.146 -1.9794  0.2925  0.4025
 4234SOL     OW14142   7.387   6.149   0.101 -0.2605  0.1217 -0.0444
 4234SOL    HW114143   7.316   6.189   0.152 -0.5766 -0.9274  0.3702
 4234SOL    HW214144   7.383   6.056   0.124  2.5318  0.2671  1.5558
 4235SOL     OW14145   2.381   4.543   0.241 -0.0472 -0.5158 -0.2465
 4235SOL    HW114146   2.449   4.534   0.175  0.4251  2.0444 -0.2167
 4235SOL    HW214147   2.390   4.633   0.273 -0.4007 -1.5528  3.1811
 4236SOL     OW14148   1.763   5.165   1.424  0.0855  0.0703 -0.5544
 4236SOL    HW114149   1.697   5.232   1.443 -0.1883 -0.1975 -0.5454
 4236SOL    HW214150   1.716   5.100   1.373  0.4271  0.0280 -0.8176
 4237SOL     OW14151   0.815   7.461  11.906  0.4527  0.2799 -0.5833
 4237SOL    HW114152   0.763   7.470  11.826 -0.1536  0.6310 -0.1639
 4237SOL    HW214153   0.861   7.377  11.896  0.7357  0.5383 -1.4917
 4238SOL     OW14154   1.952   4.856   1.623 -0.4863  0.1086 -0.6260
 4238SOL    HW114155   1.963   4.870   1.717  0.6031 -0.3262 -0.6709
 4238SOL    HW214156   1.857   4.850   1.610 -0.6011 -2.3015  0.8383
 4239SOL     OW14157   2.071   7.950   2.477  0.3813 -0.6178 -0.2121
 4239SOL    HW114158   2.053   8.044   2.469  1.2498 -0.3647  0.5886
 4239SOL    HW214159   2.050   7.930   2.568 -2.8710 -1.9291 -1.1207
 4240SOL     OW14160   7.150   6.878   1.997  0.3539 -0.5332 -0.3771
 4240SOL    HW114161   7.180   6.968   2.008 -0.3269 -0.5626  2.6773
 4240SOL    HW214162   7.229   6.825   2.002  0.6183 -0.1963 -0.8797
 4241SOL     OW14163   6.909   7.393   0.895  0.4555  0.4426 -0.5735
 4241SOL    HW114164   6.864   7.389   0.811  1.4395 -2.7551 -1.0625
 4241SOL    HW214165   6.996   7.358   0.878  1.0731  0.7491  1.5767
 4242SOL     OW14166   6.793   6.088  11.790  0.2782 -0.2479 -0.4085
 4242SOL    HW114167   6.700   6.077  11.809  0.6657 -0.5940  1.5265
 4242SOL    HW214168   6.819   6.005  11.750  0.2253 -1.1210  1.2694
 4243SOL     OW14169   7.754   5.629  11.527 -0.1650  0.1325 -0.2323
 4243SOL    HW114170   7.802   5.630  11.610  0.1087  0.5051 -0.3974
 4243SOL    HW214171   7.689   5.559  11.539 -0.4132  0.4726  0.4557
 4244SOL     OW14172   1.300   5.544   1.393 -0.3081 -0.2958 -0.5320
 4244SOL    HW114173   1.234   5.515   1.456 -0.4805  1.3361  0.0777
 4244SOL    HW214174   1.358   5.468   1.382 -0.5655 -0.7779  1.1999
 4245SOL     OW14175   0.719   5.968   0.296  0.1371  0.1088  0.3737
 4245SOL    HW114176   0.635   6.007   0.269  0.3218  0.4142  0.2262
 4245SOL    HW214177   0.735   6.003   0.383  0.9523  1.4652 -0.2728
 4246SOL     OW14178   1.244   6.799   1.613 -0.5588 -0.0087 -0.1342
 4246SOL    HW114179   1.285   6.863   1.671  0.1338 -0.5250 -0.0443
 4246SOL    HW214180   1.209   6.851   1.541  0.8666  0.3815 -0.5638
 4247SOL     OW14181   0.736   5.638  12.369  0.5148  0.8454 -0.1328
 4247SOL    HW114182   0.774   5.715  12.326  0.7419  1.1408  0.5836
 4247SOL    HW214183   0.806   5.573  12.369  0.7813  1.1228  0.4947
 4248SOL     OW14184   7.896   6.816   1.091 -0.2063 -0.1124  0.0986
 4248SOL    HW114185   7.916   6.742   1.149  1.8048 -0.3041 -0.7345
 4248SOL    HW214186   7.828   6.783   1.033 -0.1476 -0.9164  0.4745
 4249SOL     OW14187   2.131   5.441  11.023  0.1043 -0.4403 -0.6129
 4249SOL    HW114188   2.159   5.352  11.046  1.5763  0.1617  0.0581
 4249SOL    HW214189   2.110   5.437  10.930 -1.4733 -1.8616 -0.2450
 4250SOL     OW14190   1.284   6.109  12.195 -0.8172  0.4543  0.7619
 4250SOL    HW114191   1.201   6.082  12.235 -0.5102 -2.1002 -0.1798
 4250SOL    HW214192   1.257   6.157  12.116 -1.5506 -2.3062 -0.8146
 4251SOL     OW14193   2.074   5.585  11.749 -0.0974  0.0063 -0.3654
 4251SOL    HW114194   2.020   5.507  11.736  0.5183 -0.1164 -2.6645
 4251SOL    HW214195   2.012   5.653  11.774 -1.6141  0.0927 -3.8105
 4252SOL     OW14196   1.009   5.582  10.607 -0.5673  0.3478  0.2605
 4252SOL    HW114197   0.917   5.568  10.584 -0.5691 -0.2795  0.6311
 4252SOL    HW214198   1.024   5.524  10.681  0.0405  0.6956  0.4140
 4253SOL     OW14199   1.146   6.042   0.556 -0.3914  0.8660  0.0177
 4253SOL    HW114200   1.074   6.105   0.559 -0.2855  0.9696  0.4047
 4253SOL    HW214201   1.209   6.081   0.496 -0.6898  0.7387 -0.3838
 4254SOL     OW14202   3.784   6.649   4.515  0.4249  0.1413  0.0226
 4254SOL    HW114203   3.878   6.658   4.534  0.1228  0.4373  1.4858
 4254SOL    HW214204   3.764   6.558   4.537  0.3870  0.0487 -0.3933
 4255SOL     OW14205   3.274   4.782   1.710  0.6182 -0.0828  0.6131
 4255SOL    HW114206   3.223   4.809   1.787  1.0895  1.3877  0.4422
 4255SOL    HW214207   3.323   4.706   1.740 -0.5062 -0.5865  1.2385
 4256SOL     OW14208   2.309   7.729   0.778  0.3229  0.0457 -0.6436
 4256SOL    HW114209   2.373   7.659   0.766  0.7257 -0.4293  3.0932
 4256SOL    HW214210   2.362   7.807   0.794 -0.1282  0.6195 -1.8016
 4257SOL     OW14211   1.353   6.852   0.842 -0.5056 -0.5717  0.5672
 4257SOL    HW114212   1.411   6.797   0.790 -1.2069 -1.0057  0.2354
 4257SOL    HW214213   1.327   6.797   0.916 -1.6629 -0.9194 -0.0638
 4258SOL     OW14214   1.936   6.876   2.012 -0.1747 -0.1404 -0.4717
 4258SOL    HW114215   1.855   6.923   1.995  0.4587  2.1100  2.0114
 4258SOL    HW214216   1.990   6.891   1.935 -1.1676  0.5328 -1.0526
 4259SOL     OW14217   1.798   6.269   0.706  0.7978  0.1056 -0.2472
 4259SOL    HW114218   1.850   6.194   0.734 -0.4578 -0.3946  0.8796
 4259SOL    HW214219   1.739   6.285   0.779  0.8076  1.9986 -0.6112
 4260SOL     OW14220   6.809   6.267   1.273  0.6270 -0.0897  0.5622
 4260SOL    HW114221   6.886   6.214   1.254  1.4204  1.1623  0.1231
 4260SOL    HW214222   6.786   6.307   1.189 -0.8963 -0.9066  0.5519
 4261SOL     OW14223   1.474   6.479   1.752 -0.6561  0.0595 -0.1941
 4261SOL    HW114224   1.558   6.440   1.727 -1.0397  0.5644 -2.5531
 4261SOL    HW214225   1.498   6.563   1.791  0.0074 -0.9286  1.6361
 4262SOL     OW14226   0.050   5.769   2.136  0.2224  0.3127  0.6443
 4262SOL    HW114227   0.128   5.720   2.161  0.9794  1.6312  0.9567
 4262SOL    HW214228   0.084   5.850   2.096 -0.9337 -0.4309 -2.1374
 4263SOL     OW14229   0.692   6.095   0.531  0.2190  0.1504 -0.2540
 4263SOL    HW114230   0.617   6.153   0.515  0.6539  0.4317 -1.4026
 4263SOL    HW214231   0.702   6.094   0.626  0.2630  2.0494 -0.1940
 4264SOL     OW14232   7.875   7.814   1.560  0.1034  0.2418  0.5346
 4264SOL    HW114233   7.959   7.771   1.543 -0.1767 -0.6941  1.4091
 4264SOL    HW214234   7.816   7.778   1.494 -0.2258 -1.0622  1.4991
 4265SOL     OW14235   0.938   7.654   0.923 -0.2784 -0.6831  0.1142
 4265SOL    HW114236   0.993   7.631   0.998  0.6003  1.7243  0.3014
 4265SOL    HW214237   0.897   7.737   0.948 -0.0253  0.1508 -2.0207
 4266SOL     OW14238   7.109   6.446   1.269 -0.0873  0.6181 -0.3165
 4266SOL    HW114239   7.082   6.389   1.341  0.7514 -0.1000 -0.5572
 4266SOL    HW214240   7.204   6.446   1.273 -0.0683  2.0339 -0.3141
 4267SOL     OW14241   2.413   4.962  12.279 -0.3101 -0.1892  0.1171
 4267SOL    HW114242   2.411   5.055  12.254  1.2937  0.1628  1.1676
 4267SOL    HW214243   2.337   4.924  12.235 -0.7074  1.5139 -0.7562
 4268SOL     OW14244   1.514   6.178   3.643  0.3428 -0.0002 -0.1907
 4268SOL    HW114245   1.569   6.257   3.644 -0.1742  0.4420  2.5873
 4268SOL    HW214246   1.427   6.209   3.671  0.1608 -1.5368  1.1060
 4269SOL     OW14247   0.003   4.956   0.497 -0.2487  0.1282  0.0550
 4269SOL    HW114248   0.001   5.043   0.537  1.9805  0.1268  0.2962
 4269SOL    HW214249  -0.058   4.961   0.423 -1.2740  1.4088  0.9546
 4270SOL     OW14250   7.420   6.428   0.701  0.1779 -0.1171 -0.0579
 4270SOL    HW114251   7.334   6.468   0.715  0.7499  1.0652  0.2365
 4270SOL    HW214252   7.473   6.460   0.774  0.6601 -1.4761  0.2092
 4271SOL     OW14253   1.873   6.056   3.270 -0.2315 -0.0884 -0.0495
 4271SOL    HW114254   1.932   6.017   3.205  0.1783  0.5050 -0.0444
 4271SOL    HW214255   1.840   5.982   3.320 -0.7650 -0.5928 -1.1009
 4272SOL     OW14256   1.121   6.563   0.722 -0.3818 -0.0963 -0.2885
 4272SOL    HW114257   1.142   6.554   0.629 -1.6304  0.5905 -0.6655
 4272SOL    HW214258   1.128   6.475   0.758  1.9958 -0.0821 -0.5854
 4273SOL     OW14259   0.360   5.707   0.615 -0.2328  0.3892  0.2254
 4273SOL    HW114260   0.330   5.769   0.548  0.4878 -0.6569 -1.1173
 4273SOL    HW214261   0.319   5.738   0.696 -0.2600  2.3385 -0.4726
 4274SOL     OW14262   0.476   0.152   0.566  0.2216 -0.2919 -0.1429
 4274SOL    HW114263   0.443   0.229   0.611 -2.1493 -0.1176 -1.9944
 4274SOL    HW214264   0.481   0.085   0.634  2.4032  1.3853  1.5265
 4275SOL     OW14265   1.297   6.181   0.391 -0.5173  0.1268  0.9378
 4275SOL    HW114266   1.392   6.166   0.386 -0.4896  0.6090 -0.7432
 4275SOL    HW214267   1.288   6.275   0.405 -0.7796 -0.2632  4.2813
 4276SOL     OW14268   1.679   5.963  12.292 -0.2375  0.1327  0.0060
 4276SOL    HW114269   1.663   5.988  12.201  1.0590  3.4351  0.5289
 4276SOL    HW214270   1.620   6.018  12.343 -0.9906 -1.7025  1.2320
 4277SOL     OW14271   7.935   6.585   1.215  0.0398  0.2472 -0.0231
 4277SOL    HW114272   8.014   6.555   1.261  0.5195  0.6294 -0.5709
 4277SOL    HW214273   7.936   6.537   1.133  0.4739  1.2538 -0.6353
 4278SOL     OW14274   0.605   6.296   1.129 -0.1428 -0.0079  0.1123
 4278SOL    HW114275   0.565   6.214   1.102 -1.3813  0.0284  1.6772
 4278SOL    HW214276   0.684   6.303   1.076  0.8679 -2.9800  1.0306
 4279SOL     OW14277   0.232   6.214   1.956  0.3342  0.0093 -0.1370
 4279SOL    HW114278   0.172   6.241   1.887 -0.0248  2.2528  0.9621
 4279SOL    HW214279   0.319   6.217   1.914 -0.0300 -0.4342 -0.9494
 4280SOL     OW14280   1.997   6.299   0.056 -0.3939  0.1793  0.3223
 4280SOL    HW114281   2.016   6.301   0.150  0.9359 -1.2266  0.1270
 4280SOL    HW214282   2.074   6.257   0.017 -2.0317 -1.6718 -1.1182
 4281SOL     OW14283   7.871   5.024   0.251 -0.0785  0.1553 -0.3349
 4281SOL    HW114284   7.841   5.110   0.280 -1.4634 -0.2326 -0.5537
 4281SOL    HW214285   7.794   4.984   0.211  0.2385 -1.6214  0.7301
 4282SOL     OW14286   1.304   5.292  11.507 -0.4177  0.0553  0.1647
 4282SOL    HW114287   1.309   5.311  11.413  0.4855 -0.0384  0.1841
 4282SOL    HW214288   1.346   5.367  11.549  1.4046 -1.0131  0.3478
 4283SOL     OW14289   1.099   7.436   1.386  0.0795 -0.0087  0.4595
 4283SOL    HW114290   1.179   7.404   1.426  0.3895 -1.7048 -1.3557
 4283SOL    HW214291   1.029   7.387   1.428  0.0659  0.7259  1.3167
 4284SOL     OW14292   0.882   1.189   0.935 -0.0283  0.5647  0.4873
 4284SOL    HW114293   0.832   1.201   1.016  0.7110  0.0846  1.0322
 4284SOL    HW214294   0.841   1.248   0.872 -0.1211  1.5487  1.4381
 4285SOL     OW14295   1.679   6.301   1.298  0.1009 -0.6499 -0.4541
 4285SOL    HW114296   1.727   6.219   1.308 -1.9965 -2.1185 -1.7506
 4285SOL    HW214297   1.593   6.284   1.335 -1.0628  0.2717 -2.5415
 4286SOL     OW14298   0.781   7.854   1.993 -0.1655  0.2929  0.4509
 4286SOL    HW114299   0.863   7.809   2.015  0.1682 -0.4225 -1.9983
 4286SOL    HW214300   0.740   7.870   2.078  0.8558 -2.4577  1.5885
 4287SOL     OW14301   1.405   3.946  11.305 -0.1706  0.2371 -0.2836
 4287SOL    HW114302   1.479   3.926  11.363  0.2478 -0.6850 -1.0953
 4287SOL    HW214303   1.359   4.018  11.348  0.0003 -0.5481  1.3062
 4288SOL     OW14304   7.853   0.137  11.866  0.5839 -0.1140 -0.1310
 4288SOL    HW114305   7.912   0.132  11.941 -0.0002 -0.7857  0.2981
 4288SOL    HW214306   7.885   0.071  11.805  0.7949  0.1294 -0.2875
 4289SOL     OW14307   6.834   6.809   0.098  0.0465  0.1333  0.5235
 4289SOL    HW114308   6.888   6.780   0.025 -1.2642  2.0794 -1.3374
 4289SOL    HW214309   6.896   6.823   0.170  1.3038 -2.3762  0.0447
 4290SOL     OW14310   0.883   7.845  12.333  0.0937 -0.1028 -0.3262
 4290SOL    HW114311   0.963   7.815  12.290 -0.7173 -0.5697 -1.5757
 4290SOL    HW214312   0.819   7.777  12.314 -0.4419 -0.0651  1.2393
 4291SOL     OW14313   1.385   6.571   1.049 -0.8085 -0.1184 -0.8435
 4291SOL    HW114314   1.329   6.503   1.013 -1.7847 -1.0780  2.2087
 4291SOL    HW214315   1.467   6.527   1.069 -1.0163 -0.1170  0.0304
 4292SOL     OW14316   1.783   7.632   1.248 -0.0667 -0.4785  0.4959
 4292SOL    HW114317   1.877   7.637   1.266  0.5661 -2.7923 -1.6606
 4292SOL    HW214318   1.747   7.581   1.321  0.9621 -2.3942 -0.2677
 4293SOL     OW14319   7.802   5.518  12.066  0.0056  0.3348 -0.4816
 4293SOL    HW114320   7.840   5.606  12.067 -3.5308  2.2056 -3.5265
 4293SOL    HW214321   7.829   5.481  11.982 -0.6553 -0.3750 -0.3909
 4294SOL     OW14322   6.068   0.019  12.388 -0.0139 -0.4923 -0.3326
 4294SOL    HW114323   6.064   0.029  12.293  0.0986 -0.5763 -0.3468
 4294SOL    HW214324   6.071  -0.075  12.402  1.4553 -0.4726 -0.3182
 4295SOL     OW14325   0.308   5.799   0.931 -0.1626 -0.5516  0.4719
 4295SOL    HW114326   0.224   5.841   0.946 -0.6718 -0.8859 -1.2343
 4295SOL    HW214327   0.373   5.865   0.955 -0.8960 -0.1736  1.4681
 4296SOL     OW14328   0.902   6.665   3.288  0.5582  0.0102  0.4865
 4296SOL    HW114329   0.954   6.585   3.294 -0.2646 -0.4523  2.1357
 4296SOL    HW214330   0.938   6.712   3.212  2.4539 -0.9214  0.7451
 4297SOL     OW14331   0.459   6.558   2.049  0.4220 -0.4632 -0.2986
 4297SOL    HW114332   0.408   6.585   1.973 -1.9622 -0.6366  1.1227
 4297SOL    HW214333   0.532   6.620   2.053 -0.8265  1.1360 -1.2951
 4298SOL     OW14334   0.730   6.525   2.491 -0.0940  0.0324 -0.0493
 4298SOL    HW114335   0.731   6.621   2.490  1.0275  0.0535  1.3928
 4298SOL    HW214336   0.672   6.502   2.418 -0.3851  1.7958 -0.4287
 4299SOL     OW14337   7.917   6.462  11.240 -0.5975 -0.2332 -0.6145
 4299SOL    HW114338   7.881   6.438  11.155 -1.4262 -1.0877 -0.0478
 4299SOL    HW214339   7.840   6.482  11.293 -0.0929  0.2659 -0.0625
 4300SOL     OW14340   0.977   6.372   0.107  0.1482 -0.1147 -0.2823
 4300SOL    HW114341   0.976   6.365   0.012  0.4891  0.0135 -0.2972
 4300SOL    HW214342   0.885   6.386   0.131  0.3179  2.4912 -0.8068
 4301SOL     OW14343   1.060   0.053   2.082 -0.4240 -0.6476  0.2581
 4301SOL    HW114344   1.029  -0.035   2.104 -0.0204 -1.7455 -2.8866
 4301SOL    HW214345   1.154   0.041   2.065 -0.3191  0.4164  0.0038
 4302SOL     OW14346   2.953   7.062   1.525  0.6200  0.6719 -0.0591
 4302SOL    HW114347   3.017   7.091   1.590 -0.2161 -0.8864  1.5789
 4302SOL    HW214348   2.897   7.138   1.511  0.6451  0.9838  1.3157
 4303SOL     OW14349   1.882   7.306   0.981 -0.4808  0.0835 -0.3393
 4303SOL    HW114350   1.948   7.375   0.984  0.1571 -0.5413  0.3373
 4303SOL    HW214351   1.865   7.284   1.073 -0.8397 -0.5120 -0.5425
 4304SOL     OW14352   0.145   5.186  11.988  0.1494 -0.0065  0.4480
 4304SOL    HW114353   0.205   5.162  11.917  0.3605  1.8837 -0.0712
 4304SOL    HW214354   0.203   5.200  12.063 -0.0443 -1.7203  0.9412
 4305SOL     OW14355   7.494   7.250   2.362 -0.4815 -0.0005  0.0490
 4305SOL    HW114356   7.400   7.258   2.348 -0.2129  0.4115 -1.8258
 4305SOL    HW214357   7.524   7.339   2.380 -0.1572  0.2987 -1.7548
 4306SOL     OW14358   1.718   5.247   2.381  0.0317  0.2940 -0.6953
 4306SOL    HW114359   1.713   5.316   2.315 -0.2128  0.2384 -0.7349
 4306SOL    HW214360   1.628   5.234   2.409  0.1523  0.4348 -0.2275
 4307SOL     OW14361   1.938   5.267   0.774 -0.0441  0.1031 -0.6351
 4307SOL    HW114362   1.854   5.300   0.806 -1.0435 -2.6945 -0.0151
 4307SOL    HW214363   1.923   5.249   0.681  0.0879  0.2186 -0.6789
 4308SOL     OW14364   0.977   0.371   0.635  0.1279  0.6759 -0.0796
 4308SOL    HW114365   0.896   0.322   0.645  0.7987 -0.0338  3.2326
 4308SOL    HW214366   1.046   0.304   0.638  0.9170  1.4815  0.7129
 4309SOL     OW14367   2.237   6.474  11.346 -0.4104  0.2771 -0.5177
 4309SOL    HW114368   2.278   6.409  11.404 -0.5577  1.2016  0.6343
 4309SOL    HW214369   2.310   6.505  11.291  0.0231  0.3995  0.1140
 4310SOL     OW14370   0.476   6.977   1.231  0.1476 -0.2404  0.3554
 4310SOL    HW114371   0.565   6.968   1.198  0.1665 -0.5732  0.4938
 4310SOL    HW214372   0.428   6.904   1.191  0.1927 -0.7001  1.1237
 4311SOL     OW14373   0.558   7.218   2.966 -0.2490  0.3332  0.7407
 4311SOL    HW114374   0.545   7.214   2.871  0.5685 -0.1335  0.6433
 4311SOL    HW214375   0.479   7.179   3.002 -0.2484 -0.1482  0.2314
 4312SOL     OW14376   1.823   6.194  11.303 -0.2757  0.6652 -0.6760
 4312SOL    HW114377   1.886   6.123  11.301  0.7112  1.5331 -1.5451
 4312SOL    HW214378   1.738   6.150  11.306  0.3433 -0.5158  0.5260
 4313SOL     OW14379   1.503   5.975   1.000  0.1119  1.0379 -0.1876
 4313SOL    HW114380   1.589   5.978   1.041 -0.3269  1.1187  0.7565
 4313SOL    HW214381   1.484   5.881   0.991 -0.7360  0.9617  1.8997
 4314SOL     OW14382   0.340   7.916   2.283 -0.0104 -0.6747  0.4677
 4314SOL    HW114383   0.323   8.000   2.240  0.1248  0.1775  2.0140
 4314SOL    HW214384   0.358   7.939   2.374  2.1099 -2.2142  0.4939
 4315SOL     OW14385   5.221   7.047   1.019  0.5791  0.5048 -0.6205
 4315SOL    HW114386   5.274   7.094   0.955 -0.7739  0.2969 -1.9403
 4315SOL    HW214387   5.229   7.099   1.099  1.1166  1.6001 -1.3596
 4316SOL     OW14388   2.209   5.632   1.112 -0.1251 -0.0237  0.5203
 4316SOL    HW114389   2.183   5.556   1.164 -1.3156  0.6583  0.9421
 4316SOL    HW214390   2.298   5.652   1.143  0.1968 -1.1987  0.4265
 4317SOL     OW14391   1.107   7.135   2.302  0.0705 -0.5696  0.1133
 4317SOL    HW114392   1.026   7.127   2.251  0.0858  0.1647 -0.0388
 4317SOL    HW214393   1.136   7.225   2.287  0.2370 -0.4311  1.1783
 4318SOL     OW14394   0.290   7.941   1.131 -0.2201 -0.3253  0.3278
 4318SOL    HW114395   0.209   7.943   1.182  0.0619  0.6961  0.7589
 4318SOL    HW214396   0.334   8.023   1.153  0.6627 -0.6075 -0.3433
 4319SOL     OW14397   1.161   7.726   2.646 -0.2369  0.1615  0.9637
 4319SOL    HW114398   1.161   7.786   2.571 -0.0248  0.7336  1.4200
 4319SOL    HW214399   1.077   7.743   2.689 -0.7906 -0.8468  0.3270
 4320SOL     OW14400   2.148   5.746   1.452 -0.1265  0.3634 -0.4390
 4320SOL    HW114401   2.181   5.770   1.538 -0.0984  0.5554 -0.5022
 4320SOL    HW214402   2.151   5.828   1.402 -1.8443  0.6608 -0.0988
 4321SOL     OW14403   2.602   6.405   0.269  0.1551  0.2663  0.3969
 4321SOL    HW114404   2.599   6.309   0.260  1.8471  0.2722 -0.8969
 4321SOL    HW214405   2.695   6.425   0.277 -0.1220  1.8527  0.0121
 4322SOL     OW14406   0.781   6.643   2.204  0.0192  0.7847  0.0352
 4322SOL    HW114407   0.832   6.711   2.248  0.4350  0.2444  0.4091
 4322SOL    HW214408   0.751   6.684   2.123  1.2062  1.0575 -0.2858
 4323SOL     OW14409   7.663   7.430   1.812  0.4562 -0.5265  0.5131
 4323SOL    HW114410   7.650   7.431   1.906 -0.4211 -2.8088  0.4899
 4323SOL    HW214411   7.588   7.477   1.776  1.1665  0.9851  0.9332
 4324SOL     OW14412   1.087   6.063  11.103 -0.0598 -0.0575  0.1454
 4324SOL    HW114413   1.137   6.058  11.022 -1.5878  0.0067 -0.8402
 4324SOL    HW214414   1.071   6.157  11.116 -1.7082 -0.1816 -0.7250
 4325SOL     OW14415   6.962   7.957   0.786 -0.3490 -0.2266 -0.0366
 4325SOL    HW114416   6.996   8.008   0.859 -0.4765 -0.3914  0.1387
 4325SOL    HW214417   6.931   8.022   0.723 -0.8705 -0.0927  0.3550
 4326SOL     OW14418   1.410   7.424   1.180 -0.0646  0.2133  0.1512
 4326SOL    HW114419   1.348   7.435   1.252 -0.5479  0.6774 -0.3270
 4326SOL    HW214420   1.458   7.343   1.201 -1.6418 -0.8165 -0.0664
 4327SOL     OW14421   6.560   7.285  11.857  0.1038  0.4012 -0.4925
 4327SOL    HW114422   6.500   7.259  11.926  0.1044  1.1622 -0.1958
 4327SOL    HW214423   6.630   7.333  11.902 -0.5485  2.0369 -1.1269
 4328SOL     OW14424   1.608   6.937   2.180  0.0069 -0.0332  0.5595
 4328SOL    HW114425   1.548   6.967   2.247 -1.6539 -0.7737 -0.5356
 4328SOL    HW214426   1.661   7.014   2.159 -0.1250  0.4698  1.9631
 4329SOL     OW14427   1.970   4.723   2.534  0.6462  0.0120 -0.3455
 4329SOL    HW114428   1.944   4.815   2.544  0.8427  0.2021 -1.4842
 4329SOL    HW214429   1.919   4.692   2.460 -0.8131 -1.3554  1.1424
 4330SOL     OW14430   0.895   7.242   0.555 -0.2103  0.8501 -0.3776
 4330SOL    HW114431   0.944   7.178   0.503 -2.4774  0.1796 -1.8618
 4330SOL    HW214432   0.916   7.326   0.515  1.5038  0.8821  0.5216
 4331SOL     OW14433   7.070   6.552   2.137  0.0031  0.2625  0.7814
 4331SOL    HW114434   7.117   6.607   2.200  1.2878 -0.4302  0.4559
 4331SOL    HW214435   6.982   6.591   2.133  0.6870  1.9274  0.9998
 4332SOL     OW14436   1.405   5.750   1.516  0.0187  0.2206 -0.5657
 4332SOL    HW114437   1.362   5.806   1.452  1.5540 -1.8231 -3.6096
 4332SOL    HW214438   1.379   5.662   1.492  0.3865 -0.6337  1.9159
 4333SOL     OW14439   0.390   6.130  11.422  0.3019  0.0558 -0.4368
 4333SOL    HW114440   0.436   6.047  11.431 -0.7236 -0.5780 -0.9044
 4333SOL    HW214441   0.310   6.120  11.472  0.0498  0.6824 -0.6988
 4334SOL     OW14442   7.226   6.525  12.324  0.0884 -0.2206 -1.0452
 4334SOL    HW114443   7.180   6.465  12.265 -0.0556 -0.1412 -1.0152
 4334SOL    HW214444   7.318   6.508  12.308  0.0501 -0.2623 -1.2330
 4335SOL     OW14445   1.050   7.113   1.987 -0.2475 -0.1583 -0.6620
 4335SOL    HW114446   0.970   7.133   1.938  0.1380 -1.8692 -2.0822
 4335SOL    HW214447   1.036   7.024   2.020 -0.0020  0.5155  1.4039
 4336SOL     OW14448   0.442   6.067   1.284 -0.1064  0.6414 -0.3056
 4336SOL    HW114449   0.458   6.055   1.190 -0.1484  0.6753 -0.3166
 4336SOL    HW214450   0.354   6.103   1.290 -0.0053  0.8842 -0.2678
 4337SOL     OW14451   1.285   7.937   1.128 -0.4268  0.0991  0.4470
 4337SOL    HW114452   1.330   8.016   1.100  0.3555 -0.7506 -0.7887
 4337SOL    HW214453   1.192   7.960   1.125 -0.1801  1.2043  0.9017
 4338SOL     OW14454   0.005   6.222   1.731 -0.2201 -0.0027  0.5094
 4338SOL    HW114455  -0.087   6.204   1.750 -0.4951 -0.2577 -0.9801
 4338SOL    HW214456   0.013   6.317   1.736 -0.0935 -0.0792  2.5771
 4339SOL     OW14457   2.617   4.164   3.662  0.6220 -0.4119 -0.1346
 4339SOL    HW114458   2.671   4.085   3.663  1.0856 -0.0998  0.9236
 4339SOL    HW214459   2.672   4.232   3.703  0.5597  0.6967 -1.7979
 4340SOL     OW14460   0.739   7.098   1.329  0.8009 -0.9822 -0.6948
 4340SOL    HW114461   0.663   7.071   1.381  2.0412  0.6689  2.2319
 4340SOL    HW214462   0.800   7.025   1.338  0.6027 -1.1557 -0.7422
 4341SOL     OW14463   1.564   6.091   1.870  0.1208  0.4254  0.0559
 4341SOL    HW114464   1.638   6.073   1.812 -0.1241 -0.5019  0.0112
 4341SOL    HW214465   1.604   6.107   1.955  0.4863  1.8256 -0.3502
 4342SOL     OW14466   1.536   5.685   0.927  0.3507 -0.5840  0.1052
 4342SOL    HW114467   1.609   5.628   0.901 -0.2963 -0.8551 -1.2520
 4342SOL    HW214468   1.475   5.627   0.973 -0.5834 -1.1981 -1.7875
 4343SOL     OW14469   7.065   6.704  12.456  0.0887 -0.1000 -0.4510
 4343SOL    HW114470   7.041   6.763  12.385  1.9104  2.0422  0.6220
 4343SOL    HW214471   7.121   6.638  12.415 -0.6665 -0.2030 -1.3607
 4344SOL     OW14472   3.693   4.976   1.734  0.2774 -0.8642 -0.4834
 4344SOL    HW114473   3.768   4.973   1.793  0.7720 -0.8569 -1.0955
 4344SOL    HW214474   3.701   5.060   1.690  0.6225 -1.3847 -1.4467
 4345SOL     OW14475   1.555   6.783   1.352  0.1399  0.1461  0.3064
 4345SOL    HW114476   1.589   6.811   1.267  0.4536 -0.0885  0.3496
 4345SOL    HW214477   1.508   6.702   1.333  0.9103 -0.3554  0.4726
 4346SOL     OW14478   7.837   7.064  11.513 -0.5478  0.2979 -0.2129
 4346SOL    HW114479   7.932   7.071  11.499 -0.5368 -1.3818 -1.2758
 4346SOL    HW214480   7.800   7.128  11.452 -0.1183  1.2216  0.4611
 4347SOL     OW14481   7.979   7.079   2.145  0.0578 -0.5216 -0.4799
 4347SOL    HW114482   7.906   7.131   2.112  0.6015  0.3068 -0.4248
 4347SOL    HW214483   8.055   7.138   2.138  0.7996 -1.5093 -0.9506
 4348SOL     OW14484   0.614   6.961  12.348 -0.4986 -0.1929 -0.0170
 4348SOL    HW114485   0.608   6.912  12.430 -0.6402  1.0239  0.7306
 4348SOL    HW214486   0.542   7.024  12.353 -0.5836 -0.1875 -1.1424
 4349SOL     OW14487   0.205   7.146   1.760 -0.0850 -0.0031 -0.1507
 4349SOL    HW114488   0.284   7.196   1.740  0.6659 -1.0613  0.0312
 4349SOL    HW214489   0.133   7.204   1.739  0.7174  0.3360 -2.1237
 4350SOL     OW14490   2.999   7.666  12.401  0.2655  0.4426  0.2629
 4350SOL    HW114491   2.913   7.708  12.394 -0.6991 -1.4917 -0.3636
 4350SOL    HW214492   3.033   7.694  12.485 -1.0622  1.1330  0.6030
 4351SOL     OW14493   6.830   6.174   2.777 -0.5781 -0.1577 -0.0473
 4351SOL    HW114494   6.830   6.202   2.686 -2.2194 -0.1087 -0.0732
 4351SOL    HW214495   6.739   6.149   2.794 -0.6143  1.0659  1.9433
 4352SOL     OW14496   0.743   6.966   0.739  0.8374  0.3293  0.0003
 4352SOL    HW114497   0.697   6.933   0.817 -3.0203  2.1966 -1.2279
 4352SOL    HW214498   0.733   6.897   0.674  0.6711  0.2897  0.0664
 4353SOL     OW14499   0.137   7.771   0.709 -0.0402  0.0167 -0.1691
 4353SOL    HW114500   0.096   7.857   0.717  0.0401 -0.0686  1.3788
 4353SOL    HW214501   0.167   7.767   0.618 -2.1509  0.6446 -0.9349
 4354SOL     OW14502   1.540   5.626   1.892  0.3464  0.0709  0.6213
 4354SOL    HW114503   1.453   5.607   1.855 -0.0017 -0.8962  1.8557
 4354SOL    HW214504   1.590   5.545   1.876  1.3692  0.9695 -0.9681
 4355SOL     OW14505   7.459   7.211   0.510 -0.0557 -0.0951  0.0753
 4355SOL    HW114506   7.455   7.307   0.508  0.5577 -0.0588  0.4256
 4355SOL    HW214507   7.370   7.184   0.533 -0.1904  0.3993  0.1403
 4356SOL     OW14508   1.197   6.151   0.138  0.1757  0.4268  0.1774
 4356SOL    HW114509   1.143   6.207   0.082 -0.0161 -1.1462 -1.2739
 4356SOL    HW214510   1.233   6.211   0.204 -0.2257  2.2056 -1.1450
 4357SOL     OW14511   6.815   5.871   2.392  0.1963 -0.0720 -0.1103
 4357SOL    HW114512   6.851   5.892   2.478  1.7232  2.7344 -1.2755
 4357SOL    HW214513   6.731   5.916   2.390 -0.5694 -1.4438  0.4266
 4358SOL     OW14514   0.151   6.102   2.859 -0.0507 -0.5445 -0.0314
 4358SOL    HW114515   0.198   6.028   2.821  0.0990 -0.6545  0.3705
 4358SOL    HW214516   0.086   6.062   2.917  0.0183 -0.3611  0.1734
 4359SOL     OW14517   1.539   4.927   1.881 -0.2092 -0.0991  0.9676
 4359SOL    HW114518   1.504   4.998   1.827  2.4355  0.0199 -0.7854
 4359SOL    HW214519   1.550   4.966   1.967  1.3667  1.7718 -0.0019
 4360SOL     OW14520   7.629   7.536   1.397  0.1883 -0.1618 -0.2542
 4360SOL    HW114521   7.659   7.524   1.486 -1.7861 -0.4795  0.4178
 4360SOL    HW214522   7.625   7.448   1.360 -0.5388 -0.1973 -0.1043
 4361SOL     OW14523   1.014   6.734   0.313  0.5609 -0.3054  0.4136
 4361SOL    HW114524   1.025   6.640   0.329  2.0665 -0.0942  0.7581
 4361SOL    HW214525   1.019   6.773   0.400 -0.2467  0.0828  0.2863
 4362SOL     OW14526   2.226   5.501  11.977 -0.1967 -0.6565 -0.0218
 4362SOL    HW114527   2.171   5.528  11.904  0.2179 -0.8005 -0.3921
 4362SOL    HW214528   2.200   5.410  11.994 -0.8884 -0.3540  0.5682
 4363SOL     OW14529   2.212   6.039   1.651  0.0616 -0.3321 -0.3761
 4363SOL    HW114530   2.200   5.946   1.667 -0.8034 -0.3656 -1.1171
 4363SOL    HW214531   2.208   6.047   1.555  2.0841  0.2169 -0.4737
 4364SOL     OW14532   1.690   4.690   0.699  0.1233 -0.2041  0.0887
 4364SOL    HW114533   1.738   4.760   0.655 -0.4326  0.4156  0.4383
 4364SOL    HW214534   1.716   4.698   0.791  1.0355 -1.2842 -0.0668
 4365SOL     OW14535   1.008   5.915   0.311 -0.1532  0.3161  0.0678
 4365SOL    HW114536   0.925   5.916   0.358 -0.5187 -2.0362 -0.3776
 4365SOL    HW214537   1.072   5.886   0.376  0.2966  1.8999  0.3516
 4366SOL     OW14538   1.183   7.274  12.470 -0.1722 -0.1358 -0.2217
 4366SOL    HW114539   1.149   7.255  12.558  0.8671 -0.4355  0.1319
 4366SOL    HW214540   1.193   7.369  12.468 -0.0931 -0.1368  0.0381
 4367SOL     OW14541   7.521   7.065   2.570 -0.0474  0.1747  0.0606
 4367SOL    HW114542   7.499   7.156   2.552 -1.5164  0.0507  1.0830
 4367SOL    HW214543   7.484   7.048   2.656  1.4389 -0.9971  0.5160
 4368SOL     OW14544   5.463   5.686   2.307  0.3788 -0.1549  0.0493
 4368SOL    HW114545   5.406   5.612   2.284  2.2175 -1.3532 -0.9184
 4368SOL    HW214546   5.547   5.663   2.268  1.7171  1.2310  1.9950
 4369SOL     OW14547   0.614   7.699   2.266 -0.2357  0.0629  0.0480
 4369SOL    HW114548   0.599   7.792   2.283  0.1342  0.3893 -1.2386
 4369SOL    HW214549   0.698   7.680   2.308 -0.3619  0.2916  0.4021
 4370SOL     OW14550   7.199   6.605   2.637 -0.2690  0.2660  0.1168
 4370SOL    HW114551   7.117   6.622   2.591 -0.0697  0.1237 -0.2983
 4370SOL    HW214552   7.266   6.647   2.583 -0.0713  0.4074  0.4679
 4371SOL     OW14553   1.484   7.999   2.473 -0.1258 -0.6602  0.0179
 4371SOL    HW114554   1.470   7.937   2.545  0.0487 -1.7733 -0.8922
 4371SOL    HW214555   1.530   8.072   2.514 -0.0287 -1.2703  1.0413
 4372SOL     OW14556   0.745   5.697   3.899 -0.0925  0.5578 -0.2016
 4372SOL    HW114557   0.746   5.692   3.803  2.7779  2.9479 -0.4515
 4372SOL    HW214558   0.791   5.619   3.928 -3.7224 -1.9062 -0.4128
 4373SOL     OW14559   2.354   7.654   1.510 -0.1992 -0.4748 -0.4418
 4373SOL    HW114560   2.333   7.573   1.556  1.9536 -0.6314  0.3669
 4373SOL    HW214561   2.379   7.625   1.422  1.3033 -0.8246  0.0656
 4374SOL     OW14562   1.313   6.197   3.254  0.0434  0.2697 -0.6211
 4374SOL    HW114563   1.337   6.227   3.167 -1.0975 -0.1642 -1.1031
 4374SOL    HW214564   1.322   6.274   3.310 -0.9224  1.0052 -1.4562
 4375SOL     OW14565   1.489   5.163   5.201 -0.1405 -0.2126 -0.0765
 4375SOL    HW114566   1.419   5.207   5.248  0.4241 -1.4978  2.0855
 4375SOL    HW214567   1.559   5.228   5.196 -0.5000  0.1978  0.1705
 4376SOL     OW14568   0.179   6.756   2.050 -0.1601 -0.0177 -0.0382
 4376SOL    HW114569   0.096   6.766   2.003 -0.0833 -0.7725 -0.3400
 4376SOL    HW214570   0.235   6.708   1.990  1.1907  2.1677 -0.6572
 4377SOL     OW14571   0.722   7.352   6.506 -0.5520 -0.0917  0.4411
 4377SOL    HW114572   0.665   7.316   6.438  0.6293 -1.2603  0.0150
 4377SOL    HW214573   0.676   7.334   6.588 -1.3067 -0.0029  0.0437
 4378SOL     OW14574   1.386   6.961   3.600 -0.1963 -0.1471  0.1133
 4378SOL    HW114575   1.454   6.956   3.532  2.6265  2.0258  2.5224
 4378SOL    HW214576   1.316   7.012   3.559  0.6703 -0.2993 -1.6829
 4379SOL     OW14577   2.082   6.778   4.123  0.3347  0.2191  0.0224
 4379SOL    HW114578   2.146   6.784   4.052  0.0234 -0.0904 -0.2852
 4379SOL    HW214579   2.084   6.864   4.165  0.9974  0.1953  0.0563
 4380SOL     OW14580   0.437   6.294   2.659  0.3961  0.1058 -0.1194
 4380SOL    HW114581   0.490   6.370   2.636 -0.1345  0.6118  0.2997
 4380SOL    HW214582   0.403   6.314   2.746  1.3341 -1.2128  0.5917
 4381SOL     OW14583   3.062   6.329   1.944 -0.3707  0.5091  0.0574
 4381SOL    HW114584   2.986   6.383   1.966  0.8696  1.6443  1.8041
 4381SOL    HW214585   3.094   6.298   2.029  0.3345 -1.1037 -0.7500
 4382SOL     OW14586   1.741   1.397   2.350  0.0511 -0.0151  0.3863
 4382SOL    HW114587   1.792   1.474   2.374  0.9503  0.0438 -1.5258
 4382SOL    HW214588   1.664   1.432   2.304  0.7052 -0.2184 -0.9225
 4383SOL     OW14589   0.878   7.852   4.014 -0.0046 -0.9669  0.2966
 4383SOL    HW114590   0.946   7.878   3.951 -1.2454  0.7320 -0.4240
 4383SOL    HW214591   0.866   7.929   4.070 -0.1772 -1.8334  1.4934
 4384SOL     OW14592   0.619   6.449   2.235  0.0637  0.1400 -0.5936
 4384SOL    HW114593   0.685   6.518   2.228  0.0764  0.4035  1.5167
 4384SOL    HW214594   0.547   6.479   2.180  0.7710  0.9521 -1.1105
 4385SOL     OW14595   1.297   7.563   2.376  0.0598  0.1393 -0.5459
 4385SOL    HW114596   1.278   7.616   2.454 -2.9462 -1.5377  0.0046
 4385SOL    HW214597   1.348   7.621   2.320  0.9215  1.9838  1.9279
 4386SOL     OW14598   0.407   6.616   2.893  0.2818  0.0330  0.2634
 4386SOL    HW114599   0.416   6.540   2.836  0.0762 -0.2220  0.5708
 4386SOL    HW214600   0.382   6.580   2.978  0.9314  0.3783  0.6113
 4387SOL     OW14601   7.440   0.232   2.317 -0.1231 -0.7345 -0.1206
 4387SOL    HW114602   7.390   0.265   2.243  1.1770 -3.6957 -2.5642
 4387SOL    HW214603   7.381   0.169   2.360 -0.8386  0.9009  1.4096
 4388SOL     OW14604   2.781   5.789   2.204  0.0239 -0.2224  0.4416
 4388SOL    HW114605   2.838   5.774   2.128 -0.7425 -0.0526 -0.1835
 4388SOL    HW214606   2.751   5.701   2.229  0.6284 -0.3236  0.8408
 4389SOL     OW14607   1.633   5.706   2.780 -0.2936  0.2357 -0.6841
 4389SOL    HW114608   1.683   5.726   2.859 -1.3232 -1.9937  0.6505
 4389SOL    HW214609   1.553   5.758   2.788  0.2672  1.1865 -1.0798
 4390SOL     OW14610   1.047   7.992   0.845  0.2368 -0.0995 -0.6756
 4390SOL    HW114611   1.047   7.983   0.940  0.0955 -1.0967 -0.7587
 4390SOL    HW214612   0.968   7.945   0.817  1.2287 -1.4206 -1.4079
 4391SOL     OW14613   6.944   5.782   1.637  0.0979 -0.4071 -0.6401
 4391SOL    HW114614   7.016   5.748   1.584  1.6659  0.0038  1.0991
 4391SOL    HW214615   6.979   5.862   1.677 -1.8981  0.7139 -0.9782
 4392SOL     OW14616   2.401   7.119   1.828  0.2183 -0.0898  0.3171
 4392SOL    HW114617   2.474   7.129   1.766 -1.7143 -0.9133 -2.2826
 4392SOL    HW214618   2.405   7.027   1.855  0.4285 -0.0041  0.5814
 4393SOL     OW14619   3.354   7.393   1.261  0.0190 -0.2209  0.2821
 4393SOL    HW114620   3.355   7.349   1.346  0.1742 -0.0193  0.3864
 4393SOL    HW214621   3.370   7.485   1.282 -2.2044  0.2319  0.2734
 4394SOL     OW14622   7.791   5.284   4.822  0.1569 -0.4507 -0.0210
 4394SOL    HW114623   7.793   5.222   4.749 -0.8096  0.0606 -0.5058
 4394SOL    HW214624   7.765   5.232   4.897 -0.2047 -0.7338 -0.3356
 4395SOL     OW14625   2.262   6.816   3.922 -0.2487 -0.5771  0.1930
 4395SOL    HW114626   2.257   6.746   3.856 -0.9825 -1.2043  0.8909
 4395SOL    HW214627   2.249   6.897   3.872  0.3905 -0.9402 -0.5972
 4396SOL     OW14628   7.406   5.913   2.098  0.7092  0.1645 -0.6240
 4396SOL    HW114629   7.495   5.925   2.131  0.7670 -0.1472 -0.6659
 4396SOL    HW214630   7.350   5.950   2.166  0.7601 -1.5672  0.4203
 4397SOL     OW14631   7.705   7.945   2.958  0.3243  0.1573 -0.4801
 4397SOL    HW114632   7.668   7.963   2.872  1.0331  2.5573 -0.3713
 4397SOL    HW214633   7.797   7.925   2.941  0.0197 -1.3811 -0.4089
 4398SOL     OW14634   2.382   7.456   2.648  0.7525 -0.1801 -0.0912
 4398SOL    HW114635   2.294   7.446   2.686  0.9803 -0.9751  0.2381
 4398SOL    HW214636   2.407   7.368   2.621  0.8156  0.2823 -1.6483
 4399SOL     OW14637   1.817   5.834   2.957 -0.1109 -0.0925  0.0695
 4399SOL    HW114638   1.899   5.883   2.967 -0.5237  0.6447 -0.0994
 4399SOL    HW214639   1.749   5.894   2.986 -0.6192 -0.6220  0.0024
 4400SOL     OW14640   7.941   5.539   5.838  0.4575 -0.6106 -0.0136
 4400SOL    HW114641   7.887   5.593   5.895 -1.0188 -0.9359 -1.0548
 4400SOL    HW214642   7.907   5.555   5.750  2.1054 -0.7947 -0.7181
 4401SOL     OW14643   1.622   6.247   2.679  0.5410  0.1814 -0.1009
 4401SOL    HW114644   1.573   6.284   2.606 -0.1814 -0.2904  0.1437
 4401SOL    HW214645   1.556   6.220   2.742  1.1712  1.4945  1.1998
 4402SOL     OW14646   2.749   1.159   0.436  0.5290 -0.0866  0.2388
 4402SOL    HW114647   2.742   1.073   0.477  2.5264 -1.9604 -2.9229
 4402SOL    HW214648   2.749   1.141   0.342  2.9919  3.1519 -0.5674
 4403SOL     OW14649   1.355   0.203   2.718 -0.4114 -0.6412 -0.3849
 4403SOL    HW114650   1.307   0.210   2.636 -0.9183 -1.1712 -0.1389
 4403SOL    HW214651   1.289   0.181   2.783 -0.2366  1.0249  0.4234
 4404SOL     OW14652   2.654   6.695   2.298  0.1123 -0.0260 -0.0899
 4404SOL    HW114653   2.697   6.757   2.239  0.4533  0.8609  1.0330
 4404SOL    HW214654   2.681   6.609   2.267  1.9914  0.4749  0.0273
 4405SOL     OW14655   2.469   7.926   0.850  0.5318  0.2088  0.3620
 4405SOL    HW114656   2.549   7.890   0.812 -0.7496 -1.2560 -1.1138
 4405SOL    HW214657   2.462   8.014   0.815  1.1789  0.1367  0.0376
 4406SOL     OW14658   2.711   7.257   1.991  0.5527  0.6388 -0.2768
 4406SOL    HW114659   2.724   7.179   2.045 -3.5617 -1.0170 -1.2667
 4406SOL    HW214660   2.657   7.315   2.045 -1.8012 -0.1254 -1.6275
 4407SOL     OW14661   2.414   4.408   3.304  0.1044 -0.0504  0.1527
 4407SOL    HW114662   2.449   4.482   3.354 -1.6077 -0.6312  2.3500
 4407SOL    HW214663   2.459   4.331   3.340 -2.2054 -0.6463  2.0238
 4408SOL     OW14664   0.528   6.634   4.338  0.6198  0.3547 -0.1104
 4408SOL    HW114665   0.561   6.550   4.369 -0.5836  0.5159  1.7561
 4408SOL    HW214666   0.606   6.684   4.314  1.3730 -1.0575 -0.6596
 4409SOL     OW14667   0.755   6.203   3.652 -0.0403  0.6377  0.2945
 4409SOL    HW114668   0.816   6.256   3.704  0.0581 -2.0717  3.2256
 4409SOL    HW214669   0.686   6.179   3.714 -0.8749 -1.3567 -1.3076
 4410SOL     OW14670   1.424   6.931   2.838 -0.9421  0.6034  0.0093
 4410SOL    HW114671   1.438   6.841   2.809  3.0795  0.8127  0.6973
 4410SOL    HW214672   1.426   6.983   2.758  3.8991  0.5658 -0.2015
 4411SOL     OW14673   7.866   5.361   1.759 -0.1549  0.0020  0.4524
 4411SOL    HW114674   7.838   5.274   1.732 -0.7564  0.2829  0.1519
 4411SOL    HW214675   7.940   5.382   1.702 -0.0773 -0.2611  0.4558
 4412SOL     OW14676   7.123   7.036   3.095  0.2164  0.3342 -0.1423
 4412SOL    HW114677   7.079   7.106   3.046 -2.9017 -0.5114  1.1781
 4412SOL    HW214678   7.133   7.071   3.183 -0.7297 -0.5860  0.3541
 4413SOL     OW14679   0.155   5.466   1.911  0.3976  0.0587  0.3098
 4413SOL    HW114680   0.080   5.435   1.962  0.2898 -1.0258 -0.4695
 4413SOL    HW214681   0.128   5.552   1.878 -0.0549  0.1653  0.9386
 4414SOL     OW14682   0.363   7.380   2.774  0.5271  0.1897  0.0157
 4414SOL    HW114683   0.322   7.428   2.846  3.7515  1.7015  1.0107
 4414SOL    HW214684   0.293   7.372   2.708 -1.5470  1.8386  1.8482
 4415SOL     OW14685   1.940   4.868   5.601  0.3707 -0.0985 -0.3629
 4415SOL    HW114686   1.971   4.796   5.547  1.7359 -0.4625  0.8673
 4415SOL    HW214687   1.948   4.945   5.544 -0.9467 -0.8367 -1.6319
 4416SOL     OW14688   0.953   7.313   3.466  0.4726  0.2577  0.3966
 4416SOL    HW114689   1.021   7.363   3.510  0.1495  1.7378 -0.6841
 4416SOL    HW214690   0.955   7.344   3.375 -1.5762  0.3064  0.3086
 4417SOL     OW14691   1.422   1.881   4.346 -0.1471  0.2573  0.2102
 4417SOL    HW114692   1.362   1.937   4.394  2.5867  1.3075  2.6710
 4417SOL    HW214693   1.482   1.941   4.302  2.1054 -0.6321  1.9058
 4418SOL     OW14694   1.927   7.505   1.723  0.0228  0.4317 -0.0232
 4418SOL    HW114695   1.874   7.510   1.803  0.8609 -0.4393  0.6189
 4418SOL    HW214696   1.870   7.538   1.654 -1.1285  0.1158  0.7438
 4419SOL     OW14697   1.241   7.867   2.896 -0.1681  0.2004 -0.3627
 4419SOL    HW114698   1.170   7.917   2.855 -0.4718  0.2168  0.1759
 4419SOL    HW214699   1.214   7.858   2.987  0.8099  0.7391  0.0011
 4420SOL     OW14700   6.998   6.179   4.133 -0.2062  0.5035 -0.6806
 4420SOL    HW114701   6.965   6.270   4.130 -0.7491  0.2895 -2.0205
 4420SOL    HW214702   6.919   6.126   4.144  0.0644  0.1642 -0.3711
 4421SOL     OW14703   1.032   5.374   2.801 -0.2871  0.3714  0.6237
 4421SOL    HW114704   1.086   5.329   2.866  0.0037 -0.8981 -0.4659
 4421SOL    HW214705   0.943   5.346   2.821 -0.1996 -0.0111  0.4842
 4422SOL     OW14706   7.786   0.327   4.578  0.1745  0.0500  0.1908
 4422SOL    HW114707   7.705   0.351   4.623  1.0251 -0.2775  1.9616
 4422SOL    HW214708   7.804   0.237   4.606  0.3152 -0.4811 -1.4764
 4423SOL     OW14709   1.282   6.916   2.223 -0.0977 -0.2524  0.1897
 4423SOL    HW114710   1.256   6.994   2.272 -2.5636 -0.8349 -0.0729
 4423SOL    HW214711   1.312   6.855   2.291  3.5759  1.4143  0.2650
 4424SOL     OW14712   0.702   7.380   4.449  0.1592  0.1566  0.7379
 4424SOL    HW114713   0.760   7.436   4.397 -1.3018  0.5704 -0.5142
 4424SOL    HW214714   0.735   7.292   4.436 -1.5574 -0.1178 -3.0180
 4425SOL     OW14715   2.940   7.625   3.902 -0.4689  0.2720  0.2051
 4425SOL    HW114716   3.005   7.686   3.938 -1.4009  2.2887 -1.3487
 4425SOL    HW214717   2.985   7.541   3.898  1.4264  1.2054  0.8823
 4426SOL     OW14718   0.814   7.236   2.096 -0.0246  0.1320 -0.6125
 4426SOL    HW114719   0.761   7.159   2.078  0.0654  0.2028 -1.2199
 4426SOL    HW214720   0.752   7.304   2.121 -0.1028 -0.1379 -0.0639
 4427SOL     OW14721   7.898   6.656   1.663  0.3514 -0.2119 -0.4627
 4427SOL    HW114722   7.885   6.678   1.571 -0.6890  0.0697 -0.2585
 4427SOL    HW214723   7.812   6.631   1.695  0.9627 -1.7380  0.0839
 4428SOL     OW14724   1.199   7.121   3.505  0.3299 -0.2864  0.3570
 4428SOL    HW114725   1.110   7.089   3.491  1.4802 -3.6035 -0.2212
 4428SOL    HW214726   1.227   7.153   3.419 -0.6571  2.0867  0.8316
 4429SOL     OW14727   3.151   7.967   2.039 -0.2565 -0.0808 -0.0315
 4429SOL    HW114728   3.079   7.922   2.084 -0.7395 -2.3358 -2.7667
 4429SOL    HW214729   3.119   8.056   2.026 -1.3147 -0.2095  1.3607
 4430SOL     OW14730   0.451   5.617   2.656  0.2396  0.2163  0.1518
 4430SOL    HW114731   0.467   5.562   2.733  0.9466 -0.9131 -0.7584
 4430SOL    HW214732   0.487   5.566   2.583 -0.2358  1.3452 -0.9007
 4431SOL     OW14733   2.862   6.118   3.368  0.0704  0.2900  0.2258
 4431SOL    HW114734   2.792   6.121   3.303 -2.5718  0.9271  2.8335
 4431SOL    HW214735   2.854   6.031   3.408  3.5957 -1.2913 -2.0403
 4432SOL     OW14736   0.421   4.875   2.544  0.1705 -0.4827 -0.3337
 4432SOL    HW114737   0.389   4.907   2.628  1.4277  0.3794 -0.1492
 4432SOL    HW214738   0.509   4.841   2.563  0.4860 -0.2374 -1.2822
 4433SOL     OW14739   7.794   5.505   3.480  0.3454 -0.5042  0.7826
 4433SOL    HW114740   7.830   5.422   3.448 -0.0100 -0.8997  1.3798
 4433SOL    HW214741   7.712   5.516   3.431  1.1156  0.2490 -0.3644
 4434SOL     OW14742   2.768   0.988   3.476 -0.5230  0.2775  0.0658
 4434SOL    HW114743   2.693   0.931   3.492 -0.0619 -0.8411 -1.4470
 4434SOL    HW214744   2.842   0.942   3.517 -0.2591  0.1017 -0.5943
 4435SOL     OW14745   1.872   5.351   4.209  0.2913 -0.0002 -0.1894
 4435SOL    HW114746   1.959   5.311   4.211 -0.2359 -1.1951 -0.2411
 4435SOL    HW214747   1.847   5.349   4.117 -0.1232 -0.4084 -0.0697
 4436SOL     OW14748   7.802   7.288   3.328 -0.0459  0.3318  0.0077
 4436SOL    HW114749   7.732   7.328   3.276 -0.0384  0.3097 -0.0192
 4436SOL    HW214750   7.816   7.202   3.287  0.1918  0.4491 -0.1605
 4437SOL     OW14751   0.543   5.885   2.649 -0.5939 -0.0613 -0.0482
 4437SOL    HW114752   0.622   5.905   2.599 -0.4903  0.3781  0.2878
 4437SOL    HW214753   0.533   5.790   2.641 -0.7698  0.0333 -1.1773
 4438SOL     OW14754   0.661   6.744   2.982  0.0494  0.0682  0.6855
 4438SOL    HW114755   0.588   6.699   2.939  1.0424 -0.9360 -0.0318
 4438SOL    HW214756   0.630   6.763   3.070 -0.9702 -0.6154  0.4887
 4439SOL     OW14757   1.528   7.090   2.418 -0.0709  0.4357  0.4132
 4439SOL    HW114758   1.611   7.111   2.461  0.3476 -0.0920 -0.1162
 4439SOL    HW214759   1.504   7.171   2.372  0.0531  0.6463  0.7161
 4440SOL     OW14760   0.101   7.317   2.076 -0.3303  0.4017  0.0044
 4440SOL    HW114761   0.175   7.337   2.134  1.1883  1.0112 -2.0579
 4440SOL    HW214762   0.041   7.390   2.089 -0.7812 -0.2383  1.9156
 4441SOL     OW14763   1.403   6.729   3.764 -0.5042  0.6889  0.3824
 4441SOL    HW114764   1.425   6.793   3.696 -1.8997 -0.2111 -0.9836
 4441SOL    HW214765   1.487   6.699   3.797  0.1936  2.1080 -0.0203
 4442SOL     OW14766   1.593   6.493   2.908  1.0706  0.1628  0.8035
 4442SOL    HW114767   1.533   6.535   2.846  1.1582  0.0002  0.6048
 4442SOL    HW214768   1.548   6.497   2.992  0.1222 -1.2775  0.3959
 4443SOL     OW14769   0.435   6.215   1.773  0.3655 -0.2557 -0.0298
 4443SOL    HW114770   0.387   6.147   1.727  0.5881 -1.3348  1.2822
 4443SOL    HW214771   0.496   6.250   1.707  0.1784 -1.2547 -0.7503
 4444SOL     OW14772   0.252   7.241   2.541  0.3988  0.3632  0.4673
 4444SOL    HW114773   0.171   7.266   2.585  0.6937 -0.5069  1.5742
 4444SOL    HW214774   0.235   7.153   2.506  0.6976  0.3706  0.3003
 4445SOL     OW14775   1.744   1.623   3.484 -0.6939  0.4475 -0.1417
 4445SOL    HW114776   1.683   1.551   3.470 -0.3802  0.5343 -2.2674
 4445SOL    HW214777   1.697   1.683   3.542 -1.6446 -0.6232  0.2390
 4446SOL     OW14778   1.024   6.031   1.960 -0.3062 -0.7834 -0.1078
 4446SOL    HW114779   1.094   5.978   1.998  0.7459 -0.8940 -2.0769
 4446SOL    HW214780   1.002   6.095   2.028  0.7748 -1.6002  1.0364
 4447SOL     OW14781   0.466   6.385   3.682  0.6118  0.2727  0.6111
 4447SOL    HW114782   0.498   6.294   3.685 -0.0896  0.0310  1.2458
 4447SOL    HW214783   0.426   6.398   3.768 -0.0746  0.8994  0.2010
 4448SOL     OW14784   1.420   6.653   2.761 -0.0069  0.3579  0.0488
 4448SOL    HW114785   1.429   6.682   2.670 -1.0944  2.0781  0.4489
 4448SOL    HW214786   1.325   6.654   2.776  0.1942  0.5234  1.3420
 4449SOL     OW14787   1.555   6.743   3.056 -0.1672  0.3350  0.4361
 4449SOL    HW114788   1.620   6.779   2.997  0.2603  0.0864  0.7464
 4449SOL    HW214789   1.476   6.731   3.002  0.2093  0.1296 -0.0742
 4450SOL     OW14790   0.486   5.095   2.384 -0.2534 -0.2943 -0.0939
 4450SOL    HW114791   0.547   5.072   2.314 -1.0161  1.1909 -1.3051
 4450SOL    HW214792   0.470   5.012   2.430 -1.5478 -1.9132 -3.1251
 4451SOL     OW14793   2.447   7.206   2.517  0.3820  1.0253 -0.5347
 4451SOL    HW114794   2.434   7.271   2.448 -2.0286  1.1033 -0.1198
 4451SOL    HW214795   2.457   7.123   2.470 -0.8687  1.1274 -1.0206
 4452SOL     OW14796   0.105   7.299   3.524 -0.3740  0.4938  0.3772
 4452SOL    HW114797   0.028   7.324   3.473 -0.2054 -1.1573 -0.7856
 4452SOL    HW214798   0.164   7.261   3.460  0.9575  0.7227  1.4354
 4453SOL     OW14799   0.702   5.815   2.174 -0.0741  0.0762 -0.3495
 4453SOL    HW114800   0.677   5.728   2.204  1.6978 -0.6555 -0.8819
 4453SOL    HW214801   0.761   5.848   2.242 -0.5577  0.7806 -0.2612
 4454SOL     OW14802   0.105   6.917   3.749 -0.2816 -0.0619 -0.0998
 4454SOL    HW114803   0.157   6.997   3.754 -0.3057 -0.0405 -0.1883
 4454SOL    HW214804   0.113   6.888   3.658 -0.9527  0.3001 -0.2786
 4455SOL     OW14805   2.338   6.615   2.386 -0.4167 -0.2031  0.2529
 4455SOL    HW114806   2.260   6.630   2.438 -0.6364  1.7939 -0.5753
 4455SOL    HW214807   2.399   6.683   2.415  0.1228 -0.2291 -0.7967
 4456SOL     OW14808   2.171   7.291   2.436 -0.2567 -0.5911 -0.3628
 4456SOL    HW114809   2.091   7.341   2.452  0.9747  0.4339  3.8713
 4456SOL    HW214810   2.154   7.206   2.475  1.6653  0.7713  3.9788
 4457SOL     OW14811   0.441   7.117   2.230 -0.0405 -0.2143  0.4392
 4457SOL    HW114812   0.445   7.213   2.230  1.9057 -0.2460  0.2974
 4457SOL    HW214813   0.378   7.095   2.161  0.0696  0.9664 -0.0617
 4458SOL     OW14814   1.495   5.556   3.783 -0.0326 -0.2130 -0.3260
 4458SOL    HW114815   1.504   5.635   3.729  0.3893  0.8070  1.1583
 4458SOL    HW214816   1.554   5.571   3.858 -3.6923  0.4878  2.7255
 4459SOL     OW14817   0.902   7.330   2.987  0.7566  0.1625 -0.0298
 4459SOL    HW114818   0.816   7.363   2.962  1.2891  1.0767 -0.7508
 4459SOL    HW214819   0.929   7.384   3.060  0.6995 -0.1611  0.2338
 4460SOL     OW14820   2.631   7.121   4.770  0.0294  0.0411  0.3087
 4460SOL    HW114821   2.610   7.168   4.850 -1.2746  1.5258 -0.8431
 4460SOL    HW214822   2.591   7.173   4.700 -1.0011 -2.4748 -1.1011
 4461SOL     OW14823   0.865   0.450   3.114  0.1255  0.1522 -0.2260
 4461SOL    HW114824   0.803   0.449   3.187 -0.7756  2.9433 -0.8266
 4461SOL    HW214825   0.946   0.487   3.151  0.5051 -0.7917 -0.0943
 4462SOL     OW14826   1.070   6.099   2.647  0.7896 -0.3087 -0.0202
 4462SOL    HW114827   1.066   6.173   2.707 -2.6741  2.1807 -2.8490
 4462SOL    HW214828   1.114   6.133   2.569  0.0165 -1.4944 -1.0178
 4463SOL     OW14829   0.869   6.749   4.518  0.2012 -0.5272 -0.3744
 4463SOL    HW114830   0.888   6.719   4.429 -2.7658 -1.3767 -0.8120
 4463SOL    HW214831   0.937   6.709   4.572  3.4922  1.8346 -2.4141
 4464SOL     OW14832   2.237   5.702   2.811  0.5874 -0.0778 -0.2231
 4464SOL    HW114833   2.162   5.651   2.781  0.2597  0.7580 -0.8381
 4464SOL    HW214834   2.214   5.730   2.900  0.9359 -1.2993  0.2868
 4465SOL     OW14835   0.660   7.502   2.735  0.0571  0.3269 -0.2308
 4465SOL    HW114836   0.662   7.510   2.830  2.1676  2.0445 -0.3354
 4465SOL    HW214837   0.574   7.536   2.709 -0.9391 -1.0968  1.0809
 4466SOL     OW14838   7.983   7.564   2.117 -0.1407 -0.0358  0.1933
 4466SOL    HW114839   8.054   7.626   2.136 -1.3370  2.0354 -1.6318
 4466SOL    HW214840   7.919   7.580   2.186  0.2600 -0.4505  0.6713
 4467SOL     OW14841   1.860   5.045   4.045 -0.1713  0.9331  0.1679
 4467SOL    HW114842   1.814   5.085   3.971 -0.4750  0.2613 -0.0122
 4467SOL    HW214843   1.895   5.120   4.094 -1.4847  1.4604  0.3314
 4468SOL     OW14844   7.376   7.587   3.218 -0.0514 -0.3865 -0.5892
 4468SOL    HW114845   7.407   7.674   3.196 -0.4500 -0.5074 -1.7081
 4468SOL    HW214846   7.281   7.595   3.222 -0.0408 -0.5622  0.3029
 4469SOL     OW14847   0.219   7.194   3.732 -0.1462 -0.3262  0.2071
 4469SOL    HW114848   0.167   7.233   3.663 -0.6463 -0.0226  0.7448
 4469SOL    HW214849   0.310   7.216   3.710 -0.2961 -0.2730 -0.3638
 4470SOL     OW14850   1.326   5.607   2.999 -0.1157  0.2247  0.3788
 4470SOL    HW114851   1.246   5.603   2.947 -1.1178  0.1016  1.8661
 4470SOL    HW214852   1.385   5.663   2.948  0.4107 -2.8414 -2.7023
 4471SOL     OW14853   0.930   7.503   2.706  0.0567  0.4534 -0.0258
 4471SOL    HW114854   0.935   7.564   2.779  0.3381 -0.3292  0.6363
 4471SOL    HW214855   0.837   7.484   2.696  0.1107 -0.5781  1.1419
 4472SOL     OW14856   2.455   6.307   2.990  0.0047 -0.0477 -0.3524
 4472SOL    HW114857   2.408   6.270   2.916  0.4016 -0.5055 -0.3761
 4472SOL    HW214858   2.390   6.312   3.060 -0.4694  0.7367 -0.8370
 4473SOL     OW14859   0.124   4.037   2.985  0.5651  0.4016 -0.4293
 4473SOL    HW114860   0.214   4.037   3.019  0.9936  1.2869 -1.5045
 4473SOL    HW214861   0.095   4.128   2.993 -0.7013 -0.0759  1.0109
 4474SOL     OW14862   7.908   0.160   3.042  0.2891 -0.5892  0.1625
 4474SOL    HW114863   7.827   0.112   3.056  0.3131 -0.9773 -0.9214
 4474SOL    HW214864   7.882   0.236   2.989 -0.0470  1.6013  3.1659
 4475SOL     OW14865   0.216   7.042   4.956 -0.0580  0.1425  0.7555
 4475SOL    HW114866   0.129   7.011   4.981 -0.4810  0.6632 -0.0302
 4475SOL    HW214867   0.223   7.021   4.862  0.2012  1.1389  0.5437
 4476SOL     OW14868   2.627   4.210   5.428  0.5653 -0.2470 -0.1133
 4476SOL    HW114869   2.674   4.252   5.357  1.2840  0.1581  0.5892
 4476SOL    HW214870   2.644   4.116   5.417  1.0190 -0.1504 -0.2283
 4477SOL     OW14871   1.586   5.419   3.501  0.1255 -0.5633 -0.4982
 4477SOL    HW114872   1.629   5.505   3.497  3.0521 -1.6481  2.6217
 4477SOL    HW214873   1.550   5.414   3.590 -1.5199 -1.9662 -1.1874
 4478SOL     OW14874   7.799   7.136   2.567  0.0203  0.2884  0.6090
 4478SOL    HW114875   7.717   7.088   2.559  1.2864 -1.8217 -0.6926
 4478SOL    HW214876   7.851   7.107   2.492  2.2231  0.9979  1.7766
 4479SOL     OW14877   0.206   6.461   3.170 -0.0080 -0.1997  0.0566
 4479SOL    HW114878   0.154   6.382   3.157 -0.9847  0.7634 -2.7604
 4479SOL    HW214879   0.296   6.434   3.151 -0.4288 -0.5536 -1.6582
 4480SOL     OW14880   0.849   5.486   2.370  0.1971 -0.1699  0.6806
 4480SOL    HW114881   0.785   5.499   2.299  2.1420  2.0128 -0.7776
 4480SOL    HW214882   0.813   5.535   2.444 -0.0978  0.5605  0.0634
 4481SOL     OW14883   7.393   7.250   2.992 -0.2474 -0.3208  0.0099
 4481SOL    HW114884   7.395   7.256   3.088  3.2264  0.3698  0.0211
 4481SOL    HW214885   7.356   7.333   2.963 -0.6856 -0.2471  0.7569
 4482SOL     OW14886   1.028   6.853   3.088 -0.2400  0.3571  0.5099
 4482SOL    HW114887   1.107   6.907   3.092  0.5345 -0.5912 -1.0140
 4482SOL    HW214888   0.957   6.913   3.109  0.7990  1.4252  1.0978
 4483SOL     OW14889   7.689   6.862   3.571 -0.1350 -0.4391  0.0968
 4483SOL    HW114890   7.758   6.829   3.515  1.6044  1.0786  1.2448
 4483SOL    HW214891   7.664   6.946   3.533 -1.8608 -1.2264 -0.6533
 4484SOL     OW14892   0.902   5.730   2.995  0.0027  0.0682  0.3650
 4484SOL    HW114893   0.809   5.710   3.009  0.3580 -0.1768  2.7784
 4484SOL    HW214894   0.912   5.819   3.027  0.2712  0.8593 -1.7549
 4485SOL     OW14895   1.574   1.009   5.645 -0.0024 -0.1495 -0.2704
 4485SOL    HW114896   1.522   1.048   5.715  0.1797 -1.4935  0.6509
 4485SOL    HW214897   1.528   1.033   5.564 -1.0722  0.1356  0.4097
 4486SOL     OW14898   6.308   6.105   2.319  0.1538  0.3688 -0.3692
 4486SOL    HW114899   6.236   6.169   2.312 -0.2990 -0.1367 -0.3747
 4486SOL    HW214900   6.275   6.038   2.378  1.6030  1.4366  1.7495
 4487SOL     OW14901   1.284   5.480   2.329  0.1099 -0.1138 -0.0621
 4487SOL    HW114902   1.230   5.555   2.303  0.9900  0.3716 -0.5390
 4487SOL    HW214903   1.229   5.432   2.391 -0.8554  0.3780 -0.5031
 4488SOL     OW14904   0.506   7.547   4.143 -0.4212  0.3727  0.1660
 4488SOL    HW114905   0.454   7.508   4.073 -1.4236 -1.0168  1.5807
 4488SOL    HW214906   0.550   7.472   4.184 -0.6667  0.9807  1.6208
 4489SOL     OW14907   0.133   7.484   5.022 -0.2997 -0.5940 -0.3066
 4489SOL    HW114908   0.186   7.496   4.944  1.6686  0.7831  1.1604
 4489SOL    HW214909   0.157   7.398   5.055  1.9635  0.4273  0.9227
 4490SOL     OW14910   0.552   5.010   1.690 -0.4420 -0.1337  0.2824
 4490SOL    HW114911   0.628   4.984   1.637 -0.2661 -0.0860  0.5114
 4490SOL    HW214912   0.477   4.971   1.645 -0.1542 -1.3272  0.8032
 4491SOL     OW14913   0.897   5.019   2.764 -0.1450  0.2983 -0.4658
 4491SOL    HW114914   0.839   5.070   2.820  0.8161 -0.1112  0.9564
 4491SOL    HW214915   0.985   5.049   2.787  0.3076 -0.3489 -1.2840
 4492SOL     OW14916   0.760   6.215   2.270 -0.2467 -0.0651 -0.0525
 4492SOL    HW114917   0.701   6.287   2.293 -0.6954 -1.0580  2.1790
 4492SOL    HW214918   0.727   6.183   2.186 -0.5911  1.7153 -0.6474
 4493SOL     OW14919   2.143   6.971   3.088 -0.6083 -0.5599 -0.1766
 4493SOL    HW114920   2.106   7.023   3.160  3.0064 -0.2917  1.7430
 4493SOL    HW214921   2.183   6.895   3.132  1.3729 -0.6137 -1.9014
 4494SOL     OW14922   0.822   5.633   2.610  0.0899 -0.2600 -0.4822
 4494SOL    HW114923   0.884   5.704   2.631  2.7720 -1.9514 -2.0069
 4494SOL    HW214924   0.808   5.588   2.694  1.3923 -0.1141 -0.1544
 4495SOL     OW14925   1.457   5.279   3.947 -0.0864  0.4336  0.0689
 4495SOL    HW114926   1.505   5.340   4.004  1.3445  0.1413 -0.7883
 4495SOL    HW214927   1.373   5.266   3.992  0.2188  1.7517  1.0954
 4496SOL     OW14928   1.047   5.366   2.096 -0.2419  0.2167  0.0895
 4496SOL    HW114929   1.052   5.413   2.180  0.6457  0.0955  0.1124
 4496SOL    HW214930   0.975   5.409   2.049 -1.4476 -0.4110  1.3269
 4497SOL     OW14931   0.359   7.033   3.057 -0.0837  0.7126 -0.2112
 4497SOL    HW114932   0.328   6.942   3.058  2.5732 -0.3573 -2.1210
 4497SOL    HW214933   0.284   7.084   3.030 -1.2396 -1.1307 -0.6879
 4498SOL     OW14934   7.060   7.506   4.329 -0.4943 -0.1627 -0.0626
 4498SOL    HW114935   7.043   7.451   4.405 -0.9698 -0.0811 -0.1073
 4498SOL    HW214936   7.029   7.593   4.355 -0.5744 -0.1137 -0.3138
 4499SOL     OW14937   7.826   7.522   2.877  0.0832 -0.3259  0.0467
 4499SOL    HW114938   7.824   7.430   2.850 -1.6787  0.1072 -1.5722
 4499SOL    HW214939   7.737   7.539   2.910 -0.7800  1.5596 -2.8608
 4500SOL     OW14940   7.402   7.045   2.816 -0.0402 -0.5109 -0.3066
 4500SOL    HW114941   7.390   7.118   2.877 -1.2288 -0.4737 -0.5544
 4500SOL    HW214942   7.330   6.984   2.837  0.9850 -1.6703 -0.0393
 4501SOL     OW14943   7.027   5.683   2.449 -0.4909 -0.5703 -0.2151
 4501SOL    HW114944   7.039   5.769   2.489  0.2647 -0.4063 -0.7566
 4501SOL    HW214945   6.962   5.639   2.504  2.0769 -1.2182  2.5977
 4502SOL     OW14946   2.094   5.829   3.690 -0.1412  0.4079 -0.0330
 4502SOL    HW114947   2.137   5.788   3.615  0.6765  2.8396 -0.9941
 4502SOL    HW214948   2.083   5.758   3.753  1.6610 -1.1578 -1.3637
 4503SOL     OW14949   1.292   5.349   4.385  0.0153 -0.1707  0.1865
 4503SOL    HW114950   1.272   5.308   4.469 -0.0828 -2.0804 -0.7120
 4503SOL    HW214951   1.377   5.313   4.360  0.4866  1.0963 -0.1283
 4504SOL     OW14952   0.721   6.383   3.183 -0.3053  0.0504  0.5751
 4504SOL    HW114953   0.766   6.374   3.267 -2.0148 -0.1040  1.5293
 4504SOL    HW214954   0.783   6.431   3.128  1.7342 -1.7067  1.1815
 4505SOL     OW14955   0.976   5.657   4.499 -0.2920 -0.0344  0.3109
 4505SOL    HW114956   0.896   5.708   4.508 -0.0829  0.4298 -0.4102
 4505SOL    HW214957   1.015   5.686   4.417  1.1292  0.4506  1.1200
 4506SOL     OW14958   7.278   7.200   3.899 -0.4166 -0.0986  0.0017
 4506SOL    HW114959   7.358   7.149   3.908  0.0527  1.0050  4.0026
 4506SOL    HW214960   7.303   7.289   3.925 -2.8573  0.3268  1.1628
 4507SOL     OW14961   0.485   4.650   5.229  0.3580  0.8353 -0.0961
 4507SOL    HW114962   0.517   4.669   5.317  0.7670  3.2136 -0.6968
 4507SOL    HW214963   0.391   4.667   5.232  0.6607  2.7555 -0.5328
 4508SOL     OW14964   1.538   6.977   4.025 -0.0718 -0.5982  0.7113
 4508SOL    HW114965   1.458   6.994   4.074 -0.2859  0.4638  0.0389
 4508SOL    HW214966   1.560   6.886   4.045 -1.2217 -0.7820  1.2193
 4509SOL     OW14967   7.578   6.911   1.199 -0.1566 -0.4384 -0.1958
 4509SOL    HW114968   7.572   6.939   1.290 -1.0403  0.2935 -0.4674
 4509SOL    HW214969   7.655   6.956   1.165 -0.9660  0.8823 -0.3391
 4510SOL     OW14970   1.649   6.450   4.617  0.0754 -0.3131  0.1921
 4510SOL    HW114971   1.589   6.395   4.566  3.1313 -2.7230 -1.1191
 4510SOL    HW214972   1.633   6.539   4.585 -2.6675 -0.8278 -0.1107
 4511SOL     OW14973   3.092   6.841   4.639  0.0556  0.3283  1.0417
 4511SOL    HW114974   3.053   6.762   4.601  1.0111  0.5622 -0.4985
 4511SOL    HW214975   3.182   6.816   4.658  0.0521  0.7302  1.6381
 4512SOL     OW14976   1.455   4.881   3.973 -0.0242  0.1784  0.2540
 4512SOL    HW114977   1.541   4.889   3.934 -0.3309  1.4519 -0.1932
 4512SOL    HW214978   1.455   4.943   4.045 -0.3516 -0.2850  0.6611
 4513SOL     OW14979   7.776   0.066   2.345 -0.4837  0.1015  0.2828
 4513SOL    HW114980   7.859   0.019   2.352 -1.6162 -2.3841 -1.5261
 4513SOL    HW214981   7.754   0.089   2.436  1.8127  0.2784  0.8606
 4514SOL     OW14982   0.200   7.434   1.798  0.0894 -0.3176 -0.1136
 4514SOL    HW114983   0.134   7.396   1.739  0.3906  0.0232 -0.6757
 4514SOL    HW214984   0.176   7.400   1.884  0.3392 -1.7978 -0.5841
 4515SOL     OW14985   0.722   7.532   3.872 -0.1059  0.2462 -0.8178
 4515SOL    HW114986   0.707   7.561   3.782 -0.4834  1.9654 -0.2373
 4515SOL    HW214987   0.706   7.437   3.869  0.1806  0.2099 -2.6046
 4516SOL     OW14988   0.973   3.985   1.074  0.1576 -0.0899  0.2359
 4516SOL    HW114989   0.973   4.078   1.099 -0.9609  0.1528 -0.5391
 4516SOL    HW214990   1.050   3.948   1.117  0.0981  0.9894  1.3290
 4517SOL     OW14991   1.228   6.490   2.585  0.5559 -0.6536  0.1025
 4517SOL    HW114992   1.280   6.561   2.547  0.0700 -0.9196 -1.0779
 4517SOL    HW214993   1.273   6.411   2.557  0.0076 -0.8620 -0.1832
 4518SOL     OW14994   7.048   5.656   4.886  0.0538 -0.2196  0.0916
 4518SOL    HW114995   7.085   5.631   4.802  0.7582 -1.7380  0.8148
 4518SOL    HW214996   7.036   5.573   4.933 -2.5134  0.3649  0.6150
 4519SOL     OW14997   3.481   6.168   3.084  0.0362  0.0528 -0.0163
 4519SOL    HW114998   3.475   6.252   3.131 -1.0807 -0.4661  0.8255
 4519SOL    HW214999   3.392   6.155   3.049  0.8580  0.5310 -2.5475
 4520SOL     OW15000   0.674   7.821   2.546 -0.1351 -0.1920 -0.1976
 4520SOL    HW115001   0.669   7.823   2.641  0.1164 -0.3483 -0.1809
 4520SOL    HW215002   0.704   7.909   2.522 -0.2901 -0.1233 -0.1383
 4521SOL     OW15003   1.749   7.828   2.717  0.3223  0.8471  0.4763
 4521SOL    HW115004   1.684   7.898   2.726 -0.4858  0.7590 -3.0162
 4521SOL    HW215005   1.834   7.873   2.725 -0.1448  1.5403  1.8311
 4522SOL     OW15006   1.761   7.812   3.702 -0.2360  0.0917  0.1853
 4522SOL    HW115007   1.699   7.760   3.652 -1.7211  0.3546  1.6648
 4522SOL    HW215008   1.815   7.748   3.747  0.3003 -0.1381 -0.7583
 4523SOL     OW15009   3.029   5.394   2.613  0.2876  0.0273 -0.4271
 4523SOL    HW115010   3.102   5.382   2.552  0.5997  0.1681 -0.0861
 4523SOL    HW215011   3.036   5.321   2.674  0.8951  0.7119  0.3535
 4524SOL     OW15012   7.273   3.448   1.600 -0.1758 -0.1820  0.5803
 4524SOL    HW115013   7.218   3.458   1.523  0.1298 -0.6754  0.2932
 4524SOL    HW215014   7.221   3.395   1.660  0.3103 -1.3989 -0.0379
 4525SOL     OW15015   0.351   0.095   3.446  0.1957 -0.0782 -0.2277
 4525SOL    HW115016   0.362   0.014   3.396 -0.5476 -0.0095 -0.5098
 4525SOL    HW215017   0.300   0.068   3.523 -0.4287  0.1993 -0.5401
 4526SOL     OW15018   7.466   5.925   2.639  0.5517  0.3162 -0.0900
 4526SOL    HW115019   7.446   6.009   2.680  0.2885 -0.3182  1.1614
 4526SOL    HW215020   7.556   5.906   2.665  0.0514 -0.5681  1.1175
 4527SOL     OW15021   7.841   5.765   2.355 -0.4206  0.3641  0.1323
 4527SOL    HW115022   7.905   5.773   2.285 -0.7944 -2.9691 -0.7413
 4527SOL    HW215023   7.894   5.755   2.434  0.0131  2.3529  0.1477
 4528SOL     OW15024   7.764   6.297   4.382  0.1559 -0.3723  0.0488
 4528SOL    HW115025   7.820   6.356   4.431  1.6836 -0.9932 -0.8698
 4528SOL    HW215026   7.744   6.226   4.443 -0.9347  0.6083  0.8625
 4529SOL     OW15027   2.498   5.173   4.303  0.4049  0.9196  0.7308
 4529SOL    HW115028   2.550   5.122   4.365 -0.2922  0.4408  0.9431
 4529SOL    HW215029   2.561   5.226   4.255  0.9875  1.0590  1.6349
 4530SOL     OW15030   2.197   7.895   1.526  0.3049  0.0619 -0.0453
 4530SOL    HW115031   2.257   7.821   1.517  0.4876  0.2317 -0.2198
 4530SOL    HW215032   2.250   7.965   1.562 -0.1321 -0.2315  1.2104
 4531SOL     OW15033   0.003   7.313   1.636 -0.0612 -0.5713  0.0971
 4531SOL    HW115034   0.013   7.312   1.541  2.5273  0.0864  0.2843
 4531SOL    HW215035  -0.067   7.250   1.653  1.1008 -2.6342 -2.1006
 4532SOL     OW15036   6.739   6.391   1.030 -0.2967  0.5355  0.0881
 4532SOL    HW115037   6.678   6.444   1.081 -0.4201  0.3201  0.1687
 4532SOL    HW215038   6.711   6.402   0.939 -1.1862 -0.4626  0.2149
 4533SOL     OW15039   0.663   6.459   2.750  0.0282 -0.3022 -0.2423
 4533SOL    HW115040   0.711   6.460   2.667  0.5024 -0.3674  0.0227
 4533SOL    HW215041   0.732   6.458   2.817 -0.3475 -0.2106  0.1518
 4534SOL     OW15042   7.906   5.877   1.338 -0.3549  0.1972  0.0786
 4534SOL    HW115043   7.911   5.893   1.432  0.3145 -1.0100  0.2708
 4534SOL    HW215044   7.902   5.964   1.298  0.8251  0.7651  1.1475
 4535SOL     OW15045   1.339   5.619   4.197 -0.5529 -0.5569  0.6158
 4535SOL    HW115046   1.305   5.704   4.226  2.1479  0.1508  2.1219
 4535SOL    HW215047   1.281   5.555   4.236 -1.2197  0.5780  1.5477
 4536SOL     OW15048   1.064   7.592   4.837 -0.4054 -0.2908 -0.6260
 4536SOL    HW115049   1.046   7.510   4.790  0.0714  0.1890 -1.6865
 4536SOL    HW215050   1.127   7.637   4.782 -0.0271  0.4280  0.3713
 4537SOL     OW15051   0.175   6.827   2.316 -0.1369 -0.1727  0.2093
 4537SOL    HW115052   0.203   6.798   2.230  0.7145  0.7078  0.1744
 4537SOL    HW215053   0.079   6.829   2.310 -0.0803  0.1713 -0.8203
 4538SOL     OW15054   1.311   7.888   4.015 -0.4532 -0.3556 -0.0336
 4538SOL    HW115055   1.290   7.798   3.991  0.3497 -0.1846 -1.4879
 4538SOL    HW215056   1.402   7.899   3.989 -0.9181  1.2677 -1.1122
 4539SOL     OW15057   0.792   7.049   1.817 -0.4081  0.0742 -0.3928
 4539SOL    HW115058   0.714   7.088   1.857 -1.1814 -0.6759 -1.1288
 4539SOL    HW215059   0.797   6.961   1.856  0.1905  0.1901 -0.2029
 4540SOL     OW15060   1.704   6.859   2.587 -0.1151 -0.1853  0.7797
 4540SOL    HW115061   1.753   6.937   2.561  2.2668 -2.2715 -1.6632
 4540SOL    HW215062   1.618   6.870   2.546  0.3100  1.0059  0.1740
 4541SOL     OW15063   1.578   5.754   3.598  0.3196  0.0160  0.4857
 4541SOL    HW115064   1.671   5.766   3.615  0.7160 -1.4541 -0.4684
 4541SOL    HW215065   1.572   5.750   3.502 -0.7412  0.1817  0.5344
 4542SOL     OW15066   2.680   7.185   1.721  0.4153 -0.6235 -0.3918
 4542SOL    HW115067   2.718   7.097   1.729  1.7925 -0.0017  0.5603
 4542SOL    HW215068   2.683   7.219   1.811 -0.9546  0.0750 -0.5925
 4543SOL     OW15069   3.471   7.217   2.570  0.5545  0.6294 -0.4299
 4543SOL    HW115070   3.426   7.265   2.640 -1.2116 -1.1263 -0.2885
 4543SOL    HW215071   3.463   7.273   2.493 -1.0974  0.7980 -0.1730
 4544SOL     OW15072   7.377   7.906   1.882 -0.4764  0.7200 -0.4327
 4544SOL    HW115073   7.313   7.858   1.936 -0.2691 -0.2461 -1.0195
 4544SOL    HW215074   7.442   7.937   1.945  0.4306 -1.4357 -0.1911
 4545SOL     OW15075   0.830   6.191   2.970 -0.2828 -0.2981  0.2470
 4545SOL    HW115076   0.867   6.279   2.966 -0.6094 -0.2129 -1.1153
 4545SOL    HW215077   0.745   6.199   2.927  0.4558 -1.6664 -1.5342
 4546SOL     OW15078   0.462   6.588   0.653  0.2516  0.7221 -0.3968
 4546SOL    HW115079   0.435   6.587   0.745  1.9964  1.1190  0.1566
 4546SOL    HW215080   0.443   6.499   0.622 -0.1808  0.5247  0.4051
 4547SOL     OW15081   7.625   6.864   0.815  0.0165 -0.2268 -0.5522
 4547SOL    HW115082   7.676   6.945   0.822  0.2596 -0.4090 -0.2511
 4547SOL    HW215083   7.535   6.891   0.835  0.2843 -0.2507  0.7039
 4548SOL     OW15084   1.989   5.098   4.662 -0.6636  1.1404 -0.4869
 4548SOL    HW115085   1.913   5.156   4.664 -2.4284 -1.0033 -0.2716
 4548SOL    HW215086   1.982   5.046   4.743  2.1170  2.0724  0.4786
 4549SOL     OW15087   0.892   6.044   3.457  0.5509  0.1825 -0.0153
 4549SOL    HW115088   0.972   6.040   3.508  2.1493  0.6884 -2.3331
 4549SOL    HW215089   0.827   6.080   3.517  1.8720 -0.7935  2.0974
 4550SOL     OW15090   0.933   0.220   2.243 -0.0769 -0.2240 -0.1923
 4550SOL    HW115091   0.908   0.290   2.183 -1.5714 -0.8453 -0.3455
 4550SOL    HW215092   0.998   0.169   2.194  0.8530  0.8863 -0.1642
 4551SOL     OW15093   1.124   0.579   5.221  0.4062  0.2103 -0.0401
 4551SOL    HW115094   1.188   0.529   5.171  1.4758  1.3157  0.1789
 4551SOL    HW215095   1.040   0.546   5.192  1.0498 -0.7091 -0.9341
 4552SOL     OW15096   7.674   7.070   3.029 -0.3126 -0.8004 -0.3186
 4552SOL    HW115097   7.689   7.121   2.949  0.4850 -0.1670  0.2121
 4552SOL    HW215098   7.594   7.106   3.066  0.4077  0.3228  0.2145
 4553SOL     OW15099   1.380   7.244   2.877  0.2083 -0.6871 -0.7855
 4553SOL    HW115100   1.363   7.150   2.874 -1.3951 -0.4568  0.1864
 4553SOL    HW215101   1.435   7.256   2.954  2.3267 -1.0572 -2.1701
 4554SOL     OW15102   1.197   5.968   1.718 -0.3530  0.1145 -0.2042
 4554SOL    HW115103   1.160   6.010   1.640 -0.7077 -0.2739 -0.2477
 4554SOL    HW215104   1.127   5.973   1.783 -0.4982 -0.6356 -0.2905
 4555SOL     OW15105   0.536   6.861   3.189 -0.3972 -0.1349 -0.3575
 4555SOL    HW115106   0.472   6.840   3.258 -0.7436 -2.5418 -1.3229
 4555SOL    HW215107   0.486   6.912   3.126 -1.6521 -2.4992 -1.3990
 4556SOL     OW15108   7.913   6.200   0.540  0.4112  0.3032 -0.0795
 4556SOL    HW115109   7.957   6.120   0.511 -0.9895 -1.5304  2.4325
 4556SOL    HW215110   7.976   6.242   0.599 -0.1964 -1.0840  1.6547
 4557SOL     OW15111   7.886   6.326   3.450 -0.3655  0.5735 -0.0157
 4557SOL    HW115112   7.929   6.242   3.437 -0.1369  0.2120  2.4541
 4557SOL    HW215113   7.946   6.390   3.413  0.8145 -0.1722  0.5368
 4558SOL     OW15114   1.058   4.503   2.605 -0.4755 -0.3937 -0.0755
 4558SOL    HW115115   1.029   4.496   2.696 -0.4938  0.5145 -0.0050
 4558SOL    HW215116   1.072   4.596   2.591  0.2223 -0.5944 -0.7948
 4559SOL     OW15117   0.423   5.353   3.412 -0.5327  0.3449  0.3348
 4559SOL    HW115118   0.417   5.296   3.489 -1.2491 -1.9957 -1.3257
 4559SOL    HW215119   0.517   5.363   3.397 -0.3916  0.2154  1.0750
 4560SOL     OW15120   2.146   7.767   4.165  0.3125  0.3187  0.2581
 4560SOL    HW115121   2.229   7.720   4.171  0.7415  0.6844 -1.9964
 4560SOL    HW215122   2.096   7.720   4.098  0.0254  1.9878 -0.7550
 4561SOL     OW15123   7.551   5.721   3.633 -0.2130 -0.0999 -0.2532
 4561SOL    HW115124   7.631   5.745   3.679 -0.3008 -0.0841 -0.1037
 4561SOL    HW215125   7.580   5.667   3.559 -0.1577 -1.3911  0.6679
 4562SOL     OW15126   1.065   7.412   1.968 -0.1886 -0.0029 -0.0257
 4562SOL    HW115127   1.004   7.434   1.897  0.2338 -0.6569 -0.5947
 4562SOL    HW215128   1.032   7.329   2.003  0.1825 -0.1891 -0.1163
 4563SOL     OW15129   2.425   5.039   2.057  0.4084 -0.6193  0.3210
 4563SOL    HW115130   2.477   5.026   1.977  1.2123  0.1717  0.6945
 4563SOL    HW215131   2.467   5.113   2.101 -0.6483 -0.3852  0.9736
 4564SOL     OW15132   1.212   4.935   3.381 -0.4247 -0.3395 -0.2495
 4564SOL    HW115133   1.290   4.880   3.387 -0.7869 -0.8828 -0.4662
 4564SOL    HW215134   1.245   5.021   3.355 -0.0848 -1.0551 -2.3083
 4565SOL     OW15135   1.139   6.560   1.765  0.0876 -0.0027  0.0287
 4565SOL    HW115136   1.176   6.644   1.736 -2.0460  0.2346 -2.2309
 4565SOL    HW215137   1.051   6.582   1.796 -0.1237 -1.2941  0.3832
 4566SOL     OW15138   1.811   7.398   2.928  0.3397  0.1646  0.6770
 4566SOL    HW115139   1.772   7.484   2.919  0.3688  0.0762 -0.3981
 4566SOL    HW215140   1.740   7.343   2.962 -0.4917  0.0336 -1.1410
 4567SOL     OW15141   0.740   5.931   2.428  0.2226  0.1007  0.3795
 4567SOL    HW115142   0.804   5.909   2.496  0.3377  0.2205  0.3086
 4567SOL    HW215143   0.742   6.026   2.422 -0.9849  0.2128  1.3751
 4568SOL     OW15144   7.828   7.064   1.182 -0.4774  0.5613  0.3958
 4568SOL    HW115145   7.863   6.988   1.136  0.2491  1.2024 -0.1290
 4568SOL    HW215146   7.801   7.124   1.112 -0.9294  0.8371  0.8036
 4569SOL     OW15147   0.571   4.811   2.842 -0.1781  0.1695  0.9741
 4569SOL    HW115148   0.614   4.850   2.766  1.2080 -1.0639  1.0765
 4569SOL    HW215149   0.558   4.884   2.902  0.3718  0.8515  0.2929
 4570SOL     OW15150   0.066   6.420   2.274 -0.3499  0.7879 -0.3325
 4570SOL    HW115151   0.157   6.392   2.264  0.0197  1.6747  0.4389
 4570SOL    HW215152   0.065   6.472   2.354 -1.9228 -0.7824  0.7531
 4571SOL     OW15153   1.286   0.170   4.018  0.6513  0.3426  0.5089
 4571SOL    HW115154   1.274   0.092   4.072 -2.3231 -0.2703 -0.8136
 4571SOL    HW215155   1.263   0.243   4.077  0.1851 -0.0885  0.8726
 4572SOL     OW15156   0.090   6.527   2.521 -0.0149 -0.0265  0.1949
 4572SOL    HW115157   0.175   6.572   2.519 -0.1262  0.4018 -4.2834
 4572SOL    HW215158   0.111   6.439   2.554  1.9991  0.3299  0.0111
 4573SOL     OW15159   6.914   6.903   2.750 -0.3860  0.3965 -0.2167
 4573SOL    HW115160   7.003   6.891   2.785  0.1531 -0.1629 -1.6781
 4573SOL    HW215161   6.910   6.842   2.677 -1.7049  1.0206 -0.6815
 4574SOL     OW15162   7.738   5.297   4.360 -0.3828 -0.1978  0.3304
 4574SOL    HW115163   7.804   5.232   4.387 -2.2743 -1.3760  2.4024
 4574SOL    HW215164   7.720   5.275   4.269 -0.4636 -2.1876  0.7779
 4575SOL     OW15165   0.128   4.966   4.820 -0.4979 -0.1508 -0.3340
 4575SOL    HW115166   0.155   4.951   4.911  0.3322  0.6325 -0.4342
 4575SOL    HW215167   0.188   5.034   4.789  0.1524 -1.3960 -1.9098
 4576SOL     OW15168   1.991   5.827   4.246  0.1489  0.6160 -0.0895
 4576SOL    HW115169   2.033   5.806   4.163  1.8328  1.6918  0.4401
 4576SOL    HW215170   1.929   5.755   4.261  1.8650 -1.0970 -0.8879
 4577SOL     OW15171   1.564   5.474   4.104 -0.1352 -0.1375  0.3197
 4577SOL    HW115172   1.493   5.535   4.125 -0.1576 -0.2109  0.4558
 4577SOL    HW215173   1.637   5.531   4.079  0.1566 -0.0155  1.3966
 4578SOL     OW15174   1.283   6.067   4.468  0.1270 -0.6116 -0.6226
 4578SOL    HW115175   1.333   6.003   4.517  0.1315 -1.2620 -1.4468
 4578SOL    HW215176   1.278   6.031   4.379  0.4112  0.6860 -1.1966
 4579SOL     OW15177   0.961   7.712   4.447 -0.4498 -0.5786  0.2231
 4579SOL    HW115178   0.950   7.688   4.355  0.5515  0.3756 -0.1660
 4579SOL    HW215179   1.022   7.646   4.482  1.0329  0.3801 -0.4320
 4580SOL     OW15180   0.588   6.781   4.654  0.3541 -0.4343  0.4938
 4580SOL    HW115181   0.680   6.757   4.667  0.4219 -0.2839  0.3058
 4580SOL    HW215182   0.584   6.811   4.562 -0.0375 -1.1495  0.2728
 4581SOL     OW15183   0.466   6.776   4.893 -0.4515  0.3336 -0.2880
 4581SOL    HW115184   0.496   6.862   4.923  0.8995 -0.5631  1.0545
 4581SOL    HW215185   0.509   6.764   4.809 -0.6879  0.9642 -0.5119
 4582SOL     OW15186   1.044   6.664   4.753 -0.2578  0.6398 -0.1757
 4582SOL    HW115187   1.131   6.652   4.715 -0.5233  0.6725 -0.8181
 4582SOL    HW215188   1.026   6.583   4.800  0.1424  0.6536 -0.0005
 4583SOL     OW15189   7.227   7.209   4.373  0.0232 -0.3894 -0.1368
 4583SOL    HW115190   7.242   7.176   4.285 -0.8106  2.5686 -1.5524
 4583SOL    HW215191   7.141   7.174   4.398 -0.3933 -0.1314 -1.1520
 4584SOL     OW15192   1.702   0.056   6.240 -0.0929  0.4043  0.0279
 4584SOL    HW115193   1.693   0.059   6.145 -1.9775  1.5357  0.1934
 4584SOL    HW215194   1.796   0.047   6.254  0.4284  1.9283 -1.9411
 4585SOL     OW15195   7.241   6.014   4.083  0.1643  0.1164  0.1138
 4585SOL    HW115196   7.165   6.062   4.118  0.9988  1.6789 -0.1201
 4585SOL    HW215197   7.277   6.073   4.016  0.1161 -1.6930 -1.6051
 4586SOL     OW15198   3.944   6.283   6.480  0.3123  0.3471 -0.2409
 4586SOL    HW115199   3.994   6.283   6.399  0.5797  0.5903 -0.0790
 4586SOL    HW215200   3.895   6.365   6.479  2.1605  1.5389  0.9472
 4587SOL     OW15201   0.946   0.333   2.891  0.4470  0.4107 -0.2808
 4587SOL    HW115202   0.943   0.406   2.830 -0.0155  0.0596 -0.6914
 4587SOL    HW215203   0.912   0.369   2.973 -0.2992  0.5290 -0.6272
 4588SOL     OW15204   1.164   5.270   5.443 -0.2226  0.0706  0.3331
 4588SOL    HW115205   1.239   5.302   5.392 -2.1277  1.1495 -1.9713
 4588SOL    HW215206   1.192   5.184   5.475  2.5161  1.0648  0.8669
 4589SOL     OW15207   2.430   6.255   4.737  0.0387  0.1848 -0.3710
 4589SOL    HW115208   2.508   6.242   4.682  0.0701  1.9685 -0.8006
 4589SOL    HW215209   2.465   6.274   4.824  0.0621  0.3374 -0.4143
 4590SOL     OW15210   6.824   7.036   5.648  0.1748 -0.3284 -0.2869
 4590SOL    HW115211   6.905   7.085   5.658 -0.7970  1.1149  0.9174
 4590SOL    HW215212   6.758   7.103   5.629 -0.6760 -1.5249 -1.7967
 4591SOL     OW15213   7.950   7.763   6.321  0.5855 -0.1959  0.6090
 4591SOL    HW115214   8.024   7.704   6.306 -0.7312 -1.7513 -0.1023
 4591SOL    HW215215   7.903   7.764   6.238  0.0577  1.1870  0.8939
 4592SOL     OW15216   7.977   6.055   2.562  0.4972 -0.1816  0.2753
 4592SOL    HW115217   8.043   6.118   2.592  1.3726 -1.3326  0.8605
 4592SOL    HW215218   8.022   5.970   2.565 -1.3652 -1.1756  1.8300
 4593SOL     OW15219   0.541   5.770   6.023  0.6974  0.6662 -0.0578
 4593SOL    HW115220   0.504   5.821   5.951 -1.5923  1.3648  1.5070
 4593SOL    HW215221   0.465   5.727   6.063  2.2221 -1.8528  0.3627
 4594SOL     OW15222   0.324   6.630   2.621 -0.5384  0.1384  0.1118
 4594SOL    HW115223   0.279   6.657   2.701 -1.9522  0.0712 -0.6273
 4594SOL    HW215224   0.402   6.684   2.618 -0.6811  0.4409  1.3166
 4595SOL     OW15225   1.183   7.371   5.644  0.1181 -0.3916  0.3418
 4595SOL    HW115226   1.172   7.439   5.710  0.8004 -0.8371  0.9281
 4595SOL    HW215227   1.275   7.376   5.618 -0.2440  0.0802 -0.9213
 4596SOL     OW15228   1.511   0.906   3.628  0.0775 -0.2458 -0.8649
 4596SOL    HW115229   1.482   0.996   3.642  2.1753  0.1253  2.0440
 4596SOL    HW215230   1.442   0.867   3.574 -1.0615  2.9625 -1.9844
 4597SOL     OW15231   2.771   5.982   4.640 -0.0790 -0.5030 -0.4257
 4597SOL    HW115232   2.828   6.033   4.697 -1.2773  0.2783  0.1165
 4597SOL    HW215233   2.817   5.898   4.629  0.9243 -0.0833  0.3781
 4598SOL     OW15234   2.314   6.938   5.330  0.3532  0.2640  0.3118
 4598SOL    HW115235   2.280   6.907   5.246  0.4755  0.4083  0.2074
 4598SOL    HW215236   2.240   6.984   5.370  0.1100 -0.3439  0.5635
 4599SOL     OW15237   0.947   6.245   5.092 -0.6548  0.2359  0.1397
 4599SOL    HW115238   0.897   6.163   5.093  0.2775 -0.3392  0.4761
 4599SOL    HW215239   1.009   6.237   5.165  0.8569  0.3535 -1.0859
 4600SOL     OW15240   1.040   5.813   4.260 -0.3655  0.1533 -0.4145
 4600SOL    HW115241   0.973   5.867   4.302 -0.7051 -0.6265  0.0572
 4600SOL    HW215242   1.079   5.871   4.195  0.7810  1.7129  1.5232
 4601SOL     OW15243   0.976   7.632   5.324 -0.3571 -0.0800 -0.2848
 4601SOL    HW115244   0.931   7.711   5.292 -1.0677 -0.4905 -0.3238
 4601SOL    HW215245   0.905   7.573   5.350  0.1620 -0.7977 -0.4641
 4602SOL     OW15246   2.153   4.972   6.044  0.2658 -0.1466 -0.8914
 4602SOL    HW115247   2.122   4.900   6.100 -1.2776  0.8403 -0.4291
 4602SOL    HW215248   2.189   5.036   6.105  0.3531  0.0962 -1.1935
 4603SOL     OW15249   7.165   5.618   5.229 -0.0830 -0.3220  0.4123
 4603SOL    HW115250   7.094   5.579   5.280 -0.0300  0.7274  1.3354
 4603SOL    HW215251   7.191   5.550   5.168 -0.1160 -1.6809  1.8444
 4604SOL     OW15252   1.290   7.271   5.980  0.5513  0.0824 -0.0718
 4604SOL    HW115253   1.343   7.245   5.905 -2.2560 -0.9856 -1.8442
 4604SOL    HW215254   1.349   7.324   6.033  2.7156  0.8584 -2.9684
 4605SOL     OW15255   7.790   7.927   5.306 -0.3965  0.5529 -0.1099
 4605SOL    HW115256   7.695   7.920   5.293 -0.4227 -1.0486  0.7708
 4605SOL    HW215257   7.801   7.930   5.401  0.3860  1.9263 -0.2268
 4606SOL     OW15258   0.658   6.589   6.503 -0.0386 -0.1503  0.4286
 4606SOL    HW115259   0.692   6.647   6.572  2.0216 -0.1542 -0.5123
 4606SOL    HW215260   0.734   6.539   6.475 -1.4120 -2.0670 -0.0376
 4607SOL     OW15261   0.196   7.658   5.450  0.0691  0.2143  0.5730
 4607SOL    HW115262   0.232   7.570   5.445 -0.4360  0.0123  0.4086
 4607SOL    HW215263   0.101   7.645   5.453  0.0165  0.7213  1.4051
 4608SOL     OW15264   1.878   6.611   4.266  0.4648  0.1054 -0.1315
 4608SOL    HW115265   1.792   6.595   4.228  0.7940 -0.1442 -0.7960
 4608SOL    HW215266   1.908   6.693   4.227  1.2468 -0.6815 -1.2494
 4609SOL     OW15267   2.145   6.348   5.533  0.8830 -0.0997 -0.2838
 4609SOL    HW115268   2.116   6.360   5.623 -1.1843  0.9832 -1.0249
 4609SOL    HW215269   2.240   6.341   5.539  0.7416 -0.8314  2.0274
 4610SOL     OW15270   1.589   7.371   3.779 -0.5135  0.1883 -0.7847
 4610SOL    HW115271   1.556   7.281   3.770  1.3065 -0.3981 -2.4187
 4610SOL    HW215272   1.514   7.426   3.759 -1.6154 -0.9452  0.0392
 4611SOL     OW15273   1.553   7.265   4.277 -0.6075 -0.1115  0.1340
 4611SOL    HW115274   1.573   7.254   4.184 -1.4795  1.6330 -0.3073
 4611SOL    HW215275   1.471   7.217   4.289 -2.2686  2.3127 -0.8271
 4612SOL     OW15276   1.587   5.599   5.198 -0.0186 -0.2062  0.3989
 4612SOL    HW115277   1.586   5.508   5.169 -0.0256 -0.0299 -0.1785
 4612SOL    HW215278   1.499   5.616   5.230 -0.6082  0.1481 -1.3094
 4613SOL     OW15279   1.321   4.829   4.794  0.2512 -0.0974 -0.4674
 4613SOL    HW115280   1.310   4.906   4.739 -1.7625  0.4462  0.6012
 4613SOL    HW215281   1.266   4.762   4.753  0.1664 -0.2449 -0.1194
 4614SOL     OW15282   0.467   6.597   6.876  0.5698 -0.7254 -0.4845
 4614SOL    HW115283   0.390   6.653   6.865  1.5293  0.5214 -1.0926
 4614SOL    HW215284   0.490   6.605   6.968  1.0591  0.3883 -0.6956
 4615SOL     OW15285   0.276   7.879   5.248 -0.6784  0.4291  0.1938
 4615SOL    HW115286   0.307   7.796   5.284 -2.3800 -0.1761  0.3419
 4615SOL    HW215287   0.354   7.919   5.209  0.1782 -1.2277  0.1211
 4616SOL     OW15288   0.958   6.035   3.164  0.0460 -0.0307  0.1019
 4616SOL    HW115289   0.936   6.051   3.256  0.0750 -2.1014  0.5167
 4616SOL    HW215290   0.903   6.096   3.115 -2.3086 -0.9862  1.3743
 4617SOL     OW15291   0.409   6.926   4.006 -0.1708 -0.3235 -0.6232
 4617SOL    HW115292   0.406   7.022   4.012 -0.4584 -0.3985  0.8046
 4617SOL    HW215293   0.486   6.901   4.056 -1.3543 -0.9376  0.9812
 4618SOL     OW15294   0.679   6.959   5.322  0.3551 -0.1414 -0.8703
 4618SOL    HW115295   0.591   6.927   5.306  0.0481  0.8073 -1.1593
 4618SOL    HW215296   0.735   6.882   5.316 -0.4676 -0.7682 -0.5519
 4619SOL     OW15297   1.621   5.444   4.494  0.4897 -0.0680 -0.6220
 4619SOL    HW115298   1.711   5.424   4.518 -0.0623 -1.7666  0.2776
 4619SOL    HW215299   1.601   5.381   4.424 -0.4720 -0.8775  0.3422
 4620SOL     OW15300   2.513   4.746   4.178 -0.1602  0.1586  0.4839
 4620SOL    HW115301   2.448   4.817   4.174  0.0333  0.2610 -1.6167
 4620SOL    HW215302   2.573   4.764   4.106  0.2762 -1.7864  0.3127
 4621SOL     OW15303   0.892   0.245   3.956 -0.1012  0.0207  0.4044
 4621SOL    HW115304   0.872   0.177   3.892  2.0973 -0.1826 -0.1350
 4621SOL    HW215305   0.879   0.203   4.041 -1.8450 -0.0773  0.1248
 4622SOL     OW15306   1.589   4.948   5.339  0.0543 -0.0729  0.6285
 4622SOL    HW115307   1.540   5.019   5.298  0.8424  0.8980  1.3146
 4622SOL    HW215308   1.587   4.967   5.432  2.6115  0.6359  0.6191
 4623SOL     OW15309   1.676   6.964   4.603 -0.0976  0.0269  0.1277
 4623SOL    HW115310   1.703   6.978   4.694  0.1837 -0.5320  0.1326
 4623SOL    HW215311   1.758   6.967   4.553 -0.1900 -0.1986 -0.0384
 4624SOL     OW15312   0.067   7.880   3.942 -0.4903  0.7190  0.8530
 4624SOL    HW115313   0.111   7.801   3.911 -2.4414 -0.0832 -0.0523
 4624SOL    HW215314   0.028   7.919   3.864 -0.3907  2.0504  1.4300
 4625SOL     OW15315   1.041   6.454   4.928 -0.3169  0.3229 -0.5701
 4625SOL    HW115316   1.000   6.369   4.945  0.9696 -0.2979 -0.4443
 4625SOL    HW215317   1.134   6.435   4.923  0.0787  1.8519  0.2219
 4626SOL     OW15318   0.910   6.493   3.724 -0.0635  0.1687 -0.4148
 4626SOL    HW115319   0.829   6.496   3.674 -0.7242 -1.9340  0.3838
 4626SOL    HW215320   0.975   6.534   3.667 -1.6998  2.2326 -0.9370
 4627SOL     OW15321   1.582   6.678   4.217 -0.1237  0.6142 -0.1493
 4627SOL    HW115322   1.505   6.628   4.243  1.2899 -0.5576  2.1219
 4627SOL    HW215323   1.595   6.656   4.124 -2.0833  0.3064 -0.3929
 4628SOL     OW15324   7.340   7.434   4.036 -0.1676  0.0643 -0.1105
 4628SOL    HW115325   7.433   7.431   4.061  0.2271 -1.7221 -1.5854
 4628SOL    HW215326   7.339   7.488   3.956 -0.3327 -0.2630 -0.3308
 4629SOL     OW15327   1.129   7.746   6.082 -0.2796 -0.2975  0.2956
 4629SOL    HW115328   1.195   7.767   6.016 -0.3416 -1.1967 -0.0577
 4629SOL    HW215329   1.171   7.685   6.142 -1.5626 -3.1891 -1.5242
 4630SOL     OW15330   1.061   7.173   4.886 -0.2100  0.3360 -0.0330
 4630SOL    HW115331   1.083   7.229   4.811 -0.6734 -0.1235 -0.5227
 4630SOL    HW215332   0.983   7.214   4.923 -1.0224 -0.4038 -0.8692
 4631SOL     OW15333   1.514   4.869   6.923  0.2207  0.4158 -0.1458
 4631SOL    HW115334   1.591   4.876   6.866 -0.4642  0.3714 -1.0999
 4631SOL    HW215335   1.489   4.960   6.940 -0.2692  0.4343 -0.9028
 4632SOL     OW15336   2.625   6.141   6.131  0.5283 -0.4318 -0.3340
 4632SOL    HW115337   2.698   6.084   6.105  0.3934 -0.2952 -1.0557
 4632SOL    HW215338   2.667   6.217   6.171  0.7616 -0.5434 -0.3628
 4633SOL     OW15339   7.053   7.545   4.019 -0.1502  0.1382  0.0016
 4633SOL    HW115340   6.967   7.575   4.048 -0.4891 -0.9588  0.1905
 4633SOL    HW215341   7.059   7.572   3.928 -1.2539 -0.8709 -0.4040
 4634SOL     OW15342   1.375   5.873   4.660  0.4780  0.0037  0.1519
 4634SOL    HW115343   1.363   5.797   4.602  0.9884 -0.0329  0.0860
 4634SOL    HW215344   1.428   5.839   4.732  0.8020  0.3218  0.0674
 4635SOL     OW15345   7.649   7.778   4.607  0.6445  0.0693 -0.0066
 4635SOL    HW115346   7.725   7.747   4.655  0.0906 -0.9832  0.2071
 4635SOL    HW215347   7.626   7.706   4.548 -0.3911  0.2297  0.1842
 4636SOL     OW15348   0.310   0.555   4.984 -0.2341  0.0757 -0.0382
 4636SOL    HW115349   0.350   0.509   5.057 -0.1122  0.7738  0.3325
 4636SOL    HW215350   0.216   0.552   5.002 -0.2302 -0.0434 -0.0333
 4637SOL     OW15351   1.259   6.040   5.263  0.5970  0.3256 -0.3767
 4637SOL    HW115352   1.304   5.982   5.324 -0.1916 -2.0414 -1.9401
 4637SOL    HW215353   1.179   6.066   5.310  0.0603 -1.3650 -0.2958
 4638SOL     OW15354   2.365   3.539   4.404  0.6832  0.8132 -0.2307
 4638SOL    HW115355   2.380   3.634   4.396  1.4300  0.5797 -1.9802
 4638SOL    HW215356   2.447   3.505   4.440  0.7441  0.7311 -0.4448
 4639SOL     OW15357   1.696   5.233   4.763  0.3616 -0.5946 -0.5252
 4639SOL    HW115358   1.617   5.283   4.740 -0.9818 -2.5043 -0.2947
 4639SOL    HW215359   1.756   5.299   4.797 -1.3864  0.8725 -0.0768
 4640SOL     OW15360   1.718   6.180   6.215 -0.7291  0.1170  0.0153
 4640SOL    HW115361   1.682   6.146   6.133  0.4047  2.8891 -1.7574
 4640SOL    HW215362   1.775   6.251   6.188  1.9335 -0.6540  3.0639
 4641SOL     OW15363   1.101   0.406   3.823  0.6498 -0.2113  0.1661
 4641SOL    HW115364   1.063   0.490   3.850  0.2056 -0.5422  0.5974
 4641SOL    HW215365   1.052   0.341   3.873  1.2144 -0.7062  0.0836
 4642SOL     OW15366   1.526   5.332   7.083  0.8553  0.1864 -0.3589
 4642SOL    HW115367   1.509   5.425   7.102 -1.1128 -0.5466  1.9856
 4642SOL    HW215368   1.611   5.314   7.124  0.3011  0.5028  0.9595
 4643SOL     OW15369   0.036   0.371   5.490  0.1063  0.3172  0.1260
 4643SOL    HW115370   0.103   0.320   5.535 -0.2529 -0.4401 -0.1918
 4643SOL    HW215371  -0.032   0.385   5.556 -0.7010 -1.3091 -0.3071
 4644SOL     OW15372   1.038   6.398   3.951  0.1715 -0.1318 -0.0047
 4644SOL    HW115373   0.993   6.441   3.878  1.3595  0.5440 -0.3743
 4644SOL    HW215374   0.985   6.320   3.969 -0.2631 -0.2144 -1.4618
 4645SOL     OW15375   1.151   5.938   5.561  0.0171  0.0918  0.2916
 4645SOL    HW115376   1.127   6.028   5.584  0.1673  0.1775  0.1106
 4645SOL    HW215377   1.075   5.905   5.514 -0.0270  0.1345  0.3326
 4646SOL     OW15378   1.421   5.903   3.738  0.5189 -0.0914  0.7893
 4646SOL    HW115379   1.462   5.837   3.682 -0.8794  0.2477 -0.7069
 4646SOL    HW215380   1.438   5.986   3.695 -0.3917  0.2010  0.9709
 4647SOL     OW15381   0.607   6.108   2.824 -0.2599 -0.4014  0.6862
 4647SOL    HW115382   0.571   6.171   2.762 -1.2965  0.7056  2.3259
 4647SOL    HW215383   0.574   6.023   2.794 -0.5200  0.0755 -0.4124
 4648SOL     OW15384   1.627   3.864   2.614  0.2694 -0.0425  0.3663
 4648SOL    HW115385   1.617   3.957   2.596  1.4670 -0.3315 -2.3182
 4648SOL    HW215386   1.701   3.859   2.674 -1.4697  0.7916  2.7473
 4649SOL     OW15387   3.158   6.202   5.631 -0.2072 -0.7735  0.6982
 4649SOL    HW115388   3.068   6.172   5.634 -0.1337 -1.0200  0.4111
 4649SOL    HW215389   3.152   6.296   5.649 -0.7465 -0.3302 -1.5029
 4650SOL     OW15390   0.103   6.436   5.807  0.0197 -0.2855 -0.0394
 4650SOL    HW115391   0.128   6.345   5.793 -0.3022 -0.1486 -1.7111
 4650SOL    HW215392   0.180   6.487   5.780  0.5432 -0.0415  1.7468
 4651SOL     OW15393   0.042   7.668   4.197  0.2606 -0.1796 -0.4380
 4651SOL    HW115394   0.123   7.711   4.172 -0.4195 -0.1026 -2.7749
 4651SOL    HW215395   0.068   7.601   4.261  2.0428  0.2711 -0.6594
 4652SOL     OW15396   6.836   7.572   4.983 -0.2407 -0.2890  0.0401
 4652SOL    HW115397   6.893   7.558   5.059  0.0071  0.7844  0.0822
 4652SOL    HW215398   6.782   7.648   5.008 -1.0698 -0.7446 -0.3516
 4653SOL     OW15399   1.365   7.069   4.214  0.4293 -0.1237  0.2056
 4653SOL    HW115400   1.275   7.049   4.190  0.9130 -1.4864 -0.5353
 4653SOL    HW215401   1.385   7.008   4.285  1.1372 -0.6370 -0.4262
 4654SOL     OW15402   2.336   6.107   4.399  0.2906  0.1313  0.0818
 4654SOL    HW115403   2.353   6.190   4.355 -1.1919  0.2178 -0.3854
 4654SOL    HW215404   2.422   6.079   4.432  0.9058  1.5498 -0.2493
 4655SOL     OW15405   1.107   6.812   3.494  0.2024  0.2543 -0.2851
 4655SOL    HW115406   1.119   6.874   3.566 -1.9367 -0.3385  0.6572
 4655SOL    HW215407   1.017   6.827   3.465  0.0490 -1.5588 -0.8593
 4656SOL     OW15408   1.056   5.340   5.134  0.3771 -0.2738 -0.3572
 4656SOL    HW115409   1.067   5.397   5.210  0.2769 -0.5191 -0.1574
 4656SOL    HW215410   1.018   5.260   5.170 -1.3642  0.2556 -0.9038
 4657SOL     OW15411   1.780   4.685   4.548 -0.3563  0.4411 -0.3845
 4657SOL    HW115412   1.732   4.663   4.468  0.0733 -1.1199 -0.2270
 4657SOL    HW215413   1.841   4.754   4.521 -1.7001  1.4784 -0.8952
 4658SOL     OW15414   2.513   7.287   5.269 -0.2215  0.1654 -0.2247
 4658SOL    HW115415   2.608   7.299   5.274 -0.4127  1.8786 -0.0576
 4658SOL    HW215416   2.477   7.359   5.321 -1.6474  0.3138 -1.3469
 4659SOL     OW15417   1.271   5.660   5.241 -0.3282  0.2885  0.3996
 4659SOL    HW115418   1.246   5.673   5.332  1.1552  1.0295  0.7220
 4659SOL    HW215419   1.247   5.741   5.197 -0.4621  0.1737  0.2587
 4660SOL     OW15420   1.292   5.503   4.982  0.0017 -0.3424 -0.3889
 4660SOL    HW115421   1.214   5.451   5.005 -0.4310 -0.0896 -1.2449
 4660SOL    HW215422   1.286   5.580   5.037  0.2507 -0.8497  0.3610
 4661SOL     OW15423   0.464   7.993   4.152  0.5606 -0.1009  0.3088
 4661SOL    HW115424   0.544   7.942   4.143 -0.1855 -1.1896 -0.4924
 4661SOL    HW215425   0.419   7.982   4.069 -0.6478  0.0616  0.9152
 4662SOL     OW15426   1.618   7.251   4.019 -0.0045 -0.0004 -0.6029
 4662SOL    HW115427   1.598   7.303   3.941 -1.4057 -0.5519 -0.6475
 4662SOL    HW215428   1.596   7.161   3.994 -0.3272 -0.2084  0.3754
 4663SOL     OW15429   2.065   6.054   3.860  0.1594  0.2984  0.0346
 4663SOL    HW115430   2.035   6.111   3.789 -1.8802 -0.0450  0.5781
 4663SOL    HW215431   2.052   5.966   3.826 -0.0174  0.1402  0.5149
 4664SOL     OW15432   0.461   5.972   4.139  0.4547  1.0075 -0.6376
 4664SOL    HW115433   0.552   5.980   4.110  0.5794 -0.1535 -0.6130
 4664SOL    HW215434   0.432   5.888   4.104 -0.9393  1.8176 -1.4734
 4665SOL     OW15435   0.880   7.604   5.751  0.8021 -0.1129 -0.3776
 4665SOL    HW115436   0.866   7.677   5.810 -2.0465 -1.4208  0.7680
 4665SOL    HW215437   0.951   7.554   5.790 -0.2245 -0.2939  1.3624
 4666SOL     OW15438   0.385   7.805   5.583  0.5942 -0.0328  0.7994
 4666SOL    HW115439   0.338   7.839   5.660 -0.5106  1.3811 -0.4476
 4666SOL    HW215440   0.324   7.742   5.544  0.3963  0.5824  0.0978
 4667SOL     OW15441   1.241   2.067   5.606 -0.1866 -0.0792  0.0163
 4667SOL    HW115442   1.265   2.033   5.520 -0.9011  0.7309 -0.5151
 4667SOL    HW215443   1.248   1.991   5.665  1.7966 -0.2985 -0.4451
 4668SOL     OW15444   1.810   6.766   4.743 -0.3754 -0.2238 -0.7122
 4668SOL    HW115445   1.842   6.693   4.794  0.7777  1.2642  0.7857
 4668SOL    HW215446   1.726   6.736   4.709 -0.4729 -1.8234  0.8052
 4669SOL     OW15447   2.284   6.508   5.756  0.5233  0.1374  0.7451
 4669SOL    HW115448   2.206   6.455   5.769  0.5521 -0.2547 -0.5436
 4669SOL    HW215449   2.339   6.456   5.697  1.5007  0.6573  1.1759
 4670SOL     OW15450   0.194   5.894   5.218 -0.0954 -0.7681  0.2770
 4670SOL    HW115451   0.118   5.869   5.269 -0.4342  1.0456  0.7331
 4670SOL    HW215452   0.211   5.985   5.243  0.6191 -0.2879 -1.7455
 4671SOL     OW15453   3.065   6.531   6.012 -0.2037  0.7914  0.8413
 4671SOL    HW115454   2.985   6.478   6.015  0.6808 -0.7154 -0.9172
 4671SOL    HW215455   3.087   6.546   6.104 -0.2029 -2.3856  1.4462
 4672SOL     OW15456   0.580   5.900   4.703 -0.3408 -0.3430  0.3061
 4672SOL    HW115457   0.543   5.975   4.656  2.0986  0.0235 -1.1812
 4672SOL    HW215458   0.593   5.833   4.637  1.4109 -0.5123  0.7669
 4673SOL     OW15459   7.643   7.387   3.124  0.1246  0.4782 -0.8799
 4673SOL    HW115460   7.596   7.445   3.064  0.6330  0.3630 -1.4010
 4673SOL    HW215461   7.648   7.303   3.077 -0.8120 -0.0591 -0.0364
 4674SOL     OW15462   0.490   5.717   3.999  0.2935 -0.5961  0.2937
 4674SOL    HW115463   0.456   5.658   4.066  0.5006 -0.3199  0.6499
 4674SOL    HW215464   0.584   5.697   3.994  0.5628  0.3541  1.1152
 4675SOL     OW15465   7.330   6.610   4.521 -0.3018  0.3047  1.0358
 4675SOL    HW115466   7.395   6.542   4.504 -0.4516  0.1230  1.1720
 4675SOL    HW215467   7.376   6.676   4.573  0.0482  0.6696  0.2809
 4676SOL     OW15468   0.099   7.230   4.686 -0.1078  0.2975  0.0498
 4676SOL    HW115469   0.176   7.190   4.727 -0.4379  0.0057  0.3867
 4676SOL    HW215470   0.026   7.206   4.743 -0.5168  0.1950 -0.5099
 4677SOL     OW15471   0.272   6.770   5.461 -0.2259 -0.4657  0.1425
 4677SOL    HW115472   0.324   6.833   5.411 -1.2910 -0.6138 -1.2108
 4677SOL    HW215473   0.292   6.790   5.553  0.1248  1.2697 -0.2673
 4678SOL     OW15474   1.447   7.234   5.474 -0.4120 -0.3059 -0.1821
 4678SOL    HW115475   1.494   7.183   5.408  1.3850  0.7495  0.2125
 4678SOL    HW215476   1.445   7.323   5.439 -0.7318 -0.0166  0.5406
 4679SOL     OW15477   1.924   6.204   4.761 -0.0110 -0.0122 -0.7583
 4679SOL    HW115478   1.899   6.152   4.837 -0.6067  0.2018 -0.7981
 4679SOL    HW215479   2.019   6.214   4.768  0.4896 -3.0035 -1.9543
 4680SOL     OW15480   7.295   6.826   4.267 -0.3035 -0.2730  0.3679
 4680SOL    HW115481   7.281   6.921   4.267 -0.6740 -0.3241  0.1043
 4680SOL    HW215482   7.388   6.815   4.247 -0.7029 -0.0168 -1.9397
 4681SOL     OW15483   1.009   6.334   5.846 -0.0161 -0.0794  0.1277
 4681SOL    HW115484   1.072   6.368   5.909 -0.1568 -0.9359  0.7475
 4681SOL    HW215485   0.936   6.303   5.900 -0.0738 -0.9533 -0.4462
 4682SOL     OW15486   1.752   6.322   4.271 -0.2909 -0.6920  0.2467
 4682SOL    HW115487   1.730   6.281   4.188  0.7893  0.4681 -0.6551
 4682SOL    HW215488   1.703   6.272   4.337 -1.6221 -1.2674 -1.1315
 4683SOL     OW15489   1.605   5.113   5.582 -0.2504 -0.3496  0.1458
 4683SOL    HW115490   1.584   5.188   5.526  1.2739  0.1746  0.2259
 4683SOL    HW215491   1.658   5.150   5.653  0.3499 -1.4574  0.2992
 4684SOL     OW15492   1.097   4.489   5.741  0.1434  0.3775 -0.2454
 4684SOL    HW115493   1.004   4.511   5.752 -0.0024 -0.7903  1.1811
 4684SOL    HW215494   1.138   4.512   5.824  0.8447 -0.4154 -0.3511
 4685SOL     OW15495   1.197   5.861   5.084 -0.0031 -0.5231  0.4070
 4685SOL    HW115496   1.222   5.931   5.145  1.4815 -1.9783  1.5697
 4685SOL    HW215497   1.182   5.906   5.001 -0.0439  1.2803  1.3412
 4686SOL     OW15498   2.222   6.155   5.313  0.4479 -0.8299 -0.1403
 4686SOL    HW115499   2.184   6.216   5.375 -0.0614 -1.7658  0.5026
 4686SOL    HW215500   2.311   6.140   5.345  0.3303 -0.9788  0.1213
 4687SOL     OW15501   2.067   5.754   3.958  0.9200 -0.2763 -0.0105
 4687SOL    HW115502   1.972   5.742   3.959  1.0132 -1.4743 -1.7869
 4687SOL    HW215503   2.099   5.697   4.028  0.6395 -3.9382 -2.6218
 4688SOL     OW15504   0.337   6.440   4.712  0.1049 -0.4626 -0.2695
 4688SOL    HW115505   0.321   6.523   4.667  0.9445 -0.8139 -1.2858
 4688SOL    HW215506   0.252   6.415   4.749 -0.0757  1.0072  0.3625
 4689SOL     OW15507   0.038   4.342   5.913 -0.2375  0.0335 -0.2499
 4689SOL    HW115508  -0.048   4.344   5.871  0.1500  0.9052 -1.0235
 4689SOL    HW215509   0.065   4.433   5.916  0.7144 -0.2487 -0.1168
 4690SOL     OW15510   0.920   4.432   3.546 -0.1950  0.5747  0.1504
 4690SOL    HW115511   1.002   4.457   3.502 -0.0426  0.7084  0.5097
 4690SOL    HW215512   0.905   4.502   3.610  0.5762 -0.5518  1.6109
 4691SOL     OW15513   3.205   5.551   6.934  0.4175 -0.4096 -0.2521
 4691SOL    HW115514   3.199   5.550   6.839  0.9956  1.5072 -0.3548
 4691SOL    HW215515   3.277   5.492   6.955 -0.1011 -1.3008 -0.9456
 4692SOL     OW15516   7.892   4.517   3.735  0.0237  0.1358  0.1454
 4692SOL    HW115517   7.918   4.595   3.685  1.3371  0.1484  0.8026
 4692SOL    HW215518   7.863   4.455   3.669  1.5552  0.2156 -0.6494
 4693SOL     OW15519   1.483   5.829   3.296 -0.2627  0.1176  0.0629
 4693SOL    HW115520   1.521   5.910   3.331 -0.1771  0.8167 -1.5287
 4693SOL    HW215521   1.403   5.858   3.251  0.6719 -0.3791 -2.0445
 4694SOL     OW15522   7.945   6.228   3.965  0.4178  0.2336  0.5259
 4694SOL    HW115523   7.854   6.248   3.986 -0.1878 -0.9436 -0.7909
 4694SOL    HW215524   7.966   6.284   3.891 -0.6570 -2.3184 -1.8966
 4695SOL     OW15525   1.051   5.146   6.029  0.1101  0.0973  0.1692
 4695SOL    HW115526   1.055   5.200   6.108  0.4252  0.4737 -0.1004
 4695SOL    HW215527   1.095   5.064   6.053  1.2437  0.6536  0.0352
 4696SOL     OW15528   1.477   0.208   6.345  0.1350  0.0020 -0.1395
 4696SOL    HW115529   1.534   0.132   6.332 -0.0257 -0.3811  1.3002
 4696SOL    HW215530   1.538   0.281   6.363  0.3210  0.3841 -2.0120
 4697SOL     OW15531   0.610   5.333   4.809 -0.1407 -0.4946  0.5141
 4697SOL    HW115532   0.663   5.412   4.799 -2.1327  0.9338  0.7514
 4697SOL    HW215533   0.667   5.262   4.778  1.5979  1.0455  0.0166
 4698SOL     OW15534   1.943   6.479   3.184 -0.0980 -0.6770  0.2920
 4698SOL    HW115535   1.986   6.562   3.204  0.0197 -0.8051  0.5743
 4698SOL    HW215536   1.895   6.495   3.102 -0.5251 -0.1720  0.6400
 4699SOL     OW15537   0.638   7.900   7.686  0.3024 -0.1199  0.5424
 4699SOL    HW115538   0.653   7.862   7.600 -0.6361  1.7078 -0.4781
 4699SOL    HW215539   0.558   7.857   7.718  1.1448 -1.4638  0.9636
 4700SOL     OW15540   0.050   0.637   3.918 -0.4301  0.1026 -0.1889
 4700SOL    HW115541   0.009   0.720   3.890  0.1944  0.7956  0.8967
 4700SOL    HW215542   0.117   0.620   3.851  0.6294  1.4188  0.4911
 4701SOL     OW15543   0.375   5.853   5.531  0.4956  0.1074  0.0927
 4701SOL    HW115544   0.279   5.857   5.537  0.5391 -0.5746  2.4140
 4701SOL    HW215545   0.401   5.937   5.493 -0.9300  1.2146  1.4376
 4702SOL     OW15546   0.269   6.590   4.237 -0.5389  0.4337 -0.1620
 4702SOL    HW115547   0.346   6.605   4.291 -1.4449 -0.3249  1.4064
 4702SOL    HW215548   0.236   6.678   4.218 -0.3281  0.7078  0.7037
 4703SOL     OW15549   2.451   4.660   5.308 -0.1197 -0.3579 -0.5596
 4703SOL    HW115550   2.455   4.747   5.346  1.3943 -1.3324  1.7591
 4703SOL    HW215551   2.539   4.644   5.274 -0.7259 -0.5372 -2.1027
 4704SOL     OW15552   7.574   7.209   5.301  0.4619  0.1969 -0.1142
 4704SOL    HW115553   7.603   7.130   5.255  1.9142  0.2736  0.6180
 4704SOL    HW215554   7.506   7.246   5.244 -0.1442 -1.4825 -0.5299
 4705SOL     OW15555   7.453   6.276   4.826 -0.3284 -0.4890  0.0257
 4705SOL    HW115556   7.484   6.325   4.749 -2.2781 -0.2858 -0.6864
 4705SOL    HW215557   7.462   6.337   4.899  2.9739 -1.1609  0.3691
 4706SOL     OW15558   1.406   6.941   4.465  0.1964  0.0216 -0.1540
 4706SOL    HW115559   1.497   6.966   4.477  0.2647 -0.4919  0.4633
 4706SOL    HW215560   1.358   6.995   4.528  0.2490 -0.7316  0.5569
 4707SOL     OW15561   1.156   7.220   4.017 -0.0322  0.3260 -0.2748
 4707SOL    HW115562   1.068   7.185   4.034  0.4629 -0.6629  0.3392
 4707SOL    HW215563   1.162   7.225   3.922 -0.8879  0.7654 -0.3182
 4708SOL     OW15564   0.261   7.837   4.393 -0.4047 -0.0451  0.0874
 4708SOL    HW115565   0.288   7.816   4.304  0.8083  0.0946  0.4114
 4708SOL    HW215566   0.281   7.930   4.404 -0.4888 -0.0751  0.5239
 4709SOL     OW15567   0.948   4.753   4.755  0.3025 -0.4506 -0.4340
 4709SOL    HW115568   0.988   4.747   4.668  3.3978  0.4535  0.8022
 4709SOL    HW215569   0.981   4.676   4.801  0.4803  0.2090  0.5660
 4710SOL     OW15570   2.529   6.265   5.009 -0.3116  0.3540  0.3569
 4710SOL    HW115571   2.508   6.171   5.011  1.0661  0.0453  2.0333
 4710SOL    HW215572   2.496   6.298   5.092 -0.0497  1.2069  0.1240
 4711SOL     OW15573   0.563   5.947   3.520 -0.6807  0.3316  0.2891
 4711SOL    HW115574   0.603   5.881   3.464  0.2662  3.0282 -2.4895
 4711SOL    HW215575   0.628   5.964   3.588 -0.6476 -0.9792  0.6286
 4712SOL     OW15576   1.403   4.528   3.593 -0.4197 -0.1772 -0.2853
 4712SOL    HW115577   1.369   4.487   3.673  0.3595 -0.4078 -0.0676
 4712SOL    HW215578   1.497   4.509   3.594 -0.3504  0.0858 -1.0996
 4713SOL     OW15579   0.043   6.701   4.423  0.3325 -0.5678  0.4801
 4713SOL    HW115580   0.005   6.647   4.354  1.5302 -1.6551  0.6364
 4713SOL    HW215581  -0.013   6.686   4.499 -0.1158 -0.5355  0.1602
 4714SOL     OW15582   7.559   5.226   6.820 -0.0657  0.1875  0.5999
 4714SOL    HW115583   7.494   5.183   6.765 -0.2777  1.1588  0.0724
 4714SOL    HW215584   7.633   5.165   6.822 -0.1725  0.0102 -0.5211
 4715SOL     OW15585   0.592   7.467   4.792 -0.3173 -0.0391  0.3122
 4715SOL    HW115586   0.658   7.454   4.860  1.9791 -1.4639 -2.0276
 4715SOL    HW215587   0.635   7.521   4.726 -1.7233 -0.4553 -1.0073
 4716SOL     OW15588   1.047   5.387   4.255  0.2670  0.1398 -0.0104
 4716SOL    HW115589   1.141   5.372   4.263  0.2791 -0.0406 -0.4714
 4716SOL    HW215590   1.015   5.387   4.346  0.7795  0.6540  0.1784
 4717SOL     OW15591   0.079   6.557   3.407 -0.1075  0.0812  0.4335
 4717SOL    HW115592   0.129   6.510   3.341 -1.4840 -0.7634 -0.0449
 4717SOL    HW215593   0.144   6.582   3.473  1.0688 -0.2108 -0.5854
 4718SOL     OW15594   1.007   6.090   5.341  0.0233 -0.4871 -0.1420
 4718SOL    HW115595   0.960   6.007   5.327 -0.7963 -0.1603  0.5739
 4718SOL    HW215596   0.949   6.140   5.398  1.7073 -0.4686  1.6207
 4719SOL     OW15597   2.685   6.155   3.149 -0.7180  0.6356  0.1186
 4719SOL    HW115598   2.634   6.075   3.161  1.3569 -1.0925 -1.8257
 4719SOL    HW215599   2.622   6.219   3.116 -1.8159 -1.2618 -1.6974
 4720SOL     OW15600   1.617   6.048   5.159 -0.7158 -0.5573  0.2102
 4720SOL    HW115601   1.685   5.984   5.181 -0.0083  0.4704  1.1575
 4720SOL    HW215602   1.656   6.133   5.180 -0.5006  0.5111 -3.8084
 4721SOL     OW15603   1.715   0.141   5.583 -0.1110 -0.3427  0.8347
 4721SOL    HW115604   1.705   0.093   5.500  1.1038  2.3801 -1.0131
 4721SOL    HW215605   1.639   0.113   5.635 -1.5498 -1.3542 -1.6142
 4722SOL     OW15606   1.063   6.473   4.195  0.5775  0.2815  0.0588
 4722SOL    HW115607   0.985   6.527   4.211  1.4933  2.3515 -1.9271
 4722SOL    HW215608   1.055   6.447   4.103  2.9768  1.9436 -0.7135
 4723SOL     OW15609   7.917   5.785   4.886 -0.4068 -0.0518 -0.1317
 4723SOL    HW115610   7.967   5.704   4.898 -0.0003  0.0814 -0.8319
 4723SOL    HW215611   7.833   5.755   4.851 -0.0028 -0.1384 -1.0658
 4724SOL     OW15612   2.023   3.869   5.545 -0.4696 -0.3884  0.4771
 4724SOL    HW115613   2.054   3.945   5.496 -0.1545  0.2252  1.5987
 4724SOL    HW215614   2.066   3.876   5.630 -2.2864 -0.5160  1.4500
 4725SOL     OW15615   0.824   7.285   4.979  0.1785  0.2454  0.2162
 4725SOL    HW115616   0.834   7.380   4.988 -1.0045  0.3588  0.4119
 4725SOL    HW215617   0.841   7.251   5.067 -0.7593  0.4076  0.4691
 4726SOL     OW15618   7.511   0.314   5.004 -0.5892 -0.2454 -0.0987
 4726SOL    HW115619   7.436   0.300   4.947  0.2507  0.7341 -1.5212
 4726SOL    HW215620   7.586   0.314   4.945  0.3957  0.1603  1.0971
 4727SOL     OW15621   0.518   7.829   3.617  0.3706  0.3499 -0.2449
 4727SOL    HW115622   0.495   7.921   3.625 -1.3249  0.0026 -0.6676
 4727SOL    HW215623   0.497   7.807   3.526 -0.1583 -0.6579  0.0963
 4728SOL     OW15624   6.902   0.048   5.671  0.3780 -0.7035  0.0069
 4728SOL    HW115625   6.904   0.124   5.729  0.0066 -0.2514 -0.5668
 4728SOL    HW215626   6.992   0.038   5.641  0.8253 -1.6741  1.5910
 4729SOL     OW15627   0.274   7.364   4.527  0.4847  0.1274 -0.2607
 4729SOL    HW115628   0.195   7.320   4.557 -0.1610  0.6962 -1.0751
 4729SOL    HW215629   0.345   7.309   4.557 -0.1930 -0.1577  0.9014
 4730SOL     OW15630   1.591   7.180   6.270  0.0510  0.2472 -0.3418
 4730SOL    HW115631   1.557   7.113   6.211 -0.8461 -0.2389  0.6888
 4730SOL    HW215632   1.686   7.171   6.265 -0.0506 -0.8904 -0.4485
 4731SOL     OW15633   1.498   4.617   5.554  0.5091  0.8886  0.2796
 4731SOL    HW115634   1.553   4.622   5.476  0.7761  0.7335  0.4561
 4731SOL    HW215635   1.511   4.701   5.599  1.4732  0.4355  0.8948
 4732SOL     OW15636   1.986   4.249   5.832 -0.0373 -0.1998  0.0806
 4732SOL    HW115637   1.967   4.329   5.782 -1.8212 -0.0663  0.9116
 4732SOL    HW215638   1.917   4.188   5.806  0.0848 -0.7522  1.0295
 4733SOL     OW15639   0.513   0.221   3.877 -0.5402  0.0080  0.4279
 4733SOL    HW115640   0.533   0.259   3.791 -0.7397  2.1216  1.2587
 4733SOL    HW215641   0.567   0.269   3.938  0.9766 -2.7045  1.3798
 4734SOL     OW15642   2.044   4.061   5.286 -0.0273 -0.2464  0.2069
 4734SOL    HW115643   2.000   4.000   5.226 -0.0247  0.5883 -0.6685
 4734SOL    HW215644   1.988   4.139   5.285  0.4002  0.0657  0.6775
 4735SOL     OW15645   1.816   0.867   4.633  0.4043 -0.0614 -0.3703
 4735SOL    HW115646   1.785   0.898   4.717 -0.1667 -0.6340 -0.3574
 4735SOL    HW215647   1.793   0.936   4.571  1.1118  0.5033 -0.0160
 4736SOL     OW15648   2.988   5.061   4.788  0.4117 -0.5528 -0.1678
 4736SOL    HW115649   3.054   5.051   4.719  0.2257 -0.5316 -0.3492
 4736SOL    HW215650   2.958   4.972   4.806  1.0771 -0.6582  0.4967
 4737SOL     OW15651   1.377   7.918   5.465 -0.7619  0.1996  0.2074
 4737SOL    HW115652   1.301   7.960   5.424 -0.0504  1.0654 -0.2579
 4737SOL    HW215653   1.402   7.849   5.403 -0.7752  0.3311  0.0552
 4738SOL     OW15654   1.475   7.021   6.082 -0.2494 -0.9146 -0.2196
 4738SOL    HW115655   1.452   6.929   6.070 -0.6999 -0.7305 -0.7687
 4738SOL    HW215656   1.515   7.047   5.999 -1.9680 -0.0702 -0.8162
 4739SOL     OW15657   1.222   6.209   4.034 -0.2178 -0.3139  0.2778
 4739SOL    HW115658   1.173   6.250   3.963  0.8435 -0.9021 -0.8326
 4739SOL    HW215659   1.297   6.266   4.047 -0.6834  0.0879  1.3393
 4740SOL     OW15660   1.603   4.973   4.794 -0.0722 -0.0677  0.1156
 4740SOL    HW115661   1.526   5.018   4.827 -0.5004 -0.2638 -0.6038
 4740SOL    HW215662   1.639   5.031   4.727 -0.9567 -1.0216 -1.2232
 4741SOL     OW15663   0.588   0.142   3.583  0.3038 -0.7509  0.3199
 4741SOL    HW115664   0.495   0.144   3.560  0.0750 -1.0647  1.1532
 4741SOL    HW215665   0.631   0.197   3.518 -0.4631 -0.6401 -0.1001
 4742SOL     OW15666   1.242   6.041   4.844  0.1758 -0.1544 -0.3314
 4742SOL    HW115667   1.306   6.091   4.894  0.8022 -0.9748 -0.2987
 4742SOL    HW215668   1.290   6.010   4.767 -0.9264  1.6085 -1.8148
 4743SOL     OW15669   0.643   6.660   3.394 -0.3435 -0.0270  0.0312
 4743SOL    HW115670   0.632   6.739   3.446  0.0537 -1.3672  2.2906
 4743SOL    HW215671   0.725   6.674   3.346  0.2796  0.5246  1.2268
 4744SOL     OW15672   0.162   5.337   4.845  0.1240 -0.0426  0.3559
 4744SOL    HW115673   0.125   5.423   4.867  1.2849  0.7267 -0.5323
 4744SOL    HW215674   0.088   5.288   4.807 -0.3983  0.8096  0.2415
 4745SOL     OW15675   1.001   4.851   5.019  0.1940 -0.0365  0.0339
 4745SOL    HW115676   1.040   4.765   5.028  0.5558 -0.1190 -1.9109
 4745SOL    HW215677   0.969   4.854   4.928 -0.6566  1.5185  0.3441
 4746SOL     OW15678   2.962   6.054   3.686 -0.0083  0.2837 -0.2167
 4746SOL    HW115679   2.894   6.008   3.636  2.2560 -1.3337 -2.0285
 4746SOL    HW215680   3.015   5.984   3.724  2.2239  1.3701 -1.1440
 4747SOL     OW15681   1.695   6.355   3.306 -0.0062 -0.0719  0.4544
 4747SOL    HW115682   1.789   6.356   3.288  0.0159 -1.5788  0.3434
 4747SOL    HW215683   1.673   6.262   3.313 -1.4096  0.2687  0.9245
 4748SOL     OW15684   2.299   5.574   4.876 -0.5686 -0.0889  0.2341
 4748SOL    HW115685   2.261   5.515   4.811  1.4936 -2.9833  1.4822
 4748SOL    HW215686   2.231   5.585   4.942 -1.9966  1.3830 -1.3412
 4749SOL     OW15687   0.496   5.380   5.439  0.6175 -0.2378 -0.5291
 4749SOL    HW115688   0.483   5.291   5.404  0.3439 -0.0509 -0.9158
 4749SOL    HW215689   0.407   5.417   5.443  0.8177  0.3676 -1.3341
 4750SOL     OW15690   1.438   0.324   3.845  0.2265  0.1642 -0.1975
 4750SOL    HW115691   1.411   0.268   3.918 -0.0117  2.0026  1.2202
 4750SOL    HW215692   1.361   0.328   3.788 -0.5338  0.7292  0.8155
 4751SOL     OW15693   1.272   4.479   6.524 -0.1729 -0.3545 -0.5740
 4751SOL    HW115694   1.273   4.530   6.443  0.3339  0.0770 -0.3001
 4751SOL    HW215695   1.232   4.537   6.588  2.3380  0.5310  0.2673
 4752SOL     OW15696   1.611   7.780   5.282  0.4754  0.4286 -0.4208
 4752SOL    HW115697   1.624   7.727   5.203 -2.9500  0.0904 -0.8932
 4752SOL    HW215698   1.663   7.735   5.349 -0.0948 -1.9614 -1.4724
 4753SOL     OW15699   7.988   7.311   5.556 -0.7523 -0.1946 -0.0673
 4753SOL    HW115700   7.989   7.379   5.623 -0.6191 -1.9035  1.7526
 4753SOL    HW215701   7.895   7.287   5.548 -0.6466 -0.7150  0.2673
 4754SOL     OW15702   3.138   5.604   5.096  0.5362  0.5909  0.1821
 4754SOL    HW115703   3.180   5.635   5.176  0.2597  0.8438  0.2317
 4754SOL    HW215704   3.180   5.654   5.026 -1.7934  3.2197  0.4574
 4755SOL     OW15705   2.485   5.729   3.752  0.0117  0.5742  0.7081
 4755SOL    HW115706   2.451   5.652   3.706 -0.3654  1.1552  0.0056
 4755SOL    HW215707   2.440   5.728   3.836 -0.9639  0.7310  0.2073
 4756SOL     OW15708   2.967   5.072   5.793 -0.2621 -0.2491  0.2955
 4756SOL    HW115709   3.049   5.050   5.748 -1.5451 -1.0405 -1.7798
 4756SOL    HW215710   2.967   5.168   5.796  0.8013 -0.2391  0.5008
 4757SOL     OW15711   0.991   5.926   6.501 -0.3621  0.5183  0.3221
 4757SOL    HW115712   0.933   5.855   6.474  1.4114 -0.6039 -0.6532
 4757SOL    HW215713   1.003   5.979   6.422  0.6777  0.2107  0.2654
 4758SOL     OW15714   1.056   4.830   6.929 -0.0794  0.2069  0.3807
 4758SOL    HW115715   1.077   4.785   7.010 -1.2743 -0.0878  0.5474
 4758SOL    HW215716   0.980   4.782   6.894  1.1158 -0.4326 -1.5270
 4759SOL     OW15717   0.343   5.505   4.704  0.4149 -0.2063  0.2766
 4759SOL    HW115718   0.256   5.530   4.674 -0.0523 -0.2225  1.5719
 4759SOL    HW215719   0.391   5.588   4.711  0.7800 -0.2579 -1.1615
 4760SOL     OW15720   7.166   0.082   4.111 -0.3149  1.0260 -0.1721
 4760SOL    HW115721   7.090   0.092   4.053  0.2590  0.3675 -1.0649
 4760SOL    HW215722   7.199   0.171   4.122 -0.6098  1.1977 -0.6207
 4761SOL     OW15723   1.367   6.730   3.371  0.3904  0.3600  0.5393
 4761SOL    HW115724   1.359   6.635   3.376  0.9580  0.3447  1.3754
 4761SOL    HW215725   1.277   6.762   3.369  0.1848 -0.2452 -1.2648
 4762SOL     OW15726   0.672   5.159   5.316  0.3998  0.2356 -0.0501
 4762SOL    HW115727   0.727   5.188   5.389  0.6452  2.7608 -1.1616
 4762SOL    HW215728   0.713   5.195   5.238 -0.3372 -1.6744 -1.4198
 4763SOL     OW15729   0.805   6.312   6.018  0.5114  0.8237 -0.0909
 4763SOL    HW115730   0.728   6.331   5.964  0.5608  1.0996 -0.0642
 4763SOL    HW215731   0.810   6.386   6.080 -1.6396 -1.1216  2.6804
 4764SOL     OW15732   0.077   5.987   4.155 -0.4214  0.2949  0.1567
 4764SOL    HW115733   0.040   5.917   4.102  1.1202 -0.2356 -0.2577
 4764SOL    HW215734   0.076   6.063   4.098  1.2827 -0.2876 -0.7028
 4765SOL     OW15735   0.864   7.314   5.546 -0.3193 -0.3927  0.2971
 4765SOL    HW115736   0.808   7.346   5.617  0.1400 -1.2766  1.0735
 4765SOL    HW215737   0.850   7.377   5.475  2.7414  3.4221  2.6447
 4766SOL     OW15738   6.986   0.233   3.884  0.3225 -0.3966  0.2638
 4766SOL    HW115739   6.963   0.198   3.798  1.6491 -0.4145 -0.1031
 4766SOL    HW215740   7.068   0.280   3.870 -0.8801  2.0885  0.9350
 4767SOL     OW15741   2.173   4.713   5.853  0.5427 -0.2418  0.2113
 4767SOL    HW115742   2.101   4.774   5.833 -0.4709 -1.2291  0.7064
 4767SOL    HW215743   2.218   4.752   5.928  1.9035  1.4751 -1.4130
 4768SOL     OW15744   1.063   7.194   6.079 -0.2600 -0.2382 -0.5945
 4768SOL    HW115745   1.117   7.234   6.010  1.8632 -3.1411 -0.7786
 4768SOL    HW215746   1.025   7.117   6.038 -0.5136 -0.9727  0.9658
 4769SOL     OW15747   0.426   7.517   3.179  0.2642  0.1299 -0.0202
 4769SOL    HW115748   0.407   7.605   3.210  0.6361  0.0460  0.4647
 4769SOL    HW215749   0.449   7.468   3.258 -1.2123 -0.7485 -0.1090
 4770SOL     OW15750   0.890   4.605   5.302 -0.3551  0.1334 -0.0577
 4770SOL    HW115751   0.955   4.546   5.262  1.3672  1.8977 -0.0011
 4770SOL    HW215752   0.832   4.629   5.229 -0.1808 -0.4509 -0.4045
 4771SOL     OW15753   7.047   4.416   6.134  0.3416  0.7379  0.4140
 4771SOL    HW115754   6.971   4.437   6.189  1.2176 -1.1673  2.5612
 4771SOL    HW215755   7.015   4.349   6.073  0.1192  0.4062  0.8879
 4772SOL     OW15756   2.310   6.428   4.566 -0.0633  0.6090 -0.5828
 4772SOL    HW115757   2.338   6.345   4.603 -0.4829  0.9276  0.4776
 4772SOL    HW215758   2.355   6.494   4.617 -0.5786  1.0587 -0.6934
 4773SOL     OW15759   2.447   7.049   3.259  0.3724  0.5673 -0.7389
 4773SOL    HW115760   2.498   7.099   3.196  1.3158 -0.7357 -1.0720
 4773SOL    HW215761   2.489   6.963   3.260 -1.4984 -0.3951 -0.5960
 4774SOL     OW15762   2.899   6.092   5.657 -0.3273  0.0626 -0.3955
 4774SOL    HW115763   2.891   6.051   5.571  0.5770 -0.4741 -0.2349
 4774SOL    HW215764   2.813   6.131   5.673 -1.0456 -1.2908 -0.8074
 4775SOL     OW15765   1.177   5.890   3.808  0.2857 -0.1346  0.0105
 4775SOL    HW115766   1.270   5.888   3.785  0.9890 -0.4917  2.5677
 4775SOL    HW215767   1.141   5.810   3.771  1.0745 -0.1472 -0.7535
 4776SOL     OW15768   7.583   6.402   4.627  0.1609 -0.1293  0.0801
 4776SOL    HW115769   7.535   6.381   4.547  1.3073 -1.2590 -0.3487
 4776SOL    HW215770   7.648   6.467   4.600 -2.0548  2.7022  0.9919
 4777SOL     OW15771   0.437   7.662   2.570 -0.0387  0.6058 -0.2038
 4777SOL    HW115772   0.495   7.718   2.517  1.1109 -1.3307 -1.1284
 4777SOL    HW215773   0.393   7.606   2.506 -0.1123 -0.4585  0.7368
 4778SOL     OW15774   0.348   4.807   4.698  0.0970 -0.2399  0.0044
 4778SOL    HW115775   0.266   4.778   4.737  0.2034 -0.3644  0.1372
 4778SOL    HW215776   0.323   4.880   4.641  0.1379  0.9066  1.4274
 4779SOL     OW15777   7.748   5.675   5.998  0.4285  0.6945  0.1355
 4779SOL    HW115778   7.804   5.696   6.073  0.4676 -1.0220  0.6447
 4779SOL    HW215779   7.660   5.696   6.028  0.3794 -0.4995  0.9164
 4780SOL     OW15780   0.235   5.605   5.205  0.5180  0.4859 -0.1728
 4780SOL    HW115781   0.254   5.572   5.293  1.7523  0.6138 -0.3731
 4780SOL    HW215782   0.221   5.699   5.217  0.2738  0.4379 -0.0649
 4781SOL     OW15783   1.072   6.493   7.018 -0.4627 -0.1919  0.3036
 4781SOL    HW115784   1.045   6.522   7.105  0.1721 -1.3161  0.9066
 4781SOL    HW215785   0.990   6.477   6.971 -0.8180 -0.3029  0.9569
 4782SOL     OW15786   1.402   5.151   6.677 -0.0124 -1.2452  0.0176
 4782SOL    HW115787   1.384   5.156   6.583  1.2303 -0.9152 -0.2162
 4782SOL    HW215788   1.320   5.119   6.715 -0.4673 -1.5805 -1.1964
 4783SOL     OW15789   0.676   7.404   5.840  0.0595  0.2253 -0.0392
 4783SOL    HW115790   0.765   7.441   5.840  0.1951 -0.0532 -1.1181
 4783SOL    HW215791   0.625   7.466   5.788  0.3716 -1.2113 -2.2012
 4784SOL     OW15792   1.428   6.184   5.004 -0.5018  0.7157  0.1370
 4784SOL    HW115793   1.484   6.107   4.996  0.1496  1.1597  0.3060
 4784SOL    HW215794   1.380   6.170   5.085  0.9108  1.2854  1.1217
 4785SOL     OW15795   1.883   6.336   6.585  0.4754  0.2501 -0.4294
 4785SOL    HW115796   1.792   6.312   6.564  0.4638  0.6937 -0.9252
 4785SOL    HW215797   1.877   6.428   6.612  0.2952 -0.6176  2.9213
 4786SOL     OW15798   2.682   7.061   8.622 -0.2180  0.0572 -0.0580
 4786SOL    HW115799   2.642   6.998   8.562 -0.5899  1.0660 -0.9112
 4786SOL    HW215800   2.685   7.142   8.572  0.7599  0.5846  0.8204
 4787SOL     OW15801   0.439   6.953   6.658  0.3961  0.1613 -0.2082
 4787SOL    HW115802   0.474   6.969   6.746 -0.1987  0.2066  0.0236
 4787SOL    HW215803   0.386   7.031   6.639  0.7166  0.2670 -0.7113
 4788SOL     OW15804   0.189   6.891   7.427 -0.2789  0.1324 -0.1925
 4788SOL    HW115805   0.241   6.964   7.394  1.3850 -0.1268  1.6875
 4788SOL    HW215806   0.123   6.932   7.482 -0.2480  0.2986 -0.2794
 4789SOL     OW15807   7.943   5.757   7.812 -0.7432  0.1198  0.3324
 4789SOL    HW115808   7.894   5.705   7.749 -0.5177 -1.1371  1.1604
 4789SOL    HW215809   8.014   5.700   7.841  0.3400  1.3796  0.2555
 4790SOL     OW15810   1.854   7.342   7.515  0.5010  0.3060 -0.0141
 4790SOL    HW115811   1.765   7.314   7.496  0.9939 -0.9452 -0.6220
 4790SOL    HW215812   1.868   7.318   7.607  0.4472 -0.1809 -0.1293
 4791SOL     OW15813   0.725   5.677   5.820  0.1652 -0.3136 -0.3135
 4791SOL    HW115814   0.658   5.703   5.883  1.0597 -0.5702  0.7695
 4791SOL    HW215815   0.780   5.754   5.809  0.1097 -0.3208 -0.6494
 4792SOL     OW15816   1.661   5.257   6.679 -0.2871  0.3113  0.1586
 4792SOL    HW115817   1.686   5.250   6.771 -0.2714  0.4813  0.1689
 4792SOL    HW215818   1.570   5.230   6.677 -0.2976  0.3399  0.2301
 4793SOL     OW15819   7.426   6.206   7.705 -0.3914 -0.1390  0.0514
 4793SOL    HW115820   7.369   6.131   7.690 -0.9067  0.3417 -0.4291
 4793SOL    HW215821   7.514   6.173   7.686 -0.6974 -0.4010 -0.9783
 4794SOL     OW15822   2.896   6.023   9.552  0.0359 -0.3374  0.5042
 4794SOL    HW115823   2.930   5.975   9.476 -0.2427 -0.3577  0.3918
 4794SOL    HW215824   2.891   6.114   9.523  0.1450 -0.3084  0.5738
 4795SOL     OW15825   1.601   0.596   4.789  0.6428 -0.0028 -0.3926
 4795SOL    HW115826   1.655   0.672   4.811  0.4405 -0.0377  0.2323
 4795SOL    HW215827   1.511   0.628   4.795  0.4957 -0.6659  1.3726
 4796SOL     OW15828   2.678   5.803   5.783  0.6087 -0.8957  0.1493
 4796SOL    HW115829   2.656   5.884   5.829 -0.9843 -0.6324 -0.9781
 4796SOL    HW215830   2.673   5.735   5.849  0.5771 -0.2519  0.8224
 4797SOL     OW15831   0.627   1.046   6.592 -0.4506 -0.3116 -0.6195
 4797SOL    HW115832   0.654   1.068   6.682 -1.1782  1.6857 -0.8392
 4797SOL    HW215833   0.570   0.970   6.603 -2.6046  1.3977  0.9693
 4798SOL     OW15834   0.854   7.000   4.601 -0.3625  0.0641 -0.3248
 4798SOL    HW115835   0.852   6.907   4.576  0.4918  0.4978 -2.2295
 4798SOL    HW215836   0.947   7.019   4.614 -0.2925  1.1063 -2.0253
 4799SOL     OW15837   1.292   4.237   5.868 -0.0801  0.0542  0.4987
 4799SOL    HW115838   1.294   4.282   5.952 -0.3216 -1.1438  1.1713
 4799SOL    HW215839   1.322   4.302   5.805 -1.5263  1.5051  1.2465
 4800SOL     OW15840   0.163   4.780   6.528  0.3594  0.4768 -0.2101
 4800SOL    HW115841   0.226   4.709   6.516 -1.6152 -1.4586  0.1520
 4800SOL    HW215842   0.122   4.791   6.442  0.5013  1.0231 -0.2093
 4801SOL     OW15843   0.216   7.243   5.134 -0.2237 -0.1048  0.4621
 4801SOL    HW115844   0.214   7.178   5.064  0.3665 -2.1257  2.2078
 4801SOL    HW215845   0.135   7.227   5.184  0.2024  0.1182  1.2384
 4802SOL     OW15846   0.241   6.284   6.529  0.1635  0.4653  0.1450
 4802SOL    HW115847   0.169   6.346   6.517  1.3080  1.6685 -0.8818
 4802SOL    HW215848   0.269   6.263   6.439 -0.8478 -2.3948  0.4018
 4803SOL     OW15849   1.608   6.521   4.889  0.4456 -0.0236  0.2815
 4803SOL    HW115850   1.554   6.596   4.866 -0.2751  0.0331  1.9843
 4803SOL    HW215851   1.625   6.476   4.806  0.5129  1.7439 -0.7032
 4804SOL     OW15852   1.312   4.648   6.930  0.5314  0.2662  0.2750
 4804SOL    HW115853   1.372   4.588   6.886  0.1204  0.5248 -0.6573
 4804SOL    HW215854   1.353   4.733   6.922 -0.2878  0.5618 -1.0130
 4805SOL     OW15855   0.039   0.005   5.444  0.2925 -0.2296 -0.1448
 4805SOL    HW115856   0.032  -0.060   5.514 -0.1838 -0.8703 -0.7695
 4805SOL    HW215857   0.089   0.077   5.483 -0.9799 -0.0272  1.2428
 4806SOL     OW15858   1.891   7.521   6.271 -0.4444  0.1811 -0.5520
 4806SOL    HW115859   1.985   7.538   6.282  0.0724 -2.9388  0.8607
 4806SOL    HW215860   1.886   7.447   6.211 -1.9051 -0.5323  0.3881
 4807SOL     OW15861   7.314   6.884   5.444  0.1614  0.1284  0.2655
 4807SOL    HW115862   7.353   6.947   5.504 -0.3909  0.8146 -0.0659
 4807SOL    HW215863   7.313   6.802   5.492 -1.5403  0.9480  1.7661
 4808SOL     OW15864   2.139   4.656   5.217 -0.9700  0.0751  0.3163
 4808SOL    HW115865   2.044   4.652   5.217 -1.0226  1.0409 -0.9266
 4808SOL    HW215866   2.161   4.742   5.182  0.3613 -0.3082  0.1203
 4809SOL     OW15867   0.848   6.152   6.406 -0.3333  0.6002  0.7542
 4809SOL    HW115868   0.794   6.118   6.477  0.2794  2.7135  2.3548
 4809SOL    HW215869   0.861   6.244   6.428  1.2085  0.9540 -1.3062
 4810SOL     OW15870   0.831   6.689   7.815  0.4851 -0.2606 -0.0974
 4810SOL    HW115871   0.910   6.659   7.860  1.5706 -0.0042 -1.7350
 4810SOL    HW215872   0.790   6.608   7.783  0.1343 -0.3866  0.6539
 4811SOL     OW15873   3.600   6.721   8.085  0.0762 -0.1625  0.5210
 4811SOL    HW115874   3.615   6.786   8.154  0.5794 -1.4008  1.6161
 4811SOL    HW215875   3.507   6.699   8.092 -0.7723  2.2971 -1.5881
 4812SOL     OW15876   1.773   7.345   6.012 -0.1470  0.0094  0.2974
 4812SOL    HW115877   1.807   7.291   6.083  0.0639  1.1759  1.1294
 4812SOL    HW215878   1.738   7.283   5.949 -0.9392 -1.0441  1.7167
 4813SOL     OW15879   1.238   0.077   4.912  0.2339  0.5850  0.0154
 4813SOL    HW115880   1.173   0.013   4.883  0.7578  0.3523 -0.6456
 4813SOL    HW215881   1.202   0.110   4.995 -1.3782  1.3815 -0.9398
 4814SOL     OW15882   0.499   6.061   5.408  0.1320 -0.0103 -0.6549
 4814SOL    HW115883   0.472   6.153   5.409 -0.2269 -0.1110 -1.1794
 4814SOL    HW215884   0.593   6.065   5.390  0.2586  0.2829  0.0269
 4815SOL     OW15885   3.089   6.172   6.100  0.1030  0.1525  0.4598
 4815SOL    HW115886   3.042   6.119   6.036 -0.3594 -1.7272  2.2591
 4815SOL    HW215887   3.181   6.165   6.073 -0.2022  0.5564 -0.7660
 4816SOL     OW15888   1.325   6.043   7.111 -0.0059 -0.2793 -0.5388
 4816SOL    HW115889   1.355   6.133   7.123 -1.3316  0.2120 -0.7376
 4816SOL    HW215890   1.356   6.019   7.023  0.0218  0.1238 -0.6406
 4817SOL     OW15891   0.333   6.521   7.206 -0.3628 -0.4614  0.1377
 4817SOL    HW115892   0.288   6.437   7.196 -0.1195 -0.5332 -0.3669
 4817SOL    HW215893   0.351   6.527   7.299 -0.6829 -0.8138  0.2268
 4818SOL     OW15894   1.079   6.938   6.907 -0.3105 -0.3880  0.1741
 4818SOL    HW115895   1.088   6.849   6.873 -1.1710 -0.6036  0.4823
 4818SOL    HW215896   0.987   6.944   6.934  0.2222 -0.0865  2.0677
 4819SOL     OW15897   3.087   6.794   5.325  0.2209 -0.3053 -0.0029
 4819SOL    HW115898   3.003   6.836   5.341 -0.5296 -0.4235 -3.0643
 4819SOL    HW215899   3.090   6.722   5.388 -2.4595 -0.8884 -0.4120
 4820SOL     OW15900   0.389   7.808   4.936 -0.4339  0.2827 -0.2074
 4820SOL    HW115901   0.311   7.827   4.986 -1.5016 -0.8654 -1.3527
 4820SOL    HW215902   0.361   7.744   4.871  1.5424 -0.4581 -0.4113
 4821SOL     OW15903   7.785   7.381   5.194  0.5165  0.0837 -0.4742
 4821SOL    HW115904   7.859   7.329   5.226 -0.1687 -0.8553 -0.3720
 4821SOL    HW215905   7.711   7.320   5.194 -0.3133  1.0581 -0.3759
 4822SOL     OW15906   7.375   7.552   6.636 -0.2063  0.4995 -0.0748
 4822SOL    HW115907   7.321   7.476   6.614 -1.2818  1.9285 -2.8123
 4822SOL    HW215908   7.313   7.623   6.651  0.7871  1.7664 -1.6060
 4823SOL     OW15909   0.273   5.931   6.148  0.0144 -0.3066  0.1903
 4823SOL    HW115910   0.260   5.837   6.143 -0.9532 -0.4049  2.7913
 4823SOL    HW215911   0.336   5.943   6.220 -1.2827  1.0564  1.1622
 4824SOL     OW15912   0.506   6.954   6.928  0.3342 -0.3569 -0.0319
 4824SOL    HW115913   0.600   6.957   6.948  0.4606 -2.8047 -0.0360
 4824SOL    HW215914   0.472   6.884   6.983 -1.1515 -0.7233 -1.3561
 4825SOL     OW15915   1.387   7.544   3.684 -0.1206  0.1227 -0.1929
 4825SOL    HW115916   1.327   7.481   3.643 -1.8107  0.3205  1.8077
 4825SOL    HW215917   1.335   7.585   3.753  2.2204  0.6083  1.3982
 4826SOL     OW15918   7.844   4.984   7.648  0.0408  0.1853  0.5501
 4826SOL    HW115919   7.753   4.972   7.677  0.6028 -0.6916  1.9973
 4826SOL    HW215920   7.837   5.047   7.576 -1.7823 -0.3520  0.2070
 4827SOL     OW15921   0.743   7.125   8.018  0.4771 -0.7203  0.2115
 4827SOL    HW115922   0.791   7.137   7.936 -1.1848  0.0001 -0.7099
 4827SOL    HW215923   0.794   7.061   8.067  3.4515  1.4805  0.2013
 4828SOL     OW15924   2.221   7.436   5.612 -0.1533  0.0709 -0.5937
 4828SOL    HW115925   2.174   7.371   5.561  0.2780 -0.1710 -0.6918
 4828SOL    HW215926   2.172   7.442   5.694  0.1460 -0.8307 -0.3410
 4829SOL     OW15927   3.381   0.135   6.467 -0.3104 -0.0351  0.0870
 4829SOL    HW115928   3.384   0.053   6.515 -0.4165  0.4774  0.9931
 4829SOL    HW215929   3.455   0.186   6.501 -0.3366  0.3057 -0.3543
 4830SOL     OW15930   0.333   6.352   5.074  0.2032 -0.3542  0.2539
 4830SOL    HW115931   0.238   6.336   5.076 -0.2362  1.0273 -3.1124
 4830SOL    HW215932   0.358   6.355   5.167 -3.0523 -0.5224  1.2905
 4831SOL     OW15933   0.684   4.274   5.719 -0.6467  0.2360  0.5278
 4831SOL    HW115934   0.594   4.301   5.736 -1.3315 -2.4998  1.7349
 4831SOL    HW215935   0.676   4.198   5.662  1.0291  0.8543 -0.6258
 4832SOL     OW15936   0.347   6.827   6.120 -0.0297 -0.3545 -0.5770
 4832SOL    HW115937   0.425   6.865   6.160 -1.7752  1.4361  1.4185
 4832SOL    HW215938   0.274   6.872   6.163 -2.1753 -0.7442 -3.5087
 4833SOL     OW15939   2.847   6.825   6.216  0.2221 -0.6423  0.6298
 4833SOL    HW115940   2.877   6.764   6.283  1.5550 -0.1600  0.5029
 4833SOL    HW215941   2.887   6.794   6.135 -0.0537 -0.2856  0.3522
 4834SOL     OW15942   0.109   6.076   6.667 -0.2420 -0.6682 -0.2927
 4834SOL    HW115943   0.086   6.021   6.591 -0.2273 -1.9383  0.5866
 4834SOL    HW215944   0.168   6.142   6.631 -1.6159 -0.1404 -1.7194
 4835SOL     OW15945   7.384   6.746   6.789 -0.0049  0.4034 -0.7151
 4835SOL    HW115946   7.412   6.827   6.830  0.7117 -0.4366  0.5220
 4835SOL    HW215947   7.457   6.720   6.733  1.2096 -1.0330  1.3981
 4836SOL     OW15948   3.361   6.757   6.124 -0.3195 -0.0824  0.6669
 4836SOL    HW115949   3.428   6.761   6.192  1.2147  0.7202 -0.8251
 4836SOL    HW215950   3.406   6.723   6.047 -1.4871  0.9798 -0.5417
 4837SOL     OW15951   7.797   7.257   3.984 -0.0877  0.0515 -0.1582
 4837SOL    HW115952   7.892   7.254   3.971 -0.0586  0.0067  0.0584
 4837SOL    HW215953   7.780   7.195   4.055 -0.3186 -0.1756 -0.4078
 4838SOL     OW15954   0.970   5.515   5.389  0.5351 -0.1408  0.4831
 4838SOL    HW115955   0.995   5.428   5.419  0.8688 -0.1884  0.0749
 4838SOL    HW215956   0.877   5.522   5.411 -0.0197 -1.3768 -1.2268
 4839SOL     OW15957   0.299   7.925   7.610  0.0379  0.9323 -0.3320
 4839SOL    HW115958   0.276   7.880   7.528  0.0177 -0.0858  0.2165
 4839SOL    HW215959   0.245   8.004   7.610 -1.3888  0.0024 -0.4094
 4840SOL     OW15960   1.929   6.020   4.987  0.7747 -0.0119  0.0913
 4840SOL    HW115961   2.007   6.048   5.036  0.4028 -0.5017  0.9827
 4840SOL    HW215962   1.855   6.048   5.042  0.2296  1.7886 -1.4340
 4841SOL     OW15963   7.322   5.457   5.996 -0.7682 -0.0264  0.0527
 4841SOL    HW115964   7.353   5.453   5.905 -0.4061 -0.7909  0.2065
 4841SOL    HW215965   7.372   5.528   6.035  1.1322 -1.4728  0.4043
 4842SOL     OW15966   1.884   6.511   5.415  0.2026 -0.1893  0.4775
 4842SOL    HW115967   1.898   6.416   5.416  1.8306  0.0142  1.9585
 4842SOL    HW215968   1.818   6.527   5.483 -1.2297 -0.3588 -0.8158
 4843SOL     OW15969   7.790   4.045   4.882  0.5190 -0.6726 -0.0042
 4843SOL    HW115970   7.873   4.091   4.899  0.9310 -2.4706  4.0285
 4843SOL    HW215971   7.723   4.112   4.892  1.3673  0.5472 -2.0248
 4844SOL     OW15972   1.164   4.678   6.695 -0.2338  0.1536  0.2152
 4844SOL    HW115973   1.178   4.644   6.783 -0.4758  1.3135  0.7212
 4844SOL    HW215974   1.232   4.744   6.683 -0.6520  0.5241 -0.1791
 4845SOL     OW15975   1.387   5.393   5.332  0.1045  0.7281  0.2189
 4845SOL    HW115976   1.469   5.377   5.380 -0.7046  0.2509  1.4823
 4845SOL    HW215977   1.384   5.488   5.322 -0.0134  0.9110  1.7082
 4846SOL     OW15978   0.992   6.517   7.983 -0.0528 -0.0480  0.2551
 4846SOL    HW115979   1.082   6.533   7.958  0.4423 -0.3526  1.7343
 4846SOL    HW215980   0.961   6.451   7.921  0.5729  0.4058 -0.5600
 4847SOL     OW15981   0.374   5.550   5.911  0.5305 -0.0512 -0.0906
 4847SOL    HW115982   0.395   5.464   5.875  1.2850  0.5409 -1.1218
 4847SOL    HW215983   0.460   5.590   5.929  0.2105  0.7725 -0.3299
 4848SOL     OW15984   1.248   5.906   6.646  0.0719 -0.0022  0.0949
 4848SOL    HW115985   1.165   5.945   6.618  0.6436  1.0786 -0.1483
 4848SOL    HW215986   1.245   5.816   6.612 -1.1606 -0.1074  0.4396
 4849SOL     OW15987   7.823   5.242   6.465 -0.4049 -0.6211  0.0472
 4849SOL    HW115988   7.768   5.307   6.422  0.5988  0.5558  0.4613
 4849SOL    HW215989   7.888   5.219   6.399  1.5321  1.6658  0.9829
 4850SOL     OW15990   1.804   6.760   5.737  0.2823  0.3368  0.3508
 4850SOL    HW115991   1.772   6.844   5.773 -1.0212 -0.1065  0.2843
 4850SOL    HW215992   1.825   6.708   5.814 -1.4312 -0.2048  0.4860
 4851SOL     OW15993   7.745   4.069   4.516 -0.8710  0.0301 -0.3728
 4851SOL    HW115994   7.795   4.136   4.563 -0.0799  2.0501 -3.7725
 4851SOL    HW215995   7.802   3.992   4.516 -0.4548  0.3083  0.9664
 4852SOL     OW15996   1.824   5.112   6.968 -0.0078  0.4495  0.2449
 4852SOL    HW115997   1.816   5.039   6.907  3.4854 -0.4208  0.5978
 4852SOL    HW215998   1.831   5.070   7.054  1.4004  1.1740  0.5208
 4853SOL     OW15999   2.393   6.355   6.989  0.2603 -0.9917 -0.0557
 4853SOL    HW116000   2.362   6.348   6.899 -1.4680 -2.0672  0.5747
 4853SOL    HW216001   2.433   6.269   7.007  3.0283  0.0843 -0.5804
 4854SOL     OW16002   0.798   7.389   7.238  0.3258  0.2367  0.0457
 4854SOL    HW116003   0.771   7.473   7.201 -1.0008  0.4858  1.4648
 4854SOL    HW216004   0.722   7.360   7.289  0.7390 -1.8574 -0.4392
 4855SOL     OW16005   1.724   6.555   6.661 -0.3647  0.0708 -0.0911
 4855SOL    HW116006   1.682   6.581   6.579  0.3761  0.4453 -0.3628
 4855SOL    HW216007   1.799   6.614   6.669  0.5084 -1.0280  0.0183
 4856SOL     OW16008   1.118   6.813   5.871 -0.2283  0.1479 -0.2701
 4856SOL    HW116009   1.196   6.794   5.924 -0.5925 -0.1577  0.1668
 4856SOL    HW216010   1.121   6.750   5.799  0.2866  0.5853 -0.6414
 4857SOL     OW16011   1.095   5.976   4.067  0.3738  0.0338 -0.0494
 4857SOL    HW116012   1.130   6.064   4.082  1.3862 -0.5354  1.0935
 4857SOL    HW216013   1.107   5.961   3.973 -0.0285  1.1942 -0.3033
 4858SOL     OW16014   7.644   5.077   7.065 -0.1344 -0.1392  0.0351
 4858SOL    HW116015   7.643   4.992   7.021 -1.6117 -0.6296  0.9597
 4858SOL    HW216016   7.654   5.056   7.158  0.2508  0.7452  0.2042
 4859SOL     OW16017   7.917   1.761   6.168  0.1382 -0.1423  0.0233
 4859SOL    HW116018   7.937   1.790   6.079 -2.7604  0.0891 -0.6514
 4859SOL    HW216019   7.936   1.667   6.168  0.6955 -0.0336 -0.6631
 4860SOL     OW16020   1.438   5.645   5.558 -0.1592  0.0150 -0.0229
 4860SOL    HW116021   1.453   5.723   5.506  1.3336  0.4301  0.9984
 4860SOL    HW216022   1.468   5.667   5.646  0.3392 -1.7112  0.2850
 4861SOL     OW16023   0.290   5.180   5.769 -0.2165 -0.1906  0.4226
 4861SOL    HW116024   0.201   5.184   5.806 -1.0174  0.1408 -1.4323
 4861SOL    HW216025   0.291   5.100   5.717  0.6882 -0.3477  0.6653
 4862SOL     OW16026   1.417   7.242   9.443 -0.5012  0.0484  0.0234
 4862SOL    HW116027   1.366   7.165   9.418 -0.4469 -0.4181  1.3153
 4862SOL    HW216028   1.420   7.295   9.363  0.6124 -1.9072 -1.2956
 4863SOL     OW16029   1.494   6.742   5.382  0.4507  0.3859 -0.1307
 4863SOL    HW116030   1.493   6.672   5.317 -2.5942 -1.3706  1.5292
 4863SOL    HW216031   1.406   6.781   5.376  0.0481  0.1715  2.7652
 4864SOL     OW16032   1.786   4.433   5.749  0.7745 -0.3119 -0.1460
 4864SOL    HW116033   1.730   4.470   5.817 -0.1448  1.9083 -2.0035
 4864SOL    HW216034   1.742   4.352   5.723 -0.0573 -0.0319  0.3544
 4865SOL     OW16035   7.658   7.710   3.987  0.1217 -0.5244  0.1732
 4865SOL    HW116036   7.660   7.751   3.901  0.3110 -1.1829 -0.1475
 4865SOL    HW216037   7.709   7.768   4.043  1.9090 -1.1970 -0.6774
 4866SOL     OW16038   2.797   5.690   6.298 -0.2302 -0.3261  0.1158
 4866SOL    HW116039   2.810   5.632   6.223  0.7429  0.8441 -0.6662
 4866SOL    HW216040   2.867   5.755   6.290 -0.9110  0.5953  1.2993
 4867SOL     OW16041   0.388   5.172   5.289  0.5831  0.1219  0.0535
 4867SOL    HW116042   0.477   5.139   5.276  0.4661  0.0069 -0.4582
 4867SOL    HW216043   0.361   5.202   5.203  0.2268  0.4183  0.2658
 4868SOL     OW16044   7.653   5.578   6.343 -0.3028  0.2223  0.2660
 4868SOL    HW116045   7.575   5.578   6.398 -0.0280 -0.3253  0.6681
 4868SOL    HW216046   7.688   5.667   6.352 -1.2936  0.7132 -0.5397
 4869SOL     OW16047   2.362   6.260   6.722 -0.1784 -0.4315 -0.0899
 4869SOL    HW116048   2.424   6.307   6.666 -0.6604  0.3911  0.0451
 4869SOL    HW216049   2.384   6.168   6.711  1.0970 -0.1455 -0.0054
 4870SOL     OW16050   2.187   6.992   5.615 -0.0004  0.1693  0.2808
 4870SOL    HW116051   2.183   6.897   5.604 -0.6125 -0.1339  2.5361
 4870SOL    HW216052   2.148   7.008   5.701  0.1452  2.4716 -0.0089
 4871SOL     OW16053   3.088   6.188   7.091 -0.0369 -0.1087 -0.0194
 4871SOL    HW116054   3.019   6.124   7.072 -0.2043  0.3625 -1.0986
 4871SOL    HW216055   3.041   6.269   7.110  0.1852 -0.1891  0.9201
 4872SOL     OW16056   0.810   6.916   6.450 -0.1246 -0.4541 -0.3766
 4872SOL    HW116057   0.832   6.934   6.541  2.1594 -0.4064 -0.8690
 4872SOL    HW216058   0.840   6.993   6.402  1.1478 -1.5401 -1.4208
 4873SOL     OW16059   3.070   6.670   6.609 -0.0357 -0.3251  0.1815
 4873SOL    HW116060   3.018   6.673   6.689 -0.3179  4.2859  0.0900
 4873SOL    HW216061   3.159   6.689   6.638  0.0912  0.1245 -0.4853
 4874SOL     OW16062   0.184   6.099   4.424 -0.0233 -0.3135 -0.1801
 4874SOL    HW116063   0.132   6.084   4.345  0.4152 -0.4224 -0.4511
 4874SOL    HW216064   0.246   6.167   4.399 -0.3728  0.1983  0.3012
 4875SOL     OW16065   1.584   5.568   6.835  0.0893 -0.1570  0.3420
 4875SOL    HW116066   1.610   5.515   6.760  0.5553  0.2668  0.1938
 4875SOL    HW216067   1.488   5.564   6.836 -0.1426  2.0705 -1.9875
 4876SOL     OW16068   0.871   4.871   7.353  0.5154 -0.3897 -0.2925
 4876SOL    HW116069   0.871   4.810   7.426 -1.3716 -0.0945  0.0044
 4876SOL    HW216070   0.785   4.861   7.312  0.6952  1.0357 -1.1097
 4877SOL     OW16071   1.329   5.419   6.558 -0.3245 -0.6042  0.3138
 4877SOL    HW116072   1.315   5.427   6.464  0.8134  0.6775  0.2180
 4877SOL    HW216073   1.338   5.325   6.573  0.0444 -0.7922 -0.9562
 4878SOL     OW16074   0.136   4.348   5.204 -0.4406  0.0129  0.1213
 4878SOL    HW116075   0.152   4.442   5.206  0.8495 -0.1700 -0.2471
 4878SOL    HW216076   0.221   4.309   5.227 -0.9724 -1.0518  0.3412
 4879SOL     OW16077   7.137   7.718   4.617  0.1915 -0.3934 -0.7653
 4879SOL    HW116078   7.209   7.756   4.668  0.4267  2.1906 -2.7803
 4879SOL    HW216079   7.059   7.764   4.646  0.6110  2.7832 -3.9054
 4880SOL     OW16080   2.794   7.353   5.255  0.2946 -0.1648 -0.1218
 4880SOL    HW116081   2.777   7.427   5.196 -1.2351 -0.1972  0.2442
 4880SOL    HW216082   2.859   7.300   5.208  1.3490  1.3394 -0.4314
 4881SOL     OW16083   1.476   6.734   4.770  0.1689 -0.6509 -0.1460
 4881SOL    HW116084   1.405   6.716   4.709 -1.5587 -1.2645  1.9181
 4881SOL    HW216085   1.484   6.830   4.771  0.5432 -0.6487 -1.6218
 4882SOL     OW16086   2.404   6.859   6.304  0.2471 -0.4283 -0.6623
 4882SOL    HW116087   2.432   6.858   6.395 -1.5890  0.3803 -0.0423
 4882SOL    HW216088   2.396   6.952   6.282 -2.8561 -0.5576 -0.4347
 4883SOL     OW16089   1.860   6.054   6.913 -0.0893 -0.9144  0.4354
 4883SOL    HW116090   1.860   5.959   6.923  2.0153 -1.1356 -1.0660
 4883SOL    HW216091   1.819   6.069   6.828  1.2541 -0.6419 -0.1851
 4884SOL     OW16092   1.304   7.183   7.729  0.4386 -0.2351 -0.4766
 4884SOL    HW116093   1.313   7.237   7.650  2.9962  2.3285  1.3518
 4884SOL    HW216094   1.382   7.129   7.730 -0.0674 -0.9718 -0.1823
 4885SOL     OW16095   1.229   5.037   7.731  0.0071  0.2880 -0.1168
 4885SOL    HW116096   1.165   5.078   7.673 -0.0406  0.7147  0.2353
 4885SOL    HW216097   1.314   5.065   7.696 -0.0367  1.6443  0.7927
 4886SOL     OW16098   7.010   6.037   5.797  0.1604 -0.4888  0.3462
 4886SOL    HW116099   6.932   6.014   5.849  0.3703 -0.7690  0.5412
 4886SOL    HW216100   7.016   5.968   5.731  0.3518 -0.5706  0.4489
 4887SOL     OW16101   1.342   6.198   5.970  0.3619 -0.6773 -0.1674
 4887SOL    HW116102   1.379   6.141   5.903  0.0745  0.2368 -1.1182
 4887SOL    HW216103   1.386   6.282   5.957  0.9431 -0.7176  1.3588
 4888SOL     OW16104   1.414   6.020   6.835 -0.0471  0.0724 -0.1040
 4888SOL    HW116105   1.454   6.101   6.804 -0.9321  0.0358 -1.4166
 4888SOL    HW216106   1.343   6.003   6.773 -0.0096 -1.5952  0.2696
 4889SOL     OW16107   0.634   5.598   5.207 -0.0367 -0.5242  0.0940
 4889SOL    HW116108   0.546   5.561   5.205 -0.6437  0.8960 -2.2135
 4889SOL    HW216109   0.691   5.527   5.177 -0.9341 -0.2937 -2.3208
 4890SOL     OW16110   0.996   5.845   7.589 -0.1693  0.1817  0.0912
 4890SOL    HW116111   1.043   5.771   7.550 -2.1067 -0.4196 -1.2432
 4890SOL    HW216112   0.991   5.824   7.682  1.6531  0.0106  0.1925
 4891SOL     OW16113   7.448   1.629   7.568  0.1591  0.6702  0.2364
 4891SOL    HW116114   7.369   1.621   7.622  0.0098 -0.1972 -0.1047
 4891SOL    HW216115   7.518   1.641   7.631 -0.3234  2.3454  0.5230
 4892SOL     OW16116   3.171   6.879   8.538 -0.1528  0.2394 -0.3873
 4892SOL    HW116117   3.151   6.806   8.596 -0.6034 -0.3658 -1.2911
 4892SOL    HW216118   3.179   6.955   8.597 -0.9075 -0.2992  0.4277
 4893SOL     OW16119   1.024   5.057   7.205  0.7514  0.2983  0.3268
 4893SOL    HW116120   1.096   4.994   7.204 -0.2339 -0.8920 -2.0397
 4893SOL    HW216121   0.954   5.012   7.252  1.0981  0.9777  1.5398
 4894SOL     OW16122   2.167   5.396   4.468  0.0159 -0.2958 -0.2555
 4894SOL    HW116123   2.168   5.402   4.563  0.8830 -2.2907 -0.0824
 4894SOL    HW216124   2.196   5.482   4.437 -0.7858  0.5430  1.2436
 4895SOL     OW16125   7.275   6.956   5.841  0.0529 -0.3079  0.0735
 4895SOL    HW116126   7.367   6.977   5.828  0.1786 -0.6011  0.4437
 4895SOL    HW216127   7.264   6.955   5.936 -0.6087  0.8620  0.0236
 4896SOL     OW16128   0.631   1.040   7.294 -0.4654  0.0376 -0.4169
 4896SOL    HW116129   0.685   0.973   7.252 -0.2525 -0.9181  1.3050
 4896SOL    HW216130   0.543   1.001   7.297 -0.5243  0.1939 -0.1664
 4897SOL     OW16131   2.755   6.676   7.550 -0.3739 -0.1871  0.0311
 4897SOL    HW116132   2.809   6.597   7.560 -0.2273 -0.0865  0.0287
 4897SOL    HW216133   2.670   6.651   7.586 -0.9171 -0.9715 -1.7089
 4898SOL     OW16134   1.360   5.974   5.784  0.2951  0.5974 -0.0643
 4898SOL    HW116135   1.402   5.901   5.829  0.6092  0.2103 -0.9572
 4898SOL    HW216136   1.286   5.935   5.738  0.2343  0.9065 -0.2332
 4899SOL     OW16137   2.237   5.361   6.610 -0.0334 -0.1215 -0.1350
 4899SOL    HW116138   2.155   5.354   6.561 -1.2929  4.0101  0.9614
 4899SOL    HW216139   2.276   5.443   6.578  0.3025  1.4659  3.8422
 4900SOL     OW16140   1.485   6.250   4.510  0.1335 -0.1563 -0.1963
 4900SOL    HW116141   1.559   6.191   4.493 -0.8404 -0.8864 -2.1340
 4900SOL    HW216142   1.408   6.200   4.483 -0.7906  1.7074 -1.1672
 4901SOL     OW16143   7.994   6.125   5.918 -0.3428  0.4276  0.0231
 4901SOL    HW116144   7.983   6.113   6.013  0.0826  2.2265  0.3316
 4901SOL    HW216145   8.089   6.127   5.905 -0.4011  0.3210 -0.4377
 4902SOL     OW16146   1.023   7.984   4.312 -0.1081  0.4258  0.3392
 4902SOL    HW116147   1.056   7.993   4.401  0.3614 -1.1906  0.3579
 4902SOL    HW216148   1.101   7.964   4.260 -0.3792  1.3305 -0.4414
 4903SOL     OW16149   1.674   5.846   6.374  0.1161 -0.6093 -0.2621
 4903SOL    HW116150   1.689   5.807   6.460  1.7732 -1.4271 -0.8882
 4903SOL    HW216151   1.614   5.919   6.392 -0.0150 -1.0828  1.4893
 4904SOL     OW16152   7.867   0.050   6.410  0.1968  0.3906  0.2850
 4904SOL    HW116153   7.891  -0.031   6.365 -1.2766 -1.3719  2.4042
 4904SOL    HW216154   7.911   0.044   6.495 -2.3736  0.1636  1.7299
 4905SOL     OW16155   7.185   7.752   6.686 -0.1063 -0.4985 -0.2628
 4905SOL    HW116156   7.251   7.804   6.732 -1.5234  0.1723  1.0896
 4905SOL    HW216157   7.154   7.809   6.615 -1.6796  0.6006  1.2346
 4906SOL     OW16158   2.258   0.876   6.771 -0.1627  0.0694  0.3639
 4906SOL    HW116159   2.236   0.810   6.837  0.7331 -1.4695 -0.8269
 4906SOL    HW216160   2.352   0.867   6.758 -0.4546 -0.3703 -1.8196
 4907SOL     OW16161   1.474   5.897   5.393  0.0462 -0.0532  0.5420
 4907SOL    HW116162   1.529   5.895   5.471  0.6496  1.0855  0.1672
 4907SOL    HW216163   1.529   5.938   5.326 -0.3652 -1.2172 -0.5649
 4908SOL     OW16164   7.537   5.165   5.767  0.1541  0.2941  0.4206
 4908SOL    HW116165   7.456   5.181   5.720  0.3230 -0.0585  0.0088
 4908SOL    HW216166   7.512   5.167   5.860 -0.0244  1.8946  0.3813
 4909SOL     OW16167   1.365   7.004   7.417 -0.6280 -0.1040  0.5098
 4909SOL    HW116168   1.349   7.098   7.407 -1.6276 -0.4887 -2.4402
 4909SOL    HW216169   1.428   6.998   7.489 -0.1661  2.8464  0.4725
 4910SOL     OW16170   2.189   6.164   6.494 -0.4750  0.5954  0.0594
 4910SOL    HW116171   2.211   6.230   6.429 -0.7703  1.5666  0.9060
 4910SOL    HW216172   2.146   6.095   6.444 -0.4072  1.1640 -0.8170
 4911SOL     OW16173   0.796   6.719   5.344 -0.5812  0.3447 -0.6155
 4911SOL    HW116174   0.750   6.650   5.390  0.0631  0.7155  0.6129
 4911SOL    HW216175   0.833   6.676   5.267  0.1579 -0.7784  0.3403
 4912SOL     OW16176   1.666   5.075   7.384  0.5398 -0.0157 -0.4484
 4912SOL    HW116177   1.694   5.166   7.370 -1.6513  0.9066  0.5765
 4912SOL    HW216178   1.742   5.032   7.422  1.7496  1.2869 -1.2792
 4913SOL     OW16179   1.229   7.765   6.651 -0.2263 -0.0254  0.1210
 4913SOL    HW116180   1.164   7.709   6.694 -0.2085  1.0533  1.6578
 4913SOL    HW216181   1.193   7.781   6.564 -2.5152  1.2399  1.1919
 4914SOL     OW16182   1.483   4.846   5.661 -0.7219 -0.2526  0.6435
 4914SOL    HW116183   1.528   4.924   5.629 -0.9321 -0.5608 -0.4527
 4914SOL    HW216184   1.503   4.843   5.754  0.6488  0.1846  0.3773
 4915SOL     OW16185   1.046   6.028   7.393 -0.8768  0.2692 -0.2848
 4915SOL    HW116186   0.985   6.099   7.413  1.9031  2.5751  0.6846
 4915SOL    HW216187   1.014   5.953   7.443 -2.8819  1.3572  0.1278
 4916SOL     OW16188   0.617   3.707   5.905  0.4520  0.4782 -0.0723
 4916SOL    HW116189   0.690   3.696   5.843 -0.8088  1.2024 -1.7752
 4916SOL    HW216190   0.610   3.802   5.916 -0.6515  0.4521 -0.4768
 4917SOL     OW16191   1.046   6.197   7.127  0.2751 -0.0016  0.3173
 4917SOL    HW116192   1.076   6.285   7.151 -2.7471  1.4407 -0.6853
 4917SOL    HW216193   1.023   6.204   7.034 -1.3215 -1.3883  0.5546
 4918SOL     OW16194   2.893   6.930   6.655 -1.4667 -0.2680 -0.7205
 4918SOL    HW116195   2.932   6.851   6.691 -1.2389  0.2425  0.1704
 4918SOL    HW216196   2.967   6.978   6.617 -1.4609 -0.0502 -0.4389
 4919SOL     OW16197   0.307   6.027   3.811  0.6317 -0.5668 -0.3393
 4919SOL    HW116198   0.222   6.023   3.768  1.1142 -1.7797 -1.2362
 4919SOL    HW216199   0.348   5.943   3.791  2.7938  0.6928 -1.5155
 4920SOL     OW16200   0.702   7.540   7.736 -0.3040  0.8104 -0.2395
 4920SOL    HW116201   0.785   7.517   7.694 -0.1515 -1.4476  1.1178
 4920SOL    HW216202   0.635   7.521   7.671  0.0624 -0.4523 -0.2655
 4921SOL     OW16203   0.979   6.716   3.937  0.2073  0.2228 -0.3216
 4921SOL    HW116204   1.016   6.628   3.933  1.7501  0.8635 -0.6279
 4921SOL    HW216205   1.054   6.773   3.950 -0.7420  1.5322 -0.4436
 4922SOL     OW16206   7.504   5.343   7.653  0.0921 -0.5576 -0.2624
 4922SOL    HW116207   7.590   5.315   7.622 -0.4889 -0.6350 -1.8956
 4922SOL    HW216208   7.445   5.327   7.579 -1.5906 -1.7150  1.2154
 4923SOL     OW16209   7.574   7.289   8.054 -0.7406 -0.3327 -0.3426
 4923SOL    HW116210   7.630   7.217   8.026  0.4820  0.3478  0.2508
 4923SOL    HW216211   7.603   7.364   8.001 -1.4469 -0.0950 -0.3935
 4924SOL     OW16212   2.161   5.054   6.331 -0.3328 -0.2195  0.1862
 4924SOL    HW116213   2.199   5.141   6.339  0.3737 -0.5128  0.0953
 4924SOL    HW216214   2.089   5.053   6.394  1.6101 -0.6215  2.5494
 4925SOL     OW16215   2.549   6.740   5.679  0.0930  0.1854 -0.2204
 4925SOL    HW116216   2.533   6.647   5.689  0.0532  0.1890 -0.2507
 4925SOL    HW216217   2.529   6.777   5.765  0.6835  0.0869 -0.0419
 4926SOL     OW16218   0.541   6.073   6.553 -0.0212  0.0104  0.6033
 4926SOL    HW116219   0.519   6.165   6.572  1.2952  0.4460  0.1125
 4926SOL    HW216220   0.608   6.051   6.618  0.6240 -0.1839 -0.1205
 4927SOL     OW16221   0.420   6.930   3.706  0.6263  0.7460  0.0271
 4927SOL    HW116222   0.429   7.013   3.660  2.7784  0.1100 -0.8674
 4927SOL    HW216223   0.410   6.954   3.798  4.5181  2.1147  0.2984
 4928SOL     OW16224   0.982   7.181   7.177 -0.7731  0.1707 -0.4730
 4928SOL    HW116225   0.932   7.114   7.130 -0.3699  0.3981 -1.2462
 4928SOL    HW216226   0.917   7.248   7.197 -1.0100 -0.0616 -0.4583
 4929SOL     OW16227   1.003   7.373   6.558  0.4810 -0.0612  0.5621
 4929SOL    HW116228   1.027   7.368   6.465  1.7170 -2.6154  0.9201
 4929SOL    HW216229   0.909   7.391   6.558  0.9244  2.8143 -1.0688
 4930SOL     OW16230   1.468   5.732   6.211  0.5492  0.4024  0.1568
 4930SOL    HW116231   1.549   5.752   6.258  0.3156  0.3462  0.5966
 4930SOL    HW216232   1.488   5.748   6.119  1.0982  0.2612  0.2490
 4931SOL     OW16233   7.869   6.011   5.035 -0.2516 -0.1771  0.1147
 4931SOL    HW116234   7.810   5.976   5.102  1.2153 -0.3238  1.3991
 4931SOL    HW216235   7.890   5.936   4.980  0.2883 -0.6097  0.8784
 4932SOL     OW16236   0.412   7.191   5.698  0.1385  0.2315  0.0044
 4932SOL    HW116237   0.363   7.181   5.780  1.2034 -1.6662  0.4734
 4932SOL    HW216238   0.497   7.225   5.726  0.0682  0.8164 -0.4789
 4933SOL     OW16239   1.969   7.352   8.175 -0.4175 -0.4575  0.4496
 4933SOL    HW116240   2.047   7.405   8.190 -0.4918 -0.3640  0.5129
 4933SOL    HW216241   1.897   7.408   8.204 -0.5095 -0.5322  0.3651
 4934SOL     OW16242   0.851   7.128   6.300 -0.6509 -0.1557 -0.5931
 4934SOL    HW116243   0.841   7.221   6.321  0.4379 -0.5135  1.7484
 4934SOL    HW216244   0.892   7.128   6.213 -0.9476  1.5115 -0.7807
 4935SOL     OW16245   1.501   6.530   5.164 -0.4442 -0.2074 -0.4801
 4935SOL    HW116246   1.423   6.483   5.195 -0.2733 -1.4855 -1.8512
 4935SOL    HW216247   1.518   6.492   5.078  1.3347  0.4928 -0.4643
 4936SOL     OW16248   0.714   6.033   6.765 -0.0512  0.2715  0.3320
 4936SOL    HW116249   0.803   5.998   6.761  0.4156  1.3581  0.7904
 4936SOL    HW216250   0.700   6.051   6.858 -0.5024  0.7131  0.1816
 4937SOL     OW16251   1.604   7.292   7.453 -0.2494 -0.2218 -0.4544
 4937SOL    HW116252   1.513   7.313   7.431 -0.2617 -0.7911 -0.9642
 4937SOL    HW216253   1.598   7.224   7.520 -0.1982  0.5172  0.3217
 4938SOL     OW16254   1.536   5.799   4.880  0.4177 -0.1830 -0.3371
 4938SOL    HW116255   1.467   5.776   4.942 -0.1036  2.2026  0.0783
 4938SOL    HW216256   1.617   5.792   4.931  0.6779 -3.4918 -0.9628
 4939SOL     OW16257   0.747   5.774   7.457  0.1315 -0.3902  0.3235
 4939SOL    HW116258   0.723   5.682   7.468 -0.1704 -0.0833  2.9071
 4939SOL    HW216259   0.824   5.786   7.514 -0.5380  1.1819  0.9636
 4940SOL     OW16260   0.664   6.551   4.990  0.1382 -0.3929  0.1894
 4940SOL    HW116261   0.688   6.464   4.958  0.8491 -0.3733  0.6468
 4940SOL    HW216262   0.742   6.582   5.037 -0.3912  0.1510  0.7329
 4941SOL     OW16263   2.217   5.346   9.660  0.0693  0.1314  0.4356
 4941SOL    HW116264   2.193   5.392   9.740 -0.4345 -1.3386  1.1697
 4941SOL    HW216265   2.197   5.254   9.678  1.7349 -0.5136 -0.6889
 4942SOL     OW16266   7.218   6.396   5.781 -0.2801 -0.2389 -0.1893
 4942SOL    HW116267   7.133   6.439   5.775 -0.2022 -0.0790 -0.1512
 4942SOL    HW216268   7.233   6.386   5.875 -0.7540 -1.2586 -0.2079
 4943SOL     OW16269   1.903   6.721   7.391 -0.0540 -0.1320  0.3731
 4943SOL    HW116270   1.903   6.632   7.425 -1.1345 -0.1242  0.4449
 4943SOL    HW216271   1.869   6.712   7.302  0.5636  0.1233  0.1065
 4944SOL     OW16272   0.802   5.780   6.109 -0.5014 -0.5775  0.1360
 4944SOL    HW116273   0.796   5.875   6.104 -0.0972 -0.5974 -1.1702
 4944SOL    HW216274   0.714   5.749   6.087 -0.6432 -0.5123  0.6000
 4945SOL     OW16275   7.351   5.064   3.817  0.3776 -0.5057  0.1488
 4945SOL    HW116276   7.383   5.153   3.808 -0.4654 -0.3724 -2.5105
 4945SOL    HW216277   7.257   5.071   3.802 -0.0109 -1.6311  1.8183
 4946SOL     OW16278   1.683   7.383   7.991 -0.1733 -0.3865  0.4323
 4946SOL    HW116279   1.588   7.397   7.990 -0.0492  1.1552 -2.7140
 4946SOL    HW216280   1.718   7.459   8.037 -0.3973  0.1542 -0.2737
 4947SOL     OW16281   0.335   5.908   6.816  0.3252  0.0097 -0.0307
 4947SOL    HW116282   0.308   5.995   6.783 -0.3023 -0.4117 -0.6622
 4947SOL    HW216283   0.265   5.849   6.786 -0.1344 -0.4533  1.8611
 4948SOL     OW16284   0.643   7.197   5.232  0.2531 -0.4954 -0.3273
 4948SOL    HW116285   0.607   7.165   5.150 -1.8350  0.8030  0.0093
 4948SOL    HW216286   0.654   7.119   5.286 -3.1137 -0.9677 -0.1158
 4949SOL     OW16287   1.873   6.377   6.139  0.6733  0.2177  0.6949
 4949SOL    HW116288   1.875   6.464   6.178  1.9374  1.2785 -1.5194
 4949SOL    HW216289   1.965   6.354   6.127  0.3417 -0.9776  0.3517
 4950SOL     OW16290   0.683   0.518   7.251 -0.0235 -0.2001  0.6428
 4950SOL    HW116291   0.655   0.463   7.325 -0.9393 -0.1519  0.3370
 4950SOL    HW216292   0.620   0.589   7.248  0.0866 -0.1232 -0.0985
 4951SOL     OW16293   1.418   7.020   6.836  0.2833 -0.4216  0.3486
 4951SOL    HW116294   1.403   6.955   6.768 -0.2498 -2.4576  2.3026
 4951SOL    HW216295   1.514   7.022   6.846  0.2629 -1.7763  1.0176
 4952SOL     OW16296   3.491   5.919   7.326 -0.4231 -0.1769 -0.1317
 4952SOL    HW116297   3.466   5.828   7.307  2.0632 -0.4141 -3.0214
 4952SOL    HW216298   3.429   5.971   7.274  0.2158 -0.4157 -1.1645
 4953SOL     OW16299   2.042   6.728   5.446  0.2036 -0.2801 -0.0146
 4953SOL    HW116300   2.053   6.734   5.540  0.4678 -0.4959 -0.0316
 4953SOL    HW216301   1.986   6.651   5.433  0.6267 -0.5838 -0.0641
 4954SOL     OW16302   2.955   7.200   5.044  0.2469 -0.1392  0.4003
 4954SOL    HW116303   2.924   7.249   4.969  1.0406 -0.6953 -0.3113
 4954SOL    HW216304   3.025   7.255   5.081 -0.7832  0.5826  1.3245
 4955SOL     OW16305   1.609   5.101   4.515 -0.2305  0.3259 -0.2519
 4955SOL    HW116306   1.661   5.174   4.548 -0.2767  0.3995 -0.3432
 4955SOL    HW216307   1.651   5.077   4.432 -0.2776  0.3166 -0.2733
 4956SOL     OW16308   2.693   5.093   4.460  0.0678  0.2548 -0.1341
 4956SOL    HW116309   2.760   5.032   4.430  0.1976  0.8806 -1.1607
 4956SOL    HW216310   2.712   5.174   4.414 -1.3554  0.4700 -0.3975
 4957SOL     OW16311   0.824   6.062   6.136 -0.1168 -0.3461  0.3617
 4957SOL    HW116312   0.824   6.079   6.230  1.2131  0.6518  0.2024
 4957SOL    HW216313   0.809   6.147   6.096  2.0315 -0.2560 -0.3664
 4958SOL     OW16314   1.773   7.067   7.335  0.2035  0.1886  0.2272
 4958SOL    HW116315   1.704   7.113   7.383  0.0307  1.7207 -1.3843
 4958SOL    HW216316   1.793   7.124   7.261  2.1407 -0.9568 -0.1959
 4959SOL     OW16317   2.409   7.168   5.625 -0.1551 -0.0253 -0.0748
 4959SOL    HW116318   2.364   7.224   5.562  0.0349 -1.6563 -1.7236
 4959SOL    HW216319   2.349   7.095   5.639  0.2302 -0.1694  0.9067
 4960SOL     OW16320   0.078   7.503   4.411  0.4439  0.4761 -0.6152
 4960SOL    HW116321   0.151   7.442   4.421 -0.4573 -0.6411 -0.6708
 4960SOL    HW216322   0.054   7.526   4.500 -0.5628 -0.9336 -0.4869
 4961SOL     OW16323   1.656   6.172   6.605  0.3645 -0.4132 -0.2718
 4961SOL    HW116324   1.597   6.146   6.535  1.6523  1.3269 -2.0918
 4961SOL    HW216325   1.718   6.098   6.613 -0.6178 -1.2270  0.0712
 4962SOL     OW16326   1.705   6.533   5.604  0.1458  0.2009  0.2375
 4962SOL    HW116327   1.679   6.482   5.681  2.2017  0.2454  1.0236
 4962SOL    HW216328   1.738   6.616   5.640  3.9886 -0.8852 -0.2787
 4963SOL     OW16329   1.929   7.704   6.915 -0.0510  0.0061  0.0354
 4963SOL    HW116330   1.940   7.620   6.870  1.3763 -0.5688  1.3668
 4963SOL    HW216331   1.985   7.765   6.867  0.4036 -0.2707  0.2132
 4964SOL     OW16332   0.483   6.576   5.597 -0.3854  0.8959  0.2045
 4964SOL    HW116333   0.467   6.508   5.532 -2.4737 -0.7912  2.3244
 4964SOL    HW216334   0.578   6.588   5.596 -0.1313 -0.7613 -1.4540
 4965SOL     OW16335   1.533   6.174   5.718  0.2473  0.2539 -0.0166
 4965SOL    HW116336   1.611   6.180   5.773  0.7597  1.4174 -0.8170
 4965SOL    HW216337   1.489   6.094   5.747  1.6740 -0.3774  0.5363
 4966SOL     OW16338   7.671   6.649   7.301 -0.4276  0.2824  0.3122
 4966SOL    HW116339   7.708   6.564   7.323  0.3392 -0.1058 -2.1208
 4966SOL    HW216340   7.579   6.643   7.327 -0.5924 -1.6173 -0.5116
 4967SOL     OW16341   2.212   6.463   6.576 -0.2488 -0.1537  0.1309
 4967SOL    HW116342   2.209   6.532   6.510 -1.3742  0.3230  0.6564
 4967SOL    HW216343   2.217   6.510   6.659  0.4941 -0.7402  0.4273
 4968SOL     OW16344   1.350   7.424   6.637  0.3143 -0.5042 -0.2744
 4968SOL    HW116345   1.281   7.491   6.639 -0.8749 -1.7111  0.2102
 4968SOL    HW216346   1.354   7.398   6.545 -0.0150 -0.5688 -0.2718
 4969SOL     OW16347   7.590   4.241   5.295  0.2196 -0.6143  0.1800
 4969SOL    HW116348   7.562   4.173   5.356  0.6859  0.1954  1.3158
 4969SOL    HW216349   7.508   4.276   5.259 -0.0473 -1.2458  0.1499
 4970SOL     OW16350   7.425   6.361   4.399  0.0420 -0.4957  0.6891
 4970SOL    HW116351   7.453   6.273   4.373 -0.4902 -0.8046  1.1498
 4970SOL    HW216352   7.329   6.357   4.400  0.0170  0.0370  0.8872
 4971SOL     OW16353   7.637   6.237   5.805 -0.5468 -0.3425  0.0668
 4971SOL    HW116354   7.700   6.268   5.870 -0.6980  0.5411 -0.1881
 4971SOL    HW216355   7.688   6.231   5.724 -0.0606 -2.6318  0.4972
 4972SOL     OW16356   1.496   6.319   6.267 -0.3871  0.1393 -0.1913
 4972SOL    HW116357   1.581   6.275   6.258 -0.4495 -0.0991  0.3743
 4972SOL    HW216358   1.479   6.355   6.180 -0.3802 -1.0435 -0.7031
 4973SOL     OW16359   0.785   6.866   3.844  0.1306  0.6239  0.4162
 4973SOL    HW116360   0.717   6.855   3.911 -0.4355  0.7263 -0.1302
 4973SOL    HW216361   0.858   6.812   3.875  0.4423  1.8082  1.8486
 4974SOL     OW16362   0.156   7.135   6.171 -0.3321 -0.0200 -0.7155
 4974SOL    HW116363   0.065   7.116   6.149 -0.3378 -0.7698 -0.1202
 4974SOL    HW216364   0.183   7.202   6.109 -1.9065  1.7075  0.3736
 4975SOL     OW16365   2.242   5.308   6.282  0.0606 -0.3169 -0.6680
 4975SOL    HW116366   2.315   5.370   6.278  0.6096 -0.9731 -1.1915
 4975SOL    HW216367   2.187   5.332   6.207 -0.2708  0.1823 -0.2697
 4976SOL     OW16368   0.002   5.610   6.882  0.4525 -0.4938  0.1135
 4976SOL    HW116369  -0.041   5.569   6.807  0.6768  0.1238 -0.3608
 4976SOL    HW216370   0.087   5.639   6.848  0.9132 -0.9618  0.8218
 4977SOL     OW16371   1.615   5.483   6.535  0.0789 -0.6937 -0.0609
 4977SOL    HW116372   1.523   5.490   6.559  0.7867  0.3890  2.7684
 4977SOL    HW216373   1.631   5.388   6.532 -1.4708 -0.9604 -2.5086
 4978SOL     OW16374   6.258   7.547   5.155  0.5518 -0.0804  0.1308
 4978SOL    HW116375   6.257   7.451   5.151  0.4032 -0.1038  0.5899
 4978SOL    HW216376   6.175   7.573   5.114 -0.5648 -0.2676  2.1195
 4979SOL     OW16377   0.091   5.068   6.945 -0.2165 -0.3484  1.1065
 4979SOL    HW116378  -0.003   5.087   6.949 -0.3037  0.1531 -1.3871
 4979SOL    HW216379   0.133   5.153   6.957 -0.0096 -0.6828  2.9709
 4980SOL     OW16380   0.329   6.666   7.457  0.5729  0.1750 -0.4891
 4980SOL    HW116381   0.404   6.692   7.509  0.0885  1.2617 -0.3197
 4980SOL    HW216382   0.274   6.744   7.451 -0.4915 -0.5529 -0.7074
 4981SOL     OW16383   6.907   6.358   8.021  0.5993 -0.2639  0.1246
 4981SOL    HW116384   6.915   6.301   7.945  1.1844 -1.2612  0.9113
 4981SOL    HW216385   6.859   6.306   8.086  1.2311  0.0923  0.8960
 4982SOL     OW16386   0.625   6.180   8.147  0.2865 -0.1270 -0.2569
 4982SOL    HW116387   0.699   6.131   8.182 -0.1197 -1.2545 -0.9132
 4982SOL    HW216388   0.556   6.169   8.213  0.1120 -0.6846 -0.5240
 4983SOL     OW16389   6.643   1.609   8.907 -0.2261  0.2257  0.0716
 4983SOL    HW116390   6.575   1.611   8.839  0.4361 -1.7252 -0.7283
 4983SOL    HW216391   6.724   1.631   8.861  0.1651 -0.7105  0.2753
 4984SOL     OW16392   1.433   7.999   8.547  0.7331 -0.0371  0.3344
 4984SOL    HW116393   1.507   7.962   8.500  0.5268 -0.9568  0.7188
 4984SOL    HW216394   1.362   8.000   8.483  0.9621  0.4565  0.0877
 4985SOL     OW16395   1.940   6.992   7.608  0.1397  0.1564  0.1074
 4985SOL    HW116396   2.009   7.039   7.560 -0.4441  1.1288  0.1829
 4985SOL    HW216397   1.924   7.047   7.685 -0.7585 -0.0277  0.0594
 4986SOL     OW16398   2.120   6.224   7.958  0.1391 -0.3227 -0.3560
 4986SOL    HW116399   2.099   6.166   7.884  0.4518 -1.9827  0.8101
 4986SOL    HW216400   2.056   6.202   8.025  1.7904 -1.1824  1.0355
 4987SOL     OW16401   0.491   7.415   8.240 -0.4015  0.9053  0.0653
 4987SOL    HW116402   0.515   7.456   8.157 -0.9070  3.2487  1.0129
 4987SOL    HW216403   0.556   7.346   8.252  0.4596  1.3613 -1.6524
 4988SOL     OW16404   0.466   0.240   6.279 -0.0442  0.2401 -0.1713
 4988SOL    HW116405   0.430   0.152   6.289 -2.3524  1.1409  0.0940
 4988SOL    HW216406   0.514   0.237   6.196  0.1913 -1.3148 -0.0136
 4989SOL     OW16407   0.035   6.361   9.150 -0.2446 -0.4138  0.4202
 4989SOL    HW116408   0.079   6.289   9.104  1.9524  0.2284  1.3612
 4989SOL    HW216409  -0.051   6.326   9.173  0.4386 -2.4445  0.0970
 4990SOL     OW16410   0.902   7.745   9.501 -0.0546 -0.2337  0.0424
 4990SOL    HW116411   0.928   7.659   9.469 -1.4622 -1.5708  2.1961
 4990SOL    HW216412   0.839   7.777   9.436  1.0025 -0.4442 -1.1389
 4991SOL     OW16413   2.537   7.507   8.611 -0.1599 -0.1485 -0.3834
 4991SOL    HW116414   2.499   7.460   8.685  2.1710 -1.2678  0.1902
 4991SOL    HW216415   2.466   7.563   8.579 -3.0903 -3.8727 -1.0445
 4992SOL     OW16416   7.356   6.886   9.594 -0.8839  0.1695  0.1352
 4992SOL    HW116417   7.307   6.957   9.637  1.0700  0.8317  1.4276
 4992SOL    HW216418   7.293   6.814   9.588 -3.0664  2.0485 -1.5698
 4993SOL     OW16419   1.528   6.087   8.065 -0.2327 -0.3263 -0.2220
 4993SOL    HW116420   1.559   6.027   8.133 -0.5645 -0.0103  0.2142
 4993SOL    HW216421   1.542   6.175   8.102 -1.2664 -0.1707 -0.1805
 4994SOL     OW16422   0.496   6.046   8.919 -0.7570 -0.0017 -0.4911
 4994SOL    HW116423   0.552   5.987   8.970 -0.8226  0.3317 -0.0297
 4994SOL    HW216424   0.553   6.078   8.849 -0.7577 -0.7158 -0.8287
 4995SOL     OW16425   7.078   6.556   7.766 -0.3518 -0.1263  0.6222
 4995SOL    HW116426   7.025   6.631   7.739 -1.6768 -1.0923  0.4082
 4995SOL    HW216427   7.038   6.482   7.720  1.1920 -0.9076  0.4802
 4996SOL     OW16428   7.813   6.966   8.250  0.2618 -0.1915 -0.4680
 4996SOL    HW116429   7.899   6.959   8.209  0.2372  0.5778 -0.6520
 4996SOL    HW216430   7.817   6.907   8.325  0.9141 -0.2323 -0.5358
 4997SOL     OW16431   1.489   0.453   8.879 -0.1384  0.4024 -0.7261
 4997SOL    HW116432   1.579   0.431   8.901 -0.5233 -0.1914  0.3721
 4997SOL    HW216433   1.458   0.381   8.825 -0.3107  0.0111 -0.1110
 4998SOL     OW16434   1.327   6.419   4.853  0.1099  0.1977 -0.5604
 4998SOL    HW116435   1.324   6.400   4.759 -0.2215 -1.8284 -0.1744
 4998SOL    HW216436   1.376   6.346   4.891 -1.0300  0.2094  1.0221
 4999SOL     OW16437   0.898   6.977   9.223  0.3264  0.1018 -0.1939
 4999SOL    HW116438   0.985   7.008   9.198  0.8351 -2.4761 -1.9900
 4999SOL    HW216439   0.897   6.885   9.199 -3.2481  0.2287 -1.1274
 5000SOL     OW16440   1.970   6.879   8.335  0.1927 -0.0663 -0.0137
 5000SOL    HW116441   2.015   6.963   8.328  0.3149 -0.1707 -0.5238
 5000SOL    HW216442   1.932   6.879   8.423  1.1940  0.0216  0.4377
 5001SOL     OW16443   1.256   7.552   8.290 -0.8006  0.0807 -0.0903
 5001SOL    HW116444   1.189   7.617   8.267 -0.9798  0.5983  1.7128
 5001SOL    HW216445   1.333   7.604   8.312 -0.2252 -0.4457 -0.8429
 5002SOL     OW16446   6.364   6.776   5.593  0.3850  0.3980 -0.0220
 5002SOL    HW116447   6.317   6.697   5.568  1.0322  0.7153 -2.5842
 5002SOL    HW216448   6.313   6.848   5.555  0.3418  1.1672  1.4100
 5003SOL     OW16449   2.982   7.261   9.395  0.0330 -0.3192  0.0400
 5003SOL    HW116450   2.986   7.328   9.327 -0.1165  0.0400  0.3818
 5003SOL    HW216451   3.069   7.261   9.435  0.4293 -1.2073 -0.7849
 5004SOL     OW16452   1.651   5.750  10.673  0.2752  0.5413 -0.0598
 5004SOL    HW116453   1.561   5.728  10.699 -0.1520  1.4284 -0.7593
 5004SOL    HW216454   1.705   5.695  10.729 -0.7137 -2.4370 -1.8074
 5005SOL     OW16455   0.744   6.434   8.830  0.2790  0.7045  0.1085
 5005SOL    HW116456   0.765   6.386   8.750  2.2241  0.6439  0.6031
 5005SOL    HW216457   0.807   6.402   8.895 -1.7267  0.1771  1.9368
 5006SOL     OW16458   0.831   6.231   7.507 -0.2406 -0.6164 -0.6063
 5006SOL    HW116459   0.792   6.289   7.442 -1.9194 -0.1716  0.7087
 5006SOL    HW216460   0.831   6.282   7.588  0.0425 -1.7783  0.1488
 5007SOL     OW16461   1.295   7.114   9.080 -0.2651  0.0049  0.5734
 5007SOL    HW116462   1.245   7.107   9.162 -1.6307 -1.5022 -0.3136
 5007SOL    HW216463   1.372   7.165   9.103  0.5353 -2.2009  3.3705
 5008SOL     OW16464   0.794   6.454   7.192  0.3207 -0.1482  0.4947
 5008SOL    HW116465   0.815   6.519   7.125  1.8183 -1.7102 -0.6307
 5008SOL    HW216466   0.844   6.484   7.269  0.7901  0.1751  0.0733
 5009SOL     OW16467   6.665   6.603   9.596  0.3751 -0.3584  0.1182
 5009SOL    HW116468   6.695   6.513   9.593 -0.1729 -0.6170  1.4997
 5009SOL    HW216469   6.720   6.645   9.662  0.5065  0.2798 -0.3854
 5010SOL     OW16470   0.624   5.054   7.927 -0.3043 -0.2781 -0.1054
 5010SOL    HW116471   0.668   5.075   7.845  0.2576 -0.1623  0.2227
 5010SOL    HW216472   0.661   4.970   7.954  0.5589  0.3535  0.7478
 5011SOL     OW16473   7.425   5.871   9.990  0.0863 -0.7633 -0.2593
 5011SOL    HW116474   7.458   5.960  10.003 -2.6239  0.3159 -0.2800
 5011SOL    HW216475   7.424   5.858   9.896 -0.0344 -0.6152 -0.2773
 5012SOL     OW16476   7.884   0.000   9.014 -0.6150 -0.1333 -0.7427
 5012SOL    HW116477   7.834  -0.043   9.083  0.0862 -0.3005 -0.3296
 5012SOL    HW216478   7.828  -0.006   8.936 -0.6239 -1.5899 -0.6440
 5013SOL     OW16479   0.866   6.022   9.189  0.3617 -0.3674 -0.2891
 5013SOL    HW116480   0.885   6.072   9.109 -2.2505  0.9766 -0.1978
 5013SOL    HW216481   0.830   5.940   9.157 -0.4487  0.0713 -0.5616
 5014SOL     OW16482   1.252   6.496   7.930 -0.0842 -0.0355  0.1968
 5014SOL    HW116483   1.282   6.477   8.019  0.6841  0.6443  0.0947
 5014SOL    HW216484   1.324   6.469   7.874  0.1755  1.1972 -0.0843
 5015SOL     OW16485   1.409   4.814   8.860 -0.1926 -0.1990 -0.3751
 5015SOL    HW116486   1.360   4.788   8.938 -1.1194  0.4624 -0.7149
 5015SOL    HW216487   1.478   4.872   8.892  0.0050 -0.6609  0.0458
 5016SOL     OW16488   1.301   6.368   8.179 -0.2958 -0.0215 -0.0957
 5016SOL    HW116489   1.366   6.299   8.187 -1.2983 -0.8438  1.4836
 5016SOL    HW216490   1.221   6.331   8.217 -0.3829  2.6131  2.7649
 5017SOL     OW16491   0.960   5.729   8.790  0.6695 -0.5889 -0.1966
 5017SOL    HW116492   0.974   5.645   8.746 -1.3391 -0.5880 -0.9201
 5017SOL    HW216493   1.025   5.729   8.861  1.9063 -1.9414 -1.2460
 5018SOL     OW16494   0.702   0.551  10.049 -0.4153 -0.2953 -0.3575
 5018SOL    HW116495   0.730   0.466  10.081 -1.1728 -0.8761 -1.1852
 5018SOL    HW216496   0.738   0.614  10.112  1.6876 -1.0667 -0.7333
 5019SOL     OW16497   2.745   0.035   9.646 -0.4238  0.0224  0.0839
 5019SOL    HW116498   2.776  -0.043   9.599  0.7698  0.1709  0.5893
 5019SOL    HW216499   2.713   0.093   9.578 -0.1113 -0.3813 -0.4141
 5020SOL     OW16500   2.040   7.473   7.356 -0.0818  0.3670 -0.1387
 5020SOL    HW116501   1.967   7.448   7.412 -1.4680  2.7074 -0.7544
 5020SOL    HW216502   2.012   7.555   7.314  2.4239  0.7370 -1.3235
 5021SOL     OW16503   0.987   7.510   9.383 -0.3593 -0.1257 -0.1798
 5021SOL    HW116504   0.962   7.472   9.468  0.2367 -0.0549  0.0295
 5021SOL    HW216505   0.970   7.441   9.320  0.2062 -0.5485  0.1311
 5022SOL     OW16506   4.805   5.980  10.389 -0.0934 -0.0604  0.0111
 5022SOL    HW116507   4.891   5.938  10.388  0.2955  0.7215 -0.3865
 5022SOL    HW216508   4.743   5.908  10.400  0.6668 -0.5296  1.4113
 5023SOL     OW16509   1.246   6.103   7.829  0.4549 -0.3958 -0.0972
 5023SOL    HW116510   1.201   6.187   7.826  0.3898 -0.4615 -1.4897
 5023SOL    HW216511   1.322   6.114   7.772  1.4607 -0.7273  1.1234
 5024SOL     OW16512   1.835   6.047  10.450  0.0506 -0.0121  0.2532
 5024SOL    HW116513   1.910   6.103  10.469  0.9787 -0.8498 -0.8106
 5024SOL    HW216514   1.864   5.958  10.472  0.2012 -0.6553 -2.2424
 5025SOL     OW16515   1.580   5.788   9.228 -0.2734 -0.8075 -0.0192
 5025SOL    HW116516   1.626   5.748   9.154 -0.8433 -0.4168 -0.5958
 5025SOL    HW216517   1.500   5.736   9.237 -0.2111 -0.8454  0.3141
 5026SOL     OW16518   6.658   7.352   8.279 -0.0868 -0.8021  0.6731
 5026SOL    HW116519   6.708   7.362   8.360 -1.8530 -0.8633  1.8255
 5026SOL    HW216520   6.600   7.277   8.295  0.4311 -1.6625 -1.1602
 5027SOL     OW16521   1.506   6.702   7.922  0.5644 -0.1962 -0.2666
 5027SOL    HW116522   1.520   6.628   7.862  2.7161  0.2508 -0.4064
 5027SOL    HW216523   1.449   6.762   7.872 -0.8410 -1.5073 -0.3194
 5028SOL     OW16524   0.626   5.874   7.963  0.0879  0.1529 -0.3264
 5028SOL    HW116525   0.637   5.919   7.880  0.7818 -0.6276 -0.6772
 5028SOL    HW216526   0.531   5.875   7.979 -0.0016  0.7560 -0.8653
 5029SOL     OW16527   0.112   7.853  10.066 -0.1937 -1.0230  0.0921
 5029SOL    HW116528   0.087   7.808   9.986 -0.4461 -0.9413  0.1236
 5029SOL    HW216529   0.029   7.879  10.106 -0.0443  0.0322 -0.2474
 5030SOL     OW16530   6.589   7.552   7.097  0.1973  0.6765  0.2885
 5030SOL    HW116531   6.683   7.539   7.085  0.5853  1.5787  2.0014
 5030SOL    HW216532   6.550   7.466   7.079  1.5199 -0.1039  1.0334
 5031SOL     OW16533   2.452   6.030   7.496  0.2556 -0.2924  0.1973
 5031SOL    HW116534   2.521   6.078   7.542  0.9667 -1.4116  0.3130
 5031SOL    HW216535   2.379   6.027   7.558 -0.1077  1.3111 -0.1006
 5032SOL     OW16536   0.944   0.103  11.198 -0.5745 -0.1337  0.6516
 5032SOL    HW116537   0.867   0.115  11.142 -0.2390  0.6573  0.3473
 5032SOL    HW216538   0.940   0.012  11.225  0.2049 -1.0848 -2.0987
 5033SOL     OW16539   0.483   7.043   7.962  0.1840  0.1502 -0.1543
 5033SOL    HW116540   0.435   7.027   8.044  1.6415 -0.9571  0.5129
 5033SOL    HW216541   0.573   7.061   7.990  0.6987 -0.2041 -1.5148
 5034SOL     OW16542   0.134   7.631  11.006  0.3895 -0.8184  0.3520
 5034SOL    HW116543   0.155   7.723  10.991  0.2046 -1.0510 -1.6165
 5034SOL    HW216544   0.154   7.616  11.099  2.3087  0.6941  0.2410
 5035SOL     OW16545   2.045   7.404   9.093 -0.5266 -0.3814  0.0060
 5035SOL    HW116546   2.111   7.453   9.142 -0.7596 -0.4967  0.4467
 5035SOL    HW216547   2.055   7.432   9.003 -1.3103  1.2338  0.3897
 5036SOL     OW16548   0.190   7.793   8.415 -0.0546 -0.0298  0.2127
 5036SOL    HW116549   0.163   7.825   8.328 -0.5465 -1.2521 -0.1040
 5036SOL    HW216550   0.169   7.700   8.414 -1.4493  0.2018  2.1855
 5037SOL     OW16551   7.363   5.190   7.138 -0.7508 -0.5633 -0.1155
 5037SOL    HW116552   7.388   5.166   7.048  0.6179  0.1169  0.0487
 5037SOL    HW216553   7.338   5.107   7.178 -0.0634 -1.0928 -0.7435
 5038SOL     OW16554   0.236   6.924  10.992 -0.4531 -0.3706  0.0579
 5038SOL    HW116555   0.245   6.897  11.083 -1.6879  0.3685  0.4257
 5038SOL    HW216556   0.299   6.996  10.982 -0.6485 -0.1418  0.4676
 5039SOL     OW16557   0.817   7.633   8.570  0.1649 -0.0930  0.5457
 5039SOL    HW116558   0.794   7.574   8.498  0.9527  0.3528 -0.0940
 5039SOL    HW216559   0.817   7.720   8.530  1.4833  0.0729  0.8617
 5040SOL     OW16560   0.714   5.997   7.624 -0.4907 -0.2516 -0.4827
 5040SOL    HW116561   0.761   5.917   7.599  0.4047  0.7967 -2.3651
 5040SOL    HW216562   0.759   6.067   7.577  0.2435  1.7662  2.8959
 5041SOL     OW16563   7.857   7.355   9.378 -0.1759 -0.6174  0.3299
 5041SOL    HW116564   7.772   7.310   9.381  0.5153 -1.9249  1.8747
 5041SOL    HW216565   7.879   7.370   9.469  1.3134 -0.4088 -0.0366
 5042SOL     OW16566   0.055   6.841   7.167 -0.5273  0.0039  0.3314
 5042SOL    HW116567   0.108   6.920   7.170 -0.6433  0.1034 -0.1625
 5042SOL    HW216568   0.078   6.794   7.247  2.5684 -1.4118 -1.1885
 5043SOL     OW16569   7.202   6.906  10.183 -0.6761 -0.2734  0.5298
 5043SOL    HW116570   7.114   6.871  10.169 -0.4826 -0.3427 -0.5370
 5043SOL    HW216571   7.191   6.969  10.255 -1.1305 -2.0369  2.0802
 5044SOL     OW16572   7.800   7.364   7.882 -0.1186  0.0374 -0.1392
 5044SOL    HW116573   7.734   7.312   7.836  0.1140  0.8682 -1.4702
 5044SOL    HW216574   7.879   7.311   7.881 -0.2326 -0.1276 -0.3042
 5045SOL     OW16575   2.030   6.287   9.567  0.1376 -0.8535 -0.1489
 5045SOL    HW116576   1.979   6.278   9.647  1.1461 -0.8777  0.5050
 5045SOL    HW216577   2.022   6.380   9.544  1.4129 -0.4010  1.0788
 5046SOL     OW16578   0.411   6.835   8.156  0.3149  0.7210  0.1726
 5046SOL    HW116579   0.364   6.810   8.076 -1.6076  1.4104  1.0429
 5046SOL    HW216580   0.417   6.753   8.206  0.4372  0.5480 -0.1169
 5047SOL     OW16581   1.486   0.036   9.074 -0.1096  0.0757  0.3150
 5047SOL    HW116582   1.424   0.001   9.138  0.6932  0.0580  1.0879
 5047SOL    HW216583   1.437   0.107   9.031 -0.3438  0.7279  1.6095
 5048SOL     OW16584   0.403   6.190   6.965 -0.2633  0.1533  0.3103
 5048SOL    HW116585   0.443   6.242   7.035  0.7918 -0.3139  0.0680
 5048SOL    HW216586   0.360   6.118   7.011  0.3865 -0.1274  0.4886
 5049SOL     OW16587   2.110   6.037   6.788 -0.7103  0.1055  0.1053
 5049SOL    HW116588   2.171   5.974   6.749  0.3223  1.0577  0.1502
 5049SOL    HW216589   2.028   5.988   6.796  0.2902 -1.5364  1.0104
 5050SOL     OW16590   1.519   7.008   7.132 -0.4973  0.0069  0.4153
 5050SOL    HW116591   1.574   7.003   7.211 -1.5490  0.2884  1.1900
 5050SOL    HW216592   1.559   7.079   7.081  0.2990 -0.2886  0.6040
 5051SOL     OW16593   6.322   6.978  10.128  0.5209  0.3342  0.2099
 5051SOL    HW116594   6.289   6.888  10.132 -0.9900  0.8729  1.0144
 5051SOL    HW216595   6.246   7.030  10.104  1.6304  1.3025 -1.3648
 5052SOL     OW16596   1.076   0.092  10.074  0.5305  0.5147 -0.0513
 5052SOL    HW116597   0.983   0.068  10.077  0.9526 -1.2159  1.4431
 5052SOL    HW216598   1.088   0.130   9.987 -1.2183 -0.8410 -0.9706
 5053SOL     OW16599   2.540   6.613   7.716 -0.0150  0.7392  0.1458
 5053SOL    HW116600   2.447   6.615   7.739 -0.4397 -2.4901 -0.8500
 5053SOL    HW216601   2.581   6.569   7.790  0.0690 -1.2019 -0.9950
 5054SOL     OW16602   1.051   7.785   8.857 -0.5362  0.1171 -0.1780
 5054SOL    HW116603   0.999   7.825   8.926  1.1864 -1.3251  2.1174
 5054SOL    HW216604   1.097   7.712   8.900  1.9577  0.1882 -2.4234
 5055SOL     OW16605   1.289   6.201   6.501  0.7829  0.2367  0.2266
 5055SOL    HW116606   1.216   6.212   6.561 -0.0589  1.7576 -0.9959
 5055SOL    HW216607   1.338   6.284   6.508  1.5351 -0.1716 -0.0752
 5056SOL     OW16608   0.079   6.932   9.707 -0.1910  0.2440 -0.1871
 5056SOL    HW116609   0.167   6.961   9.732 -0.2729 -1.5804  2.8138
 5056SOL    HW216610   0.024   6.957   9.782 -2.0432  0.3590 -1.5143
 5057SOL     OW16611   1.078   3.893   7.823 -0.3763 -0.3618  0.1673
 5057SOL    HW116612   1.130   3.872   7.901  1.0532  2.2110  0.0216
 5057SOL    HW216613   1.138   3.940   7.766 -2.2514  0.7094 -1.0349
 5058SOL     OW16614   7.826   6.431   7.642 -0.1079  0.3617 -0.5092
 5058SOL    HW116615   7.869   6.491   7.703  0.0589  1.0760 -1.3147
 5058SOL    HW216616   7.733   6.436   7.665  0.0468 -0.0676  0.2648
 5059SOL     OW16617   1.293   6.741   7.039  0.2134  0.3338  0.0238
 5059SOL    HW116618   1.354   6.674   7.069  0.3233  0.6742  0.5785
 5059SOL    HW216619   1.222   6.692   6.998  0.4119 -0.1126  0.2099
 5060SOL     OW16620   7.336   7.323   7.768  0.5694 -0.5684 -0.1673
 5060SOL    HW116621   7.424   7.361   7.763  0.7510 -1.0042 -0.3546
 5060SOL    HW216622   7.339   7.266   7.845  0.4788 -0.6584 -0.2297
 5061SOL     OW16623   1.261   7.501   7.868 -0.1255  0.2322  0.2834
 5061SOL    HW116624   1.170   7.501   7.899 -1.4294  0.1886 -3.0810
 5061SOL    HW216625   1.302   7.426   7.912 -1.6894  0.2316  1.8582
 5062SOL     OW16626   2.043   6.365   6.900 -0.3592  0.0694  0.5950
 5062SOL    HW116627   1.951   6.386   6.887 -1.3049 -3.1797  1.0619
 5062SOL    HW216628   2.057   6.377   6.994 -1.1378 -2.0031  1.0184
 5063SOL     OW16629   1.489   6.891   5.710 -0.3111  0.6347  0.0066
 5063SOL    HW116630   1.514   6.869   5.621  2.0117  1.2613  0.4202
 5063SOL    HW216631   1.566   6.936   5.746 -1.0123  0.0671  2.4323
 5064SOL     OW16632   1.314   6.762   9.052 -0.1527 -0.2426 -0.2731
 5064SOL    HW116633   1.307   6.783   8.959 -0.6786  1.3513  0.0962
 5064SOL    HW216634   1.397   6.714   9.059  0.3201  0.3483 -1.4353
 5065SOL     OW16635   2.166   6.382   7.183 -0.2105  0.0103  0.4022
 5065SOL    HW116636   2.137   6.293   7.200  1.6852 -0.3785  1.9232
 5065SOL    HW216637   2.243   6.372   7.127 -1.7555  0.9203 -2.0623
 5066SOL     OW16638   1.809   6.752   7.935  0.1070  0.0716  0.2286
 5066SOL    HW116639   1.813   6.687   7.865  1.1489  1.1070 -0.7240
 5066SOL    HW216640   1.716   6.758   7.955 -0.0879 -1.1416 -0.1995
 5067SOL     OW16641   1.212   6.198   8.802  0.5043  0.1631  0.4733
 5067SOL    HW116642   1.260   6.197   8.718 -0.0301 -1.6579  0.1351
 5067SOL    HW216643   1.197   6.291   8.820 -0.7887  0.6183 -2.3006
 5068SOL     OW16644   1.701   5.768  10.046  0.4047  0.1493  0.0101
 5068SOL    HW116645   1.770   5.803  10.101 -0.9747  2.0014  0.6517
 5068SOL    HW216646   1.743   5.756   9.960  1.7617  0.2487  0.6312
 5069SOL     OW16647   0.020   7.231  10.987  0.5043 -0.0780  0.3969
 5069SOL    HW116648   0.086   7.249  10.919  0.0901  1.1733  0.3012
 5069SOL    HW216649   0.065   7.250  11.069  0.9689 -1.4818  0.5002
 5070SOL     OW16650   1.453   7.225   8.394  0.1582  0.5261  0.1022
 5070SOL    HW116651   1.520   7.276   8.440 -0.8606  1.2151  0.8503
 5070SOL    HW216652   1.423   7.161   8.458 -0.1247  0.4195 -0.1351
 5071SOL     OW16653   0.674   5.213   8.517  0.0948 -0.0825 -0.2239
 5071SOL    HW116654   0.742   5.265   8.560 -0.3810  0.1381  0.2729
 5071SOL    HW216655   0.712   5.126   8.507  0.5940  0.1437 -0.3032
 5072SOL     OW16656   0.816   6.985   9.686 -0.4778  0.2842  0.3407
 5072SOL    HW116657   0.842   7.037   9.610 -0.8736  2.0609  1.3474
 5072SOL    HW216658   0.765   7.046   9.740  0.5211 -0.6512  2.4501
 5073SOL     OW16659   0.992   7.432   7.907  0.2329  0.5731 -0.1831
 5073SOL    HW116660   0.960   7.440   7.817  1.2955  1.0407 -0.5408
 5073SOL    HW216661   1.006   7.339   7.920  1.1328  0.5960 -0.9019
 5074SOL     OW16662   7.003   6.174   7.822  0.1058  0.2211  0.0667
 5074SOL    HW116663   7.046   6.145   7.741  0.1469 -0.4501  0.3200
 5074SOL    HW216664   7.046   6.124   7.891  0.3976  1.1367  0.5675
 5075SOL     OW16665   1.829   6.342   9.018  0.1207 -0.7606  0.1570
 5075SOL    HW116666   1.909   6.359   8.968  0.9178 -1.8117  1.0020
 5075SOL    HW216667   1.846   6.382   9.103 -1.0789  0.7082 -0.2630
 5076SOL     OW16668   7.964   7.527  11.249 -0.4201  0.2311 -0.2395
 5076SOL    HW116669   7.936   7.593  11.186 -1.4185  0.7542  0.7378
 5076SOL    HW216670   7.883   7.484  11.276  0.0694 -0.4007  0.2417
 5077SOL     OW16671   7.932   6.477   8.854 -0.3773 -0.0898 -0.0170
 5077SOL    HW116672   7.862   6.448   8.911  0.5183 -0.7879  0.7567
 5077SOL    HW216673   7.993   6.522   8.912  0.2623 -0.2996 -0.5158
 5078SOL     OW16674   2.086   6.543   8.183  0.1616  0.0137  0.4011
 5078SOL    HW116675   2.016   6.484   8.212 -0.0008  0.4553  0.9155
 5078SOL    HW216676   2.041   6.612   8.136  0.4507 -0.8869 -1.2750
 5079SOL     OW16677   0.891   0.538   7.631  0.7210 -0.3068 -0.8412
 5079SOL    HW116678   0.929   0.600   7.568 -1.9049 -0.6847 -3.0044
 5079SOL    HW216679   0.827   0.590   7.679  1.2604 -0.5122  0.1272
 5080SOL     OW16680   7.837   7.657   8.869  0.1934 -0.2565 -0.3087
 5080SOL    HW116681   7.830   7.609   8.951 -0.0489 -0.3746 -0.3990
 5080SOL    HW216682   7.867   7.592   8.805 -0.5981 -0.4054 -0.5375
 5081SOL     OW16683   0.892   6.415   8.240  0.3340  0.3295  0.6512
 5081SOL    HW116684   0.913   6.441   8.150 -0.0891 -0.0318  0.4461
 5081SOL    HW216685   0.957   6.348   8.261 -0.1794 -0.3213  0.2440
 5082SOL     OW16686   0.255   7.621   8.985 -0.1346 -0.1724  0.5057
 5082SOL    HW116687   0.232   7.533   8.954 -0.7218 -0.6215  2.1283
 5082SOL    HW216688   0.174   7.671   8.979 -0.3569 -0.3761  1.6409
 5083SOL     OW16689   5.682   6.011   9.198  0.3658 -0.1083 -0.1154
 5083SOL    HW116690   5.727   5.998   9.281  1.3099 -0.2584 -0.6381
 5083SOL    HW216691   5.613   6.074   9.218  0.0405 -0.7752  0.9557
 5084SOL     OW16692   0.529   6.750   9.748  0.1745 -0.4000  0.2110
 5084SOL    HW116693   0.480   6.681   9.794  1.8688 -1.1673  0.9472
 5084SOL    HW216694   0.462   6.810   9.716 -1.2305 -1.3504  1.2642
 5085SOL     OW16695   0.794   5.791   9.023  0.2504 -1.2283  0.1617
 5085SOL    HW116696   0.804   5.802   8.929 -0.9323 -0.4789  0.1047
 5085SOL    HW216697   0.853   5.720   9.046  2.0852 -0.0870 -0.8141
 5086SOL     OW16698   0.527   7.631  10.418 -0.5161  0.1563  0.2738
 5086SOL    HW116699   0.619   7.636  10.444 -0.0900 -1.9358 -0.5734
 5086SOL    HW216700   0.502   7.722  10.401  1.8379  0.6882 -0.8769
 5087SOL     OW16701   1.486   7.652   8.434 -0.0181 -0.0964 -0.4938
 5087SOL    HW116702   1.539   7.591   8.485 -0.4971 -0.2961 -0.2328
 5087SOL    HW216703   1.533   7.735   8.439  1.0037 -0.5987 -1.4198
 5088SOL     OW16704   0.515   6.374   7.686 -0.1066  0.3161 -0.4289
 5088SOL    HW116705   0.607   6.354   7.705 -0.0056 -1.2338 -2.2419
 5088SOL    HW216706   0.501   6.461   7.724  1.8307  0.2109  0.6729
 5089SOL     OW16707   0.123   6.412   9.740 -0.9443 -0.2342  0.3883
 5089SOL    HW116708   0.164   6.342   9.790  0.4360 -0.6862 -1.2534
 5089SOL    HW216709   0.090   6.369   9.661 -1.1487  0.7508 -0.0894
 5090SOL     OW16710   0.218   1.311   8.552  0.1948 -0.1989  0.2978
 5090SOL    HW116711   0.294   1.282   8.502  1.0621  1.8434  0.3603
 5090SOL    HW216712   0.253   1.365   8.622 -1.1704 -1.1694  1.8176
 5091SOL     OW16713   0.412   7.166   9.184 -0.3847  0.2171  0.6026
 5091SOL    HW116714   0.362   7.210   9.252  1.9979  1.1240  1.9010
 5091SOL    HW216715   0.400   7.221   9.106 -1.5119  0.3184  0.8423
 5092SOL     OW16716   0.050   6.373  10.367  0.0615  0.2072 -0.1101
 5092SOL    HW116717   0.069   6.283  10.340 -0.9527  0.0780 -0.4670
 5092SOL    HW216718  -0.006   6.363  10.444  1.8816  0.5704  1.3267
 5093SOL     OW16719   1.284   4.257   7.891  0.4096  0.4434 -0.2932
 5093SOL    HW116720   1.322   4.229   7.808  0.7504 -0.0963  0.0376
 5093SOL    HW216721   1.242   4.341   7.871 -0.3318 -0.1244 -1.2189
 5094SOL     OW16722   2.219   4.804   8.936 -0.7812  0.5743 -0.9061
 5094SOL    HW116723   2.222   4.822   9.030  1.0837 -2.6622 -0.2030
 5094SOL    HW216724   2.297   4.847   8.900 -0.1753 -0.1595 -0.4993
 5095SOL     OW16725   1.691   6.052   7.844  0.3919 -0.0749  0.2788
 5095SOL    HW116726   1.644   6.059   7.927  0.7480  2.9785  0.3328
 5095SOL    HW216727   1.623   6.059   7.777  0.4356  1.4093  0.3591
 5096SOL     OW16728   1.981   7.831  10.698 -0.1455  0.1721 -0.5570
 5096SOL    HW116729   2.000   7.898  10.633  0.3509 -0.9518 -1.5992
 5096SOL    HW216730   2.061   7.780  10.705  0.0572  0.6684  1.4709
 5097SOL     OW16731   2.600   5.337   9.831  0.1139  0.5831  1.0388
 5097SOL    HW116732   2.582   5.244   9.846  1.4166 -0.2038 -1.5924
 5097SOL    HW216733   2.556   5.357   9.748 -0.4329  2.4377  1.7328
 5098SOL     OW16734   0.120   6.988   8.831 -0.4074 -0.0128  0.1410
 5098SOL    HW116735   0.125   7.074   8.791  0.6990 -0.4117 -0.6092
 5098SOL    HW216736   0.063   6.937   8.773  0.4121 -0.3070 -0.4194
 5099SOL     OW16737   3.696   0.171   6.061  0.3545  0.2128 -0.4447
 5099SOL    HW116738   3.715   0.224   6.138  1.3158 -1.2150  0.3445
 5099SOL    HW216739   3.749   0.210   5.991  0.1405  0.9868 -0.1838
 5100SOL     OW16740   1.862   5.913   6.163  0.3690 -0.1847  0.0110
 5100SOL    HW116741   1.775   5.910   6.203  0.4821 -1.7661  0.2256
 5100SOL    HW216742   1.893   5.822   6.167  1.5597  0.1406 -1.0978
 5101SOL     OW16743   1.728   6.938  10.005 -0.1118  0.3174 -0.0519
 5101SOL    HW116744   1.790   6.927   9.933  0.4006  0.7547  0.3069
 5101SOL    HW216745   1.642   6.936   9.964  0.2193  2.9091 -1.0470
 5102SOL     OW16746   0.741   5.842   8.643  0.7685 -0.3606 -0.5004
 5102SOL    HW116747   0.824   5.802   8.669  1.2751 -0.0519 -1.5768
 5102SOL    HW216748   0.741   5.927   8.686  0.4746 -0.8114  0.4181
 5103SOL     OW16749   0.851   6.287   8.633 -0.1431 -0.5401 -0.1015
 5103SOL    HW116750   0.937   6.329   8.631 -0.0204 -0.5058  2.3538
 5103SOL    HW216751   0.820   6.292   8.543  0.6809  3.1109 -0.3694
 5104SOL     OW16752   7.876   6.655  10.098  0.2724  0.5674  0.3122
 5104SOL    HW116753   7.944   6.684  10.037 -1.9716 -0.0984 -2.7742
 5104SOL    HW216754   7.801   6.712  10.078 -0.3455  0.9142  3.1938
 5105SOL     OW16755   0.803   0.295  10.991 -0.5908  0.2844  0.0587
 5105SOL    HW116756   0.802   0.362  10.923  0.0965 -0.1125 -0.3619
 5105SOL    HW216757   0.740   0.325  11.056  0.5375  1.8996  0.4384
 5106SOL     OW16758   1.236   6.316   6.757  0.1801  0.2432 -0.4982
 5106SOL    HW116759   1.200   6.391   6.711  0.8211  1.0608  0.3074
 5106SOL    HW216760   1.161   6.261   6.778 -0.5687  1.7500  0.8742
 5107SOL     OW16761   0.482   0.713   9.067  0.2319  0.1567  0.1904
 5107SOL    HW116762   0.540   0.637   9.073 -0.5378 -0.4950 -0.4747
 5107SOL    HW216763   0.485   0.738   8.974 -0.9852 -0.2452  0.0228
 5108SOL     OW16764   0.644   0.225   8.801  0.3315 -0.1314 -0.1507
 5108SOL    HW116765   0.556   0.218   8.765  0.4873 -2.5588 -0.1831
 5108SOL    HW216766   0.664   0.319   8.796 -2.6380  0.6851  0.8485
 5109SOL     OW16767   7.311   7.812   8.811  0.0732 -0.6377  0.0180
 5109SOL    HW116768   7.217   7.816   8.794  0.0456 -2.7114 -0.5114
 5109SOL    HW216769   7.350   7.787   8.727  0.8870 -1.7271  0.6897
 5110SOL     OW16770   6.286   6.763   7.197  0.3530  0.8001 -0.5211
 5110SOL    HW116771   6.196   6.754   7.166 -0.0212  0.4250  0.6263
 5110SOL    HW216772   6.290   6.710   7.276  1.6760  0.5731 -0.7173
 5111SOL     OW16773   7.208   7.092   9.926 -0.6911  0.0091  0.1561
 5111SOL    HW116774   7.177   7.087  10.017 -0.1816 -0.9843  0.2927
 5111SOL    HW216775   7.168   7.171   9.891 -0.1400  0.9341  1.5403
 5112SOL     OW16776   1.685   0.715  10.981  0.2879 -0.0813  0.1828
 5112SOL    HW116777   1.725   0.628  10.975 -0.8569 -0.6580  0.6263
 5112SOL    HW216778   1.670   0.728  11.075 -1.2449 -0.2187 -0.0150
 5113SOL     OW16779   7.939   6.342   6.127 -0.5699 -0.0886 -0.0182
 5113SOL    HW116780   7.876   6.273   6.104 -0.7322  0.0597 -0.0229
 5113SOL    HW216781   8.018   6.294   6.153 -0.2597 -0.2580 -1.2143
 5114SOL     OW16782   3.495   6.339   7.852  0.1055 -0.2198 -0.4377
 5114SOL    HW116783   3.525   6.249   7.844  0.4783 -0.1674  0.2490
 5114SOL    HW216784   3.519   6.380   7.769  0.4858 -0.6001 -0.5182
 5115SOL     OW16785   7.340   7.431   9.379 -0.0388  0.1559  0.0713
 5115SOL    HW116786   7.364   7.513   9.335  1.2054 -0.7740 -1.0637
 5115SOL    HW216787   7.386   7.434   9.462 -1.7369  1.5548  1.0339
 5116SOL     OW16788   1.150   5.667   9.032  0.0068 -0.3006 -0.3269
 5116SOL    HW116789   1.069   5.619   9.051 -0.5092  0.0542 -1.5632
 5116SOL    HW216790   1.217   5.599   9.026  0.4104 -0.4350  3.3367
 5117SOL     OW16791   2.418   7.825  10.162  0.1341  0.2694 -0.1280
 5117SOL    HW116792   2.477   7.782  10.223  0.2627 -1.2472 -1.2810
 5117SOL    HW216793   2.462   7.908  10.140  1.8152 -0.7877 -0.9124
 5118SOL     OW16794   2.613   6.427   6.091  0.3035 -0.9420  0.1411
 5118SOL    HW116795   2.534   6.384   6.058  1.1927 -1.5500 -1.3230
 5118SOL    HW216796   2.593   6.450   6.181 -1.4084 -1.4043 -0.0956
 5119SOL     OW16797   0.384   6.552   9.890  0.2298  0.5464 -0.1207
 5119SOL    HW116798   0.462   6.497   9.890  1.2898  1.9687 -1.3339
 5119SOL    HW216799   0.312   6.492   9.868  0.9558 -0.7835  1.0078
 5120SOL     OW16800   1.327   6.950   8.423 -0.2024 -0.1059 -0.1541
 5120SOL    HW116801   1.264   7.017   8.449  0.1631  0.1788  0.0091
 5120SOL    HW216802   1.381   6.935   8.501  1.5778  1.5049 -0.9824
 5121SOL     OW16803   1.902   7.671   7.191 -0.5285  0.2505  0.4413
 5121SOL    HW116804   1.842   7.597   7.182 -0.2802  0.0174  0.7042
 5121SOL    HW216805   1.916   7.701   7.101 -2.7908  1.7338  0.4900
 5122SOL     OW16806   0.355   6.778   9.444 -0.0959 -0.5627  0.3293
 5122SOL    HW116807   0.327   6.707   9.503 -0.9205 -1.4608 -1.0637
 5122SOL    HW216808   0.274   6.807   9.402  0.2679  1.0712  0.6780
 5123SOL     OW16809   7.363   0.654   8.580  0.9051 -0.1231 -0.4645
 5123SOL    HW116810   7.425   0.653   8.507  1.2400 -0.2540 -0.1826
 5123SOL    HW216811   7.338   0.562   8.591 -0.7120  0.1199 -1.7200
 5124SOL     OW16812   0.033   7.000   8.112  0.2194  0.2035  0.2405
 5124SOL    HW116813   0.057   6.971   8.024  1.1567 -1.7294  1.0694
 5124SOL    HW216814   0.078   7.084   8.122  2.1979 -0.7151 -0.2907
 5125SOL     OW16815   0.069   7.453  10.242 -0.0284 -0.0849  0.4475
 5125SOL    HW116816   0.047   7.546  10.245  1.0014  0.2170 -0.4479
 5125SOL    HW216817  -0.014   7.408  10.254 -0.6189  0.9637  0.4030
 5126SOL     OW16818   1.227   6.110   6.226 -0.1057  0.0077 -0.4927
 5126SOL    HW116819   1.282   6.153   6.160  1.2005 -0.3682  0.3095
 5126SOL    HW216820   1.268   6.132   6.309 -1.0595 -0.4841  0.1254
 5127SOL     OW16821   2.202   7.317   8.496  0.4298 -0.1745  0.2194
 5127SOL    HW116822   2.175   7.272   8.577  0.2777 -2.0594 -0.8094
 5127SOL    HW216823   2.194   7.410   8.517 -0.5249 -0.6041  2.0685
 5128SOL     OW16824   0.153   5.582  11.037  0.5920 -0.0628 -0.1455
 5128SOL    HW116825   0.152   5.672  11.071  0.2312  2.1368 -5.0963
 5128SOL    HW216826   0.061   5.561  11.022  0.6364 -1.5778  1.4006
 5129SOL     OW16827   1.906   6.370   8.283 -0.0966  0.8992 -0.0360
 5129SOL    HW116828   1.840   6.398   8.347 -0.1183  0.9673 -0.0887
 5129SOL    HW216829   1.857   6.320   8.218  0.1955 -0.9088  1.0589
 5130SOL     OW16830   1.091   6.472   7.574 -0.0133  0.0368  0.0457
 5130SOL    HW116831   1.132   6.394   7.537  1.2893  1.4307 -1.5913
 5130SOL    HW216832   1.034   6.438   7.643  1.5147 -2.2426  0.2949
 5131SOL     OW16833   0.524   7.068   8.474 -0.4135 -0.0435  0.1155
 5131SOL    HW116834   0.539   7.003   8.543  2.2182  0.9180  0.5761
 5131SOL    HW216835   0.523   7.017   8.393 -0.4686 -0.8626  0.6143
 5132SOL     OW16836   7.308   7.149   9.337 -0.7991 -0.0637  0.1002
 5132SOL    HW116837   7.214   7.135   9.326 -0.9142 -0.3048  1.2680
 5132SOL    HW216838   7.319   7.245   9.334 -0.7780 -0.0815 -2.1019
 5133SOL     OW16839   3.664   7.429   9.919 -0.1280  0.2857  0.1880
 5133SOL    HW116840   3.648   7.414  10.013 -0.8306  1.5259  0.2747
 5133SOL    HW216841   3.665   7.524   9.909 -1.7277  0.1947 -1.3394
 5134SOL     OW16842   7.033   7.107   6.740 -0.1209  0.2589  0.0829
 5134SOL    HW116843   7.065   7.173   6.801 -0.3103 -0.6482  1.1898
 5134SOL    HW216844   6.946   7.138   6.715  0.0130  0.7070  0.1711
 5135SOL     OW16845   0.503   7.505   5.647  0.1701  0.1480 -0.7130
 5135SOL    HW116846   0.479   7.597   5.654 -0.8319  0.1342 -3.0945
 5135SOL    HW216847   0.479   7.481   5.558  1.3934 -2.1524 -0.4838
 5136SOL     OW16848   7.593   0.428   9.462 -0.1221 -0.0080  0.3665
 5136SOL    HW116849   7.620   0.352   9.410  0.3474  0.3565  0.0759
 5136SOL    HW216850   7.651   0.498   9.435 -0.4070  0.4027  0.7991
 5137SOL     OW16851   1.198   5.058   6.828 -0.1719 -0.0038 -0.1073
 5137SOL    HW116852   1.269   5.066   6.892 -0.0525  2.0021 -0.4263
 5137SOL    HW216853   1.158   4.973   6.847  0.2124  0.2759  2.2643
 5138SOL     OW16854   1.624   7.144   8.150  0.1215 -0.1269  0.3293
 5138SOL    HW116855   1.696   7.144   8.212  1.0624 -0.9908 -0.7193
 5138SOL    HW216856   1.661   7.181   8.070 -0.7812  0.0316 -0.0251
 5139SOL     OW16857   0.397   0.208   8.702  0.2189  0.0944 -0.0964
 5139SOL    HW116858   0.308   0.231   8.728  0.2973  0.8109 -0.4537
 5139SOL    HW216859   0.422   0.275   8.639  0.1450 -1.4054 -1.8058
 5140SOL     OW16860   0.710   0.446  10.647  0.1074 -0.0165  0.0369
 5140SOL    HW116861   0.645   0.399  10.595  0.4693 -0.5407  0.0474
 5140SOL    HW216862   0.668   0.460  10.731 -0.2739  0.3330 -0.2069
 5141SOL     OW16863   7.805   6.110   7.389  0.2246 -0.8053 -0.2650
 5141SOL    HW116864   7.892   6.135   7.358 -0.0209 -0.8438 -0.9959
 5141SOL    HW216865   7.810   6.015   7.399  0.4839 -0.7269  0.3937
 5142SOL     OW16866   1.187   6.697   8.414  0.5419  0.1474  0.3906
 5142SOL    HW116867   1.227   6.784   8.421 -1.6453  1.2520  0.0141
 5142SOL    HW216868   1.126   6.705   8.341  1.9433 -2.4559 -1.2128
 5143SOL     OW16869   1.130   6.498   6.622 -0.4465  0.2417  0.9165
 5143SOL    HW116870   1.209   6.512   6.569 -0.8311  0.0011  0.2583
 5143SOL    HW216871   1.060   6.492   6.557 -1.1544  1.4171  1.5404
 5144SOL     OW16872   1.478   6.896   9.893 -0.2770  0.1833  0.6091
 5144SOL    HW116873   1.422   6.893   9.815 -1.6028  0.8817  1.4872
 5144SOL    HW216874   1.416   6.895   9.966  0.6765  3.5198  1.6216
 5145SOL     OW16875   2.606   5.932   8.979 -0.1089  0.5533 -0.9798
 5145SOL    HW116876   2.688   5.962   8.938  0.5602  0.1439  0.0397
 5145SOL    HW216877   2.594   5.843   8.946  1.3830 -0.4577  1.0254
 5146SOL     OW16878   7.843   7.144   8.713 -0.0514  0.0372 -0.0183
 5146SOL    HW116879   7.921   7.132   8.659  0.3132 -0.5571  0.6398
 5146SOL    HW216880   7.771   7.149   8.649  0.4624  0.1224 -0.6017
 5147SOL     OW16881   1.421   6.528   8.379  0.7668 -0.2277 -0.5716
 5147SOL    HW116882   1.338   6.572   8.400 -0.6512 -2.4382 -1.2041
 5147SOL    HW216883   1.406   6.488   8.294  1.6632 -2.5286  0.2704
 5148SOL     OW16884   0.769   6.631   6.052 -0.0464 -0.2952  0.2218
 5148SOL    HW116885   0.818   6.684   5.989  0.6309 -0.4026  0.6475
 5148SOL    HW216886   0.683   6.622   6.013  0.3109 -0.2156 -0.6145
 5149SOL     OW16887   1.880   6.747   8.966  0.1782  0.3998 -0.1264
 5149SOL    HW116888   1.857   6.725   8.876 -0.5681  0.0152  0.1551
 5149SOL    HW216889   1.874   6.664   9.013 -4.5794  1.2788  1.3777
 5150SOL     OW16890   7.937   5.104   5.247 -0.1965  0.0285  0.3797
 5150SOL    HW116891   7.921   5.016   5.281 -1.4401 -0.2659 -0.8379
 5150SOL    HW216892   7.909   5.099   5.155 -0.8920  1.8579  0.4584
 5151SOL     OW16893   7.669   0.557   8.009 -0.3443  0.0339  0.6431
 5151SOL    HW116894   7.657   0.635   7.954 -0.2965  0.3809  1.1185
 5151SOL    HW216895   7.714   0.495   7.952  0.6940  0.7834  0.6112
 5152SOL     OW16896   0.685   7.167   9.205  0.0422 -0.2268  0.0276
 5152SOL    HW116897   0.594   7.139   9.211 -0.2291  0.2205 -1.5458
 5152SOL    HW216898   0.736   7.086   9.209 -0.5224 -0.6314 -0.6601
 5153SOL     OW16899   1.422   0.216   8.724 -0.1454  0.4987 -0.3781
 5153SOL    HW116900   1.449   0.135   8.681  1.6297  0.5919  0.4663
 5153SOL    HW216901   1.342   0.193   8.771 -0.2554 -0.4790 -1.0128
 5154SOL     OW16902   7.434   5.835   7.506  0.4504  0.5770  0.5504
 5154SOL    HW116903   7.391   5.773   7.448  2.2380 -1.0731  0.8634
 5154SOL    HW216904   7.515   5.858   7.461  0.4550  1.6192  1.0612
 5155SOL     OW16905   2.396   6.382   9.857  0.2125  0.0664 -0.0622
 5155SOL    HW116906   2.334   6.310   9.866  1.5617 -1.1677 -0.2343
 5155SOL    HW216907   2.446   6.360   9.778  0.3062  1.4800 -0.4248
 5156SOL     OW16908   0.008   0.792   8.599  0.4277  0.1968  0.0792
 5156SOL    HW116909  -0.023   0.717   8.650 -1.7420  1.1295  0.2326
 5156SOL    HW216910   0.099   0.803   8.626 -0.3034 -0.0427  2.9518
 5157SOL     OW16911   0.897   5.873   7.139 -0.0461  0.2229 -0.4840
 5157SOL    HW116912   0.865   5.784   7.152  0.7217 -0.1474 -1.0631
 5157SOL    HW216913   0.824   5.919   7.097 -0.0645 -0.4402 -1.2075
 5158SOL     OW16914   2.123   7.143   9.028  0.2381 -0.3472  0.6322
 5158SOL    HW116915   2.068   7.213   9.064  0.2625  0.4092 -0.7539
 5158SOL    HW216916   2.203   7.147   9.080  0.0900  0.4145  0.8196
 5159SOL     OW16917   0.657   6.907   8.257 -0.1043  0.4152 -0.3223
 5159SOL    HW116918   0.710   6.842   8.304  1.3242  0.4303 -1.8274
 5159SOL    HW216919   0.599   6.855   8.201 -0.2227  0.4165 -0.2004
 5160SOL     OW16920   1.318   5.309   7.949 -0.2753  0.2470  0.4642
 5160SOL    HW116921   1.344   5.335   7.861 -1.3378 -0.1303  0.0148
 5160SOL    HW216922   1.371   5.363   8.008 -0.0730  1.0183 -0.4148
 5161SOL     OW16923   1.355   6.897   7.772  0.3388  0.1054  0.1201
 5161SOL    HW116924   1.426   6.948   7.734  0.5813  0.8380  1.5200
 5161SOL    HW216925   1.289   6.893   7.702  1.2255  0.4446 -0.7660
 5162SOL     OW16926   0.765   5.632   7.158 -0.1267  0.5004 -0.4269
 5162SOL    HW116927   0.830   5.615   7.225 -0.9874 -0.4933  0.1895
 5162SOL    HW216928   0.729   5.545   7.138 -0.9263  0.9772 -1.0862
 5163SOL     OW16929   7.545   7.649   7.577 -0.4037 -0.5012 -0.1175
 5163SOL    HW116930   7.638   7.626   7.574 -0.4997 -0.8149 -1.0713
 5163SOL    HW216931   7.517   7.625   7.665  0.4059 -0.4357  0.1715
 5164SOL     OW16932   1.177   7.257   8.275  0.4636 -0.1687 -0.7707
 5164SOL    HW116933   1.266   7.235   8.302 -0.1823  0.5914  2.4241
 5164SOL    HW216934   1.172   7.352   8.283 -1.0852 -0.3291  0.9729
 5165SOL     OW16935   0.145   6.210   7.935 -0.0315  0.6034  0.1260
 5165SOL    HW116936   0.239   6.199   7.946  0.0967  1.5334  0.0854
 5165SOL    HW216937   0.135   6.246   7.846 -0.3984  0.7402  0.2173
 5166SOL     OW16938   3.074   6.221   9.838  0.1620  0.1671 -0.0405
 5166SOL    HW116939   3.124   6.145   9.807 -1.3088 -0.7014 -0.3840
 5166SOL    HW216940   3.127   6.296   9.814  0.7853 -0.6670 -1.4131
 5167SOL     OW16941   0.852   7.878   9.021 -0.4837 -0.7552 -0.6142
 5167SOL    HW116942   0.783   7.944   9.012  0.2773  0.2362  0.6365
 5167SOL    HW216943   0.805   7.798   9.045 -1.0835  0.4863  2.8272
 5168SOL     OW16944   1.247   7.403   8.554 -0.1093  0.3069  0.0323
 5168SOL    HW116945   1.237   7.486   8.601  3.1339  0.8145  0.0302
 5168SOL    HW216946   1.247   7.427   8.462  2.2233  0.6198  0.0458
 5169SOL     OW16947   0.967   6.129   8.942  0.1292 -0.1862 -0.0358
 5169SOL    HW116948   1.060   6.121   8.921  0.1576  1.9830 -1.0025
 5169SOL    HW216949   0.957   6.219   8.974 -1.7528 -0.0601 -0.8268
 5170SOL     OW16950   0.830   4.400   9.303 -0.2862  0.3906  0.0212
 5170SOL    HW116951   0.815   4.381   9.210 -2.4607  0.9575  0.2098
 5170SOL    HW216952   0.828   4.496   9.308 -0.7243  0.3510  0.7260
 5171SOL     OW16953   7.422   7.037   7.477  0.1969  0.3102 -0.2480
 5171SOL    HW116954   7.395   7.036   7.569 -0.8355  1.4028 -0.5313
 5171SOL    HW216955   7.449   6.946   7.460 -0.5179 -0.1301  0.8541
 5172SOL     OW16956   1.801   6.777   9.264  0.4686 -0.6077  0.5639
 5172SOL    HW116957   1.725   6.834   9.272  0.5374 -0.1664 -1.3776
 5172SOL    HW216958   1.876   6.837   9.270  0.5757 -0.6682 -0.0838
 5173SOL     OW16959   5.221   7.710   8.299 -0.6136  0.0472 -0.1297
 5173SOL    HW116960   5.240   7.796   8.338 -1.3695 -0.2732  0.9874
 5173SOL    HW216961   5.269   7.648   8.354  1.6774 -0.1395 -2.1844
 5174SOL     OW16962   0.802   0.252   9.934  0.6209 -0.0168 -0.0107
 5174SOL    HW116963   0.707   0.257   9.923  0.8578  1.6161 -1.7793
 5174SOL    HW216964   0.822   0.159   9.926 -0.8403 -0.4184  0.6879
 5175SOL     OW16965   6.460   7.516   8.907  0.5970 -0.3642  0.6723
 5175SOL    HW116966   6.507   7.455   8.850  1.7672  1.0666  0.0359
 5175SOL    HW216967   6.500   7.504   8.993 -0.1022 -1.4233  0.8657
 5176SOL     OW16968   0.353   6.585   6.572  0.0759 -0.1061  1.1191
 5176SOL    HW116969   0.304   6.574   6.491  0.1525  1.1006  0.8788
 5176SOL    HW216970   0.438   6.617   6.544 -0.1525  1.0680  1.6901
 5177SOL     OW16971   1.216   7.533   9.245  0.4184 -0.6938 -0.0075
 5177SOL    HW116972   1.124   7.512   9.261  0.4665 -1.0439 -0.1973
 5177SOL    HW216973   1.248   7.561   9.331 -0.3266  1.2184 -0.2991
 5178SOL     OW16974   1.831   6.615   7.695 -0.3613  0.0948 -0.3977
 5178SOL    HW116975   1.807   6.522   7.698 -0.5503  0.1414  2.1754
 5178SOL    HW216976   1.914   6.620   7.742 -0.9956  1.3655  0.6576
 5179SOL     OW16977   0.912   6.433   6.393  0.0092  0.0502 -0.5053
 5179SOL    HW116978   0.984   6.381   6.357  0.5266  0.2088  0.2806
 5179SOL    HW216979   0.920   6.518   6.349  0.7278  0.2933  0.0844
 5180SOL     OW16980   1.983   4.445   8.695  0.2109 -0.0175  0.1073
 5180SOL    HW116981   1.909   4.482   8.647  0.0828  1.6999  1.5219
 5180SOL    HW216982   2.048   4.515   8.699  0.3185 -0.1546  2.1354
 5181SOL     OW16983   0.025   6.652   9.851  0.1644 -0.3228  0.1950
 5181SOL    HW116984   0.058   6.738   9.828 -0.5667  0.5895  2.3265
 5181SOL    HW216985   0.070   6.592   9.791 -1.1800  1.6826 -3.1170
 5182SOL     OW16986   0.779   6.698   8.106 -0.1298 -0.3568  0.5671
 5182SOL    HW116987   0.819   6.679   8.021  1.6544 -0.9748  1.4816
 5182SOL    HW216988   0.730   6.619   8.128 -0.5611 -0.2111  0.1593
 5183SOL     OW16989   0.761   6.751  11.086 -0.6833 -0.4228  0.2069
 5183SOL    HW116990   0.742   6.659  11.106 -1.9586 -0.2642 -0.1723
 5183SOL    HW216991   0.822   6.748  11.013  1.3847 -0.9715  1.8487
 5184SOL     OW16992   7.124   5.605   8.861 -0.3659  0.8512 -0.4278
 5184SOL    HW116993   7.209   5.561   8.868 -1.1066 -0.3622  4.2586
 5184SOL    HW216994   7.072   5.548   8.805  1.2101  0.5088 -1.6330
 5185SOL     OW16995   0.456   6.825  10.728  0.1321  0.3790  0.3351
 5185SOL    HW116996   0.435   6.908  10.771 -1.5204 -0.2367  0.7727
 5185SOL    HW216997   0.373   6.796  10.691  0.7063 -1.0495  0.1214
 5186SOL     OW16998   2.018   6.411  11.517 -0.0414  0.2855 -0.1764
 5186SOL    HW116999   1.984   6.322  11.523  0.9806 -0.0118  2.5658
 5186SOL    HW217000   2.077   6.409  11.442 -1.0469 -0.9527 -0.9761
 5187SOL     OW17001   0.707   5.853  11.038  0.5072  0.5745 -0.6530
 5187SOL    HW117002   0.765   5.838  11.113  0.2954  0.5116 -0.5029
 5187SOL    HW217003   0.767   5.869  10.965  0.7320 -0.3323 -0.6799
 5188SOL     OW17004   1.394   0.058   9.737  0.2490  0.1625 -0.2976
 5188SOL    HW117005   1.458  -0.001   9.777  0.0273 -1.1530 -1.7912
 5188SOL    HW217006   1.446   0.133   9.707  1.0495 -0.6647 -1.0487
 5189SOL     OW17007   7.617   6.115  10.553 -0.8899 -0.3414 -0.0062
 5189SOL    HW117008   7.611   6.177  10.480  0.0178 -0.3712 -0.1112
 5189SOL    HW217009   7.689   6.057  10.529  0.2021  0.3708  1.4606
 5190SOL     OW17010   1.160   6.810  10.661  0.3857  0.5572 -0.1038
 5190SOL    HW117011   1.124   6.746  10.599  0.0347  0.6005  0.0500
 5190SOL    HW217012   1.086   6.832  10.718  1.0292 -0.4847  1.1846
 5191SOL     OW17013   7.907   4.750  11.887 -0.0193  0.1577  0.3983
 5191SOL    HW117014   7.887   4.826  11.833  0.0150 -0.0347  0.1143
 5191SOL    HW217015   7.963   4.695  11.832 -0.3974 -0.2797  0.4435
 5192SOL     OW17016   0.901   5.404  11.043 -0.2649  0.3789 -0.2010
 5192SOL    HW117017   0.820   5.381  11.088 -0.2956 -1.1526 -0.9659
 5192SOL    HW217018   0.913   5.334  10.979  1.8045  0.4289  0.0740
 5193SOL     OW17019   7.008   7.170  11.246  0.4681 -0.0840  0.1051
 5193SOL    HW117020   6.913   7.174  11.254  0.5399  0.7025  0.7608
 5193SOL    HW217021   7.025   7.166  11.151 -0.2099 -0.1589 -0.0135
 5194SOL     OW17022   1.032   6.591  11.363  0.6090  0.0370 -0.1311
 5194SOL    HW117023   0.940   6.615  11.364  0.9276  1.3913 -1.2971
 5194SOL    HW217024   1.076   6.663  11.319  2.5680  0.5085  2.3432
 5195SOL     OW17025   7.014   3.957  10.783 -0.1870 -0.1281  0.3879
 5195SOL    HW117026   7.013   4.030  10.721 -1.6012  0.0925  0.6382
 5195SOL    HW217027   7.010   3.999  10.869 -0.4275 -0.4825  0.5537
 5196SOL     OW17028   3.305   5.716  10.203  0.2745 -0.8523  0.0712
 5196SOL    HW117029   3.217   5.754  10.197  0.4756 -0.3815  0.0018
 5196SOL    HW217030   3.363   5.789  10.181  0.7964 -0.4766  2.3584
 5197SOL     OW17031   0.148   0.122   9.465  0.0773  0.4413 -0.2891
 5197SOL    HW117032   0.180   0.056   9.525 -2.7954 -1.6009 -0.8114
 5197SOL    HW217033   0.221   0.136   9.404  1.3651 -0.9353  0.8638
 5198SOL     OW17034   0.691   6.088  10.747 -0.5837 -0.0610 -0.5368
 5198SOL    HW117035   0.702   6.115  10.656 -1.2925 -0.9805 -0.9123
 5198SOL    HW217036   0.706   5.993  10.746  0.0726  0.0143  0.4289
 5199SOL     OW17037   7.648   7.193  10.852  0.0765 -0.0476 -0.2687
 5199SOL    HW117038   7.560   7.232  10.849  0.1776  0.2446  0.3430
 5199SOL    HW217039   7.692   7.227  10.774 -0.5083 -0.5788 -0.8354
 5200SOL     OW17040   1.919   6.339   9.827  0.5334  0.2174 -0.1654
 5200SOL    HW117041   1.830   6.356   9.797 -0.0950 -0.3182  1.3003
 5200SOL    HW217042   1.940   6.411   9.886  1.7746  1.2932 -1.8261
 5201SOL     OW17043   6.829   6.703   9.790 -0.2807 -0.0453  0.4317
 5201SOL    HW117044   6.918   6.704   9.826  0.1560  0.8841 -0.6057
 5201SOL    HW217045   6.772   6.694   9.866  0.6095  1.7070  1.3508
 5202SOL     OW17046   7.459   5.457   9.854  0.6157 -0.0704  0.5043
 5202SOL    HW117047   7.512   5.392   9.807 -1.1879 -0.0099 -1.8275
 5202SOL    HW217048   7.392   5.405   9.899 -0.7059  0.0335 -1.2011
 5203SOL     OW17049   1.457   4.735   9.314  0.2261 -0.3163  0.5482
 5203SOL    HW117050   1.540   4.727   9.267 -0.1989  1.4701 -0.6010
 5203SOL    HW217051   1.391   4.737   9.245 -0.6585 -0.2672  1.3823
 5204SOL     OW17052   7.384   5.233  10.002 -0.3104 -0.0843 -0.4079
 5204SOL    HW117053   7.313   5.200   9.948 -0.1108  0.2138 -0.8629
 5204SOL    HW217054   7.417   5.157  10.049 -0.5676 -0.3245 -0.6163
 5205SOL     OW17055   1.478   7.403  10.523 -0.2572  0.7027 -0.3996
 5205SOL    HW117056   1.496   7.484  10.571 -1.2774  1.0614 -0.5980
 5205SOL    HW217057   1.457   7.339  10.591 -1.0341  1.0363 -0.3085
 5206SOL     OW17058   1.722   7.340   9.812  0.1501 -0.1783  0.2847
 5206SOL    HW117059   1.673   7.366   9.890  1.1935 -0.8755  1.2018
 5206SOL    HW217060   1.666   7.277   9.768 -0.5618  0.4207  0.3096
 5207SOL     OW17061   1.400   0.012   9.443  0.1314 -0.7019  0.3750
 5207SOL    HW117062   1.494   0.019   9.429 -0.0906  3.2079 -0.1930
 5207SOL    HW217063   1.388   0.021   9.537  0.2952  2.7501  0.1989
 5208SOL     OW17064   0.918   7.868  10.868  0.0777 -0.6486  0.0401
 5208SOL    HW117065   0.850   7.936  10.870  0.8209  0.1071  0.5380
 5208SOL    HW217066   0.890   7.804  10.933 -0.2186 -0.3948  0.1653
 5209SOL     OW17067   6.961   5.445  10.972 -0.1136 -0.2295 -0.0686
 5209SOL    HW117068   7.030   5.434  11.038  0.0860  1.6141  0.0819
 5209SOL    HW217069   7.008   5.443  10.889 -0.0409 -0.1895 -0.0283
 5210SOL     OW17070   6.907   5.806  11.369  0.2926 -0.3211  0.4626
 5210SOL    HW117071   6.862   5.851  11.297  0.9192 -0.9150 -0.3157
 5210SOL    HW217072   6.998   5.834  11.362  0.8252 -2.1200 -0.4164
 5211SOL     OW17073   1.230   5.136  10.878  0.7938 -0.0674 -0.5929
 5211SOL    HW117074   1.283   5.215  10.887  2.6745 -1.3874  0.3546
 5211SOL    HW217075   1.222   5.102  10.966 -1.1892 -0.2595 -0.7870
 5212SOL     OW17076   1.391   6.725   9.402 -0.2663  0.3495 -0.4950
 5212SOL    HW117077   1.435   6.663   9.344  0.1542 -0.9556  1.1316
 5212SOL    HW217078   1.299   6.719   9.378 -0.2316 -0.9344 -0.3977
 5213SOL     OW17079   7.665   0.031  11.086 -0.4478 -0.5520 -0.4354
 5213SOL    HW117080   7.634   0.104  11.031 -1.1501 -1.0758 -0.7557
 5213SOL    HW217081   7.643  -0.047  11.035  1.5848 -0.9724 -0.7595
 5214SOL     OW17082   0.852   5.187  10.896 -0.3842 -1.0346 -0.0467
 5214SOL    HW117083   0.881   5.104  10.935  0.5448 -0.5480  0.3548
 5214SOL    HW217084   0.789   5.162  10.829  1.5192 -2.2406 -1.4810
 5215SOL     OW17085   0.073   6.022   0.077 -0.2273 -0.2686  0.2089
 5215SOL    HW117086   0.051   6.004  -0.014 -2.1464  0.4919  0.4767
 5215SOL    HW217087   0.115   6.108   0.075 -1.6050  0.4300  0.1643
 5216SOL     OW17088   1.129   5.541  10.993  0.5409  0.0987 -0.5348
 5216SOL    HW117089   1.058   5.482  11.020  1.7104 -0.4894  1.4490
 5216SOL    HW217090   1.174   5.563  11.074  2.1696  1.0770 -1.6509
 5217SOL     OW17091   1.362   6.583  10.371 -0.1983 -0.3762 -0.1110
 5217SOL    HW117092   1.272   6.569  10.342  0.3720  0.2818 -2.3583
 5217SOL    HW217093   1.402   6.637  10.303  2.6397 -2.7042 -0.5229
 5218SOL     OW17094   2.653   7.345  10.397  0.5687 -0.7208 -0.0383
 5218SOL    HW117095   2.715   7.374  10.463 -1.3532  1.2302  1.0136
 5218SOL    HW217096   2.574   7.321  10.446 -1.2364  1.6523 -1.5737
 5219SOL     OW17097   6.636   6.056  10.119  0.0466  0.1548  0.2206
 5219SOL    HW117098   6.647   5.963  10.095  0.9379  0.4909 -0.8156
 5219SOL    HW217099   6.699   6.069  10.190  1.7773  0.5032 -1.2826
 5220SOL     OW17100   0.500   5.331   9.676 -0.8859  0.0364 -0.1429
 5220SOL    HW117101   0.447   5.367   9.747 -0.8615  0.5381 -0.3785
 5220SOL    HW217102   0.503   5.237   9.694 -1.4023  0.0759  0.1709
 5221SOL     OW17103   1.296   7.873  10.601  0.3559 -0.3063  0.3247
 5221SOL    HW117104   1.289   7.816  10.677  0.6155 -0.3849  0.2894
 5221SOL    HW217105   1.385   7.906  10.604 -0.5560  2.3760  1.9964
 5222SOL     OW17106   0.502   5.983  10.386 -0.0131  0.5889 -0.2743
 5222SOL    HW117107   0.441   6.031  10.441  0.7170 -0.6927  1.7774
 5222SOL    HW217108   0.452   5.909  10.352 -0.5345  1.5214 -1.6127
 5223SOL     OW17109   0.458   5.903  11.716 -0.1880  0.2943  0.3185
 5223SOL    HW117110   0.375   5.874  11.678 -0.6428  0.4086  1.1970
 5223SOL    HW217111   0.462   5.858  11.800  0.6750  0.2538  0.2587
 5224SOL     OW17112   7.772   7.435  10.650  0.4120  0.2511  0.0679
 5224SOL    HW117113   7.851   7.451  10.702 -0.5799  0.4259  1.5746
 5224SOL    HW217114   7.735   7.522  10.637 -0.0439  0.0787  0.2095
 5225SOL     OW17115   7.950   7.405   9.670 -0.5741 -0.3528  0.1015
 5225SOL    HW117116   7.885   7.468   9.700  0.3660 -0.2018  1.9308
 5225SOL    HW217117   7.960   7.344   9.743  2.1784  0.3075  0.3934
 5226SOL     OW17118   7.825   7.670   9.581  0.1070 -0.3144 -0.6045
 5226SOL    HW117119   7.894   7.731   9.608 -1.9910  2.4987 -1.0379
 5226SOL    HW217120   7.819   7.682   9.486 -0.3115 -1.2987 -0.7159
 5227SOL     OW17121   0.337   7.462  10.893  0.1580 -0.1979 -0.2356
 5227SOL    HW117122   0.282   7.533  10.925  1.2234  0.4415  0.2170
 5227SOL    HW217123   0.284   7.420  10.825 -1.1402 -0.0232  0.6321
 5228SOL     OW17124   6.068   0.269  11.752  0.4877  0.1191  0.4324
 5228SOL    HW117125   6.076   0.177  11.726 -0.4393  0.2575 -0.4149
 5228SOL    HW217126   5.998   0.270  11.816  0.1872  0.2849  0.1072
 5229SOL     OW17127   0.676   7.682   9.059  0.1649  0.0239 -0.5075
 5229SOL    HW117128   0.694   7.597   9.101 -0.0394  0.8072  1.2618
 5229SOL    HW217129   0.611   7.723   9.116  0.4371  1.4757 -1.2044
 5230SOL     OW17130   2.499   5.412  10.352 -0.1464  0.0935 -0.1560
 5230SOL    HW117131   2.520   5.506  10.356 -0.3392  0.1401 -0.2373
 5230SOL    HW217132   2.578   5.372  10.317 -0.0881  0.2344 -0.1885
 5231SOL     OW17133   1.271   7.101  10.973 -0.6765 -0.5050  0.0305
 5231SOL    HW117134   1.255   7.028  10.913 -1.9796 -0.6348  0.4876
 5231SOL    HW217135   1.184   7.122  11.008 -0.1539  0.5186  0.7715
 5232SOL     OW17136   2.575   6.894   8.393  0.2781 -0.2172 -0.0009
 5232SOL    HW117137   2.495   6.920   8.437  0.2899  1.0540 -0.6635
 5232SOL    HW217138   2.564   6.801   8.374  0.3357 -0.8540  2.7128
 5233SOL     OW17139   1.296   6.824  10.102  0.1723 -0.0492 -0.2219
 5233SOL    HW117140   1.238   6.898  10.118  1.3958  0.3857  2.9052
 5233SOL    HW217141   1.237   6.750  10.086 -1.1593  0.9135  0.0985
 5234SOL     OW17142   7.973   0.293  10.240  0.5053  0.0078 -0.5293
 5234SOL    HW117143   7.894   0.302  10.188  1.0693  0.8295 -1.2600
 5234SOL    HW217144   8.025   0.226  10.195 -0.1607 -1.2524  0.4811
 5235SOL     OW17145   3.075   6.707   9.889  0.3668 -0.1738  0.6052
 5235SOL    HW117146   3.155   6.659   9.869  0.9126  0.4862  1.1789
 5235SOL    HW217147   3.104   6.793   9.917 -0.5122 -0.1658  1.5496
 5236SOL     OW17148   7.570   7.835  12.276 -0.0582 -0.1007 -0.6281
 5236SOL    HW117149   7.622   7.914  12.287  0.3848 -0.5163  0.3236
 5236SOL    HW217150   7.508   7.836  12.349 -1.9416  0.7681 -2.1452
 5237SOL     OW17151   6.863   7.451   9.547  0.4371 -0.3445  0.0173
 5237SOL    HW117152   6.863   7.543   9.574  1.6952 -0.0976 -0.7504
 5237SOL    HW217153   6.773   7.422   9.560  0.2396  0.7209  1.1901
 5238SOL     OW17154   0.530   6.190  10.206 -0.1777  0.6338  0.3096
 5238SOL    HW117155   0.495   6.278  10.219 -2.3804 -0.2470  0.8537
 5238SOL    HW217156   0.517   6.146  10.290  1.8901  0.0691  0.3884
 5239SOL     OW17157   0.493   5.429  10.523 -0.0510 -0.4898 -0.0115
 5239SOL    HW117158   0.429   5.500  10.527  0.8489  0.3508 -0.0300
 5239SOL    HW217159   0.457   5.360  10.579 -1.4730 -0.4748 -0.8768
 5240SOL     OW17160   0.719   0.123   8.533  0.0772 -0.2278 -0.0631
 5240SOL    HW117161   0.630   0.089   8.537 -0.4558  1.0832 -0.1596
 5240SOL    HW217162   0.725   0.182   8.608  1.4676 -1.6016  0.9760
 5241SOL     OW17163   0.495   7.912   9.259  0.1991  0.0783  0.0680
 5241SOL    HW117164   0.412   7.865   9.265  0.5617 -0.3855  2.0184
 5241SOL    HW217165   0.470   8.004   9.248 -0.6007  0.0578  1.5929
 5242SOL     OW17166   7.033   6.991   9.594 -0.1720 -0.7657  0.1270
 5242SOL    HW117167   7.023   6.991   9.499  1.1701 -0.4233 -0.0426
 5242SOL    HW217168   6.954   6.948   9.627 -1.2648  0.2519 -1.0597
 5243SOL     OW17169   0.990   6.037   9.786  0.2220 -0.3030  0.5959
 5243SOL    HW117170   0.970   6.124   9.752 -2.7066 -1.5527 -1.1680
 5243SOL    HW217171   0.948   6.035   9.872 -1.1280 -0.4898 -0.0525
 5244SOL     OW17172   7.761   7.677  11.074 -0.3568 -0.4490 -0.0352
 5244SOL    HW117173   7.735   7.592  11.107  0.3093 -0.9731 -0.8262
 5244SOL    HW217174   7.683   7.712  11.032 -0.4399 -0.9774 -0.3240
 5245SOL     OW17175   1.206   0.604   9.205  0.4830 -0.2773 -0.5640
 5245SOL    HW117176   1.188   0.697   9.224 -0.1416 -0.6428  0.7745
 5245SOL    HW217177   1.151   0.556   9.268 -0.6555 -1.5985 -2.4679
 5246SOL     OW17178   6.114   5.647  10.227  0.3999 -0.1883  0.5350
 5246SOL    HW117179   6.104   5.575  10.165 -0.7657  0.2905  0.1522
 5246SOL    HW217180   6.029   5.690  10.228  0.6348  0.2904  1.8794
 5247SOL     OW17181   0.302   5.828   9.948 -0.3730  0.3513 -0.4111
 5247SOL    HW117182   0.241   5.876  10.003  0.8032  0.8711  0.4860
 5247SOL    HW217183   0.246   5.777   9.888 -1.6561  0.8340  0.3401
 5248SOL     OW17184   6.981   6.104   8.947 -0.0788 -0.0042  0.0200
 5248SOL    HW117185   6.914   6.038   8.962 -0.1807 -1.0147 -3.9266
 5248SOL    HW217186   7.064   6.055   8.946  0.2224  0.4873  0.3042
 5249SOL     OW17187   2.204   5.470   9.923  0.2571  0.4824  0.1030
 5249SOL    HW117188   2.124   5.519   9.906 -0.3966 -0.5747  0.0355
 5249SOL    HW217189   2.174   5.382   9.948  1.3992 -0.0016 -0.1438
 5250SOL     OW17190   0.862   7.355  11.444  0.2954  0.3015  0.2747
 5250SOL    HW117191   0.911   7.428  11.482  0.2653 -0.0091  0.9289
 5250SOL    HW217192   0.836   7.302  11.520  2.0592 -1.4771 -0.2543
 5251SOL     OW17193   3.209   5.125  10.006 -0.1837 -0.9614 -1.1135
 5251SOL    HW117194   3.152   5.200  10.020  0.8542 -0.2602 -0.4938
 5251SOL    HW217195   3.149   5.050   9.997 -1.2359 -0.0568 -1.8818
 5252SOL     OW17196   2.287   6.393  10.858  0.1681 -0.1010  0.1662
 5252SOL    HW117197   2.341   6.321  10.890 -0.9368 -1.0956 -0.1380
 5252SOL    HW217198   2.258   6.439  10.937 -0.8226 -1.2623  0.4925
 5253SOL     OW17199   7.776   5.165  10.875  0.7157 -0.1862 -0.2812
 5253SOL    HW117200   7.791   5.184  10.968  0.9809  1.2375 -0.5911
 5253SOL    HW217201   7.863   5.150  10.839  0.5220 -2.1255 -0.0577
 5254SOL     OW17202   1.524   5.639   8.444  0.1887  0.0369 -0.2223
 5254SOL    HW117203   1.612   5.619   8.478 -0.6439  0.0692  2.1307
 5254SOL    HW217204   1.499   5.719   8.489 -1.1173 -0.0509 -0.7625
 5255SOL     OW17205   1.337   7.221  11.277  0.0012  0.0433  0.3069
 5255SOL    HW117206   1.362   7.141  11.229  0.8008  0.3464  0.2049
 5255SOL    HW217207   1.358   7.292  11.217 -2.1888  0.2873 -0.2483
 5256SOL     OW17208   6.775   7.193   9.004 -0.2616  0.0043  0.0417
 5256SOL    HW117209   6.855   7.142   9.021  1.4543  1.7333 -2.1732
 5256SOL    HW217210   6.783   7.269   9.061  0.4464  0.8613 -1.1482
 5257SOL     OW17211   7.170   6.801   9.093  0.0431  0.1985  0.0367
 5257SOL    HW117212   7.184   6.736   9.024  1.2062  0.4608  0.0198
 5257SOL    HW217213   7.249   6.855   9.093 -0.5951  1.1814  0.5320
 5258SOL     OW17214   0.906   7.028  10.577  0.9316  0.0213 -0.0781
 5258SOL    HW117215   0.908   6.980  10.659  1.1221 -0.3777 -0.3136
 5258SOL    HW217216   0.827   6.996  10.533  1.3516 -0.4801 -0.4740
 5259SOL     OW17217   2.143   5.725  10.778  0.2556  0.4811  0.0386
 5259SOL    HW117218   2.170   5.721  10.687 -1.8420 -0.7554 -0.6265
 5259SOL    HW217219   2.160   5.637  10.811 -1.3691  0.1186  0.0175
 5260SOL     OW17220   7.959   5.576  10.722  0.5429  0.2779 -0.4874
 5260SOL    HW117221   7.989   5.646  10.780  0.0828  2.1500 -2.3665
 5260SOL    HW217222   7.890   5.532  10.772  0.8515  1.1643  0.7685
 5261SOL     OW17223   1.936   7.130  10.868  0.2301 -0.2344  0.1890
 5261SOL    HW117224   1.925   7.081  10.949  1.0736 -0.1012  0.3891
 5261SOL    HW217225   2.028   7.120  10.845 -0.2959 -1.5835 -1.5968
 5262SOL     OW17226   1.136   6.457   8.570 -0.3114  0.1956 -0.1942
 5262SOL    HW117227   1.157   6.539   8.525 -1.0582  0.1176 -0.6948
 5262SOL    HW217228   1.213   6.402   8.557 -0.4864  0.1944 -1.3329
 5263SOL     OW17229   7.622   7.174   9.421 -0.0900  0.5672 -0.0536
 5263SOL    HW117230   7.618   7.099   9.479 -2.1647 -0.7359 -1.7202
 5263SOL    HW217231   7.589   7.247   9.473 -0.5001 -0.2346  0.8351
 5264SOL     OW17232   1.594   6.049   9.178 -0.7097  0.5545  0.2346
 5264SOL    HW117233   1.605   5.955   9.191 -3.4672 -0.0503 -0.8932
 5264SOL    HW217234   1.652   6.070   9.104  0.2079 -0.1570  0.7365
 5265SOL     OW17235   7.583   5.933   8.994  0.3105  0.1132  0.4409
 5265SOL    HW117236   7.618   5.897   9.076  3.0066 -0.1473 -0.7110
 5265SOL    HW217237   7.584   5.859   8.933  0.7311  0.8703 -0.4877
 5266SOL     OW17238   0.893   5.844  10.508  0.1676  0.0201 -0.5742
 5266SOL    HW117239   0.964   5.901  10.480  1.7982 -0.2405  2.6610
 5266SOL    HW217240   0.932   5.757  10.514 -0.5561 -0.2442  0.6441
 5267SOL     OW17241   2.286   5.396  11.639  0.2677  0.7241 -0.3918
 5267SOL    HW117242   2.304   5.313  11.683 -1.9642 -0.1574 -1.0241
 5267SOL    HW217243   2.239   5.371  11.560 -0.1439  2.5941 -0.7795
 5268SOL     OW17244   1.967   5.821   9.395 -0.4878 -0.1766 -0.2821
 5268SOL    HW117245   1.988   5.914   9.388 -0.1265 -0.1654  0.7243
 5268SOL    HW217246   2.031   5.787   9.457 -0.7005 -1.0716 -0.5423
 5269SOL     OW17247   0.155   6.866   9.293 -0.3577 -0.0581  0.2909
 5269SOL    HW117248   0.129   6.800   9.229  0.7108 -1.1928  0.9778
 5269SOL    HW217249   0.171   6.945   9.241 -1.1420 -0.4765 -0.6170
 5270SOL     OW17250   1.571   7.137   9.661  0.1129 -0.1654 -0.4159
 5270SOL    HW117251   1.524   7.077   9.719 -1.3201  2.1610  0.9590
 5270SOL    HW217252   1.514   7.146   9.585  0.6117 -0.9446 -0.9004
 5271SOL     OW17253   1.692   7.185   9.330 -0.5181  0.0332 -0.2246
 5271SOL    HW117254   1.632   7.115   9.306  1.5559 -1.6909 -0.6551
 5271SOL    HW217255   1.690   7.245   9.255 -1.2431 -0.2780 -0.4656
 5272SOL     OW17256   7.401   5.632  10.157  0.4615 -0.4427 -0.3079
 5272SOL    HW117257   7.347   5.648  10.234 -0.6788  0.1062 -1.1880
 5272SOL    HW217258   7.354   5.675  10.086  0.8278 -2.0307 -1.5556
 5273SOL     OW17259   7.885   6.982  11.035 -0.3899  0.7482 -0.4475
 5273SOL    HW117260   7.965   6.929  11.046 -1.1587 -0.6112 -1.0945
 5273SOL    HW217261   7.917   7.072  11.028  1.3618  0.0259 -3.3222
 5274SOL     OW17262   1.074   0.363  10.222  0.6885 -0.2849 -0.0778
 5274SOL    HW117263   1.053   0.303  10.151  1.1704  0.1369 -0.5843
 5274SOL    HW217264   1.165   0.342  10.245  1.3236  1.1360 -1.1699
 5275SOL     OW17265   0.571   5.875   9.888  0.2355 -0.7564  0.1011
 5275SOL    HW117266   0.476   5.883   9.900  0.2987  2.1215 -0.7781
 5275SOL    HW217267   0.598   5.815   9.958 -2.0349 -0.4800  1.3169
 5276SOL     OW17268   7.755   4.238  10.177 -0.0816  0.0003 -0.1860
 5276SOL    HW117269   7.833   4.277  10.138  0.3878 -1.0184 -0.3223
 5276SOL    HW217270   7.690   4.239  10.107 -0.4912  1.6467  0.1913
 5277SOL     OW17271   2.923   5.469   8.356 -0.2469 -0.3579 -0.0194
 5277SOL    HW117272   2.853   5.483   8.420  0.3937  1.2237  0.3766
 5277SOL    HW217273   3.002   5.457   8.409  0.2277  0.5945 -0.4999
 5278SOL     OW17274   1.909   5.891  10.159 -0.4034 -0.4406  0.4883
 5278SOL    HW117275   2.001   5.882  10.139 -0.4061 -0.1236  0.3240
 5278SOL    HW217276   1.908   5.932  10.246 -0.3795  0.5552  0.0351
 5279SOL     OW17277   0.506   5.311  10.763  0.8062  0.2840 -0.0121
 5279SOL    HW117278   0.593   5.278  10.738  0.0251 -0.7390 -1.5396
 5279SOL    HW217279   0.459   5.234  10.795 -0.4611  0.1786 -1.9504
 5280SOL     OW17280   7.716   6.678  10.445 -0.1954  0.0846  0.8067
 5280SOL    HW117281   7.750   6.745  10.385 -0.7942 -1.6605 -1.6272
 5280SOL    HW217282   7.622   6.678  10.431 -0.3376 -0.4573  1.6693
 5281SOL     OW17283   7.872   0.140  11.420 -0.4531  0.0449 -0.2323
 5281SOL    HW117284   7.854   0.067  11.479  2.9637 -1.4571 -0.7864
 5281SOL    HW217285   7.945   0.187  11.461  0.0148  0.7609 -1.7916
 5282SOL     OW17286   6.324   7.759  10.578 -0.0937  0.9813  0.0048
 5282SOL    HW117287   6.276   7.747  10.497 -1.3230 -0.7796  0.9392
 5282SOL    HW217288   6.328   7.672  10.618  2.5095  1.3472  0.7486
 5283SOL     OW17289   0.829   5.283   9.869  0.4057  0.1695  0.4321
 5283SOL    HW117290   0.827   5.355   9.806  0.8186  0.0386  0.2690
 5283SOL    HW217291   0.921   5.261   9.879  0.2363 -0.9332 -0.2199
 5284SOL     OW17292   1.764   7.832   9.726 -0.0810  0.0328 -0.4780
 5284SOL    HW117293   1.828   7.813   9.794  0.3506  1.2607 -0.5186
 5284SOL    HW217294   1.683   7.854   9.773 -0.0098  0.1061 -0.3913
 5285SOL     OW17295   1.186   7.858   9.360 -0.7875 -0.1158  0.6047
 5285SOL    HW117296   1.174   7.778   9.411 -3.6930 -0.1109  0.1069
 5285SOL    HW217297   1.252   7.908   9.408 -1.4392 -1.2833  2.8584
 5286SOL     OW17298   1.611   0.011  10.913 -0.1778  0.1324  0.5371
 5286SOL    HW117299   1.600  -0.016  10.822 -1.3299  0.5294  0.5440
 5286SOL    HW217300   1.670  -0.054  10.950  1.8408  0.9923 -0.9514
 5287SOL     OW17301   6.995   5.116  10.235  0.1818  0.2415  0.3116
 5287SOL    HW117302   6.991   5.196  10.288  3.0587  1.3498 -0.9747
 5287SOL    HW217303   6.978   5.146  10.145  1.9181 -0.4295 -0.2778
 5288SOL     OW17304   0.264   6.124  10.834 -0.1921  0.3315  0.2572
 5288SOL    HW117305   0.297   6.088  10.916  0.7009  0.3344 -0.0893
 5288SOL    HW217306   0.172   6.144  10.852 -0.1538 -0.1770  1.0852
 5289SOL     OW17307   2.892   5.330   9.508  0.1450 -0.0215  0.0044
 5289SOL    HW117308   2.935   5.312   9.425  0.7366 -0.9660  0.5013
 5289SOL    HW217309   2.929   5.266   9.569 -2.6186 -1.5502  0.2417
 5290SOL     OW17310   0.259   5.609  10.509 -0.0395 -0.3246  0.1447
 5290SOL    HW117311   0.230   5.690  10.551 -0.2968 -0.1097 -0.4354
 5290SOL    HW217312   0.189   5.546  10.527 -0.2528 -0.1713 -0.1515
 5291SOL     OW17313   1.742   6.671  10.273  0.4258  0.5494 -0.6780
 5291SOL    HW117314   1.694   6.613  10.214  1.0199 -1.1335  0.4196
 5291SOL    HW217315   1.721   6.638  10.360  1.6065  1.3347 -0.0710
 5292SOL     OW17316   6.543   6.845   9.675 -0.3027  0.4175 -0.0522
 5292SOL    HW117317   6.548   6.764   9.625  0.1389  0.9415 -0.8876
 5292SOL    HW217318   6.612   6.900   9.638 -0.4655  1.1014  0.6381
 5293SOL     OW17319   1.518   6.583  10.836  0.1368  0.3965 -0.1147
 5293SOL    HW117320   1.512   6.624  10.750 -1.4897  1.1572  0.3394
 5293SOL    HW217321   1.458   6.509  10.832  0.5732  0.0233  0.1476
 5294SOL     OW17322   0.875   6.023   8.111  0.0393 -0.0394  0.0050
 5294SOL    HW117323   0.826   5.941   8.112  0.6942 -0.4381 -0.1090
 5294SOL    HW217324   0.880   6.048   8.019  0.6576 -0.3732 -0.0560
 5295SOL     OW17325   7.459   7.344   9.619  0.0255  0.4669 -0.5680
 5295SOL    HW117326   7.454   7.374   9.710 -0.3511 -0.8897 -0.1083
 5295SOL    HW217327   7.380   7.290   9.607 -0.1899  1.0263 -1.8644
 5296SOL     OW17328   7.177   6.093  10.556 -0.5224  0.1092  0.0034
 5296SOL    HW117329   7.263   6.067  10.589  0.1146  2.0609  0.0335
 5296SOL    HW217330   7.130   6.011  10.543  0.4363 -0.9056  2.3930
 5297SOL     OW17331   1.856   6.532  10.003 -0.4701  0.3039 -0.1264
 5297SOL    HW117332   1.767   6.502  10.024  0.2502 -1.7534  0.1893
 5297SOL    HW217333   1.844   6.595   9.931 -2.3158  1.5678  1.1929
 5298SOL     OW17334   1.605   6.860  11.335 -0.5196  0.2614 -0.8146
 5298SOL    HW117335   1.594   6.918  11.260 -1.0805  1.2914  0.0387
 5298SOL    HW217336   1.545   6.787  11.318  0.3039 -0.1608 -1.9676
 5299SOL     OW17337   7.254   5.918   9.604 -0.6167  0.2726  0.0734
 5299SOL    HW117338   7.288   5.855   9.666  0.7921  0.1792 -0.7522
 5299SOL    HW217339   7.223   5.991   9.658  1.2165  0.5065  0.8700
 5300SOL     OW17340   1.281   5.610  10.586 -0.1743  0.4518 -0.1762
 5300SOL    HW117341   1.318   5.624  10.673  0.5596 -0.2469 -0.3621
 5300SOL    HW217342   1.187   5.609  10.599 -0.1187  1.6506  0.4080
 5301SOL     OW17343   7.644   6.243  10.835 -0.2449 -0.0689  0.4014
 5301SOL    HW117344   7.595   6.232  10.754  0.1399 -1.0383  0.2863
 5301SOL    HW217345   7.592   6.196  10.901 -0.8026  1.1183  0.8262
 5302SOL     OW17346   0.263   7.120  11.592 -0.1320  0.0602 -0.2183
 5302SOL    HW117347   0.274   7.043  11.648 -1.0935  0.1202  0.0758
 5302SOL    HW217348   0.332   7.180  11.619 -0.2855 -0.1094  0.5568
 5303SOL     OW17349   2.163   7.852  11.367  0.3727 -0.0905  0.2457
 5303SOL    HW117350   2.239   7.908  11.351 -0.2447  0.9393  0.8328
 5303SOL    HW217351   2.103   7.906  11.417 -0.2276 -1.3069  0.8915
 5304SOL     OW17352   1.550   5.866   8.831  0.4848  0.1457  0.4224
 5304SOL    HW117353   1.580   5.941   8.882  1.5656 -1.0109  1.5479
 5304SOL    HW217354   1.599   5.792   8.866 -1.5954 -1.3621  0.3222
 5305SOL     OW17355   7.647   7.103   9.149  0.3162 -0.1464 -0.4527
 5305SOL    HW117356   7.738   7.077   9.135  0.8932  2.6485 -2.9184
 5305SOL    HW217357   7.647   7.147   9.234  0.9735 -1.1635  0.0892
 5306SOL     OW17358   0.625   6.950   9.993  0.5579  0.6553  0.2778
 5306SOL    HW117359   0.546   7.003  10.007 -1.8998 -1.5715 -3.2397
 5306SOL    HW217360   0.623   6.885  10.063  0.6237  2.0058  1.5665
 5307SOL     OW17361   7.583   7.355  10.077 -0.0621 -0.1902  0.1558
 5307SOL    HW117362   7.527   7.278  10.068 -1.4712  0.8615 -0.6066
 5307SOL    HW217363   7.577   7.399   9.992 -1.1997  1.9671  1.2540
 5308SOL     OW17364   0.002   6.597  10.923  0.2481 -0.1715 -0.1946
 5308SOL    HW117365  -0.065   6.540  10.961 -1.1154  0.7765 -1.0943
 5308SOL    HW217366  -0.015   6.595  10.829  1.8525 -0.3472 -0.5089
 5309SOL     OW17367   0.795   7.796   9.746  0.4180 -0.1968  0.1831
 5309SOL    HW117368   0.747   7.873   9.715  0.6035 -0.5733 -1.1264
 5309SOL    HW217369   0.818   7.748   9.666  1.5600 -0.8697  0.8785
 5310SOL     OW17370   1.314   5.624   9.561  0.1217 -0.5065 -0.2272
 5310SOL    HW117371   1.250   5.581   9.618 -1.4533  0.6933 -0.9961
 5310SOL    HW217372   1.352   5.693   9.615  0.7724 -1.1927  0.2177
 5311SOL     OW17373   7.421   7.076   8.490 -0.5829  0.2336  0.5915
 5311SOL    HW117374   7.495   7.017   8.504  0.2342  1.2600  0.7670
 5311SOL    HW217375   7.442   7.123   8.409 -0.3202  1.5307  1.3730
 5312SOL     OW17376   1.613   7.700  11.807  0.5176  0.2425  0.0488
 5312SOL    HW117377   1.622   7.770  11.872 -0.4719  0.4902 -0.0702
 5312SOL    HW217378   1.558   7.635  11.850 -0.8282  0.7706 -0.8090
 5313SOL     OW17379   0.633   7.328  10.361 -0.4014 -0.0566 -0.3666
 5313SOL    HW117380   0.724   7.358  10.352 -0.3915 -0.6352 -2.6471
 5313SOL    HW217381   0.639   7.233  10.362 -0.9781 -0.0932 -0.3337
 5314SOL     OW17382   0.463   6.273  10.733 -0.1389 -0.1675 -0.2052
 5314SOL    HW117383   0.551   6.236  10.732 -0.6988 -1.6062  0.7560
 5314SOL    HW217384   0.412   6.214  10.789 -1.4764  1.2030  0.0920
 5315SOL     OW17385   1.372   6.272  11.586 -0.3043  0.1489  0.2176
 5315SOL    HW117386   1.379   6.318  11.670 -0.4344 -1.0727  0.9121
 5315SOL    HW217387   1.328   6.335  11.528 -0.2799  0.9786  1.0708
 5316SOL     OW17388   7.800   5.656  11.803  0.0540 -0.6972  0.1940
 5316SOL    HW117389   7.851   5.701  11.871  0.2777 -1.2102  0.3720
 5316SOL    HW217390   7.710   5.685  11.817 -0.1441 -1.8583  1.6139
 5317SOL     OW17391   2.415   5.884  11.103 -0.1888  0.2839  0.1938
 5317SOL    HW117392   2.467   5.875  11.183  0.2921  0.9893 -0.0255
 5317SOL    HW217393   2.324   5.873  11.132 -0.0924  1.4324  1.0024
 5318SOL     OW17394   6.453   5.126   7.482 -0.4820  0.5872  0.5714
 5318SOL    HW117395   6.418   5.216   7.487  1.7048  1.5083  0.4601
 5318SOL    HW217396   6.544   5.138   7.453 -0.6966 -1.8011 -1.4268
 5319SOL     OW17397   0.345   6.266   8.930 -0.4079 -0.1429 -0.6071
 5319SOL    HW117398   0.252   6.244   8.938 -0.2446 -0.8456 -0.6494
 5319SOL    HW217399   0.387   6.185   8.903  0.2406  0.1423 -0.4620
 5320SOL     OW17400   0.755   5.487  10.537  0.2175  0.0476 -0.0196
 5320SOL    HW117401   0.662   5.475  10.554  0.3733 -0.8147  0.2599
 5320SOL    HW217402   0.779   5.412  10.483  0.9742 -0.3277  0.8076
 5321SOL     OW17403   0.271   6.938   9.041 -0.0908 -0.1347 -0.0575
 5321SOL    HW117404   0.224   6.965   8.962  2.4166  1.6065 -1.0742
 5321SOL    HW217405   0.302   7.020   9.080  1.0638 -1.1265  1.2247
 5322SOL     OW17406   0.885   0.051  12.059 -0.4500 -0.1767 -0.1774
 5322SOL    HW117407   0.885   0.140  12.026  0.7899  0.3289  1.0782
 5322SOL    HW217408   0.975   0.020  12.046  0.0956  0.0324  2.5191
 5323SOL     OW17409   7.388   6.969   9.085  0.0126 -0.0139 -0.1880
 5323SOL    HW117410   7.426   7.043   9.133 -0.2471  0.5331 -0.8032
 5323SOL    HW217411   7.379   7.001   8.995 -3.3026  0.4703  0.1955
 5324SOL     OW17412   1.104   7.032  10.101 -0.1336 -0.3504 -0.1033
 5324SOL    HW117413   1.118   7.062  10.011 -1.3478 -0.7322 -0.4295
 5324SOL    HW217414   1.045   7.097  10.139 -1.0727 -1.1498 -0.1578
 5325SOL     OW17415   1.591   7.578  10.717  0.5768 -0.5210 -0.1968
 5325SOL    HW117416   1.523   7.616  10.773  0.8965  0.4628 -0.4491
 5325SOL    HW217417   1.633   7.512  10.772 -0.0187 -0.5382  0.2502
 5326SOL     OW17418   2.198   5.701   9.560  0.2754  0.1566 -0.8103
 5326SOL    HW117419   2.272   5.713   9.621 -0.2848 -0.8923  0.1125
 5326SOL    HW217420   2.225   5.629   9.503  0.1775  0.1084 -0.7963
 5327SOL     OW17421   0.268   7.603  11.251 -0.3038  0.4565 -0.2303
 5327SOL    HW117422   0.340   7.661  11.227  0.8508  0.0179  1.8518
 5327SOL    HW217423   0.213   7.656  11.309 -0.3949  0.1256 -0.0092
 5328SOL     OW17424   1.803   0.455  12.384  0.9891 -0.7912  0.1462
 5328SOL    HW117425   1.777   0.364  12.371  0.1509 -0.4245 -0.8788
 5328SOL    HW217426   1.732   0.506  12.344  1.3354  0.3151  0.9019
 5329SOL     OW17427   0.717   6.607   9.976  0.0853 -0.2265 -0.0927
 5329SOL    HW117428   0.709   6.522   9.933 -2.4619  1.0678 -2.5256
 5329SOL    HW217429   0.641   6.613  10.033  1.1497 -0.1854  1.3799
 5330SOL     OW17430   6.425   7.310   0.215  0.2420 -0.5813 -0.0781
 5330SOL    HW117431   6.388   7.235   0.168 -0.0970 -0.9997  0.8323
 5330SOL    HW217432   6.392   7.386   0.167 -0.3838 -0.9863 -0.3081
 5331SOL     OW17433   1.689   6.108   9.464  0.2314  0.2823  0.0407
 5331SOL    HW117434   1.614   6.061   9.500  1.3433 -1.7352 -0.1210
 5331SOL    HW217435   1.679   6.099   9.369  1.1946 -0.9665  0.0243
 5332SOL     OW17436   0.620   7.088  11.262  0.1564 -0.1007  0.3016
 5332SOL    HW117437   0.703   7.072  11.218  0.6546  0.1769  1.1111
 5332SOL    HW217438   0.554   7.070  11.196  0.8984  1.1480 -0.8142
 5333SOL     OW17439   0.476   7.264  11.700  0.3889  0.1382 -0.3624
 5333SOL    HW117440   0.486   7.359  11.691 -0.2706  0.3044  0.4803
 5333SOL    HW217441   0.537   7.240  11.770 -3.0250  0.8306  3.2785
 5334SOL     OW17442   7.480   7.090  10.457  0.0571  0.1906 -0.3040
 5334SOL    HW117443   7.561   7.140  10.469  0.8808 -0.9963 -0.6667
 5334SOL    HW217444   7.458   7.060  10.545 -0.7532  1.6157  0.0021
 5335SOL     OW17445   7.402   6.160   8.981  0.8624  0.1686 -0.3578
 5335SOL    HW117446   7.378   6.187   8.893 -0.1002  0.1516 -0.1092
 5335SOL    HW217447   7.477   6.101   8.968  0.8041  0.2596 -1.1493
 5336SOL     OW17448   1.349   7.162  10.028  0.5595  0.0324  0.4557
 5336SOL    HW117449   1.341   7.257  10.022 -0.4481 -0.0416  0.4188
 5336SOL    HW217450   1.303   7.129   9.951  1.5677 -0.4705  0.0604
 5337SOL     OW17451   4.767   6.432  10.418 -0.0781  0.1943 -0.1239
 5337SOL    HW117452   4.705   6.505  10.415  0.2033  0.3899 -2.0891
 5337SOL    HW217453   4.850   6.471  10.444 -0.2776  0.2901  0.3820
 5338SOL     OW17454   1.161   6.595   9.983  0.1982  0.2151 -0.2850
 5338SOL    HW117455   1.255   6.579   9.972  0.3969  1.6482 -0.8496
 5338SOL    HW217456   1.131   6.620   9.896 -0.4634  0.9467  0.1444
 5339SOL     OW17457   7.490   6.143   9.830 -0.0535 -0.4557 -0.0180
 5339SOL    HW117458   7.540   6.225   9.831 -1.6359  0.8141 -3.7533
 5339SOL    HW217459   7.411   6.163   9.880 -1.2851  1.1304 -2.3792
 5340SOL     OW17460   0.994   6.795   8.248  0.3248 -0.3294  0.1776
 5340SOL    HW117461   1.002   6.882   8.211  1.6993 -1.0487 -1.3747
 5340SOL    HW217462   0.927   6.752   8.195 -0.0242 -0.3567  0.6399
 5341SOL     OW17463   7.624   7.022   8.848  0.3408  0.5152 -0.4661
 5341SOL    HW117464   7.709   7.040   8.807  0.5688 -1.0595 -0.7587
 5341SOL    HW217465   7.640   7.036   8.941  0.9186  0.2788 -0.5229
 5342SOL     OW17466   1.314   5.356  11.241 -0.3950  0.2496 -0.3243
 5342SOL    HW117467   1.343   5.340  11.151  0.4056  0.9604 -0.2066
 5342SOL    HW217468   1.281   5.446  11.239 -2.8673 -0.5743 -0.5031
 5343SOL     OW17469   1.749   0.399   8.918 -0.2194 -0.2073 -0.1291
 5343SOL    HW117470   1.730   0.316   8.962  0.4634  0.6101  1.8556
 5343SOL    HW217471   1.837   0.422   8.949 -0.6490  1.5548 -0.1321
 5344SOL     OW17472   0.697   4.742   9.686 -0.2277 -0.7558 -0.4170
 5344SOL    HW117473   0.629   4.710   9.628 -2.6424  0.5305  1.5201
 5344SOL    HW217474   0.681   4.837   9.692  1.0541 -0.5787  0.9246
 5345SOL     OW17475   0.869   4.357   0.053 -0.2190  0.2489  0.7863
 5345SOL    HW117476   0.879   4.350   0.148 -1.5204  1.6402  1.0728
 5345SOL    HW217477   0.866   4.267   0.022 -1.4653 -0.2803  2.2792
 5346SOL     OW17478   7.945   0.272   9.537 -0.7640  0.1655 -0.1577
 5346SOL    HW117479   7.931   0.316   9.453 -1.2715 -0.2129 -0.2711
 5346SOL    HW217480   7.999   0.196   9.516 -1.5871 -0.3927 -0.2704
 5347SOL     OW17481   0.112   5.260  11.022  0.1637 -0.0968 -0.0870
 5347SOL    HW117482   0.107   5.246  10.927 -0.5773 -0.9703  0.0691
 5347SOL    HW217483   0.023   5.243  11.053  0.1133  1.3106  0.6298
 5348SOL     OW17484   1.697   7.413   9.497 -0.3369  0.0778  0.4458
 5348SOL    HW117485   1.687   7.348   9.428 -0.4652  1.4010 -0.8181
 5348SOL    HW217486   1.659   7.372   9.575 -0.7770 -1.1882 -0.4111
 5349SOL     OW17487   1.547   7.223  11.823  0.0516  0.1075  0.7196
 5349SOL    HW117488   1.622   7.213  11.882  1.1144  0.6489 -0.5002
 5349SOL    HW217489   1.586   7.245  11.739 -1.4605 -0.2664 -0.1047
 5350SOL     OW17490   7.576   0.842   9.486  0.4561 -0.4846 -0.0206
 5350SOL    HW117491   7.617   0.836   9.399  0.3037 -1.4176 -0.0380
 5350SOL    HW217492   7.487   0.872   9.467  0.8365  0.7090 -0.0521
 5351SOL     OW17493   6.082   4.966  11.367  0.0451 -0.0890 -0.6435
 5351SOL    HW117494   6.132   5.042  11.338  0.9271 -0.9158 -1.3517
 5351SOL    HW217495   6.024   5.000  11.435 -2.4915  2.0837 -3.6013
 5352SOL     OW17496   0.597   5.331   9.150 -0.2495 -0.1076 -0.1195
 5352SOL    HW117497   0.669   5.269   9.161 -0.6912 -0.5483  0.3011
 5352SOL    HW217498   0.585   5.369   9.237 -1.5057 -1.1239  0.1699
 5353SOL     OW17499   1.162   4.720   8.317 -0.2659  0.1179  1.0737
 5353SOL    HW117500   1.131   4.657   8.382  1.5261  0.0171  1.8881
 5353SOL    HW217501   1.183   4.798   8.367  0.8118  0.1572  0.5778
 5354SOL     OW17502   0.154   6.651   9.084 -0.1170  0.1048 -0.3375
 5354SOL    HW117503   0.143   6.575   9.141  0.9110 -0.5315 -0.9673
 5354SOL    HW217504   0.065   6.674   9.057 -0.4640 -0.6366  0.1492
 5355SOL     OW17505   7.475   6.812   9.350 -0.5882 -0.1617  0.2490
 5355SOL    HW117506   7.416   6.858   9.410  1.9825  0.7382  2.2858
 5355SOL    HW217507   7.477   6.868   9.272 -0.1417  1.4206  1.3422
 5356SOL     OW17508   2.517   0.034  10.043  0.3063 -0.4193 -0.2110
 5356SOL    HW117509   2.599   0.015   9.996 -0.5479 -0.0002 -1.9613
 5356SOL    HW217510   2.528   0.125  10.073  0.5482 -0.4145 -0.3077
 5357SOL     OW17511   0.351   7.811  10.595 -0.5118  0.2799  0.3037
 5357SOL    HW117512   0.413   7.865  10.644  1.0785 -0.0882 -1.1986
 5357SOL    HW217513   0.265   7.848  10.615  0.1583  0.7322  2.5547
 5358SOL     OW17514   2.909   5.942   9.807  0.3267  0.4383  0.0938
 5358SOL    HW117515   2.919   5.970   9.716 -0.8203  0.8347  0.0818
 5358SOL    HW217516   2.994   5.961   9.846  1.0031 -0.1872 -0.9960
 5359SOL     OW17517   0.344   6.161  11.121 -0.7469  0.1858  0.2062
 5359SOL    HW117518   0.381   6.073  11.108 -1.3204  0.1674 -1.4548
 5359SOL    HW217519   0.420   6.217  11.135 -0.3074 -0.3932  0.1708
 5360SOL     OW17520   2.040   4.735   9.810  0.0886 -0.5917 -0.4254
 5360SOL    HW117521   2.037   4.746   9.905 -0.1263  1.3393 -0.6025
 5360SOL    HW217522   2.058   4.823   9.777  1.0300 -1.3864 -2.1445
 5361SOL     OW17523   1.411   7.583  11.398  0.4349  0.6706  0.1336
 5361SOL    HW117524   1.453   7.498  11.382  0.3117  0.8142 -1.0319
 5361SOL    HW217525   1.336   7.563  11.454  1.6102  0.3110  1.6422
 5362SOL     OW17526   0.987   6.263   9.977  0.1844  0.2849  0.0711
 5362SOL    HW117527   1.076   6.280  10.008  0.7716 -1.6688 -0.4398
 5362SOL    HW217528   0.934   6.264  10.056  0.6442  1.4467  0.3845
 5363SOL     OW17529   2.006   0.447   9.037 -0.3122  0.6798 -0.1744
 5363SOL    HW117530   2.013   0.389   9.113 -0.9940  1.4025  0.4641
 5363SOL    HW217531   2.096   0.467   9.013 -0.0734  1.4500  1.2479
 5364SOL     OW17532   2.366   5.494  11.136  0.2730  0.0492  0.4855
 5364SOL    HW117533   2.283   5.488  11.089  1.7340 -1.6257 -2.2157
 5364SOL    HW217534   2.433   5.483  11.067  2.7321  0.9611  2.5546
 5365SOL     OW17535   0.635   6.331   9.244 -0.0163  0.2684  0.5059
 5365SOL    HW117536   0.581   6.295   9.174  0.7737  0.2887 -0.1349
 5365SOL    HW217537   0.720   6.347   9.202  0.0824  1.4993  1.1377
 5366SOL     OW17538   7.418   7.891   8.567 -0.1886  0.8438 -0.1681
 5366SOL    HW117539   7.383   7.974   8.535 -0.6765  0.5677 -0.3637
 5366SOL    HW217540   7.425   7.836   8.488 -1.1177  0.2584  0.1364
 5367SOL     OW17541   1.149   7.751  11.665 -0.5487 -0.1983  0.6897
 5367SOL    HW117542   1.232   7.793  11.644 -0.0225 -0.1158  2.7081
 5367SOL    HW217543   1.169   7.658  11.670  0.2323  0.0280  4.1315
 5368SOL     OW17544   7.479   7.083  10.012 -0.4275 -0.5592  0.0945
 5368SOL    HW117545   7.478   6.987  10.018  0.7558 -0.7215 -1.6105
 5368SOL    HW217546   7.394   7.105   9.972  0.0512 -1.0893 -1.2739
 5369SOL     OW17547   0.700   7.277   9.991 -0.4350 -0.0159  0.4068
 5369SOL    HW117548   0.780   7.227  10.003  0.5974  1.6570  0.8561
 5369SOL    HW217549   0.632   7.225  10.033  0.0823 -2.1842 -1.2316
 5370SOL     OW17550   0.916   0.279   9.212  0.1080  0.4364  0.0703
 5370SOL    HW117551   0.952   0.193   9.232  0.3875  0.3418 -0.7919
 5370SOL    HW217552   0.821   0.267   9.215  0.1002 -0.4003 -1.9175
 5371SOL     OW17553   0.192   5.026  11.729 -0.2822  0.3787  0.3202
 5371SOL    HW117554   0.268   5.073  11.761 -0.5358  0.9133  0.1488
 5371SOL    HW217555   0.192   5.039  11.634  0.5275 -1.2869  0.0464
 5372SOL     OW17556   0.806   6.066  11.401 -0.2451  0.1993  0.5514
 5372SOL    HW117557   0.824   6.160  11.408 -0.4422  0.1807  1.4848
 5372SOL    HW217558   0.772   6.042  11.488 -1.0787 -0.5459  0.0306
 5373SOL     OW17559   1.202   4.745   0.201 -0.1218 -0.0455 -0.2563
 5373SOL    HW117560   1.201   4.826   0.253  0.8477  0.7533 -1.4191
 5373SOL    HW217561   1.278   4.697   0.233 -1.0417 -0.8238  0.8540
 5374SOL     OW17562   0.152   6.060   9.350  0.2757  0.6245 -0.0411
 5374SOL    HW117563   0.241   6.029   9.332  0.0528 -0.9991  1.3507
 5374SOL    HW217564   0.096   6.009   9.292  0.0585 -0.2546  0.9214
 5375SOL     OW17565   0.943   6.401  11.019 -0.4924 -0.1140  0.5376
 5375SOL    HW117566   0.856   6.440  11.013 -0.9957 -1.3622 -1.5176
 5375SOL    HW217567   0.986   6.428  10.938  0.6791 -0.3325  1.0788
 5376SOL     OW17568   0.077   6.624  10.282  0.5038 -0.1197 -0.0473
 5376SOL    HW117569  -0.007   6.640  10.240  0.6123 -0.0454 -0.2400
 5376SOL    HW217570   0.080   6.529  10.296  0.4506 -0.1405 -0.1743
 5377SOL     OW17571   0.155   0.181  11.530  0.4841  0.1373 -0.1455
 5377SOL    HW117572   0.183   0.153  11.443 -0.4103 -0.0980 -0.3608
 5377SOL    HW217573   0.130   0.101  11.575 -2.0515  0.4957 -0.7536
 5378SOL     OW17574   0.992   6.009  11.976  0.3088 -0.1193 -0.3509
 5378SOL    HW117575   1.013   6.098  12.003  0.8154 -0.3119 -0.0882
 5378SOL    HW217576   0.938   5.974  12.047 -0.6193  0.2602 -0.8618
 5379SOL     OW17577   0.597   6.915   9.494 -1.0986  0.2734 -0.5199
 5379SOL    HW117578   0.538   6.851   9.452 -1.6971  0.1706  0.4545
 5379SOL    HW217579   0.685   6.881   9.475 -1.4077 -1.6864  1.1826
 5380SOL     OW17580   0.685   7.239   8.622  0.3699  0.0116  0.1496
 5380SOL    HW117581   0.732   7.299   8.564  0.1362 -0.0837 -0.1410
 5380SOL    HW217582   0.619   7.198   8.566  0.1604 -0.1044  0.4775
 5381SOL     OW17583   0.844   5.288  10.343  0.1260  0.6427  0.1270
 5381SOL    HW117584   0.917   5.323  10.293  0.8933 -0.2370  0.6025
 5381SOL    HW217585   0.877   5.206  10.380 -1.0997  0.2255  0.3488
 5382SOL     OW17586   6.929   7.731   9.276 -0.0940  0.0775  0.3037
 5382SOL    HW117587   6.965   7.780   9.350  0.8959 -0.7285  0.3786
 5382SOL    HW217588   6.834   7.737   9.287  0.0111  1.5527  0.5728
 5383SOL     OW17589   1.587   5.512  10.424  0.1284 -0.0287 -0.1799
 5383SOL    HW117590   1.658   5.480  10.480  0.3841  0.7213 -0.0595
 5383SOL    HW217591   1.585   5.451  10.350  0.4596 -0.4356  0.1414
 5384SOL     OW17592   7.120   7.521   8.880 -0.1027  0.0113 -0.5190
 5384SOL    HW117593   7.122   7.541   8.974 -1.2552  0.8915 -0.6491
 5384SOL    HW217594   7.026   7.519   8.859  0.1579  0.4942 -1.7792
 5385SOL     OW17595   7.135   6.352   9.106 -0.6477  0.1948  0.2848
 5385SOL    HW117596   7.127   6.371   9.199  0.8627  0.5426  0.3677
 5385SOL    HW217597   7.186   6.271   9.102  0.0177  0.6270 -0.2394
 5386SOL     OW17598   0.948   5.668  11.374  0.1055 -0.4546 -0.4534
 5386SOL    HW117599   0.904   5.737  11.325  1.0189  0.3200 -0.2037
 5386SOL    HW217600   1.036   5.665  11.338  0.1075 -1.4315 -0.3905
 5387SOL     OW17601   1.837   4.674   9.663 -0.3002 -0.4508  0.1076
 5387SOL    HW117602   1.920   4.694   9.705  0.1069 -1.1211 -0.3618
 5387SOL    HW217603   1.857   4.671   9.569 -0.1848 -3.4770  0.1324
 5388SOL     OW17604   0.973   4.887   1.002  0.4494 -0.1109 -0.4050
 5388SOL    HW117605   0.948   4.843   1.083 -0.3928 -1.7653 -1.5029
 5388SOL    HW217606   1.066   4.868   0.992 -0.0483 -2.4009 -1.2371
 5389SOL     OW17607   7.504   7.107  12.119  0.2803 -0.2567  0.0008
 5389SOL    HW117608   7.512   7.180  12.058 -1.1519  0.4249  0.5971
 5389SOL    HW217609   7.539   7.032  12.070  0.4296  0.5401 -1.1584
 5390SOL     OW17610   0.465   7.426   0.014  0.5160  0.0245 -0.5618
 5390SOL    HW117611   0.496   7.512   0.041 -0.4694  0.3355 -0.3881
 5390SOL    HW217612   0.447   7.434  -0.079  0.0534  0.1170 -0.4640
 5391SOL     OW17613   3.300   0.570  11.157 -0.2649  0.3755  0.5455
 5391SOL    HW117614   3.334   0.638  11.214  0.4893  0.9157 -0.5034
 5391SOL    HW217615   3.313   0.604  11.068 -0.7396 -0.7324  0.0242
 5392SOL     OW17616   1.630   5.889  11.482  0.0401 -0.2708 -0.2845
 5392SOL    HW117617   1.598   5.829  11.415 -1.5170 -2.0308  1.8825
 5392SOL    HW217618   1.579   5.969  11.469 -0.9650 -0.9445 -0.5999
 5393SOL     OW17619   0.828   6.218  10.214 -0.4202  0.2669  0.4096
 5393SOL    HW117620   0.738   6.185  10.206  0.0722 -1.3372  1.0700
 5393SOL    HW217621   0.839   6.236  10.307  0.1495 -0.2446  0.4496
 5394SOL     OW17622   0.225   6.718  11.985  0.1275  0.6428  0.2022
 5394SOL    HW117623   0.163   6.677  12.045 -1.0344  1.7798 -0.1651
 5394SOL    HW217624   0.203   6.682  11.899 -1.4459  2.4861 -0.2604
 5395SOL     OW17625   0.503   7.575  11.742 -0.1496 -0.5479 -0.0789
 5395SOL    HW117626   0.421   7.598  11.698  0.5242  2.5331  0.0406
 5395SOL    HW217627   0.571   7.602  11.682  0.8372 -2.1513  0.2519
 5396SOL     OW17628   1.429   7.117   0.034  0.4098  0.4805 -0.1449
 5396SOL    HW117629   1.493   7.188   0.040  0.2818  0.7735 -1.8588
 5396SOL    HW217630   1.410   7.108  -0.059 -1.8807  0.2401  0.2714
 5397SOL     OW17631   2.892   5.074  11.418  0.3014 -0.1031 -0.0859
 5397SOL    HW117632   2.880   5.110  11.506  2.1255 -2.0450  1.0546
 5397SOL    HW217633   2.897   4.979  11.432  3.6833 -0.3250 -1.8200
 5398SOL     OW17634   1.537   7.448  12.432 -0.0747 -0.7407  0.1771
 5398SOL    HW117635   1.543   7.450  12.527  0.2331  0.1126  0.1450
 5398SOL    HW217636   1.617   7.405  12.403  0.5302  0.2915  0.2540
 5399SOL     OW17637   6.341   6.471  10.642 -0.2701  0.1129  0.2911
 5399SOL    HW117638   6.408   6.438  10.702 -0.0428  0.0030 -0.0230
 5399SOL    HW217639   6.314   6.395  10.592  0.6109  0.4760 -0.7755
 5400SOL     OW17640   1.277   6.425   0.278 -0.1546 -0.0458  0.4576
 5400SOL    HW117641   1.372   6.437   0.272  0.0206 -1.6711 -0.6484
 5400SOL    HW217642   1.242   6.472   0.203 -0.3373  1.2752  1.3357
 5401SOL     OW17643   1.346   4.844  11.179  0.1139  0.7317  0.3562
 5401SOL    HW117644   1.376   4.840  11.270  1.0344  0.7963  0.0628
 5401SOL    HW217645   1.344   4.937  11.158 -0.6079  0.7464  0.4677
 5402SOL     OW17646   7.740   6.765  12.128  0.1257 -0.1000 -0.1371
 5402SOL    HW117647   7.831   6.736  12.138  0.3093 -0.1979 -1.8206
 5402SOL    HW217648   7.690   6.684  12.125 -0.1327 -0.0393  1.3768
 5403SOL     OW17649   1.559   5.459   9.699 -0.4033 -0.1848 -0.1472
 5403SOL    HW117650   1.485   5.516   9.721  1.1142  1.8512 -0.0497
 5403SOL    HW217651   1.626   5.518   9.665  0.4915 -2.2074 -2.1503
 5404SOL     OW17652   7.402   6.414  10.267  0.0650 -0.8408 -0.1972
 5404SOL    HW117653   7.365   6.396  10.353 -1.9992 -0.4491 -0.9340
 5404SOL    HW217654   7.325   6.431  10.212  1.4511  2.0050 -1.4032
 5405SOL     OW17655   1.654   4.827   0.385 -0.0562 -0.2288 -0.2293
 5405SOL    HW117656   1.605   4.841   0.303  1.1953 -0.9895 -1.1380
 5405SOL    HW217657   1.618   4.746   0.420  0.3336 -0.6269 -0.7395
 5406SOL     OW17658   2.186   4.898   0.313  0.3093 -0.2767 -0.0844
 5406SOL    HW117659   2.259   4.842   0.341  1.3286  1.5419  1.0570
 5406SOL    HW217660   2.203   4.914   0.221  1.3569  0.0780  0.1480
 5407SOL     OW17661   0.764   6.778  12.231  0.1921 -0.2147 -0.2139
 5407SOL    HW117662   0.840   6.765  12.287 -0.5714 -0.4959  0.8067
 5407SOL    HW217663   0.720   6.854  12.268  0.4968  0.5647 -1.4117
 5408SOL     OW17664   3.414   5.237   0.353 -0.2780  0.3222 -0.7038
 5408SOL    HW117665   3.500   5.259   0.390  0.6495 -0.5649 -2.2186
 5408SOL    HW217666   3.420   5.143   0.335 -1.6644  0.2103 -0.6465
 5409SOL     OW17667   0.731   5.254  11.833 -0.0918  0.1566 -0.1164
 5409SOL    HW117668   0.809   5.309  11.840 -0.2628  0.6329 -1.6159
 5409SOL    HW217669   0.720   5.239  11.739  0.5753 -3.3782  0.2343
 5410SOL     OW17670   7.978   5.377  11.874 -0.8038  0.2072  0.5567
 5410SOL    HW117671   7.989   5.363  11.780  1.0604 -0.2495  0.8053
 5410SOL    HW217672   8.000   5.293  11.914  0.3596  0.9235  1.5004
 5411SOL     OW17673   0.384   5.818  10.786  0.6014  0.3997 -0.4728
 5411SOL    HW117674   0.432   5.738  10.805  1.8734  1.3991  0.7039
 5411SOL    HW217675   0.440   5.867  10.726  0.0922  0.6830 -0.7332
 5412SOL     OW17676   0.041   7.491  12.018 -0.3205 -0.4544  0.4074
 5412SOL    HW117677   0.133   7.479  12.042 -0.2397 -1.8371 -0.5065
 5412SOL    HW217678   0.032   7.586  12.006  1.0791 -0.3268  0.1489
 5413SOL     OW17679   7.393   6.482  11.181  0.2306  0.2828  0.0372
 5413SOL    HW117680   7.409   6.573  11.208  2.1419  0.0954 -0.2658
 5413SOL    HW217681   7.400   6.484  11.086 -3.0586  0.3372 -0.3094
 5414SOL     OW17682   0.514   6.805  11.316 -0.1934  0.1644 -0.6924
 5414SOL    HW117683   0.520   6.888  11.269  3.7153  0.0372 -0.7375
 5414SOL    HW217684   0.547   6.825  11.404  1.1926 -1.3580 -0.8195
 5415SOL     OW17685   1.020   4.969   0.610 -0.4405  0.0986  0.3344
 5415SOL    HW117686   1.052   4.936   0.526  1.2242 -1.1024  1.3827
 5415SOL    HW217687   1.093   5.019   0.646 -1.5996  1.7546  0.5131
 5416SOL     OW17688   1.833   6.391  12.029 -0.2939 -0.2506 -0.1229
 5416SOL    HW117689   1.878   6.475  12.029 -0.5579 -0.1059 -0.9083
 5416SOL    HW217690   1.879   6.340  12.096 -1.3915  1.1675  1.8348
 5417SOL     OW17691   2.441   6.438   0.787 -0.5274 -0.1372  0.5287
 5417SOL    HW117692   2.451   6.346   0.811 -0.0596 -0.5184 -0.9609
 5417SOL    HW217693   2.503   6.449   0.714  0.4486  1.7244  1.5944
 5418SOL     OW17694   0.671   5.836  10.680  0.5693 -0.1076 -0.0899
 5418SOL    HW117695   0.739   5.818  10.616 -0.5283 -0.7541 -1.0955
 5418SOL    HW217696   0.665   5.757  10.733  0.0291 -0.3797 -0.5463
 5419SOL     OW17697   7.733   6.871  11.235 -0.0818  0.0581  0.4952
 5419SOL    HW117698   7.788   6.910  11.167  0.8196  0.5493  1.4824
 5419SOL    HW217699   7.700   6.946  11.285  1.2024 -0.3886  2.0589
 5420SOL     OW17700   1.288   7.563   0.529 -0.2915 -0.0607 -0.2283
 5420SOL    HW117701   1.285   7.605   0.443 -0.3051 -2.1400 -1.3229
 5420SOL    HW217702   1.203   7.521   0.538 -0.2113 -0.0412  0.7159
 5421SOL     OW17703   7.995   6.202  11.491  0.4850  0.3033  0.1771
 5421SOL    HW117704   7.972   6.282  11.539 -0.2852  0.0266  0.2937
 5421SOL    HW217705   8.041   6.233  11.413  0.3529  0.8544  0.3134
 5422SOL     OW17706   1.437   6.297   9.093  0.0284  0.0556  0.0394
 5422SOL    HW117707   1.496   6.232   9.131 -0.3707 -1.3587 -1.6379
 5422SOL    HW217708   1.350   6.270   9.124  0.1350  1.8479  2.1083
 5423SOL     OW17709   0.485   4.991  11.576  0.1196  0.2023 -0.1235
 5423SOL    HW117710   0.489   4.959  11.486 -1.5357  2.7251 -1.1936
 5423SOL    HW217711   0.480   4.911  11.629  2.7802 -1.4179 -2.0530
 5424SOL     OW17712   2.419   7.178   0.494  0.2794 -0.6708 -0.1629
 5424SOL    HW117713   2.463   7.184   0.578  1.3803  0.2518 -0.7846
 5424SOL    HW217714   2.488   7.191   0.429 -0.9147  1.1865 -1.1695
 5425SOL     OW17715   0.220   7.332   0.237 -0.0582 -0.1347  0.0400
 5425SOL    HW117716   0.310   7.341   0.269 -0.2906  3.5453  0.1162
 5425SOL    HW217717   0.171   7.297   0.311  0.8789  0.3966  0.9287
 5426SOL     OW17718   1.918   4.919   0.065 -0.7212 -0.4620  0.0600
 5426SOL    HW117719   1.893   4.990   0.006 -2.0980 -1.0722 -0.1257
 5426SOL    HW217720   1.955   4.852   0.008  1.4294  0.4173  0.3284
 5427SOL     OW17721   1.143   4.249  11.126  0.3075  0.1531  0.1345
 5427SOL    HW117722   1.066   4.304  11.139 -0.2937 -0.5965 -0.2361
 5427SOL    HW217723   1.153   4.242  11.031 -0.2310 -1.2116  0.1647
 5428SOL     OW17724   0.093   7.101  11.387 -0.2354 -1.1250 -0.5555
 5428SOL    HW117725   0.151   7.120  11.460 -0.5127 -0.2543 -0.5494
 5428SOL    HW217726   0.107   7.174  11.326 -2.7354  0.1982  0.3141
 5429SOL     OW17727   2.042   7.629  12.201 -0.1322  0.1581  0.3359
 5429SOL    HW117728   2.112   7.581  12.159 -0.9666 -0.1941 -0.6965
 5429SOL    HW217729   1.990   7.562  12.245  0.4765  0.4756  1.5781
 5430SOL     OW17730   1.303   4.906   0.004 -0.7537  0.3088  0.2909
 5430SOL    HW117731   1.254   4.975  -0.041 -1.4536  1.1755  2.2515
 5430SOL    HW217732   1.237   4.854   0.049 -0.0883 -0.5049  0.3577
 5431SOL     OW17733   0.008   7.762  11.970 -0.2249  0.1561 -0.1484
 5431SOL    HW117734   0.003   7.839  11.914 -1.7128  0.0843 -0.1594
 5431SOL    HW217735   0.029   7.797  12.057  0.6462  0.4093 -0.4563
 5432SOL     OW17736   2.786   5.533  11.391  0.3501 -0.1101  0.2237
 5432SOL    HW117737   2.735   5.453  11.407  1.3817 -0.7565  0.4364
 5432SOL    HW217738   2.723   5.604  11.399 -0.5657 -0.8939  0.1886
 5433SOL     OW17739   7.321   5.479  12.022 -0.7387  0.4306 -0.4648
 5433SOL    HW117740   7.267   5.549  11.987 -1.4312  0.0432 -0.1818
 5433SOL    HW217741   7.292   5.400  11.976  2.0193  0.7039 -2.9970
 5434SOL     OW17742   0.159   6.950  10.724 -0.0500  0.3169  0.1033
 5434SOL    HW117743   0.191   6.968  10.813 -0.6069  0.0157  0.3702
 5434SOL    HW217744   0.076   6.904  10.737 -0.4993  0.9142 -0.5785
 5435SOL     OW17745   0.586   5.658  12.087 -0.5742 -0.5311 -0.0563
 5435SOL    HW117746   0.652   5.722  12.113 -1.3110 -0.2061  1.0928
 5435SOL    HW217747   0.599   5.584  12.147 -1.4156 -0.3505  0.3714
 5436SOL     OW17748   0.264   4.866   9.905 -0.2140  0.2005 -0.2622
 5436SOL    HW117749   0.258   4.961   9.892 -0.8014  0.1591 -0.3217
 5436SOL    HW217750   0.353   4.844   9.878  0.1485  0.8283  0.3649
 5437SOL     OW17751   0.200   6.302  12.274 -0.2849  0.1257  0.1986
 5437SOL    HW117752   0.267   6.273  12.213 -1.6129  0.4714 -1.5311
 5437SOL    HW217753   0.149   6.224  12.293 -0.1170  0.1003  0.5484
 5438SOL     OW17754   0.377   5.746  11.925 -0.1321  0.0343  0.2627
 5438SOL    HW117755   0.442   5.696  11.974 -0.7482  0.6591  1.7614
 5438SOL    HW217756   0.301   5.688  11.919 -0.9024  0.7941  2.1354
 5439SOL     OW17757   2.248   5.627  10.210  0.0113 -0.6295 -0.1014
 5439SOL    HW117758   2.314   5.567  10.176 -0.1516 -0.7635 -0.1856
 5439SOL    HW217759   2.167   5.575  10.210  0.2718 -1.1160  1.8266
 5440SOL     OW17760   2.026   5.563  12.406 -0.0090  0.0769  0.0588
 5440SOL    HW117761   1.949   5.608  12.372 -0.6377  0.6961  2.1266
 5440SOL    HW217762   2.008   5.552  12.500  2.4823  0.3583  0.6437
 5441SOL     OW17763   0.028   5.211  12.319 -0.5171  0.3697 -0.5052
 5441SOL    HW117764   0.023   5.161  12.401 -0.7987  1.4217  0.1482
 5441SOL    HW217765   0.107   5.265  12.329 -0.4247  0.3378 -1.0325
 5442SOL     OW17766   0.584   5.209  12.075 -0.1215  0.0594  1.3824
 5442SOL    HW117767   0.625   5.134  12.118 -0.0629  0.3069  1.7671
 5442SOL    HW217768   0.646   5.236  12.007 -0.9221 -1.3416  0.0271
 5443SOL     OW17769   0.374   7.910  10.058 -0.2116 -0.0328  0.3142
 5443SOL    HW117770   0.280   7.892  10.051 -0.5124  1.7479 -0.9614
 5443SOL    HW217771   0.414   7.853   9.993 -0.7463  1.1301 -1.0887
 5444SOL     OW17772   0.881   0.572   0.479  0.4834 -0.5057 -0.6098
 5444SOL    HW117773   0.823   0.597   0.551 -0.4746 -0.5911 -1.3282
 5444SOL    HW217774   0.909   0.483   0.502 -0.2425 -0.7386 -0.6018
 5445SOL     OW17775   2.349   6.073  11.599 -0.3623 -0.4817  0.2633
 5445SOL    HW117776   2.378   6.070  11.508 -0.2119  1.3220  0.2188
 5445SOL    HW217777   2.335   5.981  11.623  1.1565 -1.1046 -1.0743
 5446SOL     OW17778   0.810   4.306  11.889  0.1428  0.4406  0.8729
 5446SOL    HW117779   0.898   4.270  11.875  0.1696  0.4843  0.9258
 5446SOL    HW217780   0.800   4.371  11.821  0.0115  0.1864  0.6490
 5447SOL     OW17781   0.262   4.440  11.384  0.2050 -0.7467 -0.1000
 5447SOL    HW117782   0.167   4.443  11.394  0.2517  0.1499  0.1434
 5447SOL    HW217783   0.278   4.358  11.337 -0.7457 -0.5667 -0.7770
 5448SOL     OW17784   7.988   3.531  11.856  0.2252 -0.1493 -0.5056
 5448SOL    HW117785   7.934   3.595  11.903  1.5772  1.0381 -0.5422
 5448SOL    HW217786   7.929   3.494  11.790 -0.7687  0.5467 -0.0330
 5449SOL     OW17787   0.386   5.115   0.541  0.4578 -0.0450 -0.7436
 5449SOL    HW117788   0.340   5.048   0.490  0.3890 -0.7900  0.2638
 5449SOL    HW217789   0.428   5.170   0.476 -1.7956  0.6322 -1.7079
 5450SOL     OW17790   0.920   0.139  12.371  0.3197 -0.1498  0.0605
 5450SOL    HW117791   0.828   0.165  12.364  0.5505  0.5798 -0.2905
 5450SOL    HW217792   0.926   0.059  12.317 -0.1496 -0.3226  0.2587
 5451SOL     OW17793   1.155   0.176   0.666  0.2658  0.2542  0.2289
 5451SOL    HW117794   1.250   0.184   0.655  0.8365 -2.9150  1.7610
 5451SOL    HW217795   1.144   0.111   0.735 -3.0736  0.8598  0.4314
 5452SOL     OW17796   1.730   7.457  11.664 -0.5012 -0.2718  0.3267
 5452SOL    HW117797   1.667   7.522  11.694  2.4888  2.5244  1.0840
 5452SOL    HW217798   1.795   7.451  11.734  2.4047  0.3612 -2.0768
 5453SOL     OW17799   7.049   7.164  12.149  0.0476  0.3296 -0.0456
 5453SOL    HW117800   7.086   7.153  12.062  1.0537  0.1467  0.3848
 5453SOL    HW217801   7.055   7.258  12.167  1.0863  0.2017  0.3402
 5454SOL     OW17802   1.484   6.096  11.395 -0.0288  0.2606  0.5223
 5454SOL    HW117803   1.448   6.147  11.467 -2.3050  0.3306 -0.5705
 5454SOL    HW217804   1.409   6.050  11.358  1.4959 -1.7755 -0.2369
 5455SOL     OW17805   2.158   6.397  10.556 -0.1539  0.2971  0.8221
 5455SOL    HW117806   2.205   6.436  10.482  0.1136 -1.1623  0.1856
 5455SOL    HW217807   2.222   6.393  10.627  0.5056 -1.0556  0.1738
 5456SOL     OW17808   1.660   6.290  10.390 -0.1533  0.1355 -0.6466
 5456SOL    HW117809   1.689   6.199  10.389  1.4913  0.6006 -2.7811
 5456SOL    HW217810   1.588   6.293  10.328  0.3904  0.4410 -1.2721
 5457SOL     OW17811   1.301   7.109   0.279  0.0426 -0.2727 -0.2783
 5457SOL    HW117812   1.345   7.194   0.279 -0.2280 -0.1167 -1.1035
 5457SOL    HW217813   1.309   7.079   0.188 -2.7293  0.4075 -0.8389
 5458SOL     OW17814   1.722   7.245  12.449  0.1432 -0.9425  0.6631
 5458SOL    HW117815   1.739   7.151  12.444  0.5093 -0.8206 -2.2740
 5458SOL    HW217816   1.795   7.279  12.501  0.1629 -2.2064  1.5271
 5459SOL     OW17817   6.740   6.493  11.454 -0.1928  0.0996 -0.3562
 5459SOL    HW117818   6.712   6.432  11.522 -0.3740  0.7025  0.1106
 5459SOL    HW217819   6.810   6.446  11.408  0.6458  0.0707  0.8995
 5460SOL     OW17820   7.458   5.269   0.172  0.0899  0.3621 -0.3155
 5460SOL    HW117821   7.521   5.284   0.102  0.0376 -0.7422 -0.6085
 5460SOL    HW217822   7.481   5.335   0.238  1.2531  0.2924 -0.6186
 5461SOL     OW17823   1.081   0.346   1.018 -0.0829 -0.3507  0.1870
 5461SOL    HW117824   1.151   0.327   1.081  0.7923 -2.0150 -1.1826
 5461SOL    HW217825   1.124   0.399   0.951 -0.5294 -0.1132  0.0903
 5462SOL     OW17826   0.196   5.720   0.228 -0.5304  0.2163 -0.3290
 5462SOL    HW117827   0.214   5.662   0.302 -0.7766  1.1089  0.4415
 5462SOL    HW217828   0.131   5.672   0.176 -0.7148 -0.2164  0.2856
 5463SOL     OW17829   0.744   1.225  11.250  0.5129  0.0282  0.0189
 5463SOL    HW117830   0.704   1.312  11.249 -0.0670 -0.2261 -1.0974
 5463SOL    HW217831   0.723   1.190  11.336 -0.1811  0.5817  0.0861
 5464SOL     OW17832   1.900   6.912   0.407  0.3421  0.4794 -0.3641
 5464SOL    HW117833   1.990   6.923   0.438  0.4834 -0.5109 -0.4012
 5464SOL    HW217834   1.846   6.929   0.484  0.6210 -0.2039 -0.0050
 5465SOL     OW17835   7.278   6.398  10.531 -0.4112 -0.2525 -0.0140
 5465SOL    HW117836   7.269   6.412  10.626 -1.0861  0.7640 -0.2076
 5465SOL    HW217837   7.199   6.349  10.507 -1.2168  1.1442 -0.3333
 5466SOL     OW17838   7.381   7.568  11.657 -0.1822 -0.7671 -0.5016
 5466SOL    HW117839   7.347   7.607  11.738  0.2091  0.1758 -0.7742
 5466SOL    HW217840   7.303   7.538  11.610 -0.4237 -1.1642  0.1411
 5467SOL     OW17841   1.784   6.409  11.014  0.1494  0.1363 -0.2037
 5467SOL    HW117842   1.822   6.381  11.098  0.3377 -1.2869 -0.7313
 5467SOL    HW217843   1.819   6.346  10.950 -0.7878  0.5814 -1.1819
 5468SOL     OW17844   1.387   5.355   0.312  0.2011  0.3568  0.7179
 5468SOL    HW117845   1.299   5.379   0.285 -0.0159 -0.8469  0.2663
 5468SOL    HW217846   1.374   5.286   0.377  0.7878 -1.5291 -1.0559
 5469SOL     OW17847   1.411   5.219   9.760  0.0039 -0.0120  0.2748
 5469SOL    HW117848   1.360   5.279   9.815  0.5332 -0.4916  1.3130
 5469SOL    HW217849   1.491   5.268   9.740  0.8633 -0.6726  1.9085
 5470SOL     OW17850   1.085   5.279   1.307  0.1951  0.0221 -0.3612
 5470SOL    HW117851   1.066   5.232   1.225 -3.9149 -1.4607  1.2054
 5470SOL    HW217852   1.153   5.227   1.349  0.1675 -0.9253 -1.4335
 5471SOL     OW17853   1.884   7.037   0.699 -0.2117  0.4012  0.2257
 5471SOL    HW117854   1.907   6.966   0.759 -0.6513  0.2504  0.2203
 5471SOL    HW217855   1.968   7.078   0.677  0.5076 -1.9871 -2.1347
 5472SOL     OW17856   1.531   6.027  12.043 -0.7121  0.3127 -0.2165
 5472SOL    HW117857   1.479   5.950  12.068  0.2870  0.4728  2.7799
 5472SOL    HW217858   1.475   6.101  12.065 -0.7732  0.4893 -0.9340
 5473SOL     OW17859   6.620   6.691   0.469 -0.0478 -0.1827 -0.1224
 5473SOL    HW117860   6.550   6.754   0.449  0.1206  0.0007 -0.1469
 5473SOL    HW217861   6.697   6.729   0.427 -0.0289 -0.6186 -0.4914
 5474SOL     OW17862   1.458   6.409  12.477 -0.2375 -0.4791  0.0800
 5474SOL    HW117863   1.367   6.437  12.487 -0.2652 -0.4812 -0.1755
 5474SOL    HW217864   1.497   6.424  12.564  0.6799  3.6772 -0.8672
 5475SOL     OW17865   4.218   6.555   1.472 -0.2194 -0.4001 -0.1530
 5475SOL    HW117866   4.260   6.472   1.447 -0.5485 -0.8416  0.6956
 5475SOL    HW217867   4.248   6.618   1.407  0.4366 -1.0779 -0.5249
 5476SOL     OW17868   2.638   4.540  12.346 -0.6210  0.4641 -0.7340
 5476SOL    HW117869   2.627   4.547  12.440 -2.9284 -0.2132 -0.8923
 5476SOL    HW217870   2.658   4.629  12.317 -1.4159  0.9710  0.2386
 5477SOL     OW17871   0.602   7.121  10.784  0.1600 -0.1607  0.2423
 5477SOL    HW117872   0.626   7.209  10.756  0.1069  0.3381  1.6969
 5477SOL    HW217873   0.626   7.065  10.710  0.4118  1.0320 -0.6101
 5478SOL     OW17874   1.436   6.783   0.039 -0.1376  0.2060  0.0803
 5478SOL    HW117875   1.417   6.870   0.003 -0.6820  0.2222  0.3822
 5478SOL    HW217876   1.393   6.722  -0.021 -0.6904  0.2111  0.4580
 5479SOL     OW17877   5.841   7.966  11.275  0.0671  0.2722  0.0039
 5479SOL    HW117878   5.810   7.916  11.351  3.7965 -0.1062  1.5025
 5479SOL    HW217879   5.863   7.900  11.210  1.6200  0.1328  0.6191
 5480SOL     OW17880   1.025   6.035  12.337 -0.1027 -0.0666  0.0544
 5480SOL    HW117881   1.004   5.982  12.261 -0.8476  1.3724 -0.7807
 5480SOL    HW217882   0.941   6.061  12.373  0.2438 -0.3610  1.1230
 5481SOL     OW17883   2.016   6.196   1.199  0.0834  0.2079 -0.0505
 5481SOL    HW117884   2.099   6.148   1.207 -0.3142 -0.3557  0.8474
 5481SOL    HW217885   2.042   6.288   1.194  0.7102  0.2090  2.2584
 5482SOL     OW17886   0.852   6.327  11.385 -0.0101  0.1484 -0.0543
 5482SOL    HW117887   0.820   6.378  11.310 -0.6164  0.4640  0.4135
 5482SOL    HW217888   0.940   6.362  11.401 -0.2019  0.6650 -0.0892
 5483SOL     OW17889   6.323   7.277  11.381  0.1715  0.0724  0.4972
 5483SOL    HW117890   6.367   7.202  11.341 -0.9974 -0.2535 -0.2025
 5483SOL    HW217891   6.378   7.299  11.456  0.3311 -1.7332  0.9503
 5484SOL     OW17892   1.284   5.844   0.061  0.3472  0.2910  0.2997
 5484SOL    HW117893   1.368   5.888   0.074  0.9531 -1.1710  1.6676
 5484SOL    HW217894   1.307   5.759   0.022 -0.3570 -0.5165  1.5583
 5485SOL     OW17895   1.267   6.466  11.434 -0.3641 -0.0020 -0.2142
 5485SOL    HW117896   1.329   6.517  11.382 -0.8462  0.3048 -0.4982
 5485SOL    HW217897   1.181   6.498  11.407 -0.6266  1.6612  2.2296
 5486SOL     OW17898   0.140   6.738   0.680 -1.0171 -0.6694  0.5003
 5486SOL    HW117899   0.047   6.755   0.669 -0.8522 -1.1087 -2.3704
 5486SOL    HW217900   0.149   6.644   0.665  0.0455 -0.3735 -0.8754
 5487SOL     OW17901   1.090   5.357  10.748 -0.2119  0.7698  0.3001
 5487SOL    HW117902   1.133   5.358  10.834 -0.2143  3.6772  0.3851
 5487SOL    HW217903   1.001   5.327  10.766  0.1148  0.2552  1.1187
 5488SOL     OW17904   0.603   6.267  11.209  0.1961 -0.6597 -0.3001
 5488SOL    HW117905   0.637   6.217  11.284 -0.0687 -1.2086 -0.5411
 5488SOL    HW217906   0.656   6.237  11.135 -0.9653 -1.7339 -0.7395
 5489SOL     OW17907   0.436   5.423   0.666  0.1553 -0.0754  0.5546
 5489SOL    HW117908   0.463   5.411   0.575  1.7927  0.0148  0.9977
 5489SOL    HW217909   0.383   5.503   0.664  1.0983  0.5693 -0.1757
 5490SOL     OW17910   1.007   7.986  11.725 -0.4892 -0.7554 -0.4456
 5490SOL    HW117911   1.026   7.899  11.691 -0.7303 -0.7331 -0.6391
 5490SOL    HW217912   1.092   8.021  11.750 -0.4298 -1.2067  0.0174
 5491SOL     OW17913   7.775   7.655   0.752  0.1090  0.2701  0.4109
 5491SOL    HW117914   7.839   7.682   0.685 -0.9732  1.2834 -0.2437
 5491SOL    HW217915   7.731   7.580   0.713  1.0347 -0.5835  0.9638
 5492SOL     OW17916   6.900   5.406  11.722  0.2420 -0.7548  0.1618
 5492SOL    HW117917   6.975   5.449  11.763  0.2042 -1.7205  1.2886
 5492SOL    HW217918   6.862   5.474  11.665  0.2681  0.6753  1.7546
 5493SOL     OW17919   2.261   5.834  11.680  0.1434 -0.2811 -0.2754
 5493SOL    HW117920   2.211   5.842  11.761  1.2332  0.0423  0.3950
 5493SOL    HW217921   2.324   5.764  11.698 -2.3336 -3.3065 -2.3530
 5494SOL     OW17922   1.655   0.192  12.066  0.9488  0.0560  0.3251
 5494SOL    HW117923   1.628   0.113  12.020  2.9279 -1.5679  1.7626
 5494SOL    HW217924   1.712   0.237  12.003 -1.4683  1.3212 -1.1193
 5495SOL     OW17925   7.931   7.438   0.178 -0.4134  0.3482  0.0357
 5495SOL    HW117926   7.901   7.480   0.098  0.2001 -0.4016 -0.5959
 5495SOL    HW217927   7.984   7.505   0.222 -0.9829  0.8502 -0.0396
 5496SOL     OW17928   7.113   7.188  11.863  0.3688 -0.4930  0.7075
 5496SOL    HW117929   7.167   7.110  11.846  1.1840  0.2175 -0.0430
 5496SOL    HW217930   7.040   7.179  11.803  0.3407 -0.7842  0.7794
 5497SOL     OW17931   2.627   5.486  10.744 -0.7337 -0.7960 -0.0319
 5497SOL    HW117932   2.616   5.408  10.800 -1.1939 -0.4020  0.4362
 5497SOL    HW217933   2.538   5.516  10.727 -0.5943 -0.8397 -0.8998
 5498SOL     OW17934   2.239   6.209  12.236  0.6628  0.2655  0.3027
 5498SOL    HW117935   2.292   6.254  12.169  0.2704 -0.1706 -0.3135
 5498SOL    HW217936   2.217   6.277  12.299  0.6521  0.7882 -0.2596
 5499SOL     OW17937   8.000   4.563  10.904 -0.1474 -0.1615 -0.0916
 5499SOL    HW117938   8.008   4.585  10.997 -0.1389  0.7676 -0.3126
 5499SOL    HW217939   7.982   4.646  10.861 -0.3455 -0.6198 -0.9037
 5500SOL     OW17940   1.531   6.679   0.353 -0.0652 -0.4061 -0.1839
 5500SOL    HW117941   1.609   6.733   0.365  0.6552 -1.5322  0.3541
 5500SOL    HW217942   1.497   6.704   0.267  0.0572  1.1242  0.1961
 5501SOL     OW17943   1.473   6.320  12.030  0.0913 -0.2882 -0.1695
 5501SOL    HW117944   1.479   6.328  11.935  0.8417  1.4121 -0.0055
 5501SOL    HW217945   1.564   6.329  12.061 -0.0357 -1.5646  0.6873
 5502SOL     OW17946   0.533   4.359  11.899  0.0905  0.1317  0.1395
 5502SOL    HW117947   0.625   4.338  11.888  0.3390  1.5947 -0.8725
 5502SOL    HW217948   0.501   4.296  11.963  1.8882 -0.0994  0.8518
 5503SOL     OW17949   2.500   0.742   0.884 -0.5186  0.2111 -0.6158
 5503SOL    HW117950   2.480   0.812   0.945 -2.0738 -1.5308  1.0144
 5503SOL    HW217951   2.532   0.786   0.805  1.3911  2.5597  1.3502
 5504SOL     OW17952   0.792   6.789   0.126 -0.0301 -0.1366  0.0357
 5504SOL    HW117953   0.871   6.735   0.127  0.2422  0.2625  0.4050
 5504SOL    HW217954   0.723   6.732   0.159  0.0616 -0.5508 -0.4732
 5505SOL     OW17955   7.622   6.953   9.610  0.0742 -0.7459  1.1420
 5505SOL    HW117956   7.527   6.941   9.602  0.1052  0.1182 -2.4295
 5505SOL    HW217957   7.660   6.868   9.588  0.0988 -0.4055 -0.2159
 5506SOL     OW17958   1.997   5.917   0.352 -0.3982 -0.4353  0.5368
 5506SOL    HW117959   1.991   6.004   0.392  0.0088  0.2043 -0.7598
 5506SOL    HW217960   1.908   5.882   0.358 -0.6307  0.1811  0.7991
 5507SOL     OW17961   7.304   7.292  11.638  0.3353 -0.1431 -0.4395
 5507SOL    HW117962   7.223   7.285  11.687  1.2249  0.3507  1.1659
 5507SOL    HW217963   7.300   7.219  11.575 -0.9179 -0.6930  0.2307
 5508SOL     OW17964   0.588   5.625   0.471  0.3747  0.3966 -0.0883
 5508SOL    HW117965   0.552   5.541   0.441  1.1739 -0.3317  0.9325
 5508SOL    HW217966   0.514   5.667   0.516 -0.1041  0.3759 -0.8278
 5509SOL     OW17967   1.437   0.485  11.667 -0.5624 -0.5515 -0.4376
 5509SOL    HW117968   1.358   0.535  11.646 -0.9497 -1.1898 -0.5179
 5509SOL    HW217969   1.440   0.416  11.601  0.3789 -0.2020 -0.7825
 5510SOL     OW17970   0.766   5.069  11.246 -0.1433 -0.7476  0.2872
 5510SOL    HW117971   0.797   5.071  11.155 -1.4046 -0.4096 -0.1566
 5510SOL    HW217972   0.674   5.041  11.239 -1.1252  1.9261  1.1732
 5511SOL     OW17973   6.622   6.337  11.696 -0.2738 -0.6502  0.6006
 5511SOL    HW117974   6.578   6.390  11.764  1.4806 -0.8963  2.0067
 5511SOL    HW217975   6.613   6.247  11.727  0.3464 -0.7851  0.4003
 5512SOL     OW17976   7.763   5.842  11.065  0.0994 -0.2819 -0.3126
 5512SOL    HW117977   7.708   5.847  11.143  0.3922 -1.4582 -0.0128
 5512SOL    HW217978   7.703   5.851  10.992  0.0095  2.6677  0.0098
 5513SOL     OW17979   0.657   6.628   9.372  0.2126 -0.0836 -0.2287
 5513SOL    HW117980   0.659   6.602   9.279  1.1889  2.3056 -0.9322
 5513SOL    HW217981   0.564   6.642   9.390  0.0148 -0.4978 -0.8685
 5514SOL     OW17982   1.024   5.743  12.491  1.0938  0.1212 -0.0796
 5514SOL    HW117983   1.021   5.710  12.401  0.5341  0.8433 -0.3392
 5514SOL    HW217984   1.072   5.676  12.539 -0.2450 -1.2332 -0.5224
 5515SOL     OW17985   0.854   6.604   0.860  0.0246 -0.1578 -0.4569
 5515SOL    HW117986   0.782   6.663   0.882 -1.0364 -1.3800 -0.5011
 5515SOL    HW217987   0.843   6.587   0.766 -0.1691 -1.0215 -0.2894
 5516SOL     OW17988   1.876   5.120  12.380  0.3891 -0.5148  0.1119
 5516SOL    HW117989   1.954   5.150  12.427 -0.4326 -0.1177  1.2784
 5516SOL    HW217990   1.861   5.188  12.314  0.6971 -0.2917  0.2677
 5517SOL     OW17991   0.269   5.688  11.619  0.3263  0.1518  0.5046
 5517SOL    HW117992   0.299   5.685  11.528 -0.6870  1.0192  0.1185
 5517SOL    HW217993   0.335   5.640  11.668  0.6987 -0.6556 -0.7452
 5518SOL     OW17994   7.622   5.890  10.821  0.4897  0.0401 -0.1215
 5518SOL    HW117995   7.554   5.932  10.768 -0.7395 -2.7631 -0.9822
 5518SOL    HW217996   7.697   5.948  10.815 -0.7595  1.5777 -2.0161
 5519SOL     OW17997   2.126   4.849  12.231 -0.2629 -0.6522  0.5827
 5519SOL    HW117998   2.092   4.805  12.308 -0.4902  0.1291  0.9392
 5519SOL    HW217999   2.057   4.911  12.206  0.4546  0.2277  0.7069
 5520SOL     OW18000   0.477   7.339  10.607  0.1263  0.0651  0.2369
 5520SOL    HW118001   0.563   7.354  10.646 -0.2139  0.4428  0.8440
 5520SOL    HW218002   0.437   7.272  10.663 -0.0138 -0.0429  0.0081
 5521SOL     OW18003   1.342   5.226  12.389  0.1053 -0.0293  0.1281
 5521SOL    HW118004   1.284   5.263  12.323  1.3569 -0.9576 -1.5687
 5521SOL    HW218005   1.289   5.225  12.469 -1.9771 -0.1893 -1.1660
 5522SOL     OW18006   0.158   6.627  11.736  0.0909 -0.0610 -0.3947
 5522SOL    HW118007   0.171   6.671  11.652  0.8769  0.1320 -0.1717
 5522SOL    HW218008   0.088   6.564  11.718  0.9741 -0.7756 -1.4765
 5523SOL     OW18009   1.944   4.989   0.353  0.2100 -0.2741 -0.0683
 5523SOL    HW118010   1.921   4.975   0.261 -2.5564 -0.9273  0.6522
 5523SOL    HW218011   2.032   4.953   0.361 -0.1678 -1.8136 -2.0622
 5524SOL     OW18012   1.799   6.977  12.437  0.3340 -0.3771  0.3331
 5524SOL    HW118013   1.874   6.982  12.378  0.5138 -0.4726  0.5525
 5524SOL    HW218014   1.744   6.908  12.399  0.6867 -0.7750  0.5498
 5525SOL     OW18015   0.279   6.130   0.740  0.2907  0.3715 -0.0211
 5525SOL    HW118016   0.339   6.095   0.806  0.5894 -1.2296 -1.1077
 5525SOL    HW218017   0.243   6.054   0.697 -2.2958  1.2988  0.3234
 5526SOL     OW18018   0.576   3.827  10.453  0.1703  0.1814 -0.0991
 5526SOL    HW118019   0.503   3.811  10.393  0.5267 -2.8111  0.1450
 5526SOL    HW218020   0.649   3.854  10.397  0.2044 -1.5440 -0.9208
 5527SOL     OW18021   2.690   7.744  12.129 -0.0939  0.3987 -0.4755
 5527SOL    HW118022   2.757   7.803  12.092  1.6520 -0.5412  1.0174
 5527SOL    HW218023   2.695   7.666  12.074 -0.1807  0.4354 -0.5363
 5528SOL     OW18024   1.877   6.083  11.712 -0.3056 -0.8722 -0.0610
 5528SOL    HW118025   1.953   6.100  11.655 -0.2612 -1.0171 -0.0470
 5528SOL    HW218026   1.814   6.151  11.688 -0.2798 -0.9196 -0.2720
 5529SOL     OW18027   1.008   4.882  12.340  0.4456  0.0987 -0.1618
 5529SOL    HW118028   1.035   4.790  12.343 -2.8910 -1.0311 -0.4998
 5529SOL    HW218029   0.985   4.898  12.248 -1.7048  0.2951  0.3465
 5530SOL     OW18030   7.711   6.346  11.922  0.3098 -0.6153  0.4467
 5530SOL    HW118031   7.723   6.258  11.958  1.0579 -0.0252  1.7371
 5530SOL    HW218032   7.787   6.359  11.865 -0.8920 -1.5643 -1.4622
 5531SOL     OW18033   4.163   3.873  11.000  0.2283 -0.1422  0.0839
 5531SOL    HW118034   4.200   3.953  11.036 -0.6563  0.9184 -1.2423
 5531SOL    HW218035   4.232   3.808  11.010  1.3468  1.0299  0.3043
 5532SOL     OW18036   7.556   5.847  11.227 -0.5472 -0.2117 -0.3020
 5532SOL    HW118037   7.553   5.856  11.322 -0.8166  1.6091 -0.4543
 5532SOL    HW218038   7.482   5.789  11.206  0.4096 -1.8905  0.6746
 5533SOL     OW18039   1.488   4.717   1.106 -0.5251  0.2879 -0.3160
 5533SOL    HW118040   1.562   4.757   1.061  1.9969 -1.4942  1.9052
 5533SOL    HW218041   1.517   4.709   1.197 -3.6664 -0.1146  0.7829
 5534SOL     OW18042   7.956   6.284  11.814  0.1729  0.0433  1.1033
 5534SOL    HW118043   7.949   6.189  11.804 -0.0713  0.1336  0.2995
 5534SOL    HW218044   8.032   6.297  11.870  0.8824 -0.5954  0.3196
 5535SOL     OW18045   1.325   0.139  10.520  0.3669 -0.0250 -0.4869
 5535SOL    HW118046   1.318   0.047  10.497 -0.4203  0.1383 -0.9527
 5535SOL    HW218047   1.340   0.183  10.436 -2.5353  0.5889 -0.7657
 5536SOL     OW18048   0.118   6.577  12.219 -0.1058  0.2518 -0.0535
 5536SOL    HW118049   0.130   6.482  12.225 -0.2134  0.2294 -0.2027
 5536SOL    HW218050   0.074   6.601  12.301  0.3991  0.2475  0.2239
 5537SOL     OW18051   2.236   0.283   0.501 -0.2455  0.1385 -0.3193
 5537SOL    HW118052   2.193   0.215   0.450 -2.1397  1.3177 -0.4132
 5537SOL    HW218053   2.186   0.362   0.482 -0.3196  0.8787  2.4368
 5538SOL     OW18054   0.134   6.264   2.654 -0.2849 -0.3151 -0.1875
 5538SOL    HW118055   0.226   6.252   2.629  0.5928  0.9382  2.1185
 5538SOL    HW218056   0.124   6.212   2.734 -1.2427  0.4713  0.2336
 5539SOL     OW18057   2.092   1.684   1.606  0.7368  0.7272 -0.0048
 5539SOL    HW118058   2.013   1.738   1.609  1.1554  1.3635 -0.0002
 5539SOL    HW218059   2.097   1.654   1.515  0.1175  0.1014  0.1617
 5540SOL     OW18060   2.460   6.765  11.705  0.6637 -0.1505 -0.0082
 5540SOL    HW118061   2.485   6.719  11.786  0.6747  0.4415  0.3285
 5540SOL    HW218062   2.463   6.697  11.638 -0.3171 -0.8859  0.6551
 5541SOL     OW18063   0.938   7.369   0.891 -0.0557 -0.3328  1.2053
 5541SOL    HW118064   0.947   7.463   0.908  0.3090 -0.3724  1.2404
 5541SOL    HW218065   0.916   7.331   0.976 -2.1015 -0.0536  0.8514
 5542SOL     OW18066   0.071   6.958   0.932 -0.1587 -0.0155 -0.1825
 5542SOL    HW118067   0.021   6.899   0.988 -0.5654  0.0520 -0.4733
 5542SOL    HW218068   0.099   7.028   0.991 -2.1393  1.0303 -0.4055
 5543SOL     OW18069   7.355   0.324   2.057  0.2163  0.5815 -1.4090
 5543SOL    HW118070   7.423   0.317   1.991 -1.2688  1.8305 -3.1684
 5543SOL    HW218071   7.278   0.284   2.017 -0.1008 -1.0372  0.6215
 5544SOL     OW18072   0.473   4.322   2.743 -0.0208  0.5921  0.3563
 5544SOL    HW118073   0.534   4.263   2.699 -0.1337  0.8603 -0.1760
 5544SOL    HW218074   0.515   4.408   2.737  0.6008  0.4414  1.9749
 5545SOL     OW18075   0.896   7.812   3.471 -1.1604 -0.0554  0.0417
 5545SOL    HW118076   0.990   7.807   3.487 -1.3923 -0.9077  1.3424
 5545SOL    HW218077   0.877   7.905   3.460  0.0449  0.0196 -1.8006
 5546SOL     OW18078   1.509   1.727   2.431 -0.3134 -0.7859  0.0032
 5546SOL    HW118079   1.534   1.802   2.485  2.3298 -0.5321 -1.4252
 5546SOL    HW218080   1.502   1.654   2.493 -0.7398  0.1749  1.1117
 5547SOL     OW18081   1.147   2.566   2.143  0.8055  0.4616  0.3591
 5547SOL    HW118082   1.167   2.628   2.073  0.3794  1.9335  1.4866
 5547SOL    HW218083   1.200   2.489   2.123  1.7624  1.3879 -0.8116
 5548SOL     OW18084   1.203   7.835   1.550  0.1971 -0.4966 -0.0986
 5548SOL    HW118085   1.228   7.913   1.502  1.1735 -0.9928 -0.4182
 5548SOL    HW218086   1.231   7.851   1.640  1.5814 -0.9829 -0.4212
 5549SOL     OW18087   2.301   1.687   3.016  0.2189  0.1242  0.6586
 5549SOL    HW118088   2.387   1.645   3.016  0.2011  0.0870  0.9590
 5549SOL    HW218089   2.239   1.615   3.016  0.1817  0.1473 -0.5213
 5550SOL     OW18090   7.791   6.075   0.946 -0.7903  0.0299  0.2795
 5550SOL    HW118091   7.882   6.068   0.916 -0.5030  2.0907  0.5246
 5550SOL    HW218092   7.744   6.113   0.872 -1.1660  0.2632  0.6336
 5551SOL     OW18093   1.185   7.475   4.136 -0.1816  0.5440  0.3412
 5551SOL    HW118094   1.093   7.493   4.155 -0.6851 -0.9025 -0.6004
 5551SOL    HW218095   1.185   7.387   4.099  1.4525  0.9361 -0.6779
 5552SOL     OW18096   3.047   4.709  12.137 -0.1343  0.1820  0.1121
 5552SOL    HW118097   3.139   4.720  12.161  0.2215 -1.2745 -0.4719
 5552SOL    HW218098   2.999   4.746  12.211  0.8963  2.1351 -0.1528
 5553SOL     OW18099   1.370   4.677   3.351  0.1498 -0.2052 -0.4499
 5553SOL    HW118100   1.429   4.628   3.295 -0.4897 -1.8542  0.2440
 5553SOL    HW218101   1.382   4.639   3.438 -1.8514 -0.5726 -0.2763
 5554SOL     OW18102   2.044   6.345   0.342 -0.0238 -0.1287  0.2343
 5554SOL    HW118103   2.005   6.433   0.339  0.9224  0.3940  1.8282
 5554SOL    HW218104   2.127   6.357   0.389  0.1932 -1.8670  0.3649
 5555SOL     OW18105   0.876   7.063   3.116  0.3275 -0.1572 -0.0052
 5555SOL    HW118106   0.901   7.120   3.043 -0.0200 -2.2111 -1.8061
 5555SOL    HW218107   0.807   7.112   3.161 -0.7341  0.4421 -2.1285
 5556SOL     OW18108   1.834   7.445   2.344  0.2482 -0.0921  0.1408
 5556SOL    HW118109   1.870   7.507   2.408  0.5345 -0.4608  0.3389
 5556SOL    HW218110   1.792   7.377   2.397 -0.5946  0.2328 -0.0804
 5557SOL     OW18111   1.583   7.478   0.943  0.7626  0.1035 -0.1557
 5557SOL    HW118112   1.528   7.462   1.021  1.2982 -0.3410  0.1372
 5557SOL    HW218113   1.615   7.567   0.954  1.0530 -0.0486  0.2780
 5558SOL     OW18114   0.976   6.424  12.347 -0.3051  0.0441  0.8399
 5558SOL    HW118115   0.995   6.517  12.338  0.3171  0.1304  2.6345
 5558SOL    HW218116   0.990   6.387  12.259  0.6548  1.4152  0.3908
 5559SOL     OW18117   0.527   7.473   1.491 -0.4775 -0.1108  0.2431
 5559SOL    HW118118   0.484   7.554   1.518  0.4007  0.6488 -0.5610
 5559SOL    HW218119   0.608   7.502   1.449 -0.4073 -1.3794 -0.5401
 5560SOL     OW18120   1.289   0.337   1.200  0.4553  0.3162  0.3139
 5560SOL    HW118121   1.345   0.272   1.242  1.4844  0.5139 -0.6952
 5560SOL    HW218122   1.302   0.417   1.251 -1.6718 -0.4587  2.2585
 5561SOL     OW18123   1.019   7.896   3.796 -0.0435  0.3858  0.5107
 5561SOL    HW118124   0.945   7.935   3.749  0.1706  0.2307  0.0374
 5561SOL    HW218125   1.096   7.940   3.760  0.0970  0.5279  0.9843
 5562SOL     OW18126   1.274   6.515  12.064 -0.0489  0.3076 -0.5057
 5562SOL    HW118127   1.338   6.445  12.076 -1.3843 -0.9332 -0.3430
 5562SOL    HW218128   1.191   6.470  12.052 -1.0048  1.8825 -0.1113
 5563SOL     OW18129   1.775   0.963   0.402 -0.0431 -0.4919 -0.1973
 5563SOL    HW118130   1.871   0.962   0.397 -0.0720 -0.3006 -0.7853
 5563SOL    HW218131   1.755   1.034   0.463  0.1602  0.1385 -0.8544
 5564SOL     OW18132   0.876   1.822   2.465  0.3241 -0.0622 -0.0089
 5564SOL    HW118133   0.809   1.889   2.456  1.1455  0.9239  0.9527
 5564SOL    HW218134   0.898   1.821   2.558  2.5488  0.5822 -0.4665
 5565SOL     OW18135   0.228   7.141   1.290  0.3511  0.0856 -0.2060
 5565SOL    HW118136   0.269   7.082   1.353 -1.1138 -0.1160  0.6117
 5565SOL    HW218137   0.292   7.148   1.219  1.3855 -0.9246  0.5743
 5566SOL     OW18138   2.137   7.713   3.051  0.2626 -0.4015 -0.2588
 5566SOL    HW118139   2.181   7.664   3.120 -0.1274  1.3315  1.3265
 5566SOL    HW218140   2.054   7.741   3.091 -0.7810 -0.8058 -2.0399
 5567SOL     OW18141   1.441   7.706   1.179  0.0228 -0.2369 -0.0818
 5567SOL    HW118142   1.429   7.613   1.164 -1.9405 -0.2937  1.3827
 5567SOL    HW218143   1.370   7.747   1.128 -0.8402  0.2077  1.4209
 5568SOL     OW18144   1.423   7.467   1.657  0.5233  0.0598  0.6840
 5568SOL    HW118145   1.375   7.399   1.609  0.3874 -0.4758  1.5522
 5568SOL    HW218146   1.425   7.542   1.598  0.5613 -0.6594 -0.2488
 5569SOL     OW18147   0.406   0.639   1.932  0.4255 -0.1020  0.1727
 5569SOL    HW118148   0.437   0.729   1.924 -1.3053  0.3754 -2.7125
 5569SOL    HW218149   0.319   0.647   1.969  1.0299 -0.8332  1.8390
 5570SOL     OW18150   1.344   7.115   2.013 -0.0663  0.1601 -0.2618
 5570SOL    HW118151   1.264   7.160   2.040  0.0545  1.3159 -1.6527
 5570SOL    HW218152   1.354   7.043   2.075 -0.7538  1.5359  1.5369
 5571SOL     OW18153   1.546   7.553   0.617  0.1152  0.3034 -0.3920
 5571SOL    HW118154   1.601   7.548   0.540 -0.1036  3.1556 -0.8621
 5571SOL    HW218155   1.456   7.556   0.583  0.0246  1.7686 -0.1052
 5572SOL     OW18156   0.420   7.984   1.460 -0.4644 -0.1396 -0.2695
 5572SOL    HW118157   0.399   8.037   1.536  1.6741  0.4091  0.0142
 5572SOL    HW218158   0.430   8.046   1.388 -1.1159 -0.5157 -0.7011
 5573SOL     OW18159   0.652   7.535   0.890  0.4589 -0.0227 -0.2317
 5573SOL    HW118160   0.615   7.497   0.970 -2.7544  1.2455 -0.9688
 5573SOL    HW218161   0.682   7.622   0.916 -1.1482  0.6279 -0.4754
 5574SOL     OW18162   0.664   7.677  12.297  0.1813  0.8150  0.1588
 5574SOL    HW118163   0.711   7.598  12.272  0.0625  0.5820  0.6755
 5574SOL    HW218164   0.604   7.693  12.224 -1.0883 -0.5962  0.8428
 5575SOL     OW18165   7.253   7.485   1.318 -0.4105 -0.0320  0.0473
 5575SOL    HW118166   7.312   7.455   1.249 -0.4187  0.2223 -0.0718
 5575SOL    HW218167   7.266   7.580   1.321 -0.6227 -0.0078  0.1995
 5576SOL     OW18168   1.735   7.565   1.527  0.1322  0.3274  0.1180
 5576SOL    HW118169   1.718   7.659   1.528  0.2001  0.3400  0.3321
 5576SOL    HW218170   1.653   7.525   1.556  0.2881  0.3573  0.6219
 5577SOL     OW18171   1.612   0.984   1.981 -0.0846  0.1608  0.2764
 5577SOL    HW118172   1.695   1.031   1.972  1.1641 -1.6213  1.6510
 5577SOL    HW218173   1.596   0.947   1.894 -0.1561  1.6049 -0.3426
 5578SOL     OW18174   0.883   0.652   1.626 -0.0012 -0.0108  0.5529
 5578SOL    HW118175   0.963   0.646   1.677  0.0367  2.2899  0.8717
 5578SOL    HW218176   0.835   0.571   1.646  0.8948 -0.0606  2.6683
 5579SOL     OW18177   0.790   0.952   2.076  0.9217 -0.2112 -0.3179
 5579SOL    HW118178   0.865   0.926   2.129 -0.1594 -3.4975 -0.1383
 5579SOL    HW218179   0.714   0.922   2.126 -0.3345  0.2271 -1.8798
 5580SOL     OW18180   6.768   7.439   1.218 -0.0704  0.0977 -0.2142
 5580SOL    HW118181   6.764   7.533   1.201 -0.5703  0.3622  1.1981
 5580SOL    HW218182   6.740   7.430   1.309  0.5591 -1.3679 -0.1358
 5581SOL     OW18183   1.937   0.211   2.109 -0.9372  0.1328 -0.1794
 5581SOL    HW118184   1.867   0.161   2.068 -1.3460  0.8865 -0.4239
 5581SOL    HW218185   2.013   0.196   2.053 -1.1288  0.0072 -0.4101
 5582SOL     OW18186   7.562   7.969   0.018  0.5559  0.1415  0.0731
 5582SOL    HW118187   7.652   7.944   0.035  0.2820 -0.0708  1.2966
 5582SOL    HW218188   7.568   8.054  -0.025  1.3014  0.6499  1.1491
 5583SOL     OW18189   0.765   7.929   0.757  0.3816  0.0606 -0.0146
 5583SOL    HW118190   0.681   7.966   0.783 -0.7698 -1.8380 -0.8408
 5583SOL    HW218191   0.744   7.867   0.687  1.7704 -3.8955  2.7245
 5584SOL     OW18192   1.588   0.092   0.906 -0.0143 -0.0630  0.3269
 5584SOL    HW118193   1.546   0.178   0.911 -0.7826 -0.4640  0.9132
 5584SOL    HW218194   1.547   0.050   0.831 -0.0256 -0.1321  0.3723
 5585SOL     OW18195   0.914   6.894   2.274 -0.1492 -0.2413 -0.2363
 5585SOL    HW118196   0.971   6.891   2.197  0.0473 -0.0679 -0.0995
 5585SOL    HW218197   0.835   6.938   2.243 -1.3415 -2.8247 -1.1404
 5586SOL     OW18198   7.891   0.559   2.220 -0.3167  0.2811  0.6644
 5586SOL    HW118199   7.959   0.606   2.172 -0.8775  0.4150 -0.0215
 5586SOL    HW218200   7.925   0.470   2.229 -1.2259 -0.4880 -2.2817
 5587SOL     OW18201   1.011   7.965   1.127 -0.0485 -0.4103  0.5610
 5587SOL    HW118202   1.012   7.973   1.222 -0.4374  0.8733  0.4731
 5587SOL    HW218203   0.919   7.957   1.105 -0.1647  1.6068  0.1507
 5588SOL     OW18204   1.341   0.340   0.218 -0.1880  0.6393 -0.4440
 5588SOL    HW118205   1.389   0.350   0.136 -0.0582 -0.0785 -0.4596
 5588SOL    HW218206   1.368   0.415   0.271 -0.5623  1.3163 -1.1896
 5589SOL     OW18207   1.953   7.985   3.673 -0.3085 -0.0144 -0.7501
 5589SOL    HW118208   1.936   8.074   3.641 -1.1403  0.7688  1.6274
 5589SOL    HW218209   1.869   7.940   3.666 -0.5014  0.1711  0.2935
 5590SOL     OW18210   0.379   7.916  11.965  0.1354 -0.2577 -0.2712
 5590SOL    HW118211   0.380   7.840  12.023 -0.2553 -0.5869 -0.6905
 5590SOL    HW218212   0.448   7.973  11.999 -0.2633 -0.3219  0.6707
 5591SOL     OW18213   1.788   7.149   2.165  0.3026  0.3443 -0.4984
 5591SOL    HW118214   1.861   7.180   2.112 -0.3447  1.2973 -0.8760
 5591SOL    HW218215   1.808   7.178   2.254  0.7894 -0.1493 -0.4466
 5592SOL     OW18216   1.370   1.071   1.230  0.0564  0.0986 -0.5358
 5592SOL    HW118217   1.405   1.074   1.141  1.1163 -1.9177 -0.2215
 5592SOL    HW218218   1.275   1.064   1.218  0.2137 -0.4861 -1.5134
 5593SOL     OW18219   2.739   7.689   0.551 -0.3789 -0.0787 -0.1741
 5593SOL    HW118220   2.800   7.617   0.564  1.4487  1.2123 -1.0542
 5593SOL    HW218221   2.738   7.703   0.456  0.2122  1.7172  0.0299
 5594SOL     OW18222   0.575   0.322   1.096 -0.0020 -0.7419  0.1089
 5594SOL    HW118223   0.546   0.413   1.103 -1.6794 -0.8110 -3.5577
 5594SOL    HW218224   0.670   0.327   1.110  0.2081  1.9123 -1.4401
 5595SOL     OW18225   2.090   7.205   2.078  0.5369  0.7285 -0.6015
 5595SOL    HW118226   2.105   7.194   1.985  1.0492  3.2380 -0.8685
 5595SOL    HW218227   2.157   7.151   2.120  0.0816 -0.7069 -1.6201
 5596SOL     OW18228   1.265   6.729   2.041 -0.4224 -0.0017 -0.3677
 5596SOL    HW118229   1.253   6.796   2.108 -1.4300 -0.6495  0.1203
 5596SOL    HW218230   1.340   6.760   1.989  0.1123  0.7069  0.7940
 5597SOL     OW18231   0.661   6.811   1.651  0.4411  0.2137 -0.2696
 5597SOL    HW118232   0.599   6.738   1.660  0.0824  0.0379 -3.0410
 5597SOL    HW218233   0.707   6.814   1.734 -0.7542 -2.0482  0.5745
 5598SOL     OW18234   1.831   5.814   3.703  0.7128 -0.4405 -0.0303
 5598SOL    HW118235   1.923   5.841   3.704  0.6779 -0.3217  0.7833
 5598SOL    HW218236   1.821   5.762   3.783  0.0277 -0.3130 -0.0286
 5599SOL     OW18237   1.116   7.386   2.554 -0.6418 -0.9275  0.0584
 5599SOL    HW118238   1.051   7.440   2.599 -1.0836 -0.6522 -0.8766
 5599SOL    HW218239   1.200   7.424   2.578 -0.9284 -0.0229 -0.3157
 5600SOL     OW18240   1.907   0.582   0.743 -0.8797 -0.4547  0.5679
 5600SOL    HW118241   1.844   0.609   0.810 -2.0244  0.6214 -0.8661
 5600SOL    HW218242   1.853   0.567   0.664  0.6623  0.7025 -0.7672
 5601SOL     OW18243   1.352   7.297   0.845 -0.8788 -0.4573 -0.1143
 5601SOL    HW118244   1.292   7.372   0.844 -1.6465 -1.0618 -0.1676
 5601SOL    HW218245   1.332   7.251   0.927 -0.3086 -0.5323 -0.0094
 5602SOL     OW18246   2.159   1.441  11.935  0.4572 -0.0586 -0.0934
 5602SOL    HW118247   2.085   1.478  11.887  0.2724 -0.8865 -0.4614
 5602SOL    HW218248   2.158   1.486  12.019 -0.3088  0.1231 -0.1943
 5603SOL     OW18249   7.730   0.729   2.985  0.2512 -0.1463 -0.0842
 5603SOL    HW118250   7.744   0.814   2.943  0.7207  0.2469  0.8518
 5603SOL    HW218251   7.818   0.695   3.000  0.0686 -1.0177 -0.8455
 5604SOL     OW18252   0.531   0.436   2.118  0.4639 -0.0178 -0.1044
 5604SOL    HW118253   0.457   0.487   2.086  0.7211 -0.1975 -1.0339
 5604SOL    HW218254   0.552   0.474   2.203  0.6062  1.3983 -0.7409
 5605SOL     OW18255   0.239   0.548   3.340 -0.1432  0.2478  0.4159
 5605SOL    HW118256   0.217   0.484   3.408  0.0938 -0.4577 -0.1547
 5605SOL    HW218257   0.334   0.542   3.331  0.3299  2.9750  2.5665
 5606SOL     OW18258   6.971   0.108   1.065  0.3283 -0.7569 -0.1734
 5606SOL    HW118259   7.040   0.067   1.118 -0.4927 -0.7731  0.9248
 5606SOL    HW218260   6.944   0.184   1.116 -0.6809 -0.9257 -0.4378
 5607SOL     OW18261   4.249   7.166   1.734  0.0303 -0.3192  0.0376
 5607SOL    HW118262   4.159   7.173   1.702 -0.0106  0.5393  0.3241
 5607SOL    HW218263   4.245   7.100   1.803 -0.4002 -0.2209  0.1101
 5608SOL     OW18264   1.571   6.692   2.310  0.2876  0.2272 -0.3582
 5608SOL    HW118265   1.593   6.767   2.255 -0.9845  0.7558 -0.1881
 5608SOL    HW218266   1.494   6.720   2.360  2.4992  0.5398  3.2336
 5609SOL     OW18267   0.574   1.863   3.035  0.2641  0.3801 -0.3660
 5609SOL    HW118268   0.650   1.916   3.060  0.6888  0.2522 -1.3603
 5609SOL    HW218269   0.500   1.924   3.040 -0.0430 -0.0869  3.0947
 5610SOL     OW18270   0.328   7.668   1.907  0.1190 -0.2416  0.2267
 5610SOL    HW118271   0.279   7.603   1.857 -0.4155  0.3046  0.0307
 5610SOL    HW218272   0.416   7.631   1.914  0.0466 -0.5967 -0.6136
 5611SOL     OW18273   0.658   7.465   3.005  0.3670 -0.5140  0.0547
 5611SOL    HW118274   0.616   7.498   3.085 -0.4408  0.4123 -0.7343
 5611SOL    HW218275   0.602   7.395   2.975 -0.3815  0.3935 -0.7243
 5612SOL     OW18276   0.899   0.136   2.515 -0.2145 -0.1221 -0.1476
 5612SOL    HW118277   0.856   0.206   2.563  0.7779 -0.3274  1.0909
 5612SOL    HW218278   0.899   0.166   2.424 -0.3079  1.2227  0.2751
 5613SOL     OW18279   1.778   0.011   4.256 -0.0244 -0.0361 -0.0006
 5613SOL    HW118280   1.872   0.005   4.274  0.0902  0.7426 -0.2816
 5613SOL    HW218281   1.761  -0.062   4.197  0.9045  1.1094 -1.8176
 5614SOL     OW18282   2.347   7.450   3.685 -0.3194 -0.8824  0.1222
 5614SOL    HW118283   2.392   7.522   3.729 -1.1962 -0.5041  0.4219
 5614SOL    HW218284   2.409   7.421   3.618  0.3799 -0.4001  0.5431
 5615SOL     OW18285   7.815   6.731   3.124  0.5404  0.0399 -0.8165
 5615SOL    HW118286   7.878   6.736   3.052  1.0382 -0.1726 -0.4000
 5615SOL    HW218287   7.731   6.750   3.083  1.0466  1.8729 -1.1159
 5616SOL     OW18288   1.529   6.070   3.378  0.3741 -0.1987  0.4362
 5616SOL    HW118289   1.509   6.065   3.471  1.6949 -0.3058  0.7332
 5616SOL    HW218290   1.470   6.138   3.345 -0.3295 -0.3770  1.2767
 5617SOL     OW18291   2.855   7.984   2.568 -0.3371  0.5395  0.6703
 5617SOL    HW118292   2.834   7.908   2.514 -1.7655  1.7960 -0.6268
 5617SOL    HW218293   2.881   7.947   2.652 -0.5163 -1.3916 -0.0757
 5618SOL     OW18294   2.361   7.919   3.218  0.5930  0.1393 -0.1912
 5618SOL    HW118295   2.386   7.993   3.163  1.5560 -0.8018 -1.0590
 5618SOL    HW218296   2.443   7.891   3.259  0.5475 -1.4332 -1.1190
 5619SOL     OW18297   7.690   0.537   3.585  0.2205  0.2302  0.0284
 5619SOL    HW118298   7.669   0.445   3.566  0.7805  0.1919 -0.4340
 5619SOL    HW218299   7.610   0.573   3.622  0.3340 -0.7478  1.3150
 5620SOL     OW18300   0.691   6.840   0.996 -0.7731  0.4557  0.1648
 5620SOL    HW118301   0.759   6.862   1.059 -1.2375  2.4227  0.0267
 5620SOL    HW218302   0.641   6.770   1.039  1.2541 -1.0188  0.2764
 5621SOL     OW18303   1.912   6.822   3.518  0.0337 -0.0166 -0.5129
 5621SOL    HW118304   1.862   6.740   3.524 -0.0223  0.0531 -0.0055
 5621SOL    HW218305   1.962   6.813   3.437  2.7820 -2.1179  1.2495
 5622SOL     OW18306   7.058   7.440   2.686 -0.6495  0.0544  0.1635
 5622SOL    HW118307   7.003   7.371   2.724 -1.0500  0.6077  0.5982
 5622SOL    HW218308   7.040   7.435   2.592  0.3062 -1.2866  0.0220
 5623SOL     OW18309   1.110   7.220   3.732 -0.1112 -0.1083  0.0679
 5623SOL    HW118310   1.058   7.279   3.677  0.5199  1.9722  1.5783
 5623SOL    HW218311   1.167   7.173   3.670 -0.4723  1.0445 -1.1833
 5624SOL     OW18312   1.356   7.438   2.704  0.0646 -0.4817 -0.8357
 5624SOL    HW118313   1.369   7.374   2.774 -0.1915 -0.0765 -0.4017
 5624SOL    HW218314   1.421   7.415   2.637  1.7015  0.3081  0.3944
 5625SOL     OW18315   6.804   6.871   1.824 -0.3525 -0.1490 -0.6250
 5625SOL    HW118316   6.843   6.953   1.794  0.3412 -1.0200 -2.2603
 5625SOL    HW218317   6.795   6.819   1.744 -4.7859 -0.1150 -0.3977
 5626SOL     OW18318   2.746   5.496   3.686 -0.3339  0.1726 -0.2304
 5626SOL    HW118319   2.658   5.490   3.721 -1.5369 -0.0159 -3.0376
 5626SOL    HW218320   2.766   5.408   3.655  0.9821  0.1598  0.5593
 5627SOL     OW18321   0.391   0.920   3.323  0.4503  0.2708 -0.1168
 5627SOL    HW118322   0.315   0.977   3.322  0.2547  0.0235  0.2849
 5627SOL    HW218323   0.433   0.933   3.238  0.1156  0.6135 -0.2292
 5628SOL     OW18324   7.509   0.662   2.577 -0.1338  1.0869 -0.4221
 5628SOL    HW118325   7.434   0.611   2.545 -0.8051  1.8946 -0.1872
 5628SOL    HW218326   7.494   0.750   2.541  0.4314  1.3799  0.0560
 5629SOL     OW18327   1.262   6.673   3.016 -0.3368  0.5993 -0.2845
 5629SOL    HW118328   1.176   6.638   3.042 -0.8276  0.3352 -2.1341
 5629SOL    HW218329   1.253   6.768   3.026 -1.0444  0.6174 -1.0042
 5630SOL     OW18330   2.861   1.433   3.890  0.2763  0.4639  0.7747
 5630SOL    HW118331   2.941   1.434   3.838  0.7334 -0.2131  1.4520
 5630SOL    HW218332   2.887   1.470   3.974 -0.4451  1.4989  0.5663
 5631SOL     OW18333   1.498   7.712   2.666  0.1253 -0.1554 -0.5785
 5631SOL    HW118334   1.583   7.743   2.695  0.8316  1.4740 -3.9115
 5631SOL    HW218335   1.517   7.659   2.588 -1.8485 -0.5461 -0.8496
 5632SOL     OW18336   7.768   7.990   3.841  0.1684  0.0832  0.2326
 5632SOL    HW118337   7.765   8.081   3.870  0.4041  0.3148 -0.4718
 5632SOL    HW218338   7.692   7.980   3.784 -1.1124 -0.7517  1.9642
 5633SOL     OW18339   0.335   7.939   1.863 -0.0424  0.5893 -0.3304
 5633SOL    HW118340   0.368   7.960   1.950  2.4606 -0.3822 -0.9646
 5633SOL    HW218341   0.334   7.843   1.861 -0.1265  0.6052 -1.3416
 5634SOL     OW18342   1.687   6.827   3.740 -0.0420  0.2394 -0.0163
 5634SOL    HW118343   1.778   6.855   3.738 -0.0882  0.3130 -1.4563
 5634SOL    HW218344   1.683   6.765   3.813  1.1439  0.2689  0.0855
 5635SOL     OW18345   1.238   7.686   5.329 -0.0090 -0.0779 -0.1605
 5635SOL    HW118346   1.273   7.683   5.240 -0.3306 -1.9066 -0.2688
 5635SOL    HW218347   1.152   7.643   5.322 -0.1500 -0.0125  0.9855
 5636SOL     OW18348   7.154   0.135   3.441  0.1452  0.2361  0.0334
 5636SOL    HW118349   7.071   0.175   3.416 -0.0573 -0.0678  0.2111
 5636SOL    HW218350   7.154   0.050   3.397  0.6883  0.5280 -0.5490
 5637SOL     OW18351   0.873   0.424   2.044  0.1748 -0.5947 -0.1552
 5637SOL    HW118352   0.879   0.502   2.099  1.6544  0.8243 -2.1699
 5637SOL    HW218353   0.797   0.440   1.988  0.8870 -0.2294 -1.0453
 5638SOL     OW18354   0.585   0.196   4.265 -0.1823  0.6877  0.2283
 5638SOL    HW118355   0.531   0.137   4.213 -0.4385  0.6161  0.5747
 5638SOL    HW218356   0.525   0.264   4.295 -0.2320  0.2488  1.1676
 5639SOL     OW18357   2.947   7.845   2.184  0.6352  0.1721 -0.1280
 5639SOL    HW118358   2.860   7.811   2.203  0.3601  0.3275 -1.0394
 5639SOL    HW218359   2.997   7.832   2.265 -1.0173  2.7032  1.4339
 5640SOL     OW18360   1.398   7.581   3.012  0.9781 -0.4450 -0.4266
 5640SOL    HW118361   1.487   7.558   2.986  2.7048  1.9483  2.7577
 5640SOL    HW218362   1.389   7.547   3.101 -0.8930  0.3453 -0.2583
 5641SOL     OW18363   0.943   0.199   1.865  0.0613  0.0261  0.6109
 5641SOL    HW118364   0.929   0.256   1.941 -1.4050  0.8184 -0.1968
 5641SOL    HW218365   0.971   0.116   1.902  1.4638  1.0182  1.8881
 5642SOL     OW18366   1.780   5.839   4.640  0.2291  0.2335 -0.6377
 5642SOL    HW118367   1.723   5.815   4.567  0.8515 -0.0839 -1.0303
 5642SOL    HW218368   1.721   5.850   4.714 -0.5920  1.9501 -1.4849
 5643SOL     OW18369   1.295   7.070   1.743 -0.0853 -0.0075 -0.5254
 5643SOL    HW118370   1.382   7.109   1.731 -0.7423  1.5196 -0.5705
 5643SOL    HW218371   1.276   7.083   1.836  0.0219 -1.0122 -0.3486
 5644SOL     OW18372   0.185   7.111   4.152  0.0055 -0.2194  0.3447
 5644SOL    HW118373   0.136   7.044   4.199 -1.0527  1.4863  1.8333
 5644SOL    HW218374   0.267   7.120   4.201 -0.3184  0.2872  0.8134
 5645SOL     OW18375   0.781   7.839   5.015 -0.3276 -0.5200 -0.9219
 5645SOL    HW118376   0.812   7.924   5.046  0.0921 -0.7049 -0.8350
 5645SOL    HW218377   0.749   7.857   4.926  1.2519 -0.5712 -1.5373
 5646SOL     OW18378   0.418   0.698   3.894  0.0490 -0.2617 -0.1294
 5646SOL    HW118379   0.409   0.628   3.958  0.1330 -0.0031  0.1710
 5646SOL    HW218380   0.367   0.669   3.818  0.2740 -0.7472 -0.0949
 5647SOL     OW18381   1.848   7.079   3.765  0.0342 -0.1445  0.3541
 5647SOL    HW118382   1.755   7.103   3.765  0.1048  0.1305  0.8039
 5647SOL    HW218383   1.887   7.139   3.701  0.0897  0.4913  0.9696
 5648SOL     OW18384   2.264   7.925   2.299 -0.5243 -0.1896  0.4462
 5648SOL    HW118385   2.197   7.915   2.366 -0.8370 -3.6068 -0.1898
 5648SOL    HW218386   2.215   7.936   2.218 -0.1693  2.1532  0.4963
 5649SOL     OW18387   2.698   0.708   3.319 -0.1131 -0.5556 -0.5395
 5649SOL    HW118388   2.762   0.674   3.256 -0.4149  0.6382 -1.5215
 5649SOL    HW218389   2.634   0.755   3.266 -0.4975  0.3033  0.6454
 5650SOL     OW18390   1.592   7.671   3.540 -0.2928  0.0301 -0.4818
 5650SOL    HW118391   1.534   7.614   3.592  1.0092 -0.3943  0.5880
 5650SOL    HW218392   1.599   7.627   3.456 -0.5649 -0.5567 -0.2061
 5651SOL     OW18393   2.692   0.333   2.483 -0.0898 -0.4553 -0.3285
 5651SOL    HW118394   2.609   0.362   2.521 -0.4912 -0.0573 -1.4466
 5651SOL    HW218395   2.756   0.397   2.514  0.0879 -1.5239  1.6299
 5652SOL     OW18396   1.170   0.293   3.324  0.1148  0.6641 -0.0646
 5652SOL    HW118397   1.155   0.212   3.274 -0.5533  0.3670  0.5994
 5652SOL    HW218398   1.167   0.265   3.415  1.0052  1.2579  0.1608
 5653SOL     OW18399   1.695   6.616   3.393 -0.1534  0.3280 -0.2170
 5653SOL    HW118400   1.707   6.594   3.485 -0.9632 -2.1297 -0.6028
 5653SOL    HW218401   1.704   6.532   3.348  1.4149  1.6214 -2.5357
 5654SOL     OW18402   7.997   5.768   2.592 -0.5355 -0.3782  0.2459
 5654SOL    HW118403   8.003   5.772   2.687  0.6187  0.1640  0.1772
 5654SOL    HW218404   8.079   5.726   2.565 -0.5174  0.1411 -0.5426
 5655SOL     OW18405   7.041   0.130   0.581 -0.1093  0.2711  0.2845
 5655SOL    HW118406   7.054   0.225   0.572 -1.9108  0.5157 -0.3107
 5655SOL    HW218407   6.970   0.111   0.520 -0.2230 -1.3561  0.8898
 5656SOL     OW18408   1.377   7.900   4.737 -0.3228 -0.1332 -0.1196
 5656SOL    HW118409   1.406   7.831   4.796 -1.8461 -0.0412  0.7794
 5656SOL    HW218410   1.327   7.960   4.793 -0.3051  0.8973 -1.1685
 5657SOL     OW18411   2.187   6.534   4.183 -0.1874 -0.2131  0.0231
 5657SOL    HW118412   2.150   6.618   4.154 -0.5345  0.3206  1.9260
 5657SOL    HW218413   2.281   6.545   4.174 -0.2284  0.4170  0.3445
 5658SOL     OW18414   7.908   5.993   1.574  0.3144  0.5967 -0.1124
 5658SOL    HW118415   7.870   6.080   1.559  0.7516  0.4638 -2.2079
 5658SOL    HW218416   7.861   5.960   1.651 -1.8519  1.5603 -0.9329
 5659SOL     OW18417   2.317   7.648   4.713  0.2629  0.2806 -0.1540
 5659SOL    HW118418   2.378   7.682   4.647 -0.9413  0.9125 -0.9876
 5659SOL    HW218419   2.294   7.724   4.766 -1.6598  0.6514 -1.3937
 5660SOL     OW18420   0.815   0.812   3.503  0.5225  0.0320  0.1470
 5660SOL    HW118421   0.773   0.897   3.513 -1.0567 -0.8960  2.1415
 5660SOL    HW218422   0.893   0.817   3.559  0.1458  0.0104  0.6809
 5661SOL     OW18423   7.929   6.318   0.994  0.8536  0.1452  0.0746
 5661SOL    HW118424   8.012   6.286   1.029  0.1122 -0.2289  1.5887
 5661SOL    HW218425   7.863   6.261   1.034 -0.1311  0.3315 -1.2215
 5662SOL     OW18426   1.467   7.005   3.267 -0.4948 -0.1059 -0.0126
 5662SOL    HW118427   1.379   6.986   3.234 -1.1080  2.4568 -0.0717
 5662SOL    HW218428   1.497   7.079   3.214  0.9518  0.2366  1.2103
 5663SOL     OW18429   2.629   5.926   4.957 -0.2700  0.3600 -0.1119
 5663SOL    HW118430   2.670   5.860   4.900 -1.2133 -0.6640  0.3555
 5663SOL    HW218431   2.701   5.983   4.983  0.7765 -1.0681  0.2620
 5664SOL     OW18432   2.384   0.241   2.867 -0.0263  0.0627 -0.2745
 5664SOL    HW118433   2.395   0.286   2.951 -0.2727  2.1538 -1.2909
 5664SOL    HW218434   2.303   0.191   2.877 -0.2966  0.6479  0.6006
 5665SOL     OW18435   2.137   0.179   2.978 -0.3902  0.0234 -0.2465
 5665SOL    HW118436   2.106   0.089   2.972  2.4860 -0.9538 -2.1243
 5665SOL    HW218437   2.085   0.227   2.913  0.1329 -0.9618 -1.4092
 5666SOL     OW18438   2.050   6.524   3.478 -0.4785  0.8574  0.8584
 5666SOL    HW118439   2.135   6.497   3.514 -0.1402  1.2764  0.3879
 5666SOL    HW218440   2.015   6.445   3.436  1.2523  1.4542 -1.9626
 5667SOL     OW18441   0.668   0.878   3.987 -0.2495  0.0830 -0.4526
 5667SOL    HW118442   0.636   0.855   4.074 -0.2737 -4.2799 -1.3553
 5667SOL    HW218443   0.763   0.883   3.997 -0.2767 -0.0519 -0.1152
 5668SOL     OW18444   7.531   0.432   4.397  0.2450  0.1102 -0.2665
 5668SOL    HW118445   7.503   0.443   4.488 -0.1277  1.4846 -0.5276
 5668SOL    HW218446   7.489   0.351   4.369 -0.0850 -0.0351  0.6141
 5669SOL     OW18447   1.116   6.948   4.741  0.5400  0.7024  0.4287
 5669SOL    HW118448   1.091   6.856   4.749 -0.4975  0.9641  0.2622
 5669SOL    HW218449   1.080   6.990   4.819 -2.4050  1.6876 -1.3161
 5670SOL     OW18450   1.606   1.067   6.026  0.1310 -0.6139 -0.0750
 5670SOL    HW118451   1.649   1.027   6.102 -1.0009 -0.7924  0.4926
 5670SOL    HW218452   1.560   1.143   6.062 -1.1781 -1.2232 -0.3906
 5671SOL     OW18453   1.714   7.400   5.553 -0.1276  0.5097  0.4138
 5671SOL    HW118454   1.731   7.308   5.532  1.1319  0.5036  1.3704
 5671SOL    HW218455   1.786   7.448   5.513 -1.8597  1.3694 -1.8948
 5672SOL     OW18456   1.038   7.269   4.436 -0.3790 -0.2848  0.4432
 5672SOL    HW118457   0.984   7.304   4.366 -0.0205 -1.2381 -0.3281
 5672SOL    HW218458   1.121   7.247   4.394 -0.1805 -0.9336  1.1506
 5673SOL     OW18459   7.647   0.013   4.433  0.5312  0.6787  0.3667
 5673SOL    HW118460   7.713  -0.013   4.368  0.4662  1.1109  0.1273
 5673SOL    HW218461   7.650  -0.056   4.499  0.6350  0.2583 -0.0707
 5674SOL     OW18462   0.490   7.210   4.599 -0.4342 -0.2411 -0.2668
 5674SOL    HW118463   0.568   7.178   4.644 -0.5274 -0.9071 -0.5608
 5674SOL    HW218464   0.520   7.286   4.549 -0.4644  0.9232  1.3945
 5675SOL     OW18465   7.766   6.781   5.374 -0.6607 -0.4058 -0.4376
 5675SOL    HW118466   7.723   6.766   5.458  1.5829  1.5437  1.1620
 5675SOL    HW218467   7.716   6.853   5.334 -1.1673 -0.7275 -0.4025
 5676SOL     OW18468   7.723   7.405   4.614  0.4828 -0.3625  0.1201
 5676SOL    HW118469   7.791   7.440   4.672  0.2355  1.8554 -0.7967
 5676SOL    HW218470   7.768   7.388   4.532 -0.2299  2.8032 -1.0753
 5677SOL     OW18471   0.876   7.803   5.938 -0.4527 -0.4672 -0.1920
 5677SOL    HW118472   0.956   7.782   5.986 -2.0808 -0.7085  2.6753
 5677SOL    HW218473   0.836   7.875   5.987 -0.6776  1.6594 -3.1960
 5678SOL     OW18474   0.904   0.565   6.884 -0.4737 -0.4427  0.1535
 5678SOL    HW118475   0.857   0.641   6.849 -0.6009 -1.2813 -1.6706
 5678SOL    HW218476   0.982   0.557   6.828  0.6536 -0.4220  1.6802
 5679SOL     OW18477   7.290   7.319   6.091  0.1182 -0.6186 -0.1989
 5679SOL    HW118478   7.315   7.339   6.181  1.6404 -0.2475 -0.6744
 5679SOL    HW218479   7.260   7.228   6.094 -0.1720 -0.4957  0.7450
 5680SOL     OW18480   0.929   0.193   5.816  0.1005  0.3476 -0.4867
 5680SOL    HW118481   0.860   0.259   5.821 -0.4414 -0.3031  1.2121
 5680SOL    HW218482   0.926   0.161   5.725 -2.4580 -0.3273 -0.2229
 5681SOL     OW18483   2.087   7.473   5.842  0.4598  0.1918 -0.3338
 5681SOL    HW118484   2.047   7.558   5.860 -1.1783 -0.3977 -1.0223
 5681SOL    HW218485   2.074   7.423   5.922 -0.7523 -0.2030 -0.7724
 5682SOL     OW18486   1.532   1.392   5.833 -0.0864  0.4583 -0.5630
 5682SOL    HW118487   1.500   1.302   5.838  0.7515  0.1831 -0.0330
 5682SOL    HW218488   1.455   1.446   5.853 -0.1971 -0.1948  0.8561
 5683SOL     OW18489   7.752   6.139   6.587 -0.1475 -0.6626  0.4308
 5683SOL    HW118490   7.718   6.226   6.566  0.8293  0.2085  2.2392
 5683SOL    HW218491   7.833   6.133   6.536 -0.9235 -1.1248 -0.7936
 5684SOL     OW18492   2.009   6.871   5.196  0.6796  0.0252  0.1490
 5684SOL    HW118493   2.016   6.797   5.257  1.1744  0.0534  0.1305
 5684SOL    HW218494   1.988   6.831   5.112  2.8410 -0.2827 -0.2865
 5685SOL     OW18495   1.723   6.477   3.644 -0.2193 -0.5421 -0.0892
 5685SOL    HW118496   1.702   6.496   3.736  0.3596 -1.1221  0.1672
 5685SOL    HW218497   1.818   6.465   3.643 -0.1243  0.1638 -0.8949
 5686SOL     OW18498   0.345   7.090   6.370  0.6620  0.3217 -0.0646
 5686SOL    HW118499   0.356   6.995   6.368 -1.3681  0.0089  0.6857
 5686SOL    HW218500   0.281   7.109   6.301  0.3754  1.0140  0.3705
 5687SOL     OW18501   1.546   0.967   4.281 -0.2378 -0.0804  0.2300
 5687SOL    HW118502   1.514   0.879   4.301 -0.9740 -0.0669 -0.8307
 5687SOL    HW218503   1.598   0.991   4.358  2.7308 -2.7026 -0.7273
 5688SOL     OW18504   7.676   6.989   4.368 -0.4121  0.4258 -0.0203
 5688SOL    HW118505   7.740   6.922   4.389  1.1835  1.3300 -1.6114
 5688SOL    HW218506   7.625   6.952   4.296  0.1978  0.7186 -0.6208
 5689SOL     OW18507   7.797   0.091   4.735  0.1423 -0.4784 -0.4344
 5689SOL    HW118508   7.872   0.032   4.743 -0.0965 -0.7968 -0.5235
 5689SOL    HW218509   7.745   0.075   4.814  0.3553  0.0138 -0.1864
 5690SOL     OW18510   1.997   7.943   6.305 -0.0450 -0.0738  0.4635
 5690SOL    HW118511   2.064   7.876   6.307 -0.0582 -0.0704  1.6569
 5690SOL    HW218512   2.017   7.995   6.227  0.1364 -1.2655 -0.3074
 5691SOL     OW18513   0.017   1.527   6.153  0.2290 -0.6317  0.6162
 5691SOL    HW118514   0.109   1.499   6.155  0.2875 -0.7063 -1.3532
 5691SOL    HW218515  -0.027   1.460   6.101 -0.8195 -0.2228  0.9482
 5692SOL     OW18516   0.848   7.720   3.215 -0.5831 -0.1176  0.0576
 5692SOL    HW118517   0.864   7.754   3.303  0.1090 -0.3269  0.0178
 5692SOL    HW218518   0.768   7.765   3.186  0.0092  1.0746  0.2063
 5693SOL     OW18519   1.968   7.210   4.576 -0.0167  0.3958  0.0440
 5693SOL    HW118520   1.942   7.124   4.543 -0.8198 -0.2650  2.1933
 5693SOL    HW218521   1.914   7.272   4.528 -0.7283 -0.4439 -0.2628
 5694SOL     OW18522   0.278   7.057   5.919  0.0042  0.3512 -0.2269
 5694SOL    HW118523   0.252   6.966   5.917 -1.6900  0.8184 -1.2590
 5694SOL    HW218524   0.256   7.087   6.008 -0.2606 -0.0163 -0.1704
 5695SOL     OW18525   7.451   7.495   4.730 -0.2802  0.4106 -0.2050
 5695SOL    HW118526   7.487   7.529   4.813 -0.9443 -1.0475  0.7191
 5695SOL    HW218527   7.526   7.493   4.671 -0.0269  2.5864 -0.0392
 5696SOL     OW18528   1.118   7.269   5.269  0.5893 -0.0877  0.0026
 5696SOL    HW118529   1.092   7.362   5.269 -0.9467 -0.4922  0.2000
 5696SOL    HW218530   1.195   7.267   5.212 -0.3384  1.0709 -1.4079
 5697SOL     OW18531   6.601   7.627   2.859 -0.0710 -0.3335 -0.1865
 5697SOL    HW118532   6.574   7.539   2.885 -2.2704 -0.0909 -1.4902
 5697SOL    HW218533   6.522   7.680   2.863  0.9557  1.3324 -0.6059
 5698SOL     OW18534   0.990   7.562   6.757  0.0243 -0.0326 -0.0078
 5698SOL    HW118535   0.985   7.532   6.847  1.0813 -1.0663 -0.2741
 5698SOL    HW218536   1.001   7.482   6.705  0.1342  0.5987 -0.9874
 5699SOL     OW18537   7.971   7.753   7.168 -0.1703  0.1424 -0.0211
 5699SOL    HW118538   8.026   7.814   7.119 -0.0736 -0.4687 -0.6924
 5699SOL    HW218539   8.028   7.679   7.186 -0.7014 -0.4175 -0.5624
 5700SOL     OW18540   0.133   6.860   6.491  0.6366 -0.1021 -0.1332
 5700SOL    HW118541   0.202   6.795   6.504  1.0441  0.5461  1.0100
 5700SOL    HW218542   0.123   6.865   6.395  0.8502 -1.5602 -0.2586
 5701SOL     OW18543   6.881   7.898   5.355 -0.2063  0.2658 -0.1985
 5701SOL    HW118544   6.806   7.871   5.301 -0.1330 -1.9047  0.6522
 5701SOL    HW218545   6.928   7.961   5.301 -2.1475  1.0166 -1.1214
 5702SOL     OW18546   1.171   7.775   3.486  0.2205  0.0219 -0.2344
 5702SOL    HW118547   1.243   7.823   3.526  0.1489  1.3966 -1.6588
 5702SOL    HW218548   1.214   7.705   3.437  0.3498 -1.1692  1.5072
 5703SOL     OW18549   7.439   6.767   4.728 -0.1909 -0.4173 -0.1375
 5703SOL    HW118550   7.368   6.830   4.743 -1.5014 -1.8476 -0.1914
 5703SOL    HW218551   7.487   6.765   4.811 -2.4604 -2.1438  1.2424
 5704SOL     OW18552   0.787   0.017   3.710 -0.8100  0.3170 -0.4617
 5704SOL    HW118553   0.738   0.090   3.672  0.8171  0.9156 -1.4962
 5704SOL    HW218554   0.737  -0.061   3.684 -0.4287  0.7868 -2.8898
 5705SOL     OW18555   1.270   7.236   3.252 -0.3763 -0.3522 -0.1845
 5705SOL    HW118556   1.363   7.249   3.232  0.2025 -0.1713  2.3443
 5705SOL    HW218557   1.235   7.324   3.263 -0.8650 -0.4239 -1.0438
 5706SOL     OW18558   2.103   0.738   4.687 -0.4197  0.0974 -0.0479
 5706SOL    HW118559   2.099   0.645   4.664 -0.7886  0.3537 -1.0737
 5706SOL    HW218560   2.046   0.781   4.624 -1.8021  0.8241  1.6099
 5707SOL     OW18561   2.060   6.767   5.962  0.1443 -0.6083 -0.4118
 5707SOL    HW118562   2.146   6.744   5.997  0.4750  0.5384 -0.4158
 5707SOL    HW218563   2.002   6.767   6.039  0.3584 -0.4178 -0.2511
 5708SOL     OW18564   1.244   7.204   6.736 -0.4986  0.1994  0.1311
 5708SOL    HW118565   1.314   7.268   6.722 -1.3869  1.3936  0.8988
 5708SOL    HW218566   1.288   7.126   6.771  0.5613  0.5334 -0.4495
 5709SOL     OW18567   1.204   7.038   6.249  0.2624  0.0502  0.0942
 5709SOL    HW118568   1.140   7.087   6.197  0.6503  0.4421 -0.0187
 5709SOL    HW218569   1.288   7.057   6.208  0.4517 -0.5006  0.2160
 5710SOL     OW18570   7.161   1.150   5.167  0.2368 -0.3108  0.1505
 5710SOL    HW118571   7.135   1.202   5.243  0.9021 -0.6932  0.6458
 5710SOL    HW218572   7.255   1.162   5.161  0.2975 -0.9306 -0.1385
 5711SOL     OW18573   7.538   7.953   5.243  0.1035  0.2502  0.1007
 5711SOL    HW118574   7.476   7.920   5.308 -0.2775  1.0384  0.1484
 5711SOL    HW218575   7.507   7.917   5.160 -0.1431  0.2632  0.1867
 5712SOL     OW18576   1.856   7.257   4.189 -0.1042 -0.0757 -0.0310
 5712SOL    HW118577   1.894   7.214   4.113  0.7098  1.0098 -0.2737
 5712SOL    HW218578   1.762   7.252   4.175  0.0396  0.4787 -1.3440
 5713SOL     OW18579   0.620   0.046   4.863 -0.1666  0.4477  0.4901
 5713SOL    HW118580   0.529   0.075   4.855  0.1731  1.6203  0.7458
 5713SOL    HW218581   0.667   0.094   4.795  0.6571  1.6618  1.8547
 5714SOL     OW18582   0.966   2.365   5.205 -0.2557 -0.0620  0.1447
 5714SOL    HW118583   0.916   2.292   5.242  0.5820 -0.3136  0.8169
 5714SOL    HW218584   0.939   2.441   5.256  0.2208 -0.2433  0.6790
 5715SOL     OW18585   1.835   7.799   5.483  0.7797 -0.0927 -0.1686
 5715SOL    HW118586   1.822   7.803   5.578  0.2444 -0.7000 -0.2080
 5715SOL    HW218587   1.911   7.854   5.467  0.4222  0.6387  0.5291
 5716SOL     OW18588   1.079   7.496   5.901 -0.0973  0.0567  0.4017
 5716SOL    HW118589   1.145   7.440   5.940 -0.4420 -0.5375  0.1441
 5716SOL    HW218590   1.106   7.585   5.923  1.9434 -0.0316 -1.4309
 5717SOL     OW18591   7.735   0.657   3.934 -0.3345 -0.4334  0.5044
 5717SOL    HW118592   7.707   0.748   3.935  0.7112 -0.0385 -1.5269
 5717SOL    HW218593   7.670   0.612   3.880  0.1611 -0.5227 -0.0218
 5718SOL     OW18594   0.092   0.669   5.551  0.1269 -0.6018 -0.5475
 5718SOL    HW118595   0.023   0.622   5.505  0.2761 -1.3768  0.0053
 5718SOL    HW218596   0.150   0.699   5.482 -0.1143 -0.9929 -0.9295
 5719SOL     OW18597   0.158   5.422   6.313 -0.0548  0.0626  0.2153
 5719SOL    HW118598   0.164   5.375   6.396 -0.6474 -1.1694 -0.4004
 5719SOL    HW218599   0.101   5.367   6.259  3.3138 -1.2279 -2.3292
 5720SOL     OW18600   7.800   7.511   6.467 -0.1314 -0.0930  0.3563
 5720SOL    HW118601   7.872   7.506   6.404  0.0939 -0.3064  0.6259
 5720SOL    HW218602   7.807   7.429   6.517 -1.3477 -0.7261 -0.4558
 5721SOL     OW18603   0.682   7.048   3.360 -0.1834 -0.2158 -0.0439
 5721SOL    HW118604   0.650   7.004   3.439  0.3830 -0.9296 -0.2012
 5721SOL    HW218605   0.668   6.985   3.290  0.8599 -0.2479 -0.2362
 5722SOL     OW18606   7.003   7.157   4.600 -0.1963 -0.1849  0.4821
 5722SOL    HW118607   6.983   7.144   4.692 -0.1278  0.3078  0.5717
 5722SOL    HW218608   6.991   7.251   4.586  0.4492 -0.1445  0.1522
 5723SOL     OW18609   0.066   7.973   4.731 -0.1974  0.2583 -0.1884
 5723SOL    HW118610   0.047   7.934   4.646  0.4756  0.3464 -0.3870
 5723SOL    HW218611   0.148   8.021   4.717 -0.3006  0.6103  0.4034
 5724SOL     OW18612   1.711   6.894   5.496  0.0552  0.2508 -0.3640
 5724SOL    HW118613   1.751   6.850   5.571 -0.9252 -0.8757 -0.4749
 5724SOL    HW218614   1.666   6.824   5.449  1.0222  0.8406 -2.2823
 5725SOL     OW18615   0.171   0.340   3.510 -0.8873  0.6449  0.1987
 5725SOL    HW118616   0.076   0.325   3.506 -0.9580  1.1350 -0.0149
 5725SOL    HW218617   0.209   0.258   3.478 -1.1910 -0.1153  1.6608
 5726SOL     OW18618   2.397   5.800   5.414 -0.2817 -0.0489 -0.5150
 5726SOL    HW118619   2.417   5.825   5.324 -0.0817  1.2835 -0.1293
 5726SOL    HW218620   2.482   5.797   5.457 -0.5233  1.5562  0.1439
 5727SOL     OW18621   2.115   6.728   5.686  0.0683  1.0252  0.0257
 5727SOL    HW118622   2.179   6.663   5.714  1.1078  1.5678 -1.0408
 5727SOL    HW218623   2.067   6.750   5.766  1.1531  0.5475  0.8250
 5728SOL     OW18624   1.931   1.511   3.765 -0.1854  0.1723 -0.3663
 5728SOL    HW118625   1.867   1.448   3.732  1.0314 -0.6158 -1.3341
 5728SOL    HW218626   2.002   1.509   3.701  1.2905  0.2219  1.1822
 5729SOL     OW18627   0.776   5.391   5.116  0.0218  0.1577 -0.0274
 5729SOL    HW118628   0.872   5.392   5.113  0.0925  3.2746 -0.5770
 5729SOL    HW218629   0.750   5.380   5.024 -0.1077  0.5349 -0.0369
 5730SOL     OW18630   0.202   7.940   3.650 -0.0947 -0.0662  0.5797
 5730SOL    HW118631   0.129   8.000   3.664 -1.8675 -1.9194 -0.1854
 5730SOL    HW218632   0.177   7.889   3.572  0.8092 -2.4402  1.7270
 5731SOL     OW18633   0.693   7.807   4.279  0.1721  0.4099  0.3673
 5731SOL    HW118634   0.763   7.852   4.328  0.1033 -0.1852  1.0370
 5731SOL    HW218635   0.644   7.760   4.347  0.7042 -1.2871 -0.3919
 5732SOL     OW18636   1.912   6.965   4.462  0.3115 -0.1544  0.4067
 5732SOL    HW118637   1.945   6.993   4.376 -0.2968 -2.7592 -0.7689
 5732SOL    HW218638   1.957   6.883   4.479  1.3467  0.8836  3.2560
 5733SOL     OW18639   0.272   0.569   6.038  0.4790 -0.0770  0.0539
 5733SOL    HW118640   0.238   0.656   6.061 -0.0022 -0.0286 -0.7981
 5733SOL    HW218641   0.215   0.539   5.967  1.5177 -0.4913 -0.6290
 5734SOL     OW18642   7.179   6.517   5.386  0.7507 -0.2483 -0.4502
 5734SOL    HW118643   7.195   6.423   5.396 -0.0990 -0.5210 -1.5283
 5734SOL    HW218644   7.266   6.556   5.398  0.9192 -1.0261  1.3008
 5735SOL     OW18645   0.139   0.402   6.985 -0.4419 -0.5322 -0.4749
 5735SOL    HW118646   0.182   0.319   6.969  0.2728 -0.3577  0.4580
 5735SOL    HW218647   0.119   0.402   7.079 -0.2154  0.4436 -0.4117
 5736SOL     OW18648   0.425   1.309   6.432 -0.5258 -0.3795 -0.0249
 5736SOL    HW118649   0.519   1.302   6.448 -0.5627 -0.8518 -0.0008
 5736SOL    HW218650   0.400   1.224   6.398 -0.3566  0.7065 -3.1778
 5737SOL     OW18651   2.564   6.707   5.980 -0.1946 -0.3668  0.1875
 5737SOL    HW118652   2.624   6.632   5.981  0.5297  0.2092  0.4546
 5737SOL    HW218653   2.619   6.781   6.005 -0.7774  0.3480 -0.6305
 5738SOL     OW18654   0.310   7.950   7.173 -0.1162  0.3132 -0.3249
 5738SOL    HW118655   0.238   7.937   7.112  0.8678 -0.8327 -1.2739
 5738SOL    HW218656   0.326   8.045   7.170 -1.0966  0.4862 -0.6347
 5739SOL     OW18657   0.563   7.857   7.146  0.1982 -0.1907  0.5579
 5739SOL    HW118658   0.471   7.878   7.158  0.0965 -1.2076  1.7719
 5739SOL    HW218659   0.600   7.934   7.102 -1.3383 -0.0294 -0.5331
 5740SOL     OW18660   7.810   7.755   7.819 -0.5569  0.1362  0.4766
 5740SOL    HW118661   7.816   7.688   7.752 -1.1378  2.1627 -1.7380
 5740SOL    HW218662   7.863   7.828   7.785 -1.2239  1.3949  2.0020
 5741SOL     OW18663   1.114   6.355   6.260 -0.0214 -0.2842  0.7921
 5741SOL    HW118664   1.120   6.389   6.170 -0.8763 -0.6970  0.5666
 5741SOL    HW218665   1.153   6.267   6.254  0.4110 -0.1083  0.9521
 5742SOL     OW18666   1.655   7.481   7.221  0.0304  0.1176 -0.0886
 5742SOL    HW118667   1.699   7.400   7.247  0.6205  0.1545 -0.9223
 5742SOL    HW218668   1.626   7.520   7.303  1.6238  0.1362  0.4972
 5743SOL     OW18669   1.302   1.105   7.859  0.1538 -0.0829  0.1482
 5743SOL    HW118670   1.365   1.158   7.908  1.4385 -0.5332 -0.9538
 5743SOL    HW218671   1.306   1.139   7.770  0.1528 -1.2700 -0.3227
 5744SOL     OW18672   7.707   0.282   9.255 -0.1973 -0.6909  0.2552
 5744SOL    HW118673   7.678   0.354   9.199 -0.7521 -0.1663  1.1831
 5744SOL    HW218674   7.794   0.308   9.285 -1.0326  0.3876  1.8609
 5745SOL     OW18675   0.013   0.965   5.572  0.0994 -0.3474 -0.3542
 5745SOL    HW118676  -0.071   0.972   5.528 -0.2382 -1.5469  0.0559
 5745SOL    HW218677   0.016   0.875   5.604  0.8303  0.1424  1.0453
 5746SOL     OW18678   3.795   0.641   9.635  0.4518  0.2161  0.1441
 5746SOL    HW118679   3.794   0.707   9.704 -0.4771 -0.9751  1.3069
 5746SOL    HW218680   3.713   0.593   9.645  1.2337 -1.3250 -0.4589
 5747SOL     OW18681   0.506   5.322   5.749 -0.0558  0.0248 -0.9773
 5747SOL    HW118682   0.493   5.359   5.662 -1.6859  2.2870  0.1549
 5747SOL    HW218683   0.434   5.260   5.759 -0.2893  0.2983 -0.9628
 5748SOL     OW18684   7.523   7.592   7.838  0.1701  0.5481  0.0941
 5748SOL    HW118685   7.443   7.636   7.866 -0.6233 -1.4407  1.1568
 5748SOL    HW218686   7.593   7.635   7.887 -0.5881  0.5701  1.1860
 5749SOL     OW18687   2.467   7.620   6.851  0.1339  0.6690  0.1972
 5749SOL    HW118688   2.390   7.651   6.804  2.0380  0.4317 -3.4153
 5749SOL    HW218689   2.513   7.700   6.877 -0.0251  0.8370 -0.0320
 5750SOL     OW18690   1.090   7.169   7.878 -0.2426  1.0714 -0.1538
 5750SOL    HW118691   1.163   7.185   7.818  0.8319 -0.0629  0.7978
 5750SOL    HW218692   1.068   7.077   7.864 -2.0533  1.5885 -0.9863
 5751SOL     OW18693   7.955   7.172   5.219  0.4350  0.0425  0.5516
 5751SOL    HW118694   7.981   7.124   5.297  0.4837 -0.3738  0.2849
 5751SOL    HW218695   7.917   7.105   5.161 -0.2644  0.4601  0.5110
 5752SOL     OW18696   1.042   7.475   7.351 -0.1041  0.2278  0.5117
 5752SOL    HW118697   1.091   7.393   7.350 -0.7535 -0.2033 -2.0826
 5752SOL    HW218698   0.961   7.456   7.304 -0.5975  2.1650  0.4916
 5753SOL     OW18699   1.866   7.043   6.550  0.0711 -0.2810  0.4042
 5753SOL    HW118700   1.885   6.950   6.537  0.3999 -0.3001  1.0019
 5753SOL    HW218701   1.899   7.085   6.470  0.1472 -0.6473  0.2412
 5754SOL     OW18702   6.250   7.264   5.139  0.1942 -1.1142  0.3031
 5754SOL    HW118703   6.261   7.249   5.045 -3.0780 -0.4083 -0.3122
 5754SOL    HW218704   6.243   7.176   5.177 -0.3213 -1.4041 -0.4354
 5755SOL     OW18705   7.755   7.174   5.520  0.2089 -0.1221 -0.5950
 5755SOL    HW118706   7.693   7.198   5.451 -0.7993  2.3551  1.0346
 5755SOL    HW218707   7.707   7.113   5.576 -0.1627  0.4660 -0.2684
 5756SOL     OW18708   7.114   7.634   4.941 -0.0246 -0.4349  0.5404
 5756SOL    HW118709   7.205   7.617   4.967 -0.7131 -3.7357  1.2663
 5756SOL    HW218710   7.064   7.564   4.984 -2.6458  0.0355 -1.5267
 5757SOL     OW18711   0.355   7.471   7.818  0.3569  0.1878  0.2355
 5757SOL    HW118712   0.356   7.398   7.879  0.0364  0.4903  0.6080
 5757SOL    HW218713   0.327   7.432   7.735 -0.8827  0.0718  0.6866
 5758SOL     OW18714   0.889   0.647   8.191  0.5400 -0.1408  0.8859
 5758SOL    HW118715   0.947   0.581   8.231  2.3492  1.1624  0.5511
 5758SOL    HW218716   0.946   0.694   8.130 -1.3767  0.0366 -0.8443
 5759SOL     OW18717   0.501   6.645   5.969 -0.2420 -0.0367  0.1176
 5759SOL    HW118718   0.499   6.672   5.877  1.3568  1.0549  0.3612
 5759SOL    HW218719   0.449   6.711   6.014  1.9751  1.6098  0.4332
 5760SOL     OW18720   0.609   7.239   6.719 -0.2355  0.0227  0.3631
 5760SOL    HW118721   0.609   7.242   6.814 -0.4328  0.5111  0.3528
 5760SOL    HW218722   0.517   7.226   6.695 -0.4515  1.6052  0.2101
 5761SOL     OW18723   7.504   5.266   7.376 -0.1878  0.9671  0.5115
 5761SOL    HW118724   7.503   5.271   7.280  0.8514 -0.8885  0.3501
 5761SOL    HW218725   7.490   5.173   7.395  1.1039  1.0563  2.1037
 5762SOL     OW18726   1.151   0.069   5.379 -0.3481  0.1438  0.8371
 5762SOL    HW118727   1.067   0.064   5.424 -0.3701 -1.3664  0.7017
 5762SOL    HW218728   1.194   0.146   5.416 -1.1787  0.0796  2.0019
 5763SOL     OW18729   1.337   7.434   7.102  0.0085 -0.0146  0.5680
 5763SOL    HW118730   1.356   7.461   7.192  0.3665 -0.9796  0.7955
 5763SOL    HW218731   1.330   7.338   7.107  0.6295 -0.1334 -0.5339
 5764SOL     OW18732   7.674   7.981   6.998 -0.8271 -0.6027  0.6181
 5764SOL    HW118733   7.705   8.057   7.047  1.9581 -1.5311  0.4355
 5764SOL    HW218734   7.710   7.905   7.045 -2.1527 -1.7630 -0.1384
 5765SOL     OW18735   1.148   6.469   8.850 -0.4851  0.1727 -0.2290
 5765SOL    HW118736   1.079   6.483   8.916 -1.8972 -1.2445 -1.3448
 5765SOL    HW218737   1.108   6.493   8.767  1.5464  2.7670 -0.5866
 5766SOL     OW18738   0.514   6.279   4.866 -0.1592  0.0854  0.3009
 5766SOL    HW118739   0.483   6.303   4.954  0.4873  1.7087  0.1181
 5766SOL    HW218740   0.452   6.319   4.806  0.6204  0.8649 -0.0098
 5767SOL     OW18741   7.635   6.670   6.227  0.3610  0.2286  0.3992
 5767SOL    HW118742   7.579   6.706   6.159  0.6511  0.9450  0.5319
 5767SOL    HW218743   7.597   6.584   6.247 -0.8710  0.8202  0.6910
 5768SOL     OW18744   6.435   7.597   6.413  0.2951 -0.0652  0.3521
 5768SOL    HW118745   6.442   7.506   6.386  2.4343  0.3184 -0.5465
 5768SOL    HW218746   6.346   7.623   6.386 -0.2339 -1.7619  0.3637
 5769SOL     OW18747   3.660   7.601   6.442 -0.0305  0.2659  0.4669
 5769SOL    HW118748   3.688   7.520   6.486  1.4549  0.4732 -0.0335
 5769SOL    HW218749   3.713   7.604   6.363 -1.9951  0.3803 -0.9059
 5770SOL     OW18750   0.092   7.699   6.757 -0.0760 -0.2011  0.8607
 5770SOL    HW118751   0.089   7.622   6.700  1.7568 -0.4007  0.9527
 5770SOL    HW218752   0.018   7.753   6.729  0.2519 -0.6924 -1.1447
 5771SOL     OW18753   1.714   1.263   6.432 -0.2507  0.3222  0.3059
 5771SOL    HW118754   1.765   1.260   6.513 -0.3069  1.8722  0.4333
 5771SOL    HW218755   1.751   1.336   6.383 -1.4233  0.5910 -0.2309
 5772SOL     OW18756   1.465   7.870   6.738  0.4858 -0.2481 -0.3505
 5772SOL    HW118757   1.373   7.844   6.726  0.7319 -1.5214  0.2919
 5772SOL    HW218758   1.500   7.875   6.649  0.1969 -1.3761 -0.5446
 5773SOL     OW18759   0.153   7.567   7.233  0.3939 -0.0384 -0.0352
 5773SOL    HW118760   0.241   7.560   7.196  0.8852 -0.9913  1.2351
 5773SOL    HW218761   0.142   7.486   7.284 -2.0869 -1.0738 -1.9679
 5774SOL     OW18762   0.924   7.555   8.133  0.4966 -0.0342 -0.1439
 5774SOL    HW118763   0.962   7.508   8.059  0.2846  1.0685 -0.9731
 5774SOL    HW218764   0.835   7.577   8.105  0.3810  0.3207  0.4754
 5775SOL     OW18765   7.739   6.432   9.052 -0.5075  0.4829  0.0688
 5775SOL    HW118766   7.677   6.362   9.073 -0.9311  0.6815 -0.5064
 5775SOL    HW218767   7.706   6.508   9.099  0.5200  0.0637  1.5229
 5776SOL     OW18768   1.238   7.759   5.034 -0.4523  0.4955 -0.7444
 5776SOL    HW118769   1.219   7.829   5.096 -1.2715  0.6795 -1.1887
 5776SOL    HW218770   1.183   7.778   4.958 -0.5901 -0.5417 -0.9302
 5777SOL     OW18771   2.221   7.028   8.069  0.0989 -0.1098 -0.2027
 5777SOL    HW118772   2.171   6.947   8.059 -0.2430  0.2186 -1.3479
 5777SOL    HW218773   2.229   7.040   8.164 -2.4834  0.1264  0.0451
 5778SOL     OW18774   6.809   6.579   7.100  0.7379  0.2936 -0.3025
 5778SOL    HW118775   6.745   6.634   7.145  1.0483 -0.6664  1.3938
 5778SOL    HW218776   6.799   6.602   7.007 -2.6250 -0.3543 -0.2483
 5779SOL     OW18777   2.896   6.742   5.945  0.2583 -0.2491 -0.0807
 5779SOL    HW118778   2.943   6.659   5.935  0.2021 -0.3503  0.4436
 5779SOL    HW218779   2.926   6.796   5.873  0.5210 -0.6236 -0.2532
 5780SOL     OW18780   0.071   5.903   4.576 -0.0500  0.2551 -0.1714
 5780SOL    HW118781   0.086   5.946   4.660 -1.6280  0.5594 -0.0158
 5780SOL    HW218782   0.114   5.960   4.512 -1.4509  1.7144  0.1148
 5781SOL     OW18783   7.891   0.489   7.125 -0.1715 -0.0556  0.1621
 5781SOL    HW118784   7.891   0.580   7.096  0.2596 -0.3837 -0.9025
 5781SOL    HW218785   7.841   0.442   7.058  0.2217 -0.7188  0.3274
 5782SOL     OW18786   7.686   7.996   6.737  0.2938  0.2408  0.5941
 5782SOL    HW118787   7.724   7.912   6.711  0.6655  0.6928 -0.3851
 5782SOL    HW218788   7.674   7.989   6.832  0.6089 -0.7966  0.5674
 5783SOL     OW18789   1.220   7.764   6.933 -0.5272 -0.0769 -0.5560
 5783SOL    HW118790   1.176   7.683   6.960  0.6872 -0.3009  0.9321
 5783SOL    HW218791   1.149   7.824   6.910 -1.6930 -0.3175  2.0165
 5784SOL     OW18792   0.253   0.896   5.831  0.2978 -0.2255  0.5071
 5784SOL    HW118793   0.246   0.948   5.911 -1.3395  0.0931  0.1786
 5784SOL    HW218794   0.197   0.820   5.847  0.9786 -0.8219  0.1453
 5785SOL     OW18795   0.777   6.075   5.535 -0.4012 -0.0143 -0.1886
 5785SOL    HW118796   0.745   5.990   5.504  0.4983  0.1676 -1.7430
 5785SOL    HW218797   0.758   6.075   5.629 -1.5926 -1.3842 -0.3895
 5786SOL     OW18798   6.165   7.641   7.270  0.1669  0.1061  0.0051
 5786SOL    HW118799   6.167   7.621   7.176  1.4667  0.3988 -0.0534
 5786SOL    HW218800   6.112   7.571   7.308 -1.1153  0.4704 -1.0403
 5787SOL     OW18801   7.117   0.428   6.831 -0.0962  0.4796  0.1109
 5787SOL    HW118802   7.048   0.436   6.766 -1.4572  0.3766  1.4743
 5787SOL    HW218803   7.102   0.502   6.891 -0.9642 -1.2256  2.1202
 5788SOL     OW18804   1.085   0.620   7.460 -0.0530  0.3132  0.0423
 5788SOL    HW118805   1.143   0.670   7.518  1.4557 -3.7609  2.4388
 5788SOL    HW218806   1.142   0.591   7.389  0.1068 -1.0140  0.6809
 5789SOL     OW18807   0.069   0.692   7.656  0.9668  0.0394  0.3862
 5789SOL    HW118808   0.103   0.608   7.687 -1.3455 -0.8785  0.6444
 5789SOL    HW218809   0.124   0.757   7.700  1.6904 -1.3095  1.5861
 5790SOL     OW18810   1.526   0.032   7.244 -0.3284  0.1825  0.6428
 5790SOL    HW118811   1.551   0.107   7.297  1.1924  0.1313  0.0539
 5790SOL    HW218812   1.604   0.013   7.191 -0.3924 -2.2510  1.2932
 5791SOL     OW18813   2.369   7.072   7.340 -0.2272  0.5548  0.1767
 5791SOL    HW118814   2.460   7.046   7.359 -0.0939  0.5917 -0.4003
 5791SOL    HW218815   2.367   7.166   7.357 -0.3281  0.4409  0.8224
 5792SOL     OW18816   6.884   6.520   5.403  0.3881  0.0133  0.1545
 5792SOL    HW118817   6.975   6.540   5.422  0.3552  0.7219 -0.3707
 5792SOL    HW218818   6.884   6.489   5.313 -0.2820  3.5473 -1.2336
 5793SOL     OW18819   7.360   6.559   7.679  0.5627  0.2865  0.1483
 5793SOL    HW118820   7.358   6.465   7.660  2.7891  0.1909  0.1185
 5793SOL    HW218821   7.278   6.576   7.724 -0.5003 -1.3973 -1.0225
 5794SOL     OW18822   7.807   6.220   5.528  0.0229  0.0993 -0.3668
 5794SOL    HW118823   7.821   6.306   5.568  0.2721 -0.3552  0.5408
 5794SOL    HW218824   7.847   6.227   5.441 -1.1270  1.3131 -0.8336
 5795SOL     OW18825   1.082   6.615   5.657 -0.5107  0.3255  0.2829
 5795SOL    HW118826   1.137   6.545   5.691  1.7402  1.8398 -0.0026
 5795SOL    HW218827   1.083   6.602   5.562 -0.8744  0.2025  0.2956
 5796SOL     OW18828   1.446   7.613   6.380 -0.5923  0.0579  0.1496
 5796SOL    HW118829   1.475   7.562   6.456  1.9783  0.3429 -0.5494
 5796SOL    HW218830   1.486   7.699   6.392 -0.0227  0.0656 -1.5727
 5797SOL     OW18831   1.576   7.851   6.484 -0.3613  0.2355  0.2008
 5797SOL    HW118832   1.646   7.804   6.439 -0.1070 -0.3431  1.1613
 5797SOL    HW218833   1.604   7.943   6.482 -0.5389  0.2678 -1.1194
 5798SOL     OW18834   1.197   1.386  11.178 -0.2222  0.3665 -0.0965
 5798SOL    HW118835   1.210   1.407  11.085 -0.4456  1.5489  0.1322
 5798SOL    HW218836   1.221   1.465  11.225  0.2974 -0.3569  0.9026
 5799SOL     OW18837   0.766   7.978   9.409  0.0817 -0.4696  0.0488
 5799SOL    HW118838   0.740   7.991   9.500  0.2979 -1.0490  0.1978
 5799SOL    HW218839   0.683   7.970   9.361 -0.1361  2.4332 -0.2445
 5800SOL     OW18840   1.834   7.261   8.618 -0.0703 -0.2976 -0.7202
 5800SOL    HW118841   1.771   7.258   8.689 -0.3114 -2.6537 -0.9775
 5800SOL    HW218842   1.919   7.246   8.661  0.0157  0.1508 -0.7230
 5801SOL     OW18843   7.209   6.217   9.415  0.3802 -0.3749 -0.0381
 5801SOL    HW118844   7.239   6.182   9.331  1.0417  1.1656 -0.4579
 5801SOL    HW218845   7.283   6.266   9.449  0.6170 -2.0946  2.1452
 5802SOL     OW18846   0.914   0.266   7.636  0.1104 -0.7214  0.1990
 5802SOL    HW118847   0.992   0.231   7.594  0.7585 -0.0439  0.8085
 5802SOL    HW218848   0.918   0.360   7.619 -0.7908 -0.7302 -0.1063
 5803SOL     OW18849   1.992   7.470  11.118 -0.4004 -0.1337  0.8769
 5803SOL    HW118850   2.070   7.503  11.164 -0.0670 -0.8282  0.8168
 5803SOL    HW218851   1.953   7.549  11.079  0.3933  0.1945  0.7207
 5804SOL     OW18852   6.598   1.000   5.663 -0.0360  0.2678 -0.0064
 5804SOL    HW118853   6.558   0.973   5.580 -1.4918  1.3377  0.2890
 5804SOL    HW218854   6.567   1.089   5.676 -2.7242 -0.9206  3.3031
 5805SOL     OW18855   0.693   0.517   9.092  0.0643 -0.1912  0.7261
 5805SOL    HW118856   0.651   0.449   9.145  1.4182 -0.8279  1.0253
 5805SOL    HW218857   0.766   0.473   9.049 -1.3059  0.1391 -2.2107
 5806SOL     OW18858   0.568   7.599  10.984  0.0504 -0.1044  0.0921
 5806SOL    HW118859   0.566   7.595  10.888  0.1030  0.8548  0.0388
 5806SOL    HW218860   0.508   7.669  11.006 -0.0049 -0.3600  0.7721
 5807SOL     OW18861   0.843   0.009   6.610 -0.0409 -0.3880  0.8748
 5807SOL    HW118862   0.815  -0.071   6.655  0.9306 -1.3094 -0.1228
 5807SOL    HW218863   0.762   0.049   6.579 -0.4336 -2.0534 -0.3711
 5808SOL     OW18864   1.983   7.460   6.832 -0.5282 -0.3921  0.0556
 5808SOL    HW118865   2.063   7.453   6.884 -1.8982 -1.1226  2.1920
 5808SOL    HW218866   1.990   7.389   6.768 -0.2233 -1.5985  1.3724
 5809SOL     OW18867   1.380   7.588   9.482  0.0011 -0.1213  0.2293
 5809SOL    HW118868   1.449   7.525   9.503 -0.3801 -0.0869  1.6995
 5809SOL    HW218869   1.329   7.596   9.563  0.4479  2.5961  0.3250
 5810SOL     OW18870   7.254   7.968  10.965  0.0109 -0.5225 -0.0638
 5810SOL    HW118871   7.278   8.000  11.052  0.8151 -2.6064  0.5515
 5810SOL    HW218872   7.336   7.932  10.930 -0.4576 -0.3171 -1.4122
 5811SOL     OW18873   0.074   7.454   7.694  0.4646  0.2148  0.0362
 5811SOL    HW118874   0.158   7.469   7.651  1.2856  1.5914  1.9479
 5811SOL    HW218875   0.086   7.372   7.742  0.2783 -0.2236 -0.6584
 5812SOL     OW18876   3.081   7.648   9.831  0.1012 -0.1739  0.2921
 5812SOL    HW118877   3.121   7.731   9.807  0.4480 -0.3455  0.2729
 5812SOL    HW218878   3.133   7.617   9.905  3.5970 -3.0645 -2.9995
 5813SOL     OW18879   1.823   7.182   8.350  0.1788 -0.4986  0.8575
 5813SOL    HW118880   1.886   7.225   8.293  0.5374 -1.3375  0.6093
 5813SOL    HW218881   1.832   7.228   8.434  2.1746 -1.5400  1.2673
 5814SOL     OW18882   7.084   7.235   8.856  0.4641 -0.2180  0.1922
 5814SOL    HW118883   7.128   7.172   8.913  2.1294  1.3575  0.7281
 5814SOL    HW218884   7.125   7.319   8.876  0.1232  0.6399 -2.3311
 5815SOL     OW18885   0.097   6.153   8.952 -1.0701 -0.1885 -0.0935
 5815SOL    HW118886   0.031   6.171   8.884 -1.5431 -0.1194  0.3747
 5815SOL    HW218887   0.069   6.070   8.990  0.6354 -1.5748 -1.6812
 5816SOL     OW18888   1.176   7.629  11.215  0.1730 -0.0943  0.3828
 5816SOL    HW118889   1.129   7.546  11.220 -0.5747  0.4027  2.8836
 5816SOL    HW218890   1.265   7.608  11.243 -0.1608  0.0260  1.5612
 5817SOL     OW18891   6.834   0.306   8.734 -0.6601 -0.3255  0.3567
 5817SOL    HW118892   6.771   0.331   8.802 -1.8237 -0.9100 -0.4670
 5817SOL    HW218893   6.793   0.335   8.652 -0.0146 -1.0421 -0.2318
 5818SOL     OW18894   0.449   7.198  10.070  0.7838 -0.1346 -0.4706
 5818SOL    HW118895   0.360   7.181  10.037  1.0802  1.0360 -1.9790
 5818SOL    HW218896   0.437   7.263  10.139  0.5091  0.5149 -1.1170
 5819SOL     OW18897   1.332   0.701   8.990  0.0908 -0.1545 -0.1704
 5819SOL    HW118898   1.374   0.631   8.940  0.9739 -0.7683  1.3567
 5819SOL    HW218899   1.300   0.658   9.070 -0.4865  0.9513  0.2249
 5820SOL     OW18900   1.660   6.872   8.359  0.0941 -0.4158  0.2744
 5820SOL    HW118901   1.638   6.846   8.448 -1.0852  0.0865  0.1374
 5820SOL    HW218902   1.755   6.858   8.353  0.2588 -0.0777  1.7244
 5821SOL     OW18903   0.838   6.463   6.913 -0.2881  0.3385 -0.0119
 5821SOL    HW118904   0.835   6.545   6.863  0.8575  0.0324 -0.6220
 5821SOL    HW218905   0.770   6.408   6.874 -0.5440  0.7270 -0.1109
 5822SOL     OW18906   7.852   0.290   8.815 -0.1535  0.4025  0.3373
 5822SOL    HW118907   7.778   0.251   8.861  1.8490 -1.9518  1.8509
 5822SOL    HW218908   7.847   0.253   8.727 -0.4861 -0.1994  0.5979
 5823SOL     OW18909   1.233   7.322   9.655 -0.1545  0.1803  0.0597
 5823SOL    HW118910   1.301   7.319   9.588 -0.1405 -1.5508  0.1169
 5823SOL    HW218911   1.177   7.395   9.629  0.8028  0.5943 -0.8934
 5824SOL     OW18912   0.929   7.421   7.637  0.0019  0.6993 -0.2419
 5824SOL    HW118913   0.898   7.335   7.607 -0.2737  0.2318  1.2724
 5824SOL    HW218914   0.976   7.457   7.563 -1.1690 -0.1112 -1.4246
 5825SOL     OW18915   0.312   0.876   8.089 -0.3526 -0.0174 -0.0392
 5825SOL    HW118916   0.285   0.834   8.171 -1.6039 -0.5104 -0.6747
 5825SOL    HW218917   0.239   0.933   8.067 -1.2219 -1.8141 -2.1162
 5826SOL     OW18918   7.684   0.384   6.029  0.2150  0.0784  0.1313
 5826SOL    HW118919   7.733   0.389   5.947 -0.0097  0.1838  0.0033
 5826SOL    HW218920   7.613   0.323   6.012 -0.5866  1.0629 -0.1556
 5827SOL     OW18921   1.958   0.010   8.988 -0.1666  0.0438  0.8625
 5827SOL    HW118922   1.965   0.040   8.897 -0.8881  0.2988  0.8870
 5827SOL    HW218923   2.045  -0.025   9.008  0.4240  1.2738  0.5365
 5828SOL     OW18924   3.476   6.934   9.720  0.5973 -0.5508 -0.2226
 5828SOL    HW118925   3.405   6.929   9.656  1.3157 -0.2046 -1.0750
 5828SOL    HW218926   3.453   7.008   9.776 -0.7468 -1.7180  0.8254
 5829SOL     OW18927   1.936   7.916  11.120  0.2098 -0.4632  0.0544
 5829SOL    HW118928   1.905   7.993  11.167  1.5153 -0.3237  0.7128
 5829SOL    HW218929   2.031   7.926  11.116  0.1491 -0.0667 -3.3200
 5830SOL     OW18930   0.748   7.838   8.402 -0.0272  0.6875 -0.0751
 5830SOL    HW118931   0.678   7.778   8.375  2.1776 -1.7468 -0.8252
 5830SOL    HW218932   0.702   7.917   8.429 -3.0558 -0.7483 -0.5250
 5831SOL     OW18933   0.788   6.466  10.753 -0.6908 -0.4424  0.1166
 5831SOL    HW118934   0.866   6.415  10.778  0.0037  0.3565 -0.3652
 5831SOL    HW218935   0.758   6.426  10.672 -0.7826 -0.7435  0.2955
 5832SOL     OW18936   1.058   0.755   8.855  0.2453  0.0563 -0.1079
 5832SOL    HW118937   1.151   0.736   8.839  0.4674  1.6359 -0.8825
 5832SOL    HW218938   1.049   0.750   8.950  1.1344 -0.0860 -0.0188
 5833SOL     OW18939   7.680   0.817   8.819  0.5625 -0.7149  0.1337
 5833SOL    HW118940   7.711   0.849   8.735 -2.0583  1.0588 -0.2753
 5833SOL    HW218941   7.649   0.728   8.802  0.6968 -0.6188 -0.6133
 5834SOL     OW18942   0.349   7.112   7.691 -0.5318  0.0771  0.6297
 5834SOL    HW118943   0.400   7.106   7.771  1.8633 -1.1612 -0.8585
 5834SOL    HW218944   0.301   7.030   7.686  0.7634 -0.6794 -0.0317
 5835SOL     OW18945   2.119   7.805   9.387  0.2770  0.1650  0.0132
 5835SOL    HW118946   2.071   7.731   9.425  0.3358  0.6563  1.0623
 5835SOL    HW218947   2.192   7.819   9.447 -0.6331  2.1122  0.7468
 5836SOL     OW18948   0.995   7.788   7.197 -0.6734  0.3367 -0.1505
 5836SOL    HW118949   1.080   7.756   7.228 -0.5806  0.0293 -0.6976
 5836SOL    HW218950   0.956   7.830   7.273  0.1836  0.9260 -0.0142
 5837SOL     OW18951   2.641   0.744   7.233 -0.2497  0.3251  0.3502
 5837SOL    HW118952   2.700   0.773   7.302 -1.8373 -0.3096  2.0609
 5837SOL    HW218953   2.697   0.730   7.157  1.3287  2.5408  1.0412
 5838SOL     OW18954   0.131   7.556   7.974  0.6554  0.3424 -0.4711
 5838SOL    HW118955   0.181   7.581   7.897 -0.1063  1.6798 -0.5524
 5838SOL    HW218956   0.048   7.523   7.940  0.1400  1.3571 -0.2190
 5839SOL     OW18957   7.413   5.959  10.616 -0.1366  0.1911 -0.3948
 5839SOL    HW118958   7.422   5.886  10.555 -1.8109 -0.1853 -0.2383
 5839SOL    HW218959   7.486   6.017  10.594 -1.5634  0.9124 -3.9334
 5840SOL     OW18960   1.247   7.088  10.541  0.2349  0.1002 -0.0200
 5840SOL    HW118961   1.199   7.010  10.568  0.0653 -0.0436 -0.7153
 5840SOL    HW218962   1.293   7.062  10.462  0.5723  0.5648  0.0184
 5841SOL     OW18963   7.260   0.378   7.874  0.1768 -0.0511 -0.0114
 5841SOL    HW118964   7.263   0.459   7.924  0.4115  0.3801 -0.7090
 5841SOL    HW218965   7.169   0.349   7.880  0.6663 -1.3519  2.7218
 5842SOL     OW18966   6.335   7.128   9.708 -0.5343 -0.2401  0.6857
 5842SOL    HW118967   6.293   7.149   9.624 -1.3024 -0.0492  1.1045
 5842SOL    HW218968   6.428   7.116   9.687 -0.8365 -0.9302 -0.3111
 5843SOL     OW18969   0.507   7.637   7.475  0.2118  0.1394 -0.2441
 5843SOL    HW118970   0.419   7.674   7.468  0.5430  1.5027  1.6897
 5843SOL    HW218971   0.499   7.548   7.441 -2.0603  0.0330  0.3779
 5844SOL     OW18972   1.174   7.603   8.702 -0.4490  0.2718  0.1217
 5844SOL    HW118973   1.160   7.561   8.786 -2.3501  0.1212 -0.2390
 5844SOL    HW218974   1.132   7.689   8.710  0.7324  0.9077 -0.1686
 5845SOL     OW18975   7.943   6.418   8.189  0.0031 -0.0822 -0.2526
 5845SOL    HW118976   7.873   6.464   8.142  0.5393  1.5731  0.4971
 5845SOL    HW218977   7.898   6.366   8.255 -0.5882 -0.0629 -0.6307
 5846SOL     OW18978   2.304   6.495   9.021  0.1136 -0.4317  0.9604
 5846SOL    HW118979   2.366   6.457   8.958 -0.4151  0.5157 -0.1810
 5846SOL    HW218980   2.357   6.517   9.097  1.2600  0.5469 -0.0666
 5847SOL     OW18981   2.253   6.882   8.978 -0.0412  0.0527 -0.0975
 5847SOL    HW118982   2.317   6.942   8.940  1.7576 -0.8296  1.3716
 5847SOL    HW218983   2.304   6.804   9.000 -1.4817 -0.4313  1.7621
 5848SOL     OW18984   7.895   7.960   7.630 -0.4417 -0.7108  0.4142
 5848SOL    HW118985   7.807   7.984   7.661 -0.2930  1.3022 -0.5904
 5848SOL    HW218986   7.880   7.921   7.544 -0.3630 -0.2666  0.1946
 5849SOL     OW18987   0.979   7.292   9.209  0.6132  0.0318 -0.3008
 5849SOL    HW118988   0.885   7.283   9.195  0.5457  0.8561 -0.3829
 5849SOL    HW218989   1.018   7.272   9.124  0.4350  0.9868 -0.6140
 5850SOL     OW18990   2.297   6.051   9.629  0.4582  0.1762 -0.7009
 5850SOL    HW118991   2.260   6.068   9.716  1.2206  1.1526 -0.5591
 5850SOL    HW218992   2.325   5.959   9.634 -0.6457 -0.1692 -0.3549
 5851SOL     OW18993   1.858   0.126   8.731  0.3207 -0.2300  0.1425
 5851SOL    HW118994   1.901   0.210   8.717 -0.0600 -0.1097 -0.3343
 5851SOL    HW218995   1.857   0.085   8.644 -0.9141 -0.0374  0.0515
 5852SOL     OW18996   0.575   7.364   8.839  0.2153  0.1540  0.0289
 5852SOL    HW118997   0.641   7.416   8.886  1.4311 -1.7899  0.6247
 5852SOL    HW218998   0.626   7.315   8.773 -0.2686 -2.6425  1.5682
 5853SOL     OW18999   0.905   0.838   8.402  0.2246  0.2390 -0.0383
 5853SOL    HW119000   0.872   0.913   8.354 -1.1920 -0.2132  0.1929
 5853SOL    HW219001   0.914   0.769   8.336  0.3322  0.2476 -0.0326
 5854SOL     OW19002   0.979   0.164   8.951 -0.1968 -0.6793  0.0113
 5854SOL    HW119003   0.974   0.095   9.016  0.2632  0.4922  1.3509
 5854SOL    HW219004   1.072   0.186   8.947 -0.6277  2.0617  2.1057
 5855SOL     OW19005   1.411   7.995   6.981 -0.6621  0.2497  0.1409
 5855SOL    HW119006   1.342   8.054   6.948 -0.6222  0.5005  0.4945
 5855SOL    HW219007   1.409   8.008   7.076  0.4465  0.8987  0.0901
 5856SOL     OW19008   7.704   6.721   6.640 -0.1343  0.1172 -0.5039
 5856SOL    HW119009   7.622   6.758   6.605 -0.0266 -0.2763 -1.1837
 5856SOL    HW219010   7.771   6.783   6.612  0.1283 -0.8330 -2.1551
 5857SOL     OW19011   0.363   0.355   8.983  0.0779  0.0579 -0.3715
 5857SOL    HW119012   0.413   0.343   9.064  0.6044  0.3486 -0.6467
 5857SOL    HW219013   0.371   0.272   8.937  1.1862  0.4433 -0.8914
 5858SOL     OW19014   1.399   6.416   9.705 -0.2861 -0.3087  0.0279
 5858SOL    HW119015   1.354   6.345   9.751 -2.0606  1.5926  1.3520
 5858SOL    HW219016   1.363   6.413   9.616  0.0898 -1.3780 -0.1105
 5859SOL     OW19017   1.712   7.840   8.130  0.0527  0.0710 -0.0772
 5859SOL    HW119018   1.769   7.856   8.055  0.2224 -0.4485 -0.0632
 5859SOL    HW219019   1.624   7.859   8.098  0.1221 -0.1716 -0.4182
 5860SOL     OW19020   1.413   7.732   9.126  0.1403  0.1214 -0.2060
 5860SOL    HW119021   1.346   7.683   9.172  2.1471 -1.6274  1.0354
 5860SOL    HW219022   1.495   7.711   9.171  1.7922  0.8558 -2.6020
 5861SOL     OW19023   7.207   7.192   8.241  0.0961  0.1639 -0.1835
 5861SOL    HW119024   7.113   7.196   8.225 -0.0867 -2.1353  0.0491
 5861SOL    HW219025   7.215   7.178   8.335  0.5235 -1.8702 -0.4632
 5862SOL     OW19026   0.655   7.535   8.037 -0.2342 -0.3294  1.1665
 5862SOL    HW119027   0.625   7.626   8.046  1.3907  0.4018 -0.2577
 5862SOL    HW219028   0.688   7.529   7.948 -0.0212 -2.2545  1.3341
 5863SOL     OW19029   1.194   7.570   8.975 -0.1111  0.1512  0.4136
 5863SOL    HW119030   1.190   7.539   9.066  1.4359 -0.1236  0.4270
 5863SOL    HW219031   1.288   7.582   8.959 -0.4825  2.1641 -0.5040
 5864SOL     OW19032   7.782   7.750   8.311 -0.1645  0.0974  0.2950
 5864SOL    HW119033   7.830   7.811   8.253  1.2208 -0.6659  0.5936
 5864SOL    HW219034   7.778   7.668   8.261 -1.3904  0.1993  0.1912
 5865SOL     OW19035   7.860   6.912  10.709  0.4286 -0.6629 -0.0364
 5865SOL    HW119036   7.869   6.835  10.765  0.5356  0.4918  1.6161
 5865SOL    HW219037   7.793   6.965  10.752  0.6247  0.3467 -0.9335
 5866SOL     OW19038   7.464   6.847  10.336  0.4161 -0.2205  0.5394
 5866SOL    HW119039   7.432   6.855  10.246  3.3003 -1.3008 -0.6877
 5866SOL    HW219040   7.492   6.936  10.359 -0.2384  0.0420  0.3484
 5867SOL     OW19041   1.273   6.843   8.786  0.7266 -0.0209  0.5811
 5867SOL    HW119042   1.212   6.785   8.740 -0.7370  0.7543  1.4695
 5867SOL    HW219043   1.356   6.831   8.741 -0.2795 -0.4371 -1.2653
 5868SOL     OW19044   0.407   0.893  10.559 -0.0095 -0.1291  0.1525
 5868SOL    HW119045   0.379   0.869  10.647  2.2532  1.3441  1.3913
 5868SOL    HW219046   0.470   0.825  10.534  0.5630  0.2980  0.3935
 5869SOL     OW19047   0.828   0.597  10.429 -0.2262 -0.7249  0.0510
 5869SOL    HW119048   0.758   0.539  10.400 -1.2205  0.3291  0.2322
 5869SOL    HW219049   0.817   0.676  10.376  0.8134 -0.5229  0.1084
 5870SOL     OW19050   0.194   1.053  10.539  0.2023  0.4259  0.0953
 5870SOL    HW119051   0.274   1.005  10.560  1.4134  2.3451  0.1121
 5870SOL    HW219052   0.148   1.060  10.623 -0.5104 -1.4954 -0.0824
 5871SOL     OW19053   7.748   0.612  10.120  0.0010  0.0328  0.2961
 5871SOL    HW119054   7.749   0.688  10.178 -0.2886  1.5199 -1.5338
 5871SOL    HW219055   7.663   0.571  10.136  0.6507 -0.6854  2.1799
 5872SOL     OW19056   0.496   7.421  11.379  0.0092  0.4069  0.3566
 5872SOL    HW119057   0.425   7.484  11.369 -2.3688 -1.7309  2.3135
 5872SOL    HW219058   0.569   7.472  11.414 -1.6316  2.1987  1.3651
 5873SOL     OW19059   0.297   7.259  10.307 -0.6302 -0.2227 -0.6543
 5873SOL    HW119060   0.291   7.183  10.364 -0.9386  1.0719  1.1280
 5873SOL    HW219061   0.223   7.251  10.248 -1.1698 -0.8633  0.0938
 5874SOL     OW19062   1.179   7.574  11.988 -0.2945  0.5763  0.4435
 5874SOL    HW119063   1.274   7.585  11.983 -0.3075  0.2718 -2.3152
 5874SOL    HW219064   1.163   7.486  11.954 -1.4794 -0.4391  3.3059
 5875SOL     OW19065   1.668   0.411  11.267  0.2248  0.1374 -0.4835
 5875SOL    HW119066   1.609   0.375  11.334  0.6725 -1.8598 -1.0928
 5875SOL    HW219067   1.693   0.335  11.215  1.0600  1.4211 -2.0203
 5876SOL     OW19068   0.639   0.272  12.217 -0.2741 -0.4375  0.3581
 5876SOL    HW119069   0.589   0.342  12.260  0.7635 -1.2819  3.1141
 5876SOL    HW219070   0.685   0.317  12.146 -0.7408  1.4092  1.1415
 5877SOL     OW19071   1.405   7.437  11.131  0.0873  0.4038 -0.2682
 5877SOL    HW119072   1.385   7.505  11.068  1.5583  1.4159  0.3244
 5877SOL    HW219073   1.463   7.377  11.085 -0.7008 -0.1466 -0.5835
 5878SOL     OW19074   0.733   7.923  11.434  0.1668 -0.4267  0.0308
 5878SOL    HW119075   0.810   7.885  11.392  0.7567  0.9934 -0.2290
 5878SOL    HW219076   0.738   8.016  11.414 -2.8308 -0.5537 -1.9567
 5879SOL     OW19077   0.595   0.693  10.597  0.1508 -0.4704 -0.4704
 5879SOL    HW119078   0.591   0.734  10.684 -1.1627  0.9016 -1.1307
 5879SOL    HW219079   0.676   0.643  10.598  0.7607  0.4662  1.1458
 5880SOL     OW19080   6.713   7.168   0.588 -0.3340 -0.1434  0.2791
 5880SOL    HW119081   6.745   7.258   0.585  0.5602 -0.4599 -0.0815
 5880SOL    HW219082   6.642   7.166   0.525  0.7117 -0.0684 -0.9552
 5881SOL     OW19083   1.796   7.696  10.567  0.0746 -0.1871 -0.5642
 5881SOL    HW119084   1.861   7.733  10.627  1.4478 -1.8380 -0.9518
 5881SOL    HW219085   1.756   7.625  10.617 -0.5297 -0.0009 -0.7788
 5882SOL     OW19086   7.654   6.851  11.566 -0.2998  0.0414  0.1313
 5882SOL    HW119087   7.702   6.822  11.644  0.6808 -1.6872 -1.0559
 5882SOL    HW219088   7.700   6.931  11.538 -1.2705  1.2619  1.8214
 5883SOL     OW19089   1.478   6.974  11.115  0.1645 -0.0270  0.1747
 5883SOL    HW119090   1.424   7.035  11.065  1.1062  0.6389 -0.0671
 5883SOL    HW219091   1.449   6.887  11.086  0.6234  0.3373 -1.4882
 5884SOL     OW19092   2.225   7.461  12.069 -0.2110 -0.1561  0.4721
 5884SOL    HW119093   2.310   7.481  12.029 -0.1080  1.6982  1.5173
 5884SOL    HW219094   2.161   7.478  12.001  0.1659 -0.0506  0.1410
 5885SOL     OW19095   1.664   1.111  10.722 -0.0734 -0.1494  0.1644
 5885SOL    HW119096   1.599   1.089  10.654 -0.6421 -0.0271  0.6609
 5885SOL    HW219097   1.705   1.027  10.744  0.3879 -0.1367 -0.5967
 5886SOL     OW19098   0.979   1.048  10.038 -0.1189 -0.0879 -0.6274
 5886SOL    HW119099   0.921   0.991  10.088  1.4083 -1.4302 -0.2945
 5886SOL    HW219100   1.062   0.999  10.032  0.5732  1.1656 -2.2154
 5887SOL     OW19101   7.665   5.588   9.953  0.4135  0.6271  0.9522
 5887SOL    HW119102   7.596   5.522   9.941  1.3679 -0.3505  0.5981
 5887SOL    HW219103   7.679   5.624   9.865  0.5221  0.6291  0.9700
 5888SOL     OW19104   0.143   7.317  11.218  0.5122 -0.3812 -0.0204
 5888SOL    HW119105   0.100   7.402  11.226 -1.2630 -0.9285 -2.6264
 5888SOL    HW219106   0.234   7.339  11.197 -0.0367  0.9143 -1.2144
 5889SOL     OW19107   0.395   0.410  11.987  0.0580 -0.1263  0.2313
 5889SOL    HW119108   0.325   0.359  12.026 -0.4414  0.2421 -0.1674
 5889SOL    HW219109   0.350   0.480  11.939  0.7017  0.2376  0.1459
 5890SOL     OW19110   7.933   6.744  11.442 -0.4573  0.2036  0.3087
 5890SOL    HW119111   7.856   6.688  11.452 -1.0530  1.2176  1.8506
 5890SOL    HW219112   7.899   6.825  11.403  0.0832  0.1645 -0.2600
 5891SOL     OW19113   1.841   0.101  10.130 -0.3388 -0.5070  0.2022
 5891SOL    HW119114   1.934   0.109  10.152 -0.0722 -1.4566 -0.5175
 5891SOL    HW219115   1.826   0.168  10.063  0.5636 -2.2194 -1.8294
 5892SOL     OW19116   1.219   0.430  10.500 -0.1333  0.0415  0.2356
 5892SOL    HW119117   1.207   0.387  10.585 -0.2627  2.0371  1.2809
 5892SOL    HW219118   1.297   0.388  10.463  0.5678 -0.1305  1.8411
 5893SOL     OW19119   7.890   7.674  10.471 -0.0598  0.1065 -0.2131
 5893SOL    HW119120   7.824   7.688  10.539  0.3594  0.1002  0.2013
 5893SOL    HW219121   7.840   7.673  10.389 -0.5398  0.3651  0.0694
 5894SOL     OW19122   2.920   0.705  10.423 -0.5106 -0.0328 -0.0721
 5894SOL    HW119123   2.954   0.620  10.451 -2.6754 -0.7383  0.6078
 5894SOL    HW219124   2.957   0.717  10.335  0.0195 -1.5927 -0.1020
 5895SOL     OW19125   0.899   0.537  11.181  0.3012 -0.2105  0.0471
 5895SOL    HW119126   0.860   0.561  11.097 -0.6891  0.0710  0.5800
 5895SOL    HW219127   0.912   0.620  11.226  0.3046 -0.4039  0.4022
 5896SOL     OW19128   7.977   0.598  11.556  0.5304 -0.3013 -0.2385
 5896SOL    HW119129   8.010   0.664  11.616 -0.4219 -0.1140  0.0965
 5896SOL    HW219130   8.040   0.598  11.483  2.6047 -1.6635  1.4307
 5897SOL     OW19131   0.229   7.469   9.920  0.3512 -0.2774 -0.3714
 5897SOL    HW119132   0.236   7.380   9.954  0.2352 -0.3897 -0.6445
 5897SOL    HW219133   0.281   7.469   9.840 -0.8091 -0.4983 -1.1610
 5898SOL     OW19134   7.530   7.826  11.995  0.7405 -0.5152  0.2037
 5898SOL    HW119135   7.538   7.820  12.090 -0.8786  3.6529  0.8375
 5898SOL    HW219136   7.453   7.774  11.974  0.1389 -0.1749  1.4558
 5899SOL     OW19137   1.951   7.271  10.625  0.1777 -0.3561  0.2735
 5899SOL    HW119138   2.027   7.329  10.617 -0.6462  0.7966  0.5020
 5899SOL    HW219139   1.940   7.260  10.720 -0.1319 -0.2610  0.2491
 5900SOL     OW19140   2.631   0.536  12.190  0.0749 -0.0556 -0.0228
 5900SOL    HW119141   2.684   0.602  12.235  0.9657 -0.3619 -0.6090
 5900SOL    HW219142   2.622   0.465  12.254  0.9350 -0.2828 -0.1399
 5901SOL     OW19143   3.002   7.152   9.796  0.5125 -0.1266 -0.2822
 5901SOL    HW119144   2.915   7.162   9.833  0.1646  1.2559 -1.3889
 5901SOL    HW219145   3.060   7.192   9.860  0.3067 -0.7365  0.2931
 5902SOL     OW19146   2.905   7.873   9.038  0.2066 -0.0933  0.0849
 5902SOL    HW119147   2.964   7.940   9.003  0.1734 -0.1273 -0.0363
 5902SOL    HW219148   2.938   7.791   9.001  0.3671 -0.1690  0.3873
 5903SOL     OW19149   1.911   1.185  10.544  0.1278  0.0561  0.2385
 5903SOL    HW119150   1.915   1.280  10.547  0.0405  0.0463  2.4785
 5903SOL    HW219151   1.820   1.163  10.565 -0.3161 -0.5325 -2.0600
 5904SOL     OW19152   7.959   0.877  10.158 -0.4390 -0.0205  0.5111
 5904SOL    HW119153   7.901   0.933  10.107  0.8554  0.4236 -0.5516
 5904SOL    HW219154   8.002   0.821  10.092 -0.1161 -0.7518  1.3264
 5905SOL     OW19155   1.900   0.591  11.237  0.5047  0.2115 -0.4068
 5905SOL    HW119156   1.952   0.527  11.188  0.5801  0.7404 -1.0324
 5905SOL    HW219157   1.819   0.545  11.259  0.7026 -0.2090 -0.5472
 5906SOL     OW19158   1.246   7.039  11.669  0.7762 -0.2128 -0.0118
 5906SOL    HW119159   1.180   6.977  11.638  1.0428 -0.5688  0.1311
 5906SOL    HW219160   1.206   7.125  11.656  0.9988 -0.3341 -1.5976
 5907SOL     OW19161   0.267   7.560  10.573  0.5099 -0.3426 -0.1620
 5907SOL    HW119162   0.333   7.528  10.635  0.7331 -0.3934 -0.4197
 5907SOL    HW219163   0.293   7.650  10.555 -0.3509  0.1244  0.8721
 5908SOL     OW19164   5.543   6.805  10.143 -0.1949  0.4589 -0.7270
 5908SOL    HW119165   5.539   6.869  10.073  2.4601  0.8410 -0.6218
 5908SOL    HW219166   5.488   6.842  10.212 -0.4812  1.5141 -1.4912
 5909SOL     OW19167   0.747   7.742  10.579  0.0677 -0.0219 -0.6535
 5909SOL    HW119168   0.796   7.790  10.513 -0.1313  1.5321  0.2757
 5909SOL    HW219169   0.812   7.689  10.625  0.3336 -0.4720 -1.5420
 5910SOL     OW19170   1.898   7.584  10.353  0.2273 -0.1168  0.8000
 5910SOL    HW119171   1.838   7.622  10.288  0.0975 -0.8329  0.4873
 5910SOL    HW219172   1.888   7.640  10.430 -0.9959 -0.3214  0.8144
 5911SOL     OW19173   0.822   1.241  12.267 -1.1678 -0.3952  0.0258
 5911SOL    HW119174   0.764   1.295  12.320 -0.1669  1.0794 -0.3209
 5911SOL    HW219175   0.906   1.287  12.269 -0.6246 -1.2604 -1.3462
 5912SOL     OW19176   3.151   7.933  10.099 -0.1295  0.1251  0.8241
 5912SOL    HW119177   3.118   7.919  10.010 -1.2482 -0.4178  1.2973
 5912SOL    HW219178   3.231   7.984  10.088 -0.0302 -0.2858 -0.5179
 5913SOL     OW19179   3.285   7.607  10.756 -0.2587 -0.0882 -0.4420
 5913SOL    HW119180   3.376   7.626  10.782 -0.8788 -0.2822  2.1845
 5913SOL    HW219181   3.292   7.531  10.698  1.1288 -2.3110  2.3901
 5914SOL     OW19182   0.918   7.208  11.796 -0.6851  0.3123 -0.3527
 5914SOL    HW119183   0.930   7.180  11.705  1.3463  0.5544 -0.2090
 5914SOL    HW219184   1.007   7.227  11.827 -1.1984 -0.8083  2.0345
 5915SOL     OW19185   1.248   5.970  11.315 -0.3317 -0.3977 -0.6137
 5915SOL    HW119186   1.221   5.880  11.298 -0.1133 -0.4906 -0.4866
 5915SOL    HW219187   1.204   6.022  11.248  1.2964 -0.8668 -2.1195
 5916SOL     OW19188   1.543   0.242  11.447 -0.3089  0.1741 -0.2336
 5916SOL    HW119189   1.451   0.226  11.466 -1.1358 -0.4575 -3.9670
 5916SOL    HW219190   1.574   0.159  11.409  1.6682  0.5325  0.4934
 5917SOL     OW19191   7.571   7.013  11.022 -0.4305 -0.2407  0.1059
 5917SOL    HW119192   7.602   7.074  10.956  0.1167  2.0638  2.3126
 5917SOL    HW219193   7.644   7.004  11.083 -1.2607 -1.4184  0.9850
 5918SOL     OW19194   7.057   7.304  10.677  0.0073  0.1892 -0.4985
 5918SOL    HW119195   7.071   7.229  10.735 -0.9627  1.3586  1.3780
 5918SOL    HW219196   6.989   7.355  10.721 -1.1503  0.9227 -2.9605
 5919SOL     OW19197   0.026   0.320   9.049 -0.4459 -0.4216 -0.1264
 5919SOL    HW119198  -0.036   0.319   8.976 -1.6130  1.4289  0.7852
 5919SOL    HW219199   0.032   0.228   9.077 -1.5259 -0.8554 -1.2404
 5920SOL     OW19200   0.162   0.355  11.766  0.3802  0.7040  0.2103
 5920SOL    HW119201   0.168   0.275  11.818 -1.1350  0.1225 -0.4530
 5920SOL    HW219202   0.127   0.326  11.682 -0.6171  2.1208  0.1033
 5921SOL     OW19203   1.621   6.976  11.997 -1.0155 -0.1644  0.4502
 5921SOL    HW119204   1.707   6.935  12.007 -1.0197 -0.6495 -1.1774
 5921SOL    HW219205   1.615   7.038  12.069  0.8299  0.0981  0.4282
 5922SOL     OW19206   1.173   6.811  12.082 -0.7396  0.2225  0.2570
 5922SOL    HW119207   1.234   6.789  12.012 -0.9275  0.7357 -0.0758
 5922SOL    HW219208   1.100   6.853  12.037 -1.0504  0.1813  0.7208
 5923SOL     OW19209   0.641   7.112  11.524  0.0688  0.8171 -0.2582
 5923SOL    HW119210   0.577   7.171  11.564  0.0769  0.9334 -0.4169
 5923SOL    HW219211   0.611   7.102  11.434 -0.0745  0.3789 -0.1655
 5924SOL     OW19212   0.551   0.685  11.566 -0.7645  0.6875 -0.4362
 5924SOL    HW119213   0.634   0.717  11.531 -0.6427 -0.4175 -1.1816
 5924SOL    HW219214   0.566   0.680  11.661 -0.0762  0.7472 -0.5362
 5925SOL     OW19215   0.713   7.544  10.002  0.3779 -0.3389 -0.1054
 5925SOL    HW119216   0.668   7.460  10.006 -0.1880 -0.0218  0.2322
 5925SOL    HW219217   0.788   7.528   9.944  1.3401 -1.5608  1.3821
 5926SOL     OW19218   1.325   6.803  11.852 -0.8886  0.1836 -0.0018
 5926SOL    HW119219   1.290   6.807  11.763 -0.5852 -0.8088 -0.1777
 5926SOL    HW219220   1.327   6.710  11.873  2.2905  0.0619 -0.2729
 5927SOL     OW19221   2.574   7.694  10.654 -0.2167 -0.7871 -0.4260
 5927SOL    HW119222   2.658   7.701  10.610 -1.7751 -1.1740 -3.7365
 5927SOL    HW219223   2.550   7.602  10.647 -1.3407 -0.5157 -0.4394
 5928SOL     OW19224   0.957   7.255  10.201  0.2516  0.5272  0.4549
 5928SOL    HW119225   0.995   7.334  10.165  1.4335 -0.3649 -0.3226
 5928SOL    HW219226   0.981   7.256  10.294  1.3950  0.4433  0.1688
 5929SOL     OW19227   2.237   6.835   9.588  0.2354  0.2066 -0.4311
 5929SOL    HW119228   2.310   6.780   9.561  1.5327  2.3814 -1.6089
 5929SOL    HW219229   2.272   6.924   9.588 -2.5169  1.4166 -1.5392
 5930SOL     OW19230   0.583   1.040  11.662 -0.0763 -0.0307 -0.2590
 5930SOL    HW119231   0.528   1.113  11.633 -0.6671 -0.5555 -0.4698
 5930SOL    HW219232   0.542   1.009  11.743  0.2610 -0.0404 -0.0870
 5931SOL     OW19233   0.016   7.944   2.380 -0.1401  0.0147 -0.2803
 5931SOL    HW119234  -0.026   7.890   2.447  0.0914 -0.0732 -0.2051
 5931SOL    HW219235   0.103   7.964   2.416 -0.6111  1.3301  0.1586
 5932SOL     OW19236   1.347   2.670  10.973  0.4862 -0.0835 -0.3887
 5932SOL    HW119237   1.417   2.620  10.931  0.6604  0.2863 -0.5381
 5932SOL    HW219238   1.270   2.653  10.919  0.0858 -1.7312  0.6404
 5933SOL     OW19239   0.037   0.245  11.192  0.1895 -0.1392  0.0075
 5933SOL    HW119240   0.037   0.281  11.103 -2.1126 -1.2532 -0.5220
 5933SOL    HW219241  -0.004   0.312  11.246 -0.0351 -0.1782 -0.1153
 5934SOL     OW19242   2.290   0.753  10.803 -0.0700 -0.6726  0.2296
 5934SOL    HW119243   2.304   0.718  10.891  0.9011 -0.6525  0.0848
 5934SOL    HW219244   2.342   0.834  10.800 -2.6950  1.1858  0.7565
 5935SOL     OW19245   0.361   1.503  12.258 -0.1145  0.1282  0.3921
 5935SOL    HW119246   0.369   1.437  12.189 -1.0142  0.5121 -0.0982
 5935SOL    HW219247   0.403   1.464  12.334 -0.6901 -1.0355  0.1301
 5936SOL     OW19248   1.094   0.685  12.214  0.2231  0.2688  0.2007
 5936SOL    HW119249   1.005   0.651  12.203  1.2491 -2.6092 -0.0244
 5936SOL    HW219250   1.117   0.719  12.128 -0.1863 -0.2060 -0.1040
 5937SOL     OW19251   1.548   5.372  11.960  0.3011 -0.6897  0.2725
 5937SOL    HW119252   1.558   5.447  12.018  0.1983 -0.9195  0.5870
 5937SOL    HW219253   1.497   5.405  11.886  1.5296 -0.0597 -0.3160
 5938SOL     OW19254   1.157   0.923   0.594  0.4912 -0.0795  0.0562
 5938SOL    HW119255   1.248   0.922   0.566  0.2914 -1.3018 -0.6242
 5938SOL    HW219256   1.157   0.973   0.675  1.5070  1.3244 -0.7559
 5939SOL     OW19257   7.484   7.487  12.080  0.9111  0.1085  0.7223
 5939SOL    HW119258   7.399   7.483  12.123  1.6996  0.0966  2.3673
 5939SOL    HW219259   7.472   7.441  11.997 -0.4000 -0.8739  1.4260
 5940SOL     OW19260   7.810   7.133  12.300  0.0082  0.0938 -0.6693
 5940SOL    HW119261   7.807   7.189  12.223  0.6376  2.1468  0.7118
 5940SOL    HW219262   7.901   7.104  12.306 -0.2582 -0.9008 -1.2287
 5941SOL     OW19263   2.185   0.320  10.454 -0.6149  0.2404 -0.1893
 5941SOL    HW119264   2.091   0.338  10.457 -0.6035  0.2547  0.0834
 5941SOL    HW219265   2.210   0.339  10.363 -0.8606  0.3003 -0.2452
 5942SOL     OW19266   0.553   6.904   0.093 -0.1074 -0.2518 -0.7702
 5942SOL    HW119267   0.646   6.882   0.099 -0.2519 -0.8136 -0.5851
 5942SOL    HW219268   0.508   6.832   0.136 -0.6975 -0.5790 -1.8879
 5943SOL     OW19269   7.667   0.102  12.251  0.0337  0.2417  0.0161
 5943SOL    HW119270   7.763   0.103  12.253  0.1024 -1.5148 -0.4838
 5943SOL    HW219271   7.644   0.138  12.165  0.1861  1.4324  0.4541
 5944SOL     OW19272   6.485   7.006  10.362  0.7071  0.6813 -0.5489
 5944SOL    HW119273   6.495   7.101  10.369 -2.6394  1.0746  0.8999
 5944SOL    HW219274   6.434   6.993  10.282  1.6474  0.0204 -1.0578
 5945SOL     OW19275   0.839   0.018   0.286  0.2921 -0.1679 -0.0979
 5945SOL    HW119276   0.918   0.035   0.234  1.1504  0.8328  1.4764
 5945SOL    HW219277   0.871  -0.017   0.369 -0.9682 -0.2630  0.3797
 5946SOL     OW19278   0.677   7.744   0.580 -0.2410  0.1571  0.2869
 5946SOL    HW119279   0.719   7.659   0.572  0.8577  0.2606  3.4131
 5946SOL    HW219280   0.586   7.724   0.603 -0.1369 -0.1645  0.4152
 5947SOL     OW19281   1.610   7.890   1.297  0.2960  0.1590 -0.3702
 5947SOL    HW119282   1.697   7.885   1.257  0.1854 -1.0274 -0.4980
 5947SOL    HW219283   1.560   7.821   1.253 -0.9644  1.3601 -0.8812
 5948SOL     OW19284   0.980   7.865   0.090  0.2282  0.4878  0.3577
 5948SOL    HW119285   0.952   7.877  -0.001 -0.3242 -2.3014  0.0561
 5948SOL    HW219286   0.898   7.863   0.139  0.1455 -2.0709  0.2642
 5949SOL     OW19287   3.400   7.253   0.672 -0.1462 -0.5519  0.2508
 5949SOL    HW119288   3.391   7.164   0.637  0.3013 -0.3413 -0.4029
 5949SOL    HW219289   3.347   7.308   0.614  0.3870 -0.2434  0.0502
 5950SOL     OW19290   0.535   7.040   1.492  0.0773  0.2419  0.3350
 5950SOL    HW119291   0.500   6.994   1.416 -1.9570  0.0624  1.2907
 5950SOL    HW219292   0.581   6.973   1.542  1.2050  0.3079 -0.5768
 5951SOL     OW19293   0.770   0.643   1.191 -0.7161 -0.2335 -0.3414
 5951SOL    HW119294   0.840   0.709   1.194  0.7771 -1.7629  2.1864
 5951SOL    HW219295   0.795   0.585   1.120 -0.0279 -0.0968 -0.2200
 5952SOL     OW19296   0.779   7.130  12.172  0.1538 -0.1477  0.1382
 5952SOL    HW119297   0.872   7.116  12.190 -0.0793  1.5471  3.5263
 5952SOL    HW219298   0.734   7.087  12.245 -1.5564  1.2997 -0.0103
 5953SOL     OW19299   1.645   7.020   0.206  0.4533  0.4671 -0.0187
 5953SOL    HW119300   1.645   7.094   0.267  0.1159  1.4207 -1.1511
 5953SOL    HW219301   1.565   7.032   0.154  1.8325  0.9472 -2.1369
 5954SOL     OW19302   0.359   1.305   0.318  0.8293 -0.0993 -0.0469
 5954SOL    HW119303   0.311   1.323   0.399 -1.5206 -0.5341 -1.2495
 5954SOL    HW219304   0.382   1.392   0.284  0.6139  0.1345  0.4021
 5955SOL     OW19305   7.589   0.612  11.383 -0.6208 -0.5177  0.4023
 5955SOL    HW119306   7.572   0.701  11.353 -0.4647  0.2382  2.3973
 5955SOL    HW219307   7.540   0.556  11.322 -0.1783  0.8593 -1.2914
 5956SOL     OW19308   1.231   6.746  11.612 -0.3438 -0.0726 -0.0324
 5956SOL    HW119309   1.211   6.653  11.619 -1.7781  0.3076  1.5196
 5956SOL    HW219310   1.229   6.764  11.518  1.4955 -1.8724 -0.4951
 5957SOL     OW19311   1.506   6.245  10.161 -0.1694  0.5333  0.1783
 5957SOL    HW119312   1.455   6.169  10.190  0.6749 -0.2429 -0.2928
 5957SOL    HW219313   1.536   6.221  10.073 -0.4728  1.7187 -0.2642
 5958SOL     OW19314   0.918   0.449  12.449 -0.0234 -0.0547 -0.6476
 5958SOL    HW119315   0.949   0.361  12.472 -2.1129 -0.6595  0.1158
 5958SOL    HW219316   0.941   0.503  12.525 -0.3955 -0.3858 -0.2922
 5959SOL     OW19317   1.405   0.317   0.938 -0.1351 -0.4225 -0.2468
 5959SOL    HW119318   1.344   0.320   1.012  0.1414 -0.7398 -0.0043
 5959SOL    HW219319   1.445   0.404   0.937 -2.9155  0.9902 -2.4005
 5960SOL     OW19320   0.729   6.618  11.978  0.4539 -0.0159  0.0833
 5960SOL    HW119321   0.643   6.659  11.969 -0.6740 -2.0852  0.7076
 5960SOL    HW219322   0.773   6.669  12.045 -0.7737  0.3656  0.6293
 5961SOL     OW19323   6.989   7.651  12.455 -0.0101  0.1584 -0.1503
 5961SOL    HW119324   7.075   7.609  12.449 -0.6887 -1.1616 -1.2513
 5961SOL    HW219325   7.004   7.729  12.508  2.1359  0.7226 -1.4795
 5962SOL     OW19326   7.291   0.452  12.035 -0.3751  0.2798 -0.5419
 5962SOL    HW119327   7.237   0.495  11.968 -0.8520  2.0554  0.9145
 5962SOL    HW219328   7.363   0.513  12.051  0.3065 -0.5978 -0.1434
 5963SOL     OW19329   1.087   0.860  12.452  0.0688  0.5000  0.1960
 5963SOL    HW119330   1.129   0.797  12.511 -2.5970  0.0470  1.7666
 5963SOL    HW219331   1.041   0.805  12.389  0.5556  0.9581 -0.5730
 5964SOL     OW19332   0.631   6.106  12.068  0.4687  0.1721 -0.8519
 5964SOL    HW119333   0.697   6.038  12.062  0.7370  0.2275  0.8388
 5964SOL    HW219334   0.677   6.187  12.044  0.1402 -0.1954 -2.8902
 5965SOL     OW19335   2.092   7.569  11.818 -0.0226 -0.2172 -0.3554
 5965SOL    HW119336   2.155   7.570  11.745  1.1159  0.3397  0.6074
 5965SOL    HW219337   2.011   7.604  11.780  0.6711  0.4736 -1.2548
 5966SOL     OW19338   1.991   0.705  11.453 -0.5789 -0.5301 -0.0507
 5966SOL    HW119339   1.920   0.765  11.475 -0.4904  0.3665 -1.9678
 5966SOL    HW219340   1.965   0.666  11.370 -0.0209 -2.2042  0.5195
 5967SOL     OW19341   7.377   6.933   0.859  0.2676 -0.0142  0.3024
 5967SOL    HW119342   7.341   6.984   0.932 -0.1252 -1.8150  1.4268
 5967SOL    HW219343   7.316   6.948   0.787 -0.2237  0.5422  0.8195
 5968SOL     OW19344   3.044   0.469   0.110  0.0722  0.1325 -0.4523
 5968SOL    HW119345   2.992   0.401   0.151  0.9237  0.5521  1.4138
 5968SOL    HW219346   3.108   0.495   0.176  0.3072  2.1843 -1.3749
 5969SOL     OW19347   1.155   0.552   0.852 -0.1066  0.1298 -0.1047
 5969SOL    HW119348   1.187   0.562   0.763  1.3451  0.6185  0.4440
 5969SOL    HW219349   1.224   0.588   0.907 -1.8248  1.7138  1.1409
 5970SOL     OW19350   0.535   0.030  12.162  0.4206  0.2138 -0.2289
 5970SOL    HW119351   0.567   0.120  12.171 -2.7047  1.3538  0.4960
 5970SOL    HW219352   0.610  -0.018  12.125  2.5078  2.8497  0.2593
 5971SOL     OW19353   7.573   0.081  11.970  0.2521 -0.4544  0.4082
 5971SOL    HW119354   7.548  -0.010  11.960  0.4273 -0.3599 -1.0777
 5971SOL    HW219355   7.663   0.086  11.938  0.7283  0.0188  1.7010
 5972SOL     OW19356   1.660   6.754   1.055 -0.3581  0.4069 -0.2705
 5972SOL    HW119357   1.753   6.773   1.044 -0.0038 -0.8217  0.3728
 5972SOL    HW219358   1.656   6.659   1.059 -2.0166  0.2605 -3.2216
 5973SOL     OW19359   2.669   7.874   0.053 -0.4793 -0.5362  0.4251
 5973SOL    HW119360   2.613   7.885  -0.024  0.8430 -0.0142 -0.4965
 5973SOL    HW219361   2.656   7.953   0.104  0.1769  0.0634 -0.3120
 5974SOL     OW19362   1.892   7.021  11.105  0.3301 -0.0741 -0.0992
 5974SOL    HW119363   1.978   6.981  11.089  0.8204  0.1338  1.7419
 5974SOL    HW219364   1.832   6.946  11.110  0.8692 -0.4623  1.1394
 5975SOL     OW19365   0.055   7.040  12.328 -0.1662 -0.1223  0.0254
 5975SOL    HW119366   0.072   7.093  12.405 -1.6073 -1.0095  1.0173
 5975SOL    HW219367   0.138   7.037  12.281  0.0983  2.5548  0.1670
 5976SOL     OW19368   1.400   7.224  12.273  0.2341  0.1210  0.1820
 5976SOL    HW119369   1.434   7.300  12.319  0.7902 -0.8422  1.4153
 5976SOL    HW219370   1.311   7.214  12.305  0.7475 -0.7829  1.4266
 5977SOL     OW19371   0.550   7.679   0.065  0.5919  0.7417 -0.2342
 5977SOL    HW119372   0.618   7.678   0.132 -1.2602  1.8282  1.7818
 5977SOL    HW219373   0.596   7.699  -0.016  2.8260  0.0889  0.8060
 5978SOL     OW19374   7.991   0.018  10.967 -0.3783 -0.4501  0.3609
 5978SOL    HW119375   7.934   0.063  10.904  1.5433 -1.1526 -2.0722
 5978SOL    HW219376   7.997  -0.072  10.933  0.7677 -0.8460  1.5486
 5979SOL     OW19377   0.356   7.937  12.399  0.5787 -0.0391 -1.2925
 5979SOL    HW119378   0.448   7.916  12.388  0.8446 -0.8011  1.7137
 5979SOL    HW219379   0.355   8.025  12.437  0.1078 -0.3129 -0.6536
 5980SOL     OW19380   1.163   7.330  11.874 -0.0059  0.8788  0.5608
 5980SOL    HW119381   1.205   7.371  11.798 -0.4506 -1.5906 -1.1442
 5980SOL    HW219382   1.220   7.257  11.896 -1.5833 -0.4386  0.4268
 5981SOL     OW19383   2.318   0.170   0.029 -0.1668 -0.1668 -0.2398
 5981SOL    HW119384   2.371   0.149   0.106  1.1609 -0.4460 -1.1888
 5981SOL    HW219385   2.236   0.206   0.064 -0.4844 -2.2836  1.3419
 5982SOL     OW19386   3.034   6.540  11.913  0.0221  0.1539  0.3785
 5982SOL    HW119387   3.021   6.627  11.951 -0.8427  0.4910 -0.6472
 5982SOL    HW219388   3.086   6.556  11.834 -0.3795 -0.2109  0.0333
 5983SOL     OW19389   2.076   0.486  12.021  0.1968 -0.9021  0.7381
 5983SOL    HW119390   1.987   0.452  12.014 -0.4148  0.8411 -1.0516
 5983SOL    HW219391   2.131   0.417  11.985 -0.4949 -1.6996  1.1693
 5984SOL     OW19392   2.804   1.388   2.328  0.0071 -0.4936 -0.0397
 5984SOL    HW119393   2.786   1.313   2.385  0.2579 -2.0391 -1.9067
 5984SOL    HW219394   2.718   1.428   2.313  0.1175  1.2192  2.9280
 5985SOL     OW19395   3.676   2.082   1.309 -0.3609  0.3407  0.3075
 5985SOL    HW119396   3.605   2.146   1.300  0.1919  1.2691  1.9049
 5985SOL    HW219397   3.752   2.135   1.336  0.2248 -0.9233  1.2726
 5986SOL     OW19398   1.528   1.146  12.338  0.5012  0.6672 -0.1873
 5986SOL    HW119399   1.466   1.208  12.300  1.8045  1.9165 -0.3566
 5986SOL    HW219400   1.585   1.120  12.266 -0.3828 -1.2619 -0.2656
 5987SOL     OW19401   3.560   0.854   0.884  0.6950  0.0673 -0.1838
 5987SOL    HW119402   3.602   0.823   0.964  0.6838  1.3539  0.3380
 5987SOL    HW219403   3.611   0.931   0.858  0.4474 -0.0941 -1.1898
 5988SOL     OW19404   1.731   2.647   0.441 -0.0699  0.3899  0.0205
 5988SOL    HW119405   1.811   2.611   0.402  0.1232  0.8172  0.0190
 5988SOL    HW219406   1.761   2.722   0.492 -0.2864 -0.3348  1.2423
 5989SOL     OW19407   1.321   7.964   2.046 -0.1318 -0.0877  0.7713
 5989SOL    HW119408   1.400   7.915   2.027  1.2983  1.9488  1.0756
 5989SOL    HW219409   1.350   8.035   2.104 -2.4404 -0.0638  2.0540
 5990SOL     OW19410   2.411   0.656   1.456  0.2387  0.3142  0.1132
 5990SOL    HW119411   2.331   0.630   1.411  1.0400  1.2971 -2.0406
 5990SOL    HW219412   2.389   0.739   1.498  0.0710  0.5037 -0.3400
 5991SOL     OW19413   3.088   0.136   2.585 -0.0323  0.3547  0.2894
 5991SOL    HW119414   3.094   0.091   2.670 -0.7741  0.2262  0.2814
 5991SOL    HW219415   3.003   0.108   2.549 -0.4612  1.6588  0.2311
 5992SOL     OW19416   0.979   2.819   0.061 -0.6224 -0.7297 -0.4706
 5992SOL    HW119417   0.953   2.892   0.118  0.4076  0.4622 -1.4630
 5992SOL    HW219418   1.027   2.760   0.118 -1.2532 -0.5065  0.3077
 5993SOL     OW19419   1.708   0.709   2.075 -0.1910  0.1197 -0.2199
 5993SOL    HW119420   1.685   0.798   2.051 -0.5114 -0.1819 -1.0553
 5993SOL    HW219421   1.776   0.719   2.142 -0.5396  0.9870  0.0227
 5994SOL     OW19422   1.954   1.178   1.651  0.0888  0.0120 -0.1805
 5994SOL    HW119423   1.898   1.222   1.587  2.7081  0.1435 -2.6101
 5994SOL    HW219424   2.014   1.246   1.680  0.1096 -0.5056  1.0419
 5995SOL     OW19425   3.136   1.490   0.370 -0.0113  0.1073  0.1299
 5995SOL    HW119426   3.085   1.421   0.412 -1.5338  0.4744 -1.0466
 5995SOL    HW219427   3.224   1.479   0.405 -0.8898 -0.4674  2.3397
 5996SOL     OW19428   2.442   1.351   2.491 -0.1407  0.1506 -0.4453
 5996SOL    HW119429   2.404   1.268   2.464  2.7270 -1.4544  0.0647
 5996SOL    HW219430   2.496   1.378   2.417  0.8455  0.2852  0.3042
 5997SOL     OW19431   1.128   2.920   1.241 -0.0132 -0.6271 -0.1438
 5997SOL    HW119432   1.106   2.831   1.270  0.6019 -0.0998  2.1624
 5997SOL    HW219433   1.208   2.910   1.190 -0.5353 -1.5015 -0.8170
 5998SOL     OW19434   2.401   1.254  12.030  0.2258  0.0649  0.1465
 5998SOL    HW119435   2.455   1.175  12.033 -0.5756 -0.4776  1.2518
 5998SOL    HW219436   2.313   1.223  12.051 -0.0002  1.3178  1.1985
 5999SOL     OW19437   2.551   1.542  12.293 -0.8236  0.0620  0.4472
 5999SOL    HW119438   2.461   1.534  12.322 -0.2218 -0.3247  2.3769
 5999SOL    HW219439   2.595   1.465  12.329  0.1757 -0.0909 -0.9806
 6000SOL     OW19440   0.964   7.627  11.481  0.4632  0.5466  0.1406
 6000SOL    HW119441   1.028   7.648  11.550  0.2375 -1.9997  1.2171
 6000SOL    HW219442   1.003   7.664  11.401  2.1894  1.0052  1.1357
 6001SOL     OW19443   3.300   6.919   0.720  0.3039  0.1644  0.3114
 6001SOL    HW119444   3.322   6.969   0.642  0.0582  1.2706  0.9249
 6001SOL    HW219445   3.298   6.828   0.691  1.2011  0.4587 -0.7432
 6002SOL     OW19446   1.818   7.512  11.996  0.2567 -0.4289  0.2901
 6002SOL    HW119447   1.889   7.562  11.955 -0.0645  0.0044  0.2585
 6002SOL    HW219448   1.786   7.569  12.066  0.3922 -0.9132  0.7482
 6003SOL     OW19449   3.672   1.008   0.116 -0.2564 -0.0077 -0.1382
 6003SOL    HW119450   3.718   1.043   0.040  0.6819  0.0501  0.4416
 6003SOL    HW219451   3.740   0.994   0.182 -1.0959  0.3250  0.8411
 6004SOL     OW19452   2.084   1.167   1.360  0.2304  0.0886 -0.7684
 6004SOL    HW119453   2.119   1.249   1.396  0.3411 -0.5960  0.7548
 6004SOL    HW219454   2.161   1.117   1.335  0.4195 -1.0093  1.6776
 6005SOL     OW19455   3.165   1.323  12.297  0.1346  0.0745 -0.1508
 6005SOL    HW119456   3.089   1.283  12.339 -0.3603  0.3931 -0.7130
 6005SOL    HW219457   3.141   1.416  12.289  0.7599  0.2579  0.0428
 6006SOL     OW19458   2.989   1.212   2.224  0.0206 -0.1015  0.4845
 6006SOL    HW119459   2.908   1.170   2.193  0.3428 -1.2163  1.0915
 6006SOL    HW219460   2.959   1.288   2.274 -0.5854  0.3086 -0.4576
 6007SOL     OW19461   2.477   0.945   1.080  0.2616  0.2300  0.1140
 6007SOL    HW119462   2.389   0.929   1.114 -0.9761  2.6261 -1.6452
 6007SOL    HW219463   2.474   1.035   1.047  4.2467  1.5052  2.5333
 6008SOL     OW19464   3.358   7.997   1.064  0.5555 -0.5928 -0.3035
 6008SOL    HW119465   3.451   8.005   1.043  0.5175 -1.1772 -0.7184
 6008SOL    HW219466   3.357   7.953   1.149  0.6515 -2.8141 -1.3662
 6009SOL     OW19467   2.848   7.341   2.264 -0.2126  0.1084 -0.4074
 6009SOL    HW119468   2.846   7.370   2.356 -2.1337  1.0933 -0.7075
 6009SOL    HW219469   2.770   7.381   2.225 -0.9738 -2.5299 -1.7982
 6010SOL     OW19470   2.368   0.492   0.264  0.1724  0.2097 -0.5072
 6010SOL    HW119471   2.423   0.445   0.327  3.0448  2.4979 -1.1106
 6010SOL    HW219472   2.430   0.532   0.203 -2.1884  2.6219 -1.5231
 6011SOL     OW19473   1.141   3.057   0.568  0.4247  0.5012  0.6244
 6011SOL    HW119474   1.064   3.020   0.610  1.2963  0.2010  2.0216
 6011SOL    HW219475   1.185   2.982   0.527 -0.9136  0.9253 -1.7248
 6012SOL     OW19476   2.306   1.962  11.697 -0.5459 -0.5061  0.0440
 6012SOL    HW119477   2.224   1.939  11.653 -0.5858 -1.2052  0.4597
 6012SOL    HW219478   2.277   2.007  11.778 -0.4639  1.4574 -0.9528
 6013SOL     OW19479   3.523   2.400   3.825  0.2142 -0.3036  0.1075
 6013SOL    HW119480   3.598   2.398   3.884 -0.4797 -0.3997  0.9993
 6013SOL    HW219481   3.521   2.490   3.792  2.0729 -0.8599 -1.7393
 6014SOL     OW19482   3.380   7.889  12.195  0.1379 -0.3813  0.1188
 6014SOL    HW119483   3.317   7.817  12.188  0.7807 -0.8580 -0.8837
 6014SOL    HW219484   3.332   7.966  12.164 -0.6564 -0.2854  1.4991
 6015SOL     OW19485   2.014   2.007   0.114 -0.1485 -0.3213  0.1973
 6015SOL    HW119486   1.985   1.983   0.202  1.2564 -2.4465  0.1524
 6015SOL    HW219487   1.956   2.079   0.089 -4.0677 -2.9323  0.8406
 6016SOL     OW19488   3.439   2.848   0.987 -1.3953  0.2379  0.5074
 6016SOL    HW119489   3.371   2.905   0.953  0.6083  1.6556 -1.4515
 6016SOL    HW219490   3.517   2.904   0.991  0.4263 -2.0793 -0.4926
 6017SOL     OW19491   2.505   0.214   2.269 -0.1142 -0.1875  0.1156
 6017SOL    HW119492   2.579   0.272   2.255 -0.0600 -0.3486 -0.2777
 6017SOL    HW219493   2.428   0.268   2.254 -0.0554 -0.3904 -0.9516
 6018SOL     OW19494   3.348   6.962   2.015  0.1214  0.7743 -0.1173
 6018SOL    HW119495   3.297   7.011   2.080  0.4199  1.0339 -0.0781
 6018SOL    HW219496   3.439   6.986   2.032  0.0635  3.7163 -2.8611
 6019SOL     OW19497   3.088   1.576  12.336  0.6017  0.5616 -0.0840
 6019SOL    HW119498   3.136   1.625  12.269  0.7704  1.5492  0.7283
 6019SOL    HW219499   3.075   1.639  12.407 -0.7831 -0.0584  0.2471
 6020SOL     OW19500   1.590   0.878   1.457 -0.1464 -0.5988  0.7257
 6020SOL    HW119501   1.665   0.839   1.501 -0.0803 -0.9311  0.3172
 6020SOL    HW219502   1.515   0.851   1.509 -0.1142 -1.3758  0.3769
 6021SOL     OW19503   2.704   1.159   2.472 -0.0811 -0.1346 -0.1727
 6021SOL    HW119504   2.658   1.158   2.388 -2.4204  0.4565  1.0032
 6021SOL    HW219505   2.729   1.068   2.488  2.7658  0.0726 -2.6166
 6022SOL     OW19506   0.946   2.502   0.956  0.2460 -0.2236 -0.3248
 6022SOL    HW119507   0.903   2.449   0.889  1.0993 -0.2634 -0.8510
 6022SOL    HW219508   0.882   2.571   0.975 -0.1458 -0.4011 -0.9367
 6023SOL     OW19509   3.663   1.440   1.911 -0.1027  0.2476 -0.2416
 6023SOL    HW119510   3.702   1.363   1.951 -1.3177  0.1852  0.9040
 6023SOL    HW219511   3.636   1.495   1.985 -1.0526  0.8278 -0.9881
 6024SOL     OW19512   2.432   0.078   0.280 -0.1883 -0.4964 -0.1214
 6024SOL    HW119513   2.419   0.143   0.349  1.5881 -1.3689  1.1238
 6024SOL    HW219514   2.524   0.087   0.255 -0.8429 -0.0176 -2.6404
 6025SOL     OW19515   2.168   1.168  11.891 -0.4625  0.0975  0.7181
 6025SOL    HW119516   2.187   1.260  11.911 -1.1768  0.2155  0.8580
 6025SOL    HW219517   2.096   1.171  11.828  0.6595 -0.3256 -0.6443
 6026SOL     OW19518   1.432   0.714   2.520 -0.1970  0.0168 -0.3001
 6026SOL    HW119519   1.352   0.691   2.472  0.2997 -1.1244 -0.6122
 6026SOL    HW219520   1.502   0.668   2.474  0.6399  0.9256  0.0306
 6027SOL     OW19521   1.340   0.675  12.367 -0.6095 -0.1423  0.3998
 6027SOL    HW119522   1.313   0.632  12.448 -1.2394  0.7585  0.6843
 6027SOL    HW219523   1.258   0.699  12.324 -0.3754 -2.9904 -1.8653
 6028SOL     OW19524   2.357   2.774   2.393  0.0395  0.3117 -0.2858
 6028SOL    HW119525   2.414   2.831   2.445  0.5692 -0.2308 -0.2594
 6028SOL    HW219526   2.270   2.811   2.404  0.4812  1.6609 -0.9761
 6029SOL     OW19527   3.053   1.214   0.301  0.1668 -0.0945  0.0951
 6029SOL    HW119528   3.016   1.229   0.388 -0.6394  1.0842 -0.4326
 6029SOL    HW219529   3.018   1.129   0.274 -0.1703 -0.1259  0.6220
 6030SOL     OW19530   1.589   0.406  12.219 -0.1393  0.2482  0.1447
 6030SOL    HW119531   1.590   0.331  12.160  0.4453  0.1898  0.2155
 6030SOL    HW219532   1.503   0.445  12.208 -0.3963 -0.3487 -0.0042
 6031SOL     OW19533   2.781   1.342  11.928  0.0940 -0.9487 -0.0711
 6031SOL    HW119534   2.848   1.361  11.863 -0.1645 -1.6749 -0.5669
 6031SOL    HW219535   2.729   1.422  11.933 -0.0504 -0.9763 -0.9759
 6032SOL     OW19536   2.111   1.437  12.268  0.3149 -0.2497  0.0021
 6032SOL    HW119537   2.018   1.447  12.289 -0.0646 -0.0662 -1.6761
 6032SOL    HW219538   2.114   1.361  12.209  1.6597 -2.4234  2.6211
 6033SOL     OW19539   3.295   0.880   0.950  0.0064  0.0387  0.6096
 6033SOL    HW119540   3.300   0.877   1.045  0.5656  0.9985  0.6213
 6033SOL    HW219541   3.385   0.868   0.920 -0.3005 -1.3074  0.1514
 6034SOL     OW19542   2.504   7.831  12.320  0.3036  0.0944 -0.3237
 6034SOL    HW119543   2.565   7.786  12.262  0.0701 -0.8343  0.1179
 6034SOL    HW219544   2.477   7.763  12.383  0.6189  1.0889  0.9157
 6035SOL     OW19545   2.676   1.077   0.154  0.6237 -0.5578 -0.6985
 6035SOL    HW119546   2.612   1.148   0.160  1.8510  0.5176  0.3702
 6035SOL    HW219547   2.641   1.018   0.087 -0.9065  0.5595 -0.9303
 6036SOL     OW19548   3.390   1.379   0.240  0.0372 -0.3494  0.2687
 6036SOL    HW119549   3.301   1.412   0.229  0.3618  0.1529 -1.0331
 6036SOL    HW219550   3.444   1.457   0.250  0.4389 -0.6000  0.0946
 6037SOL     OW19551   2.909   1.526   1.437  0.7908 -0.1655 -0.1021
 6037SOL    HW119552   2.979   1.505   1.499 -2.6074 -3.4816  3.1426
 6037SOL    HW219553   2.870   1.607   1.471  0.5550 -0.5700  0.6145
 6038SOL     OW19554   2.955   2.223  12.349 -0.4340 -0.3465  0.3069
 6038SOL    HW119555   3.040   2.178  12.349  0.9499  2.0017 -1.3695
 6038SOL    HW219556   2.926   2.220  12.440  1.6308 -0.9210  1.0120
 6039SOL     OW19557   2.736   1.613   0.508  0.5752  0.2856 -0.0452
 6039SOL    HW119558   2.720   1.530   0.463  1.0053 -0.2137  0.7035
 6039SOL    HW219559   2.758   1.674   0.438 -0.4226 -0.0523 -0.6726
 6040SOL     OW19560   3.420   2.409  11.272  0.3631  0.3116 -0.2811
 6040SOL    HW119561   3.336   2.364  11.285  1.2054 -2.2827 -2.7224
 6040SOL    HW219562   3.395   2.498  11.244 -1.4740  0.3564  1.2651
 6041SOL     OW19563   1.149   2.083  11.831 -0.0096  0.8386 -0.1375
 6041SOL    HW119564   1.075   2.052  11.778  1.9195 -0.4265 -2.2676
 6041SOL    HW219565   1.145   2.179  11.824 -0.2490  0.7256 -2.0065
 6042SOL     OW19566   4.582   7.355  12.433  0.7940  0.1652 -0.1396
 6042SOL    HW119567   4.526   7.319  12.503 -1.2913  0.9341 -1.3123
 6042SOL    HW219568   4.625   7.430  12.473  1.2186 -0.5966  0.8772
 6043SOL     OW19569   1.353   2.435  11.126 -0.0792 -0.2431 -0.5719
 6043SOL    HW119570   1.347   2.524  11.090 -0.9809 -0.4220 -0.9076
 6043SOL    HW219571   1.441   2.429  11.163  0.5782  0.2273 -2.0234
 6044SOL     OW19572   3.239   2.256  12.451  0.4973 -0.1415  0.6708
 6044SOL    HW119573   3.325   2.296  12.443  0.4723 -0.0965  0.6310
 6044SOL    HW219574   3.257   2.163  12.464  0.5288 -0.2776 -0.2808
 6045SOL     OW19575   1.461   1.046   0.540  0.4041 -0.3324  0.5685
 6045SOL    HW119576   1.500   0.979   0.598 -0.6555 -2.2070 -0.7723
 6045SOL    HW219577   1.415   1.105   0.599 -0.2223 -1.8987  1.7326
 6046SOL     OW19578   2.463   7.698   1.060  0.3535 -0.2253 -0.1334
 6046SOL    HW119579   2.546   7.699   1.013  0.8922 -0.4110  0.7832
 6046SOL    HW219580   2.437   7.606   1.061 -0.3586 -0.0472 -1.2470
 6047SOL     OW19581   2.449   0.039   1.608  0.0104 -0.1144 -0.0339
 6047SOL    HW119582   2.485   0.128   1.603  0.2770 -0.2703 -1.1852
 6047SOL    HW219583   2.525  -0.017   1.622 -0.0876 -0.2044  0.1336
 6048SOL     OW19584   2.432   1.283   0.279 -0.3763 -0.0665 -0.2312
 6048SOL    HW119585   2.396   1.259   0.193  1.4365  0.6705 -1.2413
 6048SOL    HW219586   2.356   1.283   0.337 -1.6546 -0.6039 -1.8177
 6049SOL     OW19587   4.713   0.175   0.448  0.0667  0.3699  0.5148
 6049SOL    HW119588   4.725   0.266   0.422  0.1243  0.2041 -0.0429
 6049SOL    HW219589   4.624   0.153   0.421 -0.5982  0.7782  2.2327
 6050SOL     OW19590   3.241   0.283  12.157 -0.0528  0.2700 -0.0847
 6050SOL    HW119591   3.227   0.377  12.145 -1.1160  0.1118 -0.1375
 6050SOL    HW219592   3.316   0.278  12.217  0.2500  1.1420 -0.3758
 6051SOL     OW19593   3.380   7.119   0.906  0.0916  0.3013 -0.0073
 6051SOL    HW119594   3.332   7.047   0.865 -0.1584 -0.0919  0.9561
 6051SOL    HW219595   3.382   7.188   0.839  1.3687 -1.0199 -1.4154
 6052SOL     OW19596   1.798   7.232   1.574  0.1419 -0.0582 -0.1826
 6052SOL    HW119597   1.807   7.200   1.664  1.2947 -0.3043 -0.3705
 6052SOL    HW219598   1.704   7.248   1.563 -0.3871 -2.5678  0.2066
 6053SOL     OW19599   3.565   0.932  11.828 -0.3581  1.0092 -0.0885
 6053SOL    HW119600   3.531   1.015  11.795  0.1703  1.1441 -0.3061
 6053SOL    HW219601   3.555   0.871  11.755 -0.2823  1.0121 -0.1018
 6054SOL     OW19602   2.241   0.931   1.265  0.0883  0.1240 -0.4192
 6054SOL    HW119603   2.181   0.962   1.198 -0.0371 -0.0829 -0.4025
 6054SOL    HW219604   2.219   0.839   1.277  1.3068 -0.3300 -1.4055
 6055SOL     OW19605   2.252   6.635   0.768 -0.4650 -0.1414 -0.0872
 6055SOL    HW119606   2.305   6.555   0.767 -1.0120 -0.5110  0.3145
 6055SOL    HW219607   2.283   6.685   0.692  0.9881 -0.0034  0.5750
 6056SOL     OW19608   3.057   7.969   0.652  0.2364 -0.2220 -0.3314
 6056SOL    HW119609   3.130   7.942   0.708 -1.0406 -0.0749  1.4943
 6056SOL    HW219610   3.019   8.045   0.697 -0.7138  0.0544 -1.5366
 6057SOL     OW19611   3.687   2.330  11.325  0.0116  0.2346  0.1673
 6057SOL    HW119612   3.729   2.249  11.296  0.2821  0.1372  0.8156
 6057SOL    HW219613   3.594   2.309  11.330  0.1753 -0.3006  1.1759
 6058SOL     OW19614   2.696   1.451  11.492  0.3079  0.2018  0.3144
 6058SOL    HW119615   2.616   1.442  11.440 -0.6230  2.9359  1.0581
 6058SOL    HW219616   2.665   1.481  11.577  2.1161  2.3546  0.3172
 6059SOL     OW19617   1.205   2.589  12.127 -0.0717  0.0861  0.0703
 6059SOL    HW119618   1.202   2.541  12.044  0.2078  0.4721 -0.1643
 6059SOL    HW219619   1.133   2.653  12.120 -0.1010  0.0627  0.1593
 6060SOL     OW19620   3.034   7.780   0.137  0.0667  0.0627 -0.0278
 6060SOL    HW119621   3.088   7.708   0.170 -0.9552 -0.8886 -0.3547
 6060SOL    HW219622   2.952   7.774   0.187 -0.3068  0.5368 -0.5654
 6061SOL     OW19623   1.811   0.172   2.897 -0.3770 -0.0006 -0.5528
 6061SOL    HW119624   1.845   0.141   2.981 -0.9865  1.1982  0.1633
 6061SOL    HW219625   1.725   0.130   2.890 -0.2306 -0.2798 -0.6907
 6062SOL     OW19626   1.587   1.440  12.196  0.1295 -0.5641 -0.4565
 6062SOL    HW119627   1.565   1.482  12.279  1.8387 -0.1133 -0.1932
 6062SOL    HW219628   1.523   1.475  12.134  0.6034  1.3379  0.0722
 6063SOL     OW19629   2.503   0.666   0.088  0.1530  0.0474 -0.0567
 6063SOL    HW119630   2.579   0.616   0.057  0.3271 -0.0868  0.5673
 6063SOL    HW219631   2.513   0.752   0.048  0.2508 -0.1868 -0.5482
 6064SOL     OW19632   2.922   1.203  12.389 -0.2877 -0.4889  0.1710
 6064SOL    HW119633   2.889   1.121  12.428 -0.0413 -0.0404  1.3529
 6064SOL    HW219634   2.868   1.215  12.311 -0.3110 -1.7921 -0.0428
 6065SOL     OW19635   3.908   0.855   1.023  0.2085 -0.1660 -0.4848
 6065SOL    HW119636   3.999   0.863   1.049 -0.3519 -0.2082  1.6250
 6065SOL    HW219637   3.883   0.943   0.995  0.1155  0.6128  1.8184
 6066SOL     OW19638   2.675   0.918  12.114  0.2708 -0.0757 -0.2090
 6066SOL    HW119639   2.730   0.840  12.113 -1.4244 -1.3068 -0.7274
 6066SOL    HW219640   2.669   0.942  12.207  0.6173 -0.6909 -0.0271
 6067SOL     OW19641   3.814   0.115   0.024 -0.3255  0.1645  0.0858
 6067SOL    HW119642   3.860   0.166   0.091 -1.2536 -0.6414  1.4021
 6067SOL    HW219643   3.764   0.180  -0.025  1.9315  1.0239 -1.2193
 6068SOL     OW19644   2.824   2.014  11.798 -0.5882 -0.2311 -0.5842
 6068SOL    HW119645   2.740   2.019  11.751 -0.4476 -1.5780 -1.0064
 6068SOL    HW219646   2.886   2.060  11.741 -1.1095  1.1589 -0.0634
 6069SOL     OW19647   2.730   2.600   2.262 -0.7046 -0.3047 -0.1026
 6069SOL    HW119648   2.648   2.609   2.214 -0.8349 -1.1628 -0.0492
 6069SOL    HW219649   2.796   2.592   2.193 -0.5654  1.0313 -0.1576
 6070SOL     OW19650   4.405   7.641   0.010 -0.1405  0.1201  0.1935
 6070SOL    HW119651   4.458   7.609   0.083 -0.7773 -3.2492 -0.6475
 6070SOL    HW219652   4.316   7.643   0.044 -0.1293  0.8332  0.1772
 6071SOL     OW19653   1.796   0.345  11.850  0.2638 -0.5823  0.5423
 6071SOL    HW119654   1.772   0.276  11.789  0.6603 -0.3593  0.1297
 6071SOL    HW219655   1.867   0.393  11.806 -0.7446  0.7675  0.3336
 6072SOL     OW19656   2.776   1.563   2.012  0.7467 -0.5459 -0.3764
 6072SOL    HW119657   2.737   1.495   1.958 -2.1979 -0.2475  1.1571
 6072SOL    HW219658   2.858   1.524   2.045 -1.3281 -3.9376  1.3660
 6073SOL     OW19659   1.266   2.305   2.110  0.3639  0.1094  0.2626
 6073SOL    HW119660   1.289   2.228   2.161  0.7371 -0.7873 -1.1946
 6073SOL    HW219661   1.313   2.294   2.027  0.1295  1.7210 -0.1197
 6074SOL     OW19662   2.410   1.520   2.001 -0.0680  0.0081  0.3371
 6074SOL    HW119663   2.500   1.497   1.976 -0.0051  0.0591  0.5158
 6074SOL    HW219664   2.358   1.498   1.924  0.2210  0.8307 -0.1055
 6075SOL     OW19665   3.127   1.750   1.486 -0.4676  0.3512 -0.4895
 6075SOL    HW119666   3.164   1.664   1.468 -1.1961 -0.1449  0.3275
 6075SOL    HW219667   3.196   1.796   1.534 -0.1710  0.1459 -0.7148
 6076SOL     OW19668   1.519   2.051   0.378 -0.5759 -0.5602 -0.1195
 6076SOL    HW119669   1.583   2.006   0.432 -0.2321 -0.3105 -0.3094
 6076SOL    HW219670   1.537   2.144   0.391 -1.7488 -0.4375  0.8418
 6077SOL     OW19671   2.758   7.693   0.952  0.2991  0.3023 -0.0957
 6077SOL    HW119672   2.738   7.743   0.872 -0.7487  0.8643  0.4959
 6077SOL    HW219673   2.788   7.759   1.015 -0.0935  0.0479  0.3631
 6078SOL     OW19674   2.587   1.055   0.788  0.2069 -0.0246  0.3312
 6078SOL    HW119675   2.526   1.069   0.861  0.3536 -0.2204  0.4956
 6078SOL    HW219676   2.559   1.116   0.720 -0.9152 -0.9388 -0.0586
 6079SOL     OW19677   0.727   0.242   0.682 -0.2987 -0.6295 -0.4120
 6079SOL    HW119678   0.762   0.165   0.727 -0.2739  0.0897  0.8631
 6079SOL    HW219679   0.653   0.209   0.632  0.4129 -1.6671 -0.7925
 6080SOL     OW19680   1.838   2.218   0.525 -0.0344  0.4815  0.4430
 6080SOL    HW119681   1.892   2.293   0.552 -1.3996  0.5014  3.5586
 6080SOL    HW219682   1.750   2.255   0.517 -0.1976 -0.2014 -1.3299
 6081SOL     OW19683   3.903   0.825  12.470 -0.3818 -0.1947 -0.3820
 6081SOL    HW119684   3.965   0.823  12.544 -0.2188 -1.2076 -0.5302
 6081SOL    HW219685   3.866   0.913  12.473  1.6323  0.7243 -0.7655
 6082SOL     OW19686   1.324   2.094   0.735 -0.1931 -0.0940 -0.1084
 6082SOL    HW119687   1.396   2.155   0.752  0.2216 -0.9515  1.4336
 6082SOL    HW219688   1.267   2.102   0.812 -1.2471 -0.1394 -0.8629
 6083SOL     OW19689   1.301   1.296   1.337  0.6194  0.0479  0.7070
 6083SOL    HW119690   1.342   1.233   1.278  0.6514  0.5082  0.2281
 6083SOL    HW219691   1.342   1.380   1.315  1.0874  0.1330  1.8181
 6084SOL     OW19692   2.424   1.782   0.281 -0.2931 -0.8223 -0.2701
 6084SOL    HW119693   2.512   1.808   0.254 -0.7199  1.4111  0.3188
 6084SOL    HW219694   2.366   1.847   0.241 -1.2712  0.3543  2.7655
 6085SOL     OW19695   2.459   0.989  11.960  0.1468  0.7695  0.3371
 6085SOL    HW119696   2.542   0.949  11.986 -0.7092 -1.1003  0.3827
 6085SOL    HW219697   2.396   0.957  12.025 -1.2146 -0.5563 -1.4903
 6086SOL     OW19698   2.406   1.181   0.995 -0.0631  0.0091 -0.7483
 6086SOL    HW119699   2.391   1.219   1.082  1.1491 -1.6942  0.2757
 6086SOL    HW219700   2.397   1.254   0.935  2.5257  2.0336  1.1325
 6087SOL     OW19701   2.165   7.593  11.381  0.0772  0.0666 -0.2301
 6087SOL    HW119702   2.169   7.685  11.355  1.3008  0.5745  1.5953
 6087SOL    HW219703   2.242   7.579  11.435 -0.7325 -1.7092  0.5704
 6088SOL     OW19704   2.499   1.585   0.917 -0.1269 -0.0429  0.5610
 6088SOL    HW119705   2.515   1.523   0.845  0.3783 -0.9989  1.4773
 6088SOL    HW219706   2.406   1.606   0.909  0.2339  1.0814 -1.3060
 6089SOL     OW19707   2.164   1.631   1.356 -0.8614  0.1204  0.3173
 6089SOL    HW119708   2.113   1.701   1.315 -0.3087  0.6329  0.4977
 6089SOL    HW219709   2.250   1.669   1.370 -0.6652 -0.4777  0.7628
 6090SOL     OW19710   2.631   1.157   2.202 -0.4491  0.0622  0.0602
 6090SOL    HW119711   2.562   1.094   2.183 -0.0316 -0.5519  0.5635
 6090SOL    HW219712   2.625   1.221   2.131 -2.4674  0.8394  0.8631
 6091SOL     OW19713   3.215   0.580   0.902  0.1896  0.1596 -0.6571
 6091SOL    HW119714   3.295   0.530   0.889 -0.2109 -0.6422 -0.1289
 6091SOL    HW219715   3.235   0.667   0.867  1.3239  0.0106 -0.4234
 6092SOL     OW19716   3.174   7.557   2.138  0.4966  0.0116 -0.5264
 6092SOL    HW119717   3.236   7.627   2.158 -0.6183  0.5770  1.2475
 6092SOL    HW219718   3.226   7.477   2.140  1.3712  0.5706 -0.1831
 6093SOL     OW19719   2.239   0.893   1.772 -0.1464 -0.0289 -0.1539
 6093SOL    HW119720   2.288   0.818   1.805  1.6732  1.0423 -0.3124
 6093SOL    HW219721   2.245   0.887   1.677  1.0231  0.9018 -0.1688
 6094SOL     OW19722   2.960   0.350   1.563 -0.0745  0.0832  0.2658
 6094SOL    HW119723   2.936   0.258   1.569  0.1207  0.0482  0.5176
 6094SOL    HW219724   3.056   0.349   1.556 -0.1562  0.1978 -1.1485
 6095SOL     OW19725   0.920   7.540  12.414 -0.2917 -0.4375 -0.6164
 6095SOL    HW119726   0.880   7.491  12.342 -0.3360 -1.8749  0.3367
 6095SOL    HW219727   0.862   7.524  12.488 -0.2584  1.0432 -0.2591
 6096SOL     OW19728   1.783   2.287   1.827  0.3719  0.1772  0.0454
 6096SOL    HW119729   1.710   2.257   1.774  0.0115  0.6746  0.2423
 6096SOL    HW219730   1.780   2.383   1.821  1.8161  0.1953 -1.0202
 6097SOL     OW19731   1.472   0.852   1.780  0.0868  0.3268  0.4542
 6097SOL    HW119732   1.458   0.757   1.772 -1.0864  0.5669 -0.5599
 6097SOL    HW219733   1.388   0.891   1.760  0.3689  1.5909  1.5483
 6098SOL     OW19734   3.061   1.191   2.645 -0.0619 -0.0228  1.0209
 6098SOL    HW119735   3.155   1.174   2.653 -0.0107 -0.3481 -0.0806
 6098SOL    HW219736   3.025   1.110   2.611 -0.1687  1.1765 -2.0587
 6099SOL     OW19737   1.963   0.655  12.471  0.3548 -0.3844 -0.5039
 6099SOL    HW119738   1.995   0.627  12.557  0.6830 -0.8716 -0.7786
 6099SOL    HW219739   1.902   0.587  12.444  1.0880 -0.8031 -1.1362
 6100SOL     OW19740   3.381   1.284   2.123 -0.6704  0.3210  0.3050
 6100SOL    HW119741   3.452   1.219   2.126 -1.5722 -0.6569  2.4418
 6100SOL    HW219742   3.425   1.366   2.101  0.7477 -0.7013 -0.8458
 6101SOL     OW19743   3.119   1.026   2.358  0.1769 -0.5879 -0.2496
 6101SOL    HW119744   3.065   0.978   2.421  1.0751  0.2555  1.2182
 6101SOL    HW219745   3.065   1.100   2.330  0.3318 -0.1122  0.7064
 6102SOL     OW19746   2.022   1.624   1.870  0.1841 -0.0344  0.2691
 6102SOL    HW119747   2.034   1.530   1.877  2.6542  0.2376  0.7753
 6102SOL    HW219748   2.052   1.645   1.781 -0.4617  0.2654  0.1184
 6103SOL     OW19749   2.082   1.333   2.613  0.1112  0.2492  0.4995
 6103SOL    HW119750   2.100   1.426   2.599 -1.2045  0.4587  0.0680
 6103SOL    HW219751   2.063   1.298   2.526 -2.6116  0.3240  0.9829
 6104SOL     OW19752   1.839   1.630   1.345 -0.7119  0.4971 -0.2560
 6104SOL    HW119753   1.899   1.640   1.271  0.8671  0.7122  0.9941
 6104SOL    HW219754   1.764   1.685   1.322  0.8232  2.5753 -0.6357
 6105SOL     OW19755   3.699   1.005  12.324 -0.0829 -0.0682 -0.0182
 6105SOL    HW119756   3.703   0.979  12.232  1.2212  0.1100 -0.0316
 6105SOL    HW219757   3.726   1.096  12.324 -1.3090  0.3058  0.4139
 6106SOL     OW19758   3.962   1.333   0.102 -0.7372  0.4323  0.0754
 6106SOL    HW119759   3.979   1.332   0.196  1.4093  0.2349 -0.2626
 6106SOL    HW219760   4.025   1.396   0.067  1.5361 -2.4751 -1.6434
 6107SOL     OW19761   2.394   2.406  12.154 -0.1911  0.1773  0.0825
 6107SOL    HW119762   2.362   2.447  12.073  0.5476  1.2383  0.2988
 6107SOL    HW219763   2.374   2.471  12.222  0.6093 -0.0050  0.5048
 6108SOL     OW19764   1.807   0.918  12.385 -0.2174  0.3941 -0.0839
 6108SOL    HW119765   1.742   0.849  12.378 -0.1001  0.2490  0.2438
 6108SOL    HW219766   1.808   0.942  12.478 -0.7723  1.3391 -0.3022
 6109SOL     OW19767   1.130   1.651   0.194  0.0051  0.4397 -0.3542
 6109SOL    HW119768   1.115   1.725   0.253  0.2044 -0.3665  0.7340
 6109SOL    HW219769   1.086   1.577   0.236  1.0462 -0.3936 -0.6740
 6110SOL     OW19770   4.036   0.236   0.646 -0.0808 -0.5117  0.8258
 6110SOL    HW119771   4.042   0.169   0.714 -0.1839 -0.1915  1.1530
 6110SOL    HW219772   4.046   0.319   0.693  0.2421 -0.3027  0.3993
 6111SOL     OW19773   3.197   0.346   2.287 -0.6894  0.1865 -0.1643
 6111SOL    HW119774   3.192   0.441   2.273 -0.6745  0.1850 -0.1802
 6111SOL    HW219775   3.138   0.309   2.222 -1.8034  0.2620  0.7633
 6112SOL     OW19776   1.048   1.908   0.323 -0.3575  0.1323  0.6419
 6112SOL    HW119777   1.082   1.980   0.271 -2.2067  1.4126  1.0925
 6112SOL    HW219778   1.085   1.921   0.410 -0.4634  0.3924  0.6498
 6113SOL     OW19779   1.377   2.332  11.956 -0.0566 -0.2055 -0.0138
 6113SOL    HW119780   1.287   2.355  11.933  0.0198 -1.4526 -1.7606
 6113SOL    HW219781   1.429   2.408  11.930 -0.2920 -0.6123 -1.8008
 6114SOL     OW19782   3.435   0.285  12.363 -0.2569  0.2523  0.5183
 6114SOL    HW119783   3.412   0.243  12.446 -0.2675 -0.4239  0.1732
 6114SOL    HW219784   3.530   0.301  12.370 -0.1042 -0.5503  0.3294
 6115SOL     OW19785   2.313   1.409   1.723 -0.7827 -0.5996 -0.3746
 6115SOL    HW119786   2.260   1.425   1.645  0.3686 -1.5641 -1.4165
 6115SOL    HW219787   2.302   1.315   1.740 -2.2732 -0.1289  1.6358
 6116SOL     OW19788   1.903   1.295   2.090 -0.0267  0.1466  0.1256
 6116SOL    HW119789   1.948   1.312   2.173 -0.8217 -0.5979  0.7257
 6116SOL    HW219790   1.815   1.331   2.103 -0.7132 -1.5037  0.2678
 6117SOL     OW19791   5.344   0.544   0.338  0.4172  0.6592 -0.4573
 6117SOL    HW119792   5.392   0.534   0.256  0.7505  0.4554 -0.2359
 6117SOL    HW219793   5.309   0.457   0.357  0.5292  0.6554 -0.2660
 6118SOL     OW19794   1.921   1.693  11.518  0.6406  0.4714  0.2645
 6118SOL    HW119795   1.916   1.642  11.599 -0.0888 -0.2824 -0.2385
 6118SOL    HW219796   1.993   1.653  11.469  0.0696 -0.0704 -0.1297
 6119SOL     OW19797   2.969   0.980   1.121 -0.2628  0.0238 -0.1862
 6119SOL    HW119798   2.983   0.959   1.029 -1.8093 -0.9811 -0.2434
 6119SOL    HW219799   2.885   0.939   1.142 -0.4841  1.1719  1.3792
 6120SOL     OW19800   0.326   3.005   2.742  0.2562  0.4016  0.4047
 6120SOL    HW119801   0.275   3.041   2.815  0.2011  0.3950  0.3698
 6120SOL    HW219802   0.304   2.912   2.742  0.2467  0.4039  0.3724
 6121SOL     OW19803   1.242   1.104   2.326 -0.2851 -0.0392 -0.1739
 6121SOL    HW119804   1.257   1.067   2.413 -0.4041  1.3514  0.4502
 6121SOL    HW219805   1.154   1.140   2.329  0.1521  1.1007 -0.4671
 6122SOL     OW19806   0.904   1.818   1.964 -0.1194 -0.2820  0.4191
 6122SOL    HW119807   0.894   1.728   1.933 -1.9591  0.2975 -0.8026
 6122SOL    HW219808   0.935   1.809   2.054  2.7049 -2.0642 -0.5838
 6123SOL     OW19809   1.403   7.588   1.900 -0.1030 -0.2829  0.2269
 6123SOL    HW119810   1.441   7.668   1.863  0.6782 -0.5310  0.4750
 6123SOL    HW219811   1.400   7.527   1.826 -2.3150  0.4884 -0.4107
 6124SOL     OW19812   0.914   1.905  12.065 -0.2192 -0.4614 -0.2899
 6124SOL    HW119813   0.842   1.948  12.019 -0.0095  1.3505  0.9794
 6124SOL    HW219814   0.960   1.976  12.109  1.5143 -1.7566  0.0854
 6125SOL     OW19815   3.441   2.148   0.339  0.5316 -0.1937  0.2650
 6125SOL    HW119816   3.356   2.145   0.382 -0.6616  1.7768 -1.7332
 6125SOL    HW219817   3.434   2.084   0.268  0.3546  0.6043 -0.4502
 6126SOL     OW19818   3.121   1.095   0.587  0.0389  0.3470  0.3042
 6126SOL    HW119819   3.041   1.148   0.595 -0.8273 -1.1558  2.3480
 6126SOL    HW219820   3.173   1.119   0.664  1.6049  1.2568 -0.9647
 6127SOL     OW19821   3.163   4.327  12.400 -0.6380  0.1173  0.1098
 6127SOL    HW119822   3.229   4.358  12.463 -0.6893 -0.1831  0.3120
 6127SOL    HW219823   3.082   4.324  12.450 -1.3458  2.7441 -0.6976
 6128SOL     OW19824   1.431   2.255   1.884  0.4892  0.4372  0.0243
 6128SOL    HW119825   1.433   2.350   1.881  0.7716  0.4498  0.5580
 6128SOL    HW219826   1.497   2.227   1.820  0.7904  0.6069  0.2604
 6129SOL     OW19827   3.857   0.303   0.457 -0.0474  0.0304  0.4430
 6129SOL    HW119828   3.919   0.300   0.530  2.0765 -0.3182 -1.2616
 6129SOL    HW219829   3.831   0.395   0.452  2.5538  0.7994 -0.4698
 6130SOL     OW19830   2.539   7.185   0.080  0.1620 -0.2613  0.6466
 6130SOL    HW119831   2.508   7.189  -0.011 -2.3711 -2.1184  1.3078
 6130SOL    HW219832   2.617   7.131   0.076  0.0753 -0.3345 -0.4398
 6131SOL     OW19833   4.305   1.554   1.742  0.1307  0.3659  0.5843
 6131SOL    HW119834   4.231   1.522   1.793 -2.5094  0.2452 -2.8973
 6131SOL    HW219835   4.337   1.476   1.695  0.7791  0.8895  0.1352
 6132SOL     OW19836   2.031   1.898  11.668  0.2261 -0.4388 -0.3999
 6132SOL    HW119837   1.983   1.981  11.670  2.2431  0.7738  0.3557
 6132SOL    HW219838   1.968   1.835  11.634 -1.6646  1.2002 -0.1113
 6133SOL     OW19839   1.727   1.955  12.394 -0.5016  0.3173 -0.0202
 6133SOL    HW119840   1.708   1.920  12.481  1.1153  0.3569  0.3708
 6133SOL    HW219841   1.746   1.879  12.340 -0.5583  0.3564 -0.0963
 6134SOL     OW19842   3.601   0.655  12.421  0.0027  0.2803 -0.1475
 6134SOL    HW119843   3.663   0.639  12.350  1.4629 -1.8407  1.4758
 6134SOL    HW219844   3.641   0.724  12.473  0.3333 -0.1229  0.1373
 6135SOL     OW19845   1.868   2.869   0.537  0.3066  0.6410 -0.0094
 6135SOL    HW119846   1.874   2.949   0.486  0.3420  1.0513  0.6257
 6135SOL    HW219847   1.823   2.895   0.617 -0.5513 -0.1813 -0.2077
 6136SOL     OW19848   1.009   0.173   0.123 -0.5509 -0.3124 -0.3202
 6136SOL    HW119849   0.966   0.150   0.041  0.9232 -2.4540 -0.5520
 6136SOL    HW219850   1.092   0.214   0.096 -1.4080  1.8580  0.1363
 6137SOL     OW19851   4.788   1.203   0.333  0.6592  0.1457 -0.2550
 6137SOL    HW119852   4.856   1.154   0.287  1.3126 -0.9796  1.7763
 6137SOL    HW219853   4.744   1.138   0.388  0.1867  1.4583  0.9987
 6138SOL     OW19854   2.918   1.412   0.125 -0.0451  0.2763 -0.5837
 6138SOL    HW119855   2.980   1.377   0.189  0.2991  0.3005 -0.9059
 6138SOL    HW219856   2.927   1.355   0.048 -2.0944 -1.2131  0.1709
 6139SOL     OW19857   2.580   0.998   1.595  0.0920 -0.0842  0.4638
 6139SOL    HW119858   2.667   0.996   1.636  0.6010 -0.4577 -0.6036
 6139SOL    HW219859   2.558   1.091   1.589 -0.3431 -0.0290  2.2512
 6140SOL     OW19860   2.068   1.774  12.460 -0.1633  0.2778 -0.0313
 6140SOL    HW119861   2.001   1.707  12.473  0.0432  0.1237  0.2647
 6140SOL    HW219862   2.041   1.846  12.518  0.2248 -0.0116  0.5240
 6141SOL     OW19863   2.322   1.384   1.186  0.8610 -0.0649  0.5490
 6141SOL    HW119864   2.400   1.354   1.232 -0.2602 -0.8851  2.0221
 6141SOL    HW219865   2.299   1.466   1.230  1.4362  0.7015 -0.5475
 6142SOL     OW19866   2.256   7.974  12.336  0.2745 -0.3399 -0.2021
 6142SOL    HW119867   2.328   7.911  12.335 -0.0532 -0.7179 -1.2146
 6142SOL    HW219868   2.279   8.036  12.405  2.0697  0.1171 -1.1513
 6143SOL     OW19869   2.469   2.150  12.175  0.0815 -0.0593 -0.2267
 6143SOL    HW119870   2.446   2.243  12.167 -0.4723 -0.1563  0.1440
 6143SOL    HW219871   2.419   2.108  12.104 -0.6841 -0.2360  0.4073
 6144SOL     OW19872   1.593   1.676   0.320 -0.0751  0.1198 -0.1162
 6144SOL    HW119873   1.630   1.738   0.382  1.0391  1.4038 -1.9582
 6144SOL    HW219874   1.655   1.603   0.320 -1.0532 -0.7807  1.5770
 6145SOL     OW19875   3.553   2.425   0.277  0.0820 -0.0196  0.0049
 6145SOL    HW119876   3.624   2.419   0.214  0.0583 -0.5784  0.0249
 6145SOL    HW219877   3.506   2.341   0.268 -0.0333 -0.0262  0.6234
 6146SOL     OW19878   1.955   0.960   0.651  0.5211  0.0850 -0.3164
 6146SOL    HW119879   1.885   1.022   0.671  1.9117  1.7870 -0.4561
 6146SOL    HW219880   1.945   0.890   0.715 -1.1776  0.3827 -0.2223
 6147SOL     OW19881   4.239   7.656  12.090 -0.8206 -0.6439  0.6198
 6147SOL    HW119882   4.173   7.621  12.030 -2.2192 -0.6818  2.1159
 6147SOL    HW219883   4.250   7.588  12.156  1.6842 -1.1767 -0.2398
 6148SOL     OW19884   1.815   1.207   0.022  0.8739  0.5172  0.0946
 6148SOL    HW119885   1.897   1.194   0.070  1.7282  0.9162 -1.2005
 6148SOL    HW219886   1.843   1.236  -0.065 -0.6385  0.2993 -0.4878
 6149SOL     OW19887   3.702   1.602   1.075  0.2422  0.1761 -0.1829
 6149SOL    HW119888   3.651   1.682   1.062 -2.2708 -1.5175 -1.6655
 6149SOL    HW219889   3.679   1.572   1.163 -2.1657 -0.9865 -1.1099
 6150SOL     OW19890   1.912   7.721   0.478  0.2457 -0.2490  0.3432
 6150SOL    HW119891   1.986   7.782   0.477  1.0938 -1.2356 -1.0284
 6150SOL    HW219892   1.934   7.659   0.547  0.1528  0.0763  0.6703
 6151SOL     OW19893   1.660   0.353   1.112 -0.6670 -0.0564  0.0818
 6151SOL    HW119894   1.592   0.359   1.179 -1.2154 -1.3073 -0.3242
 6151SOL    HW219895   1.679   0.444   1.088 -3.9883  0.3545 -1.5587
 6152SOL     OW19896   0.942   1.634  12.115 -0.3251 -0.4044 -0.5294
 6152SOL    HW119897   0.926   1.727  12.100  1.2314 -0.1028 -0.4892
 6152SOL    HW219898   0.863   1.604  12.160 -1.1586  0.7211 -1.1724
 6153SOL     OW19899   3.272   0.195   0.730 -0.4203  0.1164  0.5503
 6153SOL    HW119900   3.284   0.145   0.649  1.2667  0.2275  0.7098
 6153SOL    HW219901   3.355   0.240   0.743 -0.3741 -0.5278  2.7941
 6154SOL     OW19902   7.513   7.805  11.613 -0.1856  0.2405  0.2932
 6154SOL    HW119903   7.487   7.716  11.635  1.6956 -0.4652 -0.1530
 6154SOL    HW219904   7.502   7.811  11.518 -0.8173  0.6808  0.3863
 6155SOL     OW19905   3.536   1.911  11.090 -0.2131 -0.3105  0.0136
 6155SOL    HW119906   3.595   1.860  11.035  1.1277  2.4063 -1.2927
 6155SOL    HW219907   3.460   1.929  11.035 -0.0858  0.1430 -0.0235
 6156SOL     OW19908   2.540   1.503  11.730 -0.0762  0.4501 -0.0287
 6156SOL    HW119909   2.450   1.516  11.702 -0.9345 -1.7873  1.4175
 6156SOL    HW219910   2.534   1.486  11.824  1.4641 -2.3930 -0.3144
 6157SOL     OW19911   5.253   2.590  11.730 -0.7074 -0.0952  0.3657
 6157SOL    HW119912   5.343   2.620  11.744 -0.8042  0.5798 -0.4186
 6157SOL    HW219913   5.232   2.541  11.810  1.4033 -2.8945 -0.6451
 6158SOL     OW19914   2.309   0.402   2.244  1.0034  0.1195 -0.3864
 6158SOL    HW119915   2.355   0.482   2.270  0.3110  0.0883  1.0144
 6158SOL    HW219916   2.227   0.433   2.205  0.8488  0.0984 -0.0778
 6159SOL     OW19917   4.978   1.949  10.978 -0.2324  0.0548  0.2337
 6159SOL    HW119918   4.911   2.011  10.950 -0.2111  0.0381  0.1447
 6159SOL    HW219919   4.929   1.877  11.018 -0.2238  0.3980  0.8690
 6160SOL     OW19920   2.472   1.113   4.258  0.8766 -0.3996 -0.7129
 6160SOL    HW119921   2.470   1.121   4.354 -1.6336  2.5303 -0.8494
 6160SOL    HW219922   2.420   1.036   4.239 -1.8409  1.0624  0.2945
 6161SOL     OW19923   3.714   0.282   1.422 -0.3832  0.0564 -0.1174
 6161SOL    HW119924   3.758   0.200   1.445  1.7770  0.8179 -1.3310
 6161SOL    HW219925   3.769   0.351   1.459  0.6606  1.1181 -3.3075
 6162SOL     OW19926   2.713   0.378   2.148  0.2383 -0.2173 -0.0631
 6162SOL    HW119927   2.792   0.345   2.104 -1.1331  0.4217 -3.2432
 6162SOL    HW219928   2.733   0.470   2.167  0.6847 -0.3856  0.3079
 6163SOL     OW19929   2.527   7.397   0.259  0.4550 -0.0375  0.3741
 6163SOL    HW119930   2.619   7.407   0.284  0.5363 -2.0463  1.0707
 6163SOL    HW219931   2.527   7.324   0.197 -0.6116  0.4136 -0.1846
 6164SOL     OW19932   2.635   0.887   2.596  0.2769  0.6469  0.1405
 6164SOL    HW119933   2.612   0.841   2.516  1.7377  0.5654 -0.2650
 6164SOL    HW219934   2.727   0.910   2.585  0.0651  2.1210  1.0834
 6165SOL     OW19935   2.348   0.895   1.514 -0.3108  0.0367  0.0881
 6165SOL    HW119936   2.330   0.937   1.429  2.4280  0.0579 -0.5752
 6165SOL    HW219937   2.434   0.927   1.539 -0.3310 -1.2819  2.0937
 6166SOL     OW19938   0.950   0.541   0.202  0.4649  0.1936  0.8885
 6166SOL    HW119939   0.908   0.595   0.269  0.2368 -0.5926  1.3866
 6166SOL    HW219940   0.963   0.456   0.243 -0.7585 -0.6824 -0.4069
 6167SOL     OW19941   0.906   1.918   2.736 -0.5379  0.1439  0.2670
 6167SOL    HW119942   0.845   1.876   2.797 -1.1039 -0.1026 -0.4627
 6167SOL    HW219943   0.984   1.864   2.739 -1.2523 -0.9989 -0.6630
 6168SOL     OW19944   2.915   0.113   0.841  0.0311  0.0138  0.5725
 6168SOL    HW119945   2.891   0.109   0.933  0.1793  0.3399  0.6264
 6168SOL    HW219946   2.868   0.189   0.807 -1.9619 -1.4647 -0.1975
 6169SOL     OW19947   1.206   1.071  12.386  0.3349  0.1409  0.1572
 6169SOL    HW119948   1.156   0.994  12.413 -0.6227  0.8017  0.3598
 6169SOL    HW219949   1.280   1.075  12.446 -1.5828  1.4155  2.6339
 6170SOL     OW19950   2.276   1.588   0.647 -0.0277 -0.0890  0.0875
 6170SOL    HW119951   2.210   1.654   0.625  0.4682  0.4508  0.1959
 6170SOL    HW219952   2.328   1.579   0.567  0.4316  0.2796  0.3415
 6171SOL     OW19953   3.206   1.160   1.917  0.2788 -0.1250  0.1657
 6171SOL    HW119954   3.268   1.225   1.950  0.7449 -0.7942  0.6499
 6171SOL    HW219955   3.221   1.157   1.823  0.7921 -0.0867  0.2465
 6172SOL     OW19956   1.952   0.885   1.100 -0.2948 -0.5152  0.1680
 6172SOL    HW119957   1.912   0.857   1.182 -2.6240  1.2943 -0.2467
 6172SOL    HW219958   1.920   0.822   1.035  1.0932 -1.6051  0.4727
 6173SOL     OW19959   2.627   0.497   3.470 -0.3903  0.2185  0.0897
 6173SOL    HW119960   2.652   0.580   3.429 -2.0720 -0.2683 -2.1170
 6173SOL    HW219961   2.683   0.432   3.427 -0.2787 -0.0020  0.5605
 6174SOL     OW19962   4.087   1.091   0.773 -0.2311  0.0089  0.2072
 6174SOL    HW119963   4.014   1.150   0.755 -1.3618 -1.6799 -0.9553
 6174SOL    HW219964   4.092   1.086   0.868 -1.0115  0.8668  0.3037
 6175SOL     OW19965   2.037   1.058   0.436  0.3383 -0.0640  0.1762
 6175SOL    HW119966   2.004   1.029   0.521  1.9590  0.8094  1.1529
 6175SOL    HW219967   2.092   1.133   0.456  0.1887  0.6179 -1.7458
 6176SOL     OW19968   3.459   3.255  12.194  0.2150 -0.1850  0.2841
 6176SOL    HW119969   3.390   3.258  12.128  1.3463 -1.3036 -1.0220
 6176SOL    HW219970   3.424   3.197  12.262  0.2411 -1.6093 -0.8668
 6177SOL     OW19971   2.143   0.335   1.415  0.2102 -0.0630  0.1850
 6177SOL    HW119972   2.050   0.333   1.393 -0.0775 -0.3467  1.3583
 6177SOL    HW219973   2.187   0.304   1.336 -0.8846 -2.9021  0.5492
 6178SOL     OW19974   2.703   1.442   0.300  0.4548 -0.1845 -0.1079
 6178SOL    HW119975   2.762   1.449   0.225 -0.1051 -0.7058 -0.6108
 6178SOL    HW219976   2.646   1.368   0.278  0.1947 -0.2513  0.7708
 6179SOL     OW19977   2.186   0.791   2.186  0.0785 -0.1966 -0.3146
 6179SOL    HW119978   2.188   0.712   2.240  0.7906 -0.1662 -0.2866
 6179SOL    HW219979   2.123   0.772   2.117 -1.1955 -0.0709  0.7707
 6180SOL     OW19980   1.823   0.236   0.451  0.3564  0.1294 -0.0757
 6180SOL    HW119981   1.765   0.307   0.480 -2.0042 -1.6329 -0.1774
 6180SOL    HW219982   1.807   0.166   0.513  1.1007 -1.0308 -1.1537
 6181SOL     OW19983   2.222   0.950   0.234 -0.6280 -0.0265  0.3255
 6181SOL    HW119984   2.273   1.029   0.215 -0.9200 -0.3020 -1.9195
 6181SOL    HW219985   2.152   0.980   0.291 -1.2472  1.5824 -1.1692
 6182SOL     OW19986   1.941   1.104  11.665  0.6361  0.1402  0.3441
 6182SOL    HW119987   1.896   1.160  11.602 -1.1344 -1.6726 -0.0885
 6182SOL    HW219988   2.010   1.061  11.615  0.8806  0.6097  0.2715
 6183SOL     OW19989   3.049   7.711   0.435 -0.1428  0.6950  0.0013
 6183SOL    HW119990   3.044   7.804   0.458 -0.4180  0.9345 -0.9920
 6183SOL    HW219991   3.113   7.707   0.364 -0.0732  0.1099  0.0905
 6184SOL     OW19992   1.952   0.101  11.889 -0.6005 -0.0581  0.0926
 6184SOL    HW119993   1.985   0.150  11.965 -2.0361  0.0299  0.6998
 6184SOL    HW219994   1.857   0.103  11.899 -0.8430  0.2039 -1.8923
 6185SOL     OW19995   1.990   2.648  12.440  0.0058  0.0465  0.1007
 6185SOL    HW119996   1.999   2.554  12.457  2.2052 -0.2999 -2.3515
 6185SOL    HW219997   2.076   2.684  12.458 -0.5081  1.4269 -0.1085
 6186SOL     OW19998   2.287   0.339   0.828  0.5931  0.5271  0.4539
 6186SOL    HW119999   2.214   0.327   0.767  2.3434 -0.3815 -1.5576
 6186SOL    HW220000   2.252   0.399   0.894 -1.6916  0.8327 -0.9078
 6187SOL     OW20001   1.665   7.237   1.912  0.7262 -0.4778  0.1631
 6187SOL    HW120002   1.666   7.244   2.008 -0.6815 -1.4327  0.2813
 6187SOL    HW220003   1.631   7.321   1.882  1.3124 -0.1198  0.4947
 6188SOL     OW20004   2.419   0.157   1.038  0.7667  0.5582 -0.1433
 6188SOL    HW120005   2.489   0.220   1.055  0.5170  1.1107 -1.0861
 6188SOL    HW220006   2.361   0.202   0.976  1.2986 -1.1148 -1.9210
 6189SOL     OW20007   2.108   1.040   5.282  0.0826  0.4633 -0.6981
 6189SOL    HW120008   2.134   1.022   5.372  1.1749 -0.0418 -1.0976
 6189SOL    HW220009   2.176   0.999   5.228  0.3188  2.1183 -1.7428
 6190SOL     OW20010   1.949   2.662   1.900  0.6394 -0.1157 -0.0584
 6190SOL    HW120011   1.943   2.756   1.882  0.0110  0.0517  0.9317
 6190SOL    HW220012   1.944   2.656   1.996 -0.9172 -1.2590 -0.1822
 6191SOL     OW20013   2.815   7.104   0.392 -0.4728  0.0590  0.8179
 6191SOL    HW120014   2.760   7.040   0.347  1.6444 -1.8041  0.6881
 6191SOL    HW220015   2.827   7.174   0.328  0.1998 -1.2206 -0.5289
 6192SOL     OW20016   5.958   0.816  11.763 -0.1128 -0.4744  0.0832
 6192SOL    HW120017   5.988   0.727  11.743 -0.3622 -1.1221  2.3436
 6192SOL    HW220018   5.886   0.803  11.825 -0.2922  1.3054  0.2854
 6193SOL     OW20019   2.122   7.919   3.349  0.1045 -0.1510 -0.0896
 6193SOL    HW120020   2.141   7.883   3.436 -0.5892  2.0191  1.0454
 6193SOL    HW220021   2.207   7.932   3.309  0.4655 -0.6442  0.5013
 6194SOL     OW20022   3.764   7.870   2.884  0.3952  0.3847 -0.3430
 6194SOL    HW120023   3.787   7.927   2.811  1.8591  0.1246 -0.1225
 6194SOL    HW220024   3.814   7.904   2.958  0.3817 -0.4690  0.0756
 6195SOL     OW20025   1.686   0.489   4.074 -0.8651 -0.4906  0.0737
 6195SOL    HW120026   1.685   0.396   4.054  1.1817 -0.2010 -1.7011
 6195SOL    HW220027   1.759   0.500   4.135 -0.0764  0.1270 -0.9483
 6196SOL     OW20028   3.917   7.211   3.038 -0.8481 -0.4170 -0.0047
 6196SOL    HW120029   3.922   7.118   3.060 -0.3690 -0.8461 -1.7899
 6196SOL    HW220030   3.837   7.219   2.986 -0.2900 -0.0592 -0.8283
 6197SOL     OW20031   3.816   2.153   3.774 -0.1724  0.1673  0.3555
 6197SOL    HW120032   3.779   2.226   3.824 -0.3174  0.6312 -0.4176
 6197SOL    HW220033   3.910   2.157   3.791  0.0250  1.4879 -0.8773
 6198SOL     OW20034   2.567   6.128   3.558 -0.0031 -0.4580  0.3535
 6198SOL    HW120035   2.502   6.103   3.623  1.7972 -0.6878  2.1661
 6198SOL    HW220036   2.579   6.222   3.571 -1.5680  0.0871 -1.5716
 6199SOL     OW20037   3.418   0.405   1.941 -0.2156  0.1132 -0.1111
 6199SOL    HW120038   3.495   0.398   1.997  0.4760 -0.6659 -1.1315
 6199SOL    HW220039   3.390   0.315   1.926 -0.9634  0.3596 -0.2439
 6200SOL     OW20040   0.865   1.484   3.513  0.5721  0.3224  0.3389
 6200SOL    HW120041   0.812   1.536   3.573  0.7783 -1.1131  1.8479
 6200SOL    HW220042   0.920   1.548   3.467 -1.2846  1.6759 -0.0895
 6201SOL     OW20043   4.039   1.059   3.051  0.0984  0.0971 -0.1477
 6201SOL    HW120044   4.095   1.131   3.023 -1.4456  1.6699  0.5597
 6201SOL    HW220045   4.097   1.001   3.101  1.1516  1.5289  0.3651
 6202SOL     OW20046   1.525   2.589   3.297 -0.0248 -0.2353 -0.1356
 6202SOL    HW120047   1.547   2.554   3.384 -0.3401 -1.3247 -0.4735
 6202SOL    HW220048   1.594   2.652   3.278  0.2717 -0.2869  0.7320
 6203SOL     OW20049   1.131   1.182   1.690  0.2827 -0.1929 -0.3497
 6203SOL    HW120050   1.185   1.235   1.749  0.6849 -0.6349 -0.3221
 6203SOL    HW220051   1.051   1.165   1.740 -2.0750  4.3575 -1.9344
 6204SOL     OW20052   2.297   1.751   4.489  0.2638 -0.4642  0.5223
 6204SOL    HW120053   2.384   1.772   4.457  1.0618 -2.1348  1.4982
 6204SOL    HW220054   2.311   1.686   4.558 -1.5162  1.5508  2.9667
 6205SOL     OW20055   4.170   5.931   3.046 -0.1345  0.1384  0.1589
 6205SOL    HW120056   4.204   5.869   3.110  0.6468 -0.3947 -0.7561
 6205SOL    HW220057   4.233   6.003   3.046  0.3981 -0.3088 -0.6893
 6206SOL     OW20058   2.059   1.352   1.889 -0.3477 -0.6890  0.0958
 6206SOL    HW120059   2.151   1.327   1.890 -0.5671 -1.7450 -1.8188
 6206SOL    HW220060   2.021   1.308   1.965  0.8203  0.3716  1.3607
 6207SOL     OW20061   2.565   3.880   1.051  0.2319  0.3145 -0.4293
 6207SOL    HW120062   2.538   3.815   0.986  0.4342  0.4693 -0.6706
 6207SOL    HW220063   2.486   3.896   1.103 -0.0308  0.4437 -0.8563
 6208SOL     OW20064   2.535   2.273   2.669 -0.0932 -0.4894 -0.2131
 6208SOL    HW120065   2.549   2.180   2.647 -1.3872 -0.6319 -0.4857
 6208SOL    HW220066   2.440   2.283   2.674  0.0490  0.3369  1.9975
 6209SOL     OW20067   4.253   1.275   2.069 -0.1267  0.1125 -0.1705
 6209SOL    HW120068   4.250   1.196   2.124 -2.4271 -1.0926 -1.8326
 6209SOL    HW220069   4.329   1.261   2.011 -0.1611 -0.6179 -0.0526
 6210SOL     OW20070   3.269   1.101   0.158  0.1411 -0.3284  0.7892
 6210SOL    HW120071   3.234   1.028   0.107  1.8070 -0.9426  0.4720
 6210SOL    HW220072   3.191   1.148   0.189 -0.9466 -1.6681  0.1912
 6211SOL     OW20073   0.368   0.124   2.922 -0.4243  0.4460 -0.3337
 6211SOL    HW120074   0.427   0.189   2.960 -2.6130  1.8426  0.8391
 6211SOL    HW220075   0.393   0.042   2.964  0.9682  0.8934 -0.2268
 6212SOL     OW20076   2.877   0.891   3.916 -0.4049  0.3550  0.4949
 6212SOL    HW120077   2.942   0.901   3.986 -1.4243  0.0717  1.5108
 6212SOL    HW220078   2.793   0.911   3.958 -1.1036 -0.3981 -0.4943
 6213SOL     OW20079   3.556   1.494   3.158  0.3041 -0.3875 -0.0283
 6213SOL    HW120080   3.544   1.580   3.116  0.4500 -0.1855  0.3348
 6213SOL    HW220081   3.479   1.444   3.134  0.3637 -0.2582 -0.4996
 6214SOL     OW20082   3.042   7.544   1.889 -0.3247 -0.1734  0.0799
 6214SOL    HW120083   2.966   7.602   1.886 -0.7373 -0.7153 -2.0921
 6214SOL    HW220084   3.084   7.563   1.972 -1.9494  1.2871  0.6255
 6215SOL     OW20085   1.478   1.146   2.686  0.3094 -0.1782 -0.1917
 6215SOL    HW120086   1.547   1.182   2.741  1.0574 -0.5357 -0.8789
 6215SOL    HW220087   1.397   1.162   2.736  0.9303 -0.2498  0.8760
 6216SOL     OW20088   1.855   1.813   1.582 -0.2538 -0.3362  0.1440
 6216SOL    HW120089   1.821   1.899   1.556 -0.0933 -0.8464 -1.8855
 6216SOL    HW220090   1.820   1.753   1.517  1.1023 -1.5342  0.4818
 6217SOL     OW20091   2.624   0.908   4.024  0.0183  0.3249 -0.0922
 6217SOL    HW120092   2.609   0.867   4.110 -0.5960  0.6458 -0.0475
 6217SOL    HW220093   2.580   0.850   3.962  1.1246 -0.3344 -0.2889
 6218SOL     OW20094   3.135   0.275   3.284 -0.2890 -0.2026  0.4328
 6218SOL    HW120095   3.196   0.204   3.264  0.8712  1.4809 -2.6568
 6218SOL    HW220096   3.186   0.355   3.271 -2.3207  1.2428  0.9051
 6219SOL     OW20097   3.112   0.969   2.883  0.2135 -0.1098 -0.2779
 6219SOL    HW120098   3.077   1.050   2.847  0.6936  0.4794  0.5384
 6219SOL    HW220099   3.104   0.905   2.813 -0.7015  0.5006 -0.7374
 6220SOL     OW20100   2.932   2.210   1.982  0.1543  0.2478 -0.1314
 6220SOL    HW120101   2.894   2.149   2.046  1.0311  0.2683  0.4302
 6220SOL    HW220102   2.862   2.270   1.961 -0.0866  0.3761  0.9997
 6221SOL     OW20103   2.864   0.744   1.761 -0.9546 -0.7037 -0.3029
 6221SOL    HW120104   2.899   0.658   1.786 -0.2049  0.0208  1.3216
 6221SOL    HW220105   2.896   0.803   1.830 -0.7473  1.0477 -1.8437
 6222SOL     OW20106   1.435   0.429   3.496  0.1662 -0.1376  0.0900
 6222SOL    HW120107   1.473   0.437   3.408 -1.9800  0.6100 -0.8540
 6222SOL    HW220108   1.367   0.363   3.486  0.9038 -1.1833  1.6240
 6223SOL     OW20109   3.256   1.420   1.227 -0.4018 -0.5148  0.9005
 6223SOL    HW120110   3.295   1.332   1.226  0.1413 -0.2824  1.3568
 6223SOL    HW220111   3.300   1.465   1.299 -0.2370  0.3390  0.2787
 6224SOL     OW20112   2.178   1.528   3.337  0.3012  0.1393  0.8504
 6224SOL    HW120113   2.171   1.502   3.245  1.6112  1.0244  0.4532
 6224SOL    HW220114   2.090   1.516   3.373  0.0290 -1.3086 -0.2055
 6225SOL     OW20115   2.656   1.187   3.618  0.4245 -0.0209  0.0002
 6225SOL    HW120116   2.715   1.112   3.623 -1.7294 -1.7444  1.5265
 6225SOL    HW220117   2.575   1.152   3.581 -1.4774  0.8719  2.9641
 6226SOL     OW20118   1.609   1.489   3.045  0.6329 -0.6331 -0.5606
 6226SOL    HW120119   1.697   1.506   3.077  1.4001 -0.9842 -2.3448
 6226SOL    HW220120   1.558   1.565   3.073  1.5104 -0.3934  0.4377
 6227SOL     OW20121   2.503   7.920   2.428 -0.4498  0.1962  0.4131
 6227SOL    HW120122   2.492   7.832   2.463  0.5223 -1.3298 -2.7381
 6227SOL    HW220123   2.422   7.936   2.378 -0.1011  0.5367 -0.0510
 6228SOL     OW20124   1.874   1.092   3.491 -0.0353 -0.9797  0.5768
 6228SOL    HW120125   1.847   1.132   3.408  0.9551 -0.3749  0.5263
 6228SOL    HW220126   1.878   0.998   3.472  0.1544 -0.8486 -0.0488
 6229SOL     OW20127   2.113   2.099   3.617 -0.1572  0.3205 -0.0519
 6229SOL    HW120128   2.065   2.035   3.565  0.9009  0.1181 -0.7944
 6229SOL    HW220129   2.184   2.049   3.657  0.4992  0.9735 -0.3955
 6230SOL     OW20130   1.595   7.839   3.119 -0.6525 -0.4167 -0.0197
 6230SOL    HW120131   1.536   7.775   3.158 -3.6106  2.3532  0.4959
 6230SOL    HW220132   1.623   7.894   3.193  0.6141 -0.2088 -0.6293
 6231SOL     OW20133   4.070   0.425   2.504 -0.1114  0.1704  0.3604
 6231SOL    HW120134   4.000   0.385   2.453  1.1374  0.9842 -2.1324
 6231SOL    HW220135   4.149   0.378   2.478  0.5690  0.5003  1.7257
 6232SOL     OW20136   3.482   0.463   1.438 -0.1086  0.6715  0.1101
 6232SOL    HW120137   3.481   0.464   1.534 -0.5679 -1.7928  0.1886
 6232SOL    HW220138   3.570   0.432   1.415 -0.7035 -0.9477 -0.1427
 6233SOL     OW20139   2.873   6.660   3.471  0.1734  0.1469 -0.2229
 6233SOL    HW120140   2.961   6.688   3.493 -0.6086  1.1504  1.9489
 6233SOL    HW220141   2.874   6.565   3.484  0.2795  0.4451  2.6987
 6234SOL     OW20142   2.067   1.067   3.693 -0.2377 -0.4070 -0.4671
 6234SOL    HW120143   2.156   1.062   3.657 -0.1770 -0.4105 -0.3193
 6234SOL    HW220144   2.010   1.039   3.621 -0.2897  1.5077 -1.2168
 6235SOL     OW20145   2.132   0.990   4.458 -0.4189 -0.3400 -0.0698
 6235SOL    HW120146   2.186   1.000   4.536 -0.4486 -1.1622  0.0624
 6235SOL    HW220147   2.102   1.079   4.438  2.3805  0.4509 -1.1982
 6236SOL     OW20148   2.847   1.415   1.177 -0.5620  0.3116  0.4980
 6236SOL    HW120149   2.862   1.440   1.269 -2.7582  0.1082  0.9600
 6236SOL    HW220150   2.819   1.496   1.134 -1.0463  0.0863  0.3831
 6237SOL     OW20151   1.689   0.458   2.889 -0.5406 -0.0110  0.0790
 6237SOL    HW120152   1.607   0.425   2.927 -0.5097  1.1801  1.2580
 6237SOL    HW220153   1.757   0.404   2.930 -0.5030  1.2993  1.8730
 6238SOL     OW20154   2.435   0.942   2.109  0.0685 -0.5353  0.2462
 6238SOL    HW120155   2.370   0.872   2.120 -2.4626  1.3833 -1.2239
 6238SOL    HW220156   2.477   0.923   2.025 -2.1170  0.6774 -1.2226
 6239SOL     OW20157   2.620   0.459   1.067  0.1237  0.4327 -0.4924
 6239SOL    HW120158   2.546   0.518   1.081 -0.7669 -0.5205 -1.0332
 6239SOL    HW220159   2.685   0.485   1.133 -0.9723  0.8281  0.4525
 6240SOL     OW20160   2.860   0.545   3.998 -0.0289 -0.0001 -0.3732
 6240SOL    HW120161   2.826   0.475   3.941  1.7952 -2.0067  0.8432
 6240SOL    HW220162   2.900   0.608   3.938  1.4159 -1.8121 -1.4113
 6241SOL     OW20163   2.348   2.897   0.990  0.4340  0.3982  0.1588
 6241SOL    HW120164   2.353   2.823   1.051  0.3470 -0.8535 -1.2864
 6241SOL    HW220165   2.258   2.928   0.997 -0.3946 -1.4566 -1.1879
 6242SOL     OW20166   4.485   6.212   4.580  0.0542  0.2102 -0.2643
 6242SOL    HW120167   4.528   6.290   4.544  1.6511  0.0662  1.2276
 6242SOL    HW220168   4.557   6.157   4.611 -1.1179 -1.1766  0.0976
 6243SOL     OW20169   1.951   0.027   1.489 -0.1967 -0.2176 -0.6165
 6243SOL    HW120170   2.030  -0.010   1.528 -0.0537  1.4771  0.7863
 6243SOL    HW220171   1.984   0.095   1.430 -0.5812  0.1649 -0.3903
 6244SOL     OW20172   3.380   0.262   3.069  0.1018 -0.0036  0.1485
 6244SOL    HW120173   3.349   0.269   2.979  0.5175  2.3603  0.1242
 6244SOL    HW220174   3.453   0.200   3.065 -0.2571 -0.3725 -1.0104
 6245SOL     OW20175   1.282   1.994   4.721  0.0684 -0.3022  0.4091
 6245SOL    HW120176   1.257   2.061   4.784  0.3699  0.4696 -0.2792
 6245SOL    HW220177   1.275   2.037   4.636 -0.8265 -1.4636 -0.1429
 6246SOL     OW20178   1.306   1.364   2.252  0.0090 -0.0202 -0.6713
 6246SOL    HW120179   1.314   1.381   2.346  0.4968  2.2411 -1.0529
 6246SOL    HW220180   1.286   1.271   2.245 -3.3891  0.3222  1.8580
 6247SOL     OW20181   2.186   1.185   3.343 -0.2367  0.1428 -0.0668
 6247SOL    HW120182   2.228   1.218   3.263  0.4854  0.5806  0.4828
 6247SOL    HW220183   2.118   1.250   3.362 -0.7704 -0.2441 -0.6166
 6248SOL     OW20184   3.994   7.039   3.729  0.2070 -0.2783 -0.3729
 6248SOL    HW120185   4.055   7.010   3.796  0.7252  0.2354 -0.6079
 6248SOL    HW220186   3.961   6.959   3.689 -0.8731 -0.6324  1.1502
 6249SOL     OW20187   2.332   6.880   2.630 -0.1438 -0.2574  0.1767
 6249SOL    HW120188   2.321   6.799   2.681 -2.3832 -0.8719 -1.1498
 6249SOL    HW220189   2.244   6.904   2.604  0.8120  0.3948 -2.8404
 6250SOL     OW20190   1.128   1.746   5.272 -0.0175 -0.8511 -0.4395
 6250SOL    HW120191   1.132   1.829   5.224  0.5646  0.2767  1.4609
 6250SOL    HW220192   1.036   1.738   5.298  0.0004 -0.5801 -0.2837
 6251SOL     OW20193   2.992   1.819   4.063  0.0276  0.0530 -0.0090
 6251SOL    HW120194   3.037   1.872   4.129  0.8958 -0.9742  0.2606
 6251SOL    HW220195   3.021   1.729   4.080  0.0272 -0.2829 -1.6058
 6252SOL     OW20196   3.715   0.570   2.476  0.1425 -0.6931  0.0580
 6252SOL    HW120197   3.650   0.574   2.406 -0.0593 -0.5143  0.2558
 6252SOL    HW220198   3.764   0.652   2.469 -0.2312 -0.4365  0.4690
 6253SOL     OW20199   2.405   1.007   2.692 -0.5513 -0.2116  0.2397
 6253SOL    HW120200   2.487   0.959   2.676  0.0686  0.8976 -0.0093
 6253SOL    HW220201   2.422   1.058   2.771 -1.2146 -0.4210  0.5214
 6254SOL     OW20202   4.278   6.474   2.791  0.3670  0.1845  0.1092
 6254SOL    HW120203   4.357   6.494   2.842  0.7663  0.2348 -0.5248
 6254SOL    HW220204   4.219   6.434   2.855  0.0230  2.1984  1.1236
 6255SOL     OW20205   2.922   0.493   1.834  0.3463 -0.2567  0.0244
 6255SOL    HW120206   2.925   0.422   1.899 -0.9428 -0.2488  0.1191
 6255SOL    HW220207   2.901   0.448   1.752  0.1115 -0.0468 -0.0282
 6256SOL     OW20208   3.467   0.145   1.361  0.2868  0.3475  0.6373
 6256SOL    HW120209   3.543   0.193   1.394  0.6724  1.1748 -1.3308
 6256SOL    HW220210   3.486   0.054   1.380  1.3797  0.6290  0.9319
 6257SOL     OW20211   2.120   0.910   3.280 -0.3505 -0.2230 -0.2497
 6257SOL    HW120212   2.147   0.994   3.318  4.4901 -2.3513  1.7157
 6257SOL    HW220213   2.132   0.922   3.186  2.4036  0.7714  0.1452
 6258SOL     OW20214   1.743   0.674   1.632  0.0690  0.1451 -0.5950
 6258SOL    HW120215   1.781   0.587   1.644 -1.2095 -0.3103  0.3694
 6258SOL    HW220216   1.793   0.730   1.690  0.1446 -0.1807 -0.3419
 6259SOL     OW20217   3.209   1.581   4.498 -0.1142  0.1774 -0.3757
 6259SOL    HW120218   3.178   1.508   4.551  1.6753 -0.3616  0.0106
 6259SOL    HW220219   3.220   1.653   4.560 -2.9112  1.2078 -0.9247
 6260SOL     OW20220   2.530   0.022   2.054  0.3052 -0.3339 -0.2294
 6260SOL    HW120221   2.458  -0.026   2.015 -0.5762  0.0508  0.8856
 6260SOL    HW220222   2.491   0.069   2.128  1.8344 -0.7416  0.8932
 6261SOL     OW20223   1.561   2.305   0.497  0.2710  0.1427 -0.5446
 6261SOL    HW120224   1.501   2.340   0.431 -2.3637 -2.2579  0.3970
 6261SOL    HW220225   1.536   2.350   0.578  0.2418 -0.3511 -0.2787
 6262SOL     OW20226   1.627   0.676  12.379  0.0377  0.5497 -0.1768
 6262SOL    HW120227   1.533   0.684  12.366 -0.1303 -0.6264  0.1488
 6262SOL    HW220228   1.637   0.661  12.473  0.4201 -0.6234 -0.3841
 6263SOL     OW20229   2.000   0.464   5.779 -0.1920  0.1715  0.0119
 6263SOL    HW120230   1.990   0.378   5.738 -1.3358  0.9923 -1.5508
 6263SOL    HW220231   1.932   0.468   5.845 -1.5947  0.6377 -1.3949
 6264SOL     OW20232   0.972   7.359   4.703 -0.7868 -0.0745  0.4641
 6264SOL    HW120233   0.990   7.339   4.611  1.8423 -0.3003  0.9659
 6264SOL    HW220234   0.880   7.333   4.715 -1.1544 -0.1724 -2.0297
 6265SOL     OW20235   3.301   7.284   1.870 -0.1167  0.6629  0.2807
 6265SOL    HW120236   3.308   7.288   1.965  1.1176  1.5863  0.1687
 6265SOL    HW220237   3.357   7.355   1.838 -0.5643  0.4166 -1.1340
 6266SOL     OW20238   1.748   6.529   0.763  0.0453  0.0614 -0.7091
 6266SOL    HW120239   1.753   6.444   0.720  2.1035  0.7069 -1.8673
 6266SOL    HW220240   1.833   6.541   0.805 -0.7346  0.9320  0.7284
 6267SOL     OW20241   1.797   1.382   4.336 -0.0234 -0.3318  0.6188
 6267SOL    HW120242   1.840   1.420   4.259  1.6050  0.1071  1.6855
 6267SOL    HW220243   1.748   1.455   4.374 -1.2175 -0.6686 -0.2438
 6268SOL     OW20244   3.379   1.134   2.403  0.1377  0.3258 -0.4274
 6268SOL    HW120245   3.375   1.064   2.468  1.0044  0.7020  0.0475
 6268SOL    HW220246   3.299   1.124   2.351 -0.5722  0.0345  0.7059
 6269SOL     OW20247   3.611   0.093   0.969 -0.1995 -0.1406 -0.6478
 6269SOL    HW120248   3.685   0.033   0.954  1.0978  1.0207  0.8315
 6269SOL    HW220249   3.606   0.145   0.889 -1.6852 -2.4360 -2.1995
 6270SOL     OW20250   3.479   0.127   1.979  0.0017  0.1233 -0.2536
 6270SOL    HW120251   3.497   0.097   2.068 -1.0026  1.9732  0.6077
 6270SOL    HW220252   3.563   0.116   1.933  0.4290 -1.2165  0.7654
 6271SOL     OW20253   4.714   0.141   0.752  0.6251  0.1109 -0.1790
 6271SOL    HW120254   4.689   0.115   0.664  0.2644 -0.3326  0.0482
 6271SOL    HW220255   4.793   0.090   0.771 -0.7537 -1.8140  0.7204
 6272SOL     OW20256   3.900   2.118   0.087 -0.1832  0.6883 -0.4676
 6272SOL    HW120257   3.951   2.049   0.044  0.4973  0.9139 -0.0559
 6272SOL    HW220258   3.963   2.191   0.097 -0.5003  0.8710  0.3100
 6273SOL     OW20259   3.310   7.352   2.761 -0.3214 -0.0042 -0.5757
 6273SOL    HW120260   3.384   7.381   2.814 -0.2103 -1.0164 -0.1435
 6273SOL    HW220261   3.233   7.390   2.805 -0.1572 -0.0891 -0.2056
 6274SOL     OW20262   5.477   1.178   3.028  0.5146 -0.1692 -0.5177
 6274SOL    HW120263   5.568   1.204   3.020  0.6428 -1.0621 -2.4098
 6274SOL    HW220264   5.473   1.090   2.990 -1.0027 -0.4571  0.2045
 6275SOL     OW20265   3.412   1.984   3.105 -0.1609  0.5817  0.1802
 6275SOL    HW120266   3.423   2.036   3.184 -0.8061 -1.0270  1.3992
 6275SOL    HW220267   3.386   2.047   3.038  0.8812  2.0585  1.1063
 6276SOL     OW20268   3.022   1.767   2.168 -0.1445 -0.4302 -0.3747
 6276SOL    HW120269   2.992   1.751   2.258 -1.0063  1.1935 -0.3360
 6276SOL    HW220270   2.942   1.758   2.115  0.1813 -0.4863 -0.8553
 6277SOL     OW20271   2.641   1.584   3.570  0.0906 -0.1356  0.0674
 6277SOL    HW120272   2.572   1.615   3.628  0.8711  0.0825  0.9077
 6277SOL    HW220273   2.667   1.662   3.521  0.2298 -0.0529  0.2702
 6278SOL     OW20274   2.370   0.640   2.739 -0.1903  0.5775 -0.0392
 6278SOL    HW120275   2.299   0.705   2.742 -0.3668  0.3647  0.7194
 6278SOL    HW220276   2.440   0.680   2.791 -0.2673  0.2051  0.3566
 6279SOL     OW20277   2.461   0.414   2.633  0.4712 -0.1868  0.2970
 6279SOL    HW120278   2.441   0.339   2.688 -1.6559 -0.5739 -0.8614
 6279SOL    HW220279   2.434   0.490   2.684 -1.6224 -0.5507 -0.1584
 6280SOL     OW20280   3.920   0.740   2.455  0.3583  0.0041 -0.3929
 6280SOL    HW120281   3.935   0.766   2.364  0.3683 -0.3370 -0.4905
 6280SOL    HW220282   4.003   0.759   2.499  0.9298 -1.3776 -0.8196
 6281SOL     OW20283   1.374   2.739   2.944 -0.4456 -0.3405 -0.0934
 6281SOL    HW120284   1.285   2.729   2.980  0.2362 -1.1837  1.4805
 6281SOL    HW220285   1.411   2.813   2.993 -0.1967 -0.1402 -0.5809
 6282SOL     OW20286   1.738   1.920   4.861  0.0816 -0.2225  0.5983
 6282SOL    HW120287   1.782   1.856   4.805 -1.7436 -1.4972  0.5119
 6282SOL    HW220288   1.804   1.945   4.926  1.3677 -0.8743 -0.4122
 6283SOL     OW20289   2.554   0.289   1.647  0.0403  0.1544  0.4997
 6283SOL    HW120290   2.475   0.342   1.638  0.4928  0.7714  0.1358
 6283SOL    HW220291   2.583   0.306   1.737  0.3256  0.7194  0.3013
 6284SOL     OW20292   0.391   2.045   4.005 -0.4276 -0.1611 -0.5826
 6284SOL    HW120293   0.327   2.079   3.941 -2.9861 -1.4467  1.1242
 6284SOL    HW220294   0.388   1.950   3.994  0.7598 -0.2780 -0.0219
 6285SOL     OW20295   2.572   1.454   2.860  0.4470 -0.4193  0.2267
 6285SOL    HW120296   2.622   1.376   2.839  1.0048  0.2841 -1.1494
 6285SOL    HW220297   2.484   1.436   2.828  0.7197 -0.2644 -0.6273
 6286SOL     OW20298   3.299   1.665   3.366 -0.2718 -0.0936  0.7284
 6286SOL    HW120299   3.282   1.758   3.351 -0.0948  0.0593  1.4640
 6286SOL    HW220300   3.218   1.622   3.338 -0.5178  0.3177  0.8035
 6287SOL     OW20301   2.308   2.130   0.890  0.2243 -0.0170 -0.6717
 6287SOL    HW120302   2.297   2.107   0.982 -0.0806 -0.2503 -0.7650
 6287SOL    HW220303   2.401   2.151   0.881  0.5667 -1.3878 -0.6169
 6288SOL     OW20304   2.858   1.486   4.365  0.0344 -0.4764 -0.4111
 6288SOL    HW120305   2.864   1.503   4.459 -0.9190  1.7131 -0.6748
 6288SOL    HW220306   2.767   1.506   4.342  0.5233  0.1518 -1.9730
 6289SOL     OW20307   4.196   1.812   1.636  0.5857  0.5303 -0.0737
 6289SOL    HW120308   4.220   1.720   1.640  0.3024  0.4686  0.3284
 6289SOL    HW220309   4.274   1.858   1.667  1.4554  0.5690 -2.1796
 6290SOL     OW20310   3.291   2.022   2.510 -0.3230 -0.2553 -0.0575
 6290SOL    HW120311   3.384   2.000   2.512  0.2667  1.8532 -1.0609
 6290SOL    HW220312   3.263   2.019   2.602  0.7312 -0.8286  0.2601
 6291SOL     OW20313   2.521   0.346   4.614  0.6456  0.1145 -0.2619
 6291SOL    HW120314   2.565   0.269   4.576  0.3065 -0.2426  0.0558
 6291SOL    HW220315   2.584   0.417   4.605  0.8844 -0.1519 -0.7540
 6292SOL     OW20316   4.036   0.061   4.752 -0.1445 -0.2992  0.6234
 6292SOL    HW120317   4.117   0.031   4.793  1.0573  1.9127  0.0029
 6292SOL    HW220318   4.003   0.129   4.810 -0.2149  0.5220 -0.3500
 6293SOL     OW20319   3.955   0.331   3.455 -0.2101  0.0289  0.4295
 6293SOL    HW120320   3.997   0.410   3.420 -1.5695  1.4648  1.8376
 6293SOL    HW220321   4.026   0.281   3.494  0.7953  0.1732 -1.1097
 6294SOL     OW20322   3.194   1.519   3.000  0.1336 -0.2127 -0.0814
 6294SOL    HW120323   3.184   1.613   3.014  0.7857 -0.3465  1.4163
 6294SOL    HW220324   3.261   1.512   2.932 -0.5521  0.4012 -0.8510
 6295SOL     OW20325   3.030   1.450   2.720  0.0375 -0.6170  0.0841
 6295SOL    HW120326   3.055   1.359   2.705 -0.9636 -0.5568 -2.4668
 6295SOL    HW220327   3.101   1.501   2.680  0.1266 -0.2965  0.6469
 6296SOL     OW20328   2.948   0.217   4.267  0.2653 -0.0330  0.1582
 6296SOL    HW120329   2.856   0.235   4.251  0.3486 -1.2750 -2.1301
 6296SOL    HW220330   2.994   0.288   4.222  0.4967  1.3870  2.4638
 6297SOL     OW20331   2.930   7.093   3.330  0.3311  0.2138 -0.1446
 6297SOL    HW120332   2.860   7.050   3.379  2.0220 -0.6870  1.5976
 6297SOL    HW220333   2.884   7.143   3.263 -2.0601  0.5444  1.5879
 6298SOL     OW20334   2.994   0.450   0.768  0.2445  0.3893  0.1460
 6298SOL    HW120335   3.066   0.472   0.828 -0.1478 -0.7278  1.0848
 6298SOL    HW220336   2.922   0.425   0.826 -0.3503 -0.1331 -0.7960
 6299SOL     OW20337   3.036   7.947   3.582  0.0411  0.0142  0.0618
 6299SOL    HW120338   3.066   7.945   3.491  0.3322 -2.0510  0.1521
 6299SOL    HW220339   2.968   7.881   3.587 -0.5888  0.7070  1.1737
 6300SOL     OW20340   3.691   0.483   3.920 -0.0463  0.5299  0.4154
 6300SOL    HW120341   3.783   0.458   3.912 -0.6526 -1.9931  0.4433
 6300SOL    HW220342   3.655   0.424   3.986 -1.4279  2.3254  1.3694
 6301SOL     OW20343   3.250   0.519   3.032 -0.1433  0.3138  0.3221
 6301SOL    HW120344   3.300   0.438   3.042  1.6017  1.4939  1.8483
 6301SOL    HW220345   3.251   0.559   3.120 -2.4610  1.1740  0.0378
 6302SOL     OW20346   2.425   0.142   0.704  0.4598 -0.0744 -0.1230
 6302SOL    HW120347   2.386   0.205   0.763  2.7990 -0.3043  1.8129
 6302SOL    HW220348   2.353   0.116   0.646 -1.3154  2.0090  0.9852
 6303SOL     OW20349   2.588   7.965   1.263 -0.3849 -0.6159  0.1946
 6303SOL    HW120350   2.639   7.893   1.302  1.1482  0.6462  0.6253
 6303SOL    HW220351   2.622   8.044   1.306 -0.9947  0.5120 -1.3264
 6304SOL     OW20352   3.704   1.272   4.760  0.6391 -0.0158  0.4444
 6304SOL    HW120353   3.699   1.367   4.769  1.8521  0.0157  0.9567
 6304SOL    HW220354   3.796   1.254   4.743  0.5798 -1.1661  1.2102
 6305SOL     OW20355   2.730   1.202   3.319  0.6422 -0.1639 -0.1989
 6305SOL    HW120356   2.744   1.123   3.371 -0.9507  0.2746  0.9553
 6305SOL    HW220357   2.777   1.185   3.237 -0.0669 -2.5109 -0.1873
 6306SOL     OW20358   1.706   0.410   5.489  0.1136  0.1751  0.9467
 6306SOL    HW120359   1.793   0.433   5.457 -1.4443  0.9987 -3.4678
 6306SOL    HW220360   1.710   0.315   5.501  1.1095 -0.1720 -1.4807
 6307SOL     OW20361   4.002   2.117   1.080  0.3129 -0.2463 -0.1023
 6307SOL    HW120362   3.984   2.178   1.008 -0.3733 -2.0859 -1.5721
 6307SOL    HW220363   3.955   2.155   1.154 -0.3949  0.8488 -1.0586
 6308SOL     OW20364   3.686   0.996   2.585  0.0015 -0.1719  0.1821
 6308SOL    HW120365   3.646   0.990   2.672 -2.2378 -1.6347 -0.8581
 6308SOL    HW220366   3.647   1.073   2.545  2.1314  1.3872  0.8854
 6309SOL     OW20367   1.207   2.349   2.546 -0.1884  0.2938  0.5013
 6309SOL    HW120368   1.194   2.406   2.621  1.3279 -0.0554  1.0566
 6309SOL    HW220369   1.207   2.260   2.582 -2.9099 -0.1716 -0.3961
 6310SOL     OW20370   2.587   0.777   2.355 -0.5895  0.0182  0.4740
 6310SOL    HW120371   2.563   0.841   2.287  0.1507  1.8407  1.8415
 6310SOL    HW220372   2.658   0.726   2.316  1.3943  2.5037  0.5629
 6311SOL     OW20373   3.006   0.663   3.798 -0.3278 -0.2167  0.6326
 6311SOL    HW120374   3.004   0.670   3.703  0.6398  1.0472  0.6738
 6311SOL    HW220375   2.958   0.740   3.829 -1.8280 -1.3176  1.2012
 6312SOL     OW20376   2.915   7.503   3.316  0.6024  0.0064  0.3897
 6312SOL    HW120377   2.977   7.448   3.364  0.4548 -2.5211 -2.0271
 6312SOL    HW220378   2.970   7.557   3.259  0.6965 -0.9356 -0.4473
 6313SOL     OW20379   2.654   0.684   1.349 -0.1690 -0.0387 -0.6593
 6313SOL    HW120380   2.680   0.593   1.335 -1.9483 -0.5306 -1.0345
 6313SOL    HW220381   2.562   0.678   1.376 -0.3734  1.6650 -0.9087
 6314SOL     OW20382   2.197   0.776   3.686 -0.0868 -0.0612 -0.1075
 6314SOL    HW120383   2.122   0.717   3.690 -0.3286  0.3015  1.8370
 6314SOL    HW220384   2.215   0.798   3.777  1.8888  0.5099 -0.5813
 6315SOL     OW20385   1.965   1.293   2.838  0.2839 -0.2171 -0.2052
 6315SOL    HW120386   2.002   1.365   2.889 -0.0189 -0.9047  1.0264
 6315SOL    HW220387   2.010   1.298   2.753  3.5669 -1.2256  1.2956
 6316SOL     OW20388   3.760   7.411   2.554 -0.1214 -0.1461  0.5939
 6316SOL    HW120389   3.704   7.433   2.628 -0.3474  0.8439  0.1539
 6316SOL    HW220390   3.706   7.428   2.477 -0.2615 -2.2296  0.1947
 6317SOL     OW20391   2.201   7.918   2.873  0.2554  0.1091  0.1530
 6317SOL    HW120392   2.184   7.845   2.932 -0.9058  0.2967  0.0891
 6317SOL    HW220393   2.293   7.911   2.850  0.2138 -1.1814  0.3429
 6318SOL     OW20394   2.446   0.431   3.067  0.1951 -0.0655  0.0446
 6318SOL    HW120395   2.370   0.484   3.044  0.9304  0.4228 -1.3488
 6318SOL    HW220396   2.459   0.447   3.161 -1.4639 -0.2532  0.3330
 6319SOL     OW20397   5.341   0.255   3.142  0.2026  0.0954  0.1323
 6319SOL    HW120398   5.266   0.267   3.084 -0.2208 -0.9072  0.4355
 6319SOL    HW220399   5.332   0.324   3.207  0.6297  1.1703 -0.9163
 6320SOL     OW20400   2.718   1.088   1.275 -0.3726  0.3678 -0.1840
 6320SOL    HW120401   2.689   1.012   1.224  1.0016  0.4976 -1.2052
 6320SOL    HW220402   2.725   1.055   1.365  1.4349 -1.1031 -0.8113
 6321SOL     OW20403   2.310   1.150   1.800 -0.3003 -0.3220  0.1137
 6321SOL    HW120404   2.283   1.059   1.805 -0.9812 -0.0875  1.2269
 6321SOL    HW220405   2.302   1.182   1.890  1.1888  0.4862 -0.0048
 6322SOL     OW20406   2.718   2.621   3.581 -0.4689 -0.0832  0.6191
 6322SOL    HW120407   2.689   2.531   3.591 -0.1186 -0.5255 -1.7973
 6322SOL    HW220408   2.755   2.626   3.493  0.3544  2.2061  1.0018
 6323SOL     OW20409   2.055   6.406   4.444 -0.4857  0.0337  0.3945
 6323SOL    HW120410   2.023   6.437   4.528  0.8745  0.3065  0.8427
 6323SOL    HW220411   2.150   6.405   4.454 -0.3244 -0.3831 -0.9870
 6324SOL     OW20412   2.003   2.047   3.931 -0.0246 -0.0342  0.1991
 6324SOL    HW120413   1.984   2.032   3.839 -2.2800 -0.5652  0.6728
 6324SOL    HW220414   2.058   1.974   3.957 -2.5086 -2.0670  0.0990
 6325SOL     OW20415   3.032   7.894   3.298  0.8352  0.0875 -0.5408
 6325SOL    HW120416   2.952   7.939   3.324 -0.1579 -0.5848 -2.2265
 6325SOL    HW220417   3.001   7.813   3.258  2.4187 -0.5728 -0.4832
 6326SOL     OW20418   1.318   1.485   4.508  0.1573  0.2703  0.4108
 6326SOL    HW120419   1.366   1.444   4.580  0.2885  1.1085  0.8163
 6326SOL    HW220420   1.226   1.475   4.532  0.1143 -1.1226 -0.2468
 6327SOL     OW20421   3.406   7.709   2.160 -0.2192 -0.2408  0.1032
 6327SOL    HW120422   3.444   7.649   2.224 -0.2746 -0.4435 -0.0516
 6327SOL    HW220423   3.432   7.796   2.190 -0.7337 -0.2940  0.7239
 6328SOL     OW20424   3.331   1.932   1.563  0.0041 -0.3144 -0.6767
 6328SOL    HW120425   3.378   1.907   1.642  1.9889  0.7381 -1.4497
 6328SOL    HW220426   3.328   2.028   1.565 -1.7507 -0.3304 -0.8924
 6329SOL     OW20427   3.935   3.029   3.135 -0.2946  0.2261 -0.0232
 6329SOL    HW120428   4.013   3.072   3.099  0.6351 -2.2127 -1.1297
 6329SOL    HW220429   3.900   2.978   3.063 -1.3267 -0.8819  1.2106
 6330SOL     OW20430   1.468   0.410   2.219 -0.1614  0.2885 -0.3726
 6330SOL    HW120431   1.431   0.322   2.214 -0.2980  0.4006 -2.7353
 6330SOL    HW220432   1.498   0.428   2.130  0.0794  2.5481  0.1046
 6331SOL     OW20433   3.126   0.704   4.236 -0.3044  0.0816 -0.2988
 6331SOL    HW120434   3.134   0.765   4.162  0.4121 -1.1615 -1.2945
 6331SOL    HW220435   3.213   0.701   4.274 -0.5851  0.4415  0.3807
 6332SOL     OW20436   3.333   1.176   1.167  0.5251  0.1180  0.4257
 6332SOL    HW120437   3.323   1.197   1.074 -1.0203  0.1955  0.5837
 6332SOL    HW220438   3.290   1.091   1.177 -0.3572  0.6520  1.2684
 6333SOL     OW20439   1.427   3.833   2.066  0.3192 -0.0441  0.6168
 6333SOL    HW120440   1.474   3.768   2.013 -0.4992 -0.1818  0.0412
 6333SOL    HW220441   1.482   3.912   2.062 -0.6947  0.6157 -2.1752
 6334SOL     OW20442   2.425   1.378   4.020 -0.1182  0.9984  0.0509
 6334SOL    HW120443   2.489   1.375   3.949 -1.6313 -1.0096 -1.3117
 6334SOL    HW220444   2.347   1.416   3.981 -0.6031  0.9884  0.9820
 6335SOL     OW20445   3.870   1.497   2.525  0.3062  0.1301 -0.1721
 6335SOL    HW120446   3.826   1.486   2.609  0.7116 -0.4086 -0.0192
 6335SOL    HW220447   3.820   1.443   2.464 -0.6109  1.3393 -0.5242
 6336SOL     OW20448   1.740   3.387   1.422  0.1243 -0.5011 -0.1707
 6336SOL    HW120449   1.650   3.400   1.449 -0.1617  2.6345 -2.0950
 6336SOL    HW220450   1.791   3.442   1.482  0.6504 -1.2845  0.1205
 6337SOL     OW20451   2.757   2.427   3.207  0.4003  0.1973 -0.6154
 6337SOL    HW120452   2.682   2.485   3.222  0.2510 -0.0978 -0.2133
 6337SOL    HW220453   2.718   2.349   3.167  0.4731 -0.0139 -0.2746
 6338SOL     OW20454   4.637   0.902   2.776 -0.1628 -0.1211 -0.2464
 6338SOL    HW120455   4.663   0.905   2.684  1.6907 -0.7017  0.2040
 6338SOL    HW220456   4.612   0.992   2.797  0.0275  0.1521 -1.1581
 6339SOL     OW20457   2.458   7.905   2.754  0.2653 -0.0498  0.4916
 6339SOL    HW120458   2.479   7.958   2.677  1.2449 -0.7443  0.2548
 6339SOL    HW220459   2.520   7.934   2.821 -1.5407  1.5994  1.5526
 6340SOL     OW20460   2.469   1.856   3.506 -0.0773  0.3645 -0.2059
 6340SOL    HW120461   2.416   1.883   3.581  0.8689 -0.2138  0.6910
 6340SOL    HW220462   2.405   1.820   3.444 -0.6212 -2.1683  1.6563
 6341SOL     OW20463   3.025   7.378   3.936  0.2178  0.3539  0.2266
 6341SOL    HW120464   2.987   7.351   4.020 -0.7395  0.3301 -0.1994
 6341SOL    HW220465   3.109   7.332   3.932  0.4475  0.6435  1.3343
 6342SOL     OW20466   2.807   0.873   0.628 -1.2284 -0.0859  0.4710
 6342SOL    HW120467   2.877   0.827   0.583 -0.2586 -0.6875  2.4737
 6342SOL    HW220468   2.733   0.812   0.625 -1.2740 -0.0048 -0.4761
 6343SOL     OW20469   2.810   1.765   1.497  0.5007  0.1420 -0.4256
 6343SOL    HW120470   2.766   1.821   1.432 -0.0031  0.9716  0.6011
 6343SOL    HW220471   2.749   1.762   1.571  0.7988 -1.2869 -0.2169
 6344SOL     OW20472   4.741   2.502   3.652 -0.6350 -0.0892  0.3286
 6344SOL    HW120473   4.792   2.558   3.594 -0.9263  0.1188  0.2755
 6344SOL    HW220474   4.661   2.484   3.604 -0.0725 -1.4899 -0.1487
 6345SOL     OW20475   2.115   3.275   1.266 -0.5468  0.1241  0.0487
 6345SOL    HW120476   2.187   3.216   1.244 -0.8967 -1.1556  2.0580
 6345SOL    HW220477   2.056   3.222   1.320 -2.1868  1.5955 -0.1993
 6346SOL     OW20478   3.563   0.971   2.861  0.8505  0.4984 -0.0640
 6346SOL    HW120479   3.652   0.958   2.893  0.4832  1.1274  1.2658
 6346SOL    HW220480   3.518   0.889   2.880  0.8505  0.5822  0.3068
 6347SOL     OW20481   3.256   0.944   3.790 -0.5088 -0.0804  0.4031
 6347SOL    HW120482   3.344   0.982   3.789 -0.9744  1.0353  0.0045
 6347SOL    HW220483   3.270   0.849   3.793  0.7023  0.0859  0.2440
 6348SOL     OW20484   3.707   1.494   2.735 -0.3107  0.2873 -0.0263
 6348SOL    HW120485   3.740   1.470   2.822  1.9351  1.4661 -0.4912
 6348SOL    HW220486   3.720   1.589   2.730 -0.7434  0.2931 -1.5193
 6349SOL     OW20487   3.496   7.126   3.121  0.1997 -0.0374  0.2842
 6349SOL    HW120488   3.417   7.072   3.125 -0.0884  0.3551  0.0842
 6349SOL    HW220489   3.555   7.089   3.186 -0.0510 -0.4971  0.2515
 6350SOL     OW20490   2.495   1.645   3.800  0.3837 -0.0511  0.2229
 6350SOL    HW120491   2.580   1.684   3.822 -0.0132  0.3819  1.0365
 6350SOL    HW220492   2.434   1.719   3.803 -0.0401 -0.3755 -0.2856
 6351SOL     OW20493   2.636   2.572   3.998 -1.2444 -0.0675  0.4640
 6351SOL    HW120494   2.646   2.631   4.072 -1.6843 -0.0626  0.5212
 6351SOL    HW220495   2.615   2.629   3.924  0.5318  0.0858  0.0095
 6352SOL     OW20496   3.421   7.184   4.581 -0.2153  0.4058 -0.1939
 6352SOL    HW120497   3.359   7.245   4.540 -1.8400  0.3133  2.0013
 6352SOL    HW220498   3.434   7.219   4.669  3.3371  0.7089 -0.6762
 6353SOL     OW20499   1.976   1.018   2.736 -0.3405 -0.1741  0.0240
 6353SOL    HW120500   2.001   1.099   2.779  0.6535 -0.3377 -0.2315
 6353SOL    HW220501   1.887   1.034   2.705 -0.1306  0.8330 -0.0786
 6354SOL     OW20502   3.397   1.510   2.781 -0.0115 -0.6105  0.1874
 6354SOL    HW120503   3.384   1.426   2.738  0.3758  0.5420 -2.3434
 6354SOL    HW220504   3.492   1.520   2.786 -0.0380  0.0359 -0.3646
 6355SOL     OW20505   2.988   1.140   4.028  0.3381  0.6407 -0.8120
 6355SOL    HW120506   2.916   1.202   4.012 -0.2895  0.4500  0.9813
 6355SOL    HW220507   3.064   1.196   4.044  0.1177  0.9076 -0.6866
 6356SOL     OW20508   1.582   0.491   1.984  0.3256  0.4517 -0.1518
 6356SOL    HW120509   1.644   0.556   2.018 -1.3196  2.0606 -0.0430
 6356SOL    HW220510   1.560   0.523   1.896 -0.3973 -0.0183 -0.1506
 6357SOL     OW20511   2.904   1.350   3.577 -0.2317 -0.8865  0.3411
 6357SOL    HW120512   2.924   1.308   3.661  0.8121 -1.2190 -0.0627
 6357SOL    HW220513   2.948   1.435   3.582  1.6840 -1.7632 -0.6913
 6358SOL     OW20514   1.511   1.908   2.629  0.4583  0.4265  0.1001
 6358SOL    HW120515   1.501   1.856   2.708  1.1883  1.1555  0.6834
 6358SOL    HW220516   1.513   1.999   2.659  3.2530  0.6292 -0.4529
 6359SOL     OW20517   1.989   7.158   3.979 -0.1386  0.0411  1.0665
 6359SOL    HW120518   1.929   7.125   3.913  0.8236  0.5104 -0.0711
 6359SOL    HW220519   2.047   7.218   3.932  1.2669 -0.4305  2.1121
 6360SOL     OW20520   3.228   0.923   1.219  0.4492  0.0559 -0.1551
 6360SOL    HW120521   3.146   0.938   1.173  0.0943  0.5538  0.6174
 6360SOL    HW220522   3.207   0.858   1.286  0.7461 -0.0116 -0.1244
 6361SOL     OW20523   1.908   1.080   4.935  0.6614 -0.6237  0.2374
 6361SOL    HW120524   1.959   1.122   4.866  0.7399  0.2812  0.8186
 6361SOL    HW220525   1.965   1.011   4.969  2.0117  1.0803  1.6255
 6362SOL     OW20526   2.714   2.033   1.422 -0.0402 -0.5455 -0.2810
 6362SOL    HW120527   2.675   2.014   1.337 -0.8690  0.0720 -0.0509
 6362SOL    HW220528   2.640   2.058   1.477  0.7511  1.4835 -0.0531
 6363SOL     OW20529   3.250   0.813   2.251 -0.3768  0.1465 -0.0266
 6363SOL    HW120530   3.198   0.887   2.281  0.8976  1.1261 -0.1585
 6363SOL    HW220531   3.188   0.758   2.204 -2.1672 -0.7954  3.1775
 6364SOL     OW20532   2.744   0.269   3.856  0.4656 -0.2534 -0.7636
 6364SOL    HW120533   2.745   0.214   3.935 -3.9563  0.6918  0.2658
 6364SOL    HW220534   2.744   0.206   3.784 -1.2611 -1.5650  0.2834
 6365SOL     OW20535   4.667   7.381   3.481  0.4756 -0.0319 -0.5270
 6365SOL    HW120536   4.674   7.428   3.564  1.0040  0.0966 -0.6425
 6365SOL    HW220537   4.748   7.402   3.434 -0.6267  1.4677 -1.8859
 6366SOL     OW20538   4.710   0.591   2.186 -0.2016 -0.4630 -0.2630
 6366SOL    HW120539   4.680   0.610   2.275  0.5151  1.2201 -0.3433
 6366SOL    HW220540   4.739   0.675   2.152  0.8725 -1.3298 -1.6005
 6367SOL     OW20541   1.648   2.712   1.102 -0.7098  0.3910  0.6451
 6367SOL    HW120542   1.639   2.715   1.007  1.1248  0.0262  0.4198
 6367SOL    HW220543   1.598   2.788   1.133 -1.1500  0.6431 -0.6137
 6368SOL     OW20544   3.854   0.473   4.192 -0.4355 -0.2219 -0.1329
 6368SOL    HW120545   3.875   0.430   4.109 -0.1829 -0.2161 -0.0730
 6368SOL    HW220546   3.937   0.510   4.221  0.1064 -2.4698  1.4510
 6369SOL     OW20547   4.181   0.239   3.127  0.2529 -0.4540 -0.1415
 6369SOL    HW120548   4.146   0.259   3.040 -1.3146 -0.3726  0.4751
 6369SOL    HW220549   4.252   0.301   3.138 -0.4951  0.5599 -0.7841
 6370SOL     OW20550   2.110   0.698   1.339 -0.3729 -0.4199 -0.0003
 6370SOL    HW120551   2.049   0.759   1.381 -0.9801 -1.5624  0.8226
 6370SOL    HW220552   2.055   0.631   1.300  0.3225 -0.9386 -0.1143
 6371SOL     OW20553   1.387   2.585   1.358 -0.0737  0.7229 -0.0109
 6371SOL    HW120554   1.363   2.535   1.280 -0.4836  0.3915  0.3205
 6371SOL    HW220555   1.475   2.553   1.381  2.1107  4.0037 -2.9230
 6372SOL     OW20556   1.870   1.739   4.711  0.1620 -0.4036 -0.3715
 6372SOL    HW120557   1.901   1.656   4.747 -2.0853 -0.8926  0.6018
 6372SOL    HW220558   1.820   1.715   4.633  0.8195  0.2054 -0.9990
 6373SOL     OW20559   2.556   2.355   1.433  0.6249  0.1550  0.5425
 6373SOL    HW120560   2.527   2.433   1.386 -0.1048  0.5403  1.5950
 6373SOL    HW220561   2.647   2.343   1.406  0.4872  0.8642 -0.2866
 6374SOL     OW20562   3.830   1.473   3.003 -0.1732  0.2617  0.1123
 6374SOL    HW120563   3.924   1.491   3.005 -0.0257 -0.3087 -0.8206
 6374SOL    HW220564   3.789   1.559   3.011  0.4001  0.4143  1.6893
 6375SOL     OW20565   3.824   0.951   1.897  0.3010  0.1944  0.5823
 6375SOL    HW120566   3.775   1.016   1.846  0.2846  0.3737  0.8262
 6375SOL    HW220567   3.853   0.887   1.832  0.5448  0.5880  0.3052
 6376SOL     OW20568   2.984   0.914   3.138 -0.0045 -0.3579  0.1233
 6376SOL    HW120569   2.946   1.002   3.142  0.5873 -0.1114  0.5265
 6376SOL    HW220570   3.045   0.918   3.064 -0.0105 -0.4395  0.1140
 6377SOL     OW20571   2.752   1.302   2.724 -0.1135 -0.2423  0.2842
 6377SOL    HW120572   2.806   1.376   2.697 -1.2101 -0.0679 -1.6274
 6377SOL    HW220573   2.743   1.249   2.644 -2.5864 -0.3589  0.5774
 6378SOL     OW20574   4.479   0.665   3.027  0.8846  0.4301 -0.3956
 6378SOL    HW120575   4.484   0.737   3.089 -0.5516 -0.4547  0.8090
 6378SOL    HW220576   4.454   0.589   3.079 -0.9381 -0.2375 -2.0888
 6379SOL     OW20577   3.033   2.256   4.549  0.8564 -0.1676  0.2003
 6379SOL    HW120578   3.054   2.250   4.456 -0.5703 -0.0441 -0.1425
 6379SOL    HW220579   3.007   2.347   4.562  0.3707 -0.3521  0.5588
 6380SOL     OW20580   2.902   0.656   3.144  0.6892  0.0840 -0.3173
 6380SOL    HW120581   2.984   0.607   3.139 -0.2587 -1.7771  1.0606
 6380SOL    HW220582   2.928   0.748   3.143  2.6375 -0.4335 -1.7297
 6381SOL     OW20583   2.472   7.175   2.772  0.4212 -0.4241 -0.0257
 6381SOL    HW120584   2.483   7.160   2.678 -0.0067 -0.3398 -0.0931
 6381SOL    HW220585   2.381   7.150   2.790  0.8664 -1.6350  0.6049
 6382SOL     OW20586   1.887   2.402   2.447 -0.4121  0.4133  0.1206
 6382SOL    HW120587   1.860   2.316   2.413 -1.0419  0.8833 -0.5952
 6382SOL    HW220588   1.923   2.447   2.371  0.6035  0.5249  0.6508
 6383SOL     OW20589   3.585   1.211   3.014 -0.0026  0.0879 -0.2091
 6383SOL    HW120590   3.565   1.127   3.056 -0.7664  0.2344 -0.2751
 6383SOL    HW220591   3.555   1.200   2.924  1.6511 -0.2384 -0.7742
 6384SOL     OW20592   3.351   1.075   3.313  0.6849 -0.1979  0.1770
 6384SOL    HW120593   3.267   1.120   3.318  0.1302 -1.2336  0.4671
 6384SOL    HW220594   3.353   1.037   3.226  0.6891 -0.4680  0.2925
 6385SOL     OW20595   3.475   0.555   1.711 -0.3317  0.4658  0.0715
 6385SOL    HW120596   3.435   0.549   1.798  0.6321 -0.1660  0.4860
 6385SOL    HW220597   3.523   0.638   1.713  0.5711 -0.0497  0.5449
 6386SOL     OW20598   3.308   0.424   2.580  0.2423  0.0727 -0.4068
 6386SOL    HW120599   3.384   0.465   2.620 -0.1604  1.8355 -1.3631
 6386SOL    HW220600   3.238   0.489   2.591 -0.3663 -0.2566 -2.1648
 6387SOL     OW20601   2.003   1.252   2.376  0.0407 -0.0099 -1.1915
 6387SOL    HW120602   1.913   1.250   2.411  0.8903 -0.5597  1.1817
 6387SOL    HW220603   2.021   1.162   2.351  1.0361 -0.7247  1.6835
 6388SOL     OW20604   2.270   2.509   2.370 -0.3758  0.0689  0.0628
 6388SOL    HW120605   2.317   2.591   2.382  0.5480 -0.6115  1.3098
 6388SOL    HW220606   2.186   2.535   2.333  0.5272  1.4196 -1.1897
 6389SOL     OW20607   2.301   7.463   6.045 -0.4921 -0.3043 -0.1481
 6389SOL    HW120608   2.349   7.490   5.966  1.1947 -2.6279 -0.0198
 6389SOL    HW220609   2.257   7.382   6.019 -0.7520 -0.5448  1.0117
 6390SOL     OW20610   0.177   0.113   4.076 -0.4286  0.2811  0.6278
 6390SOL    HW120611   0.154   0.023   4.052 -1.1017  0.5545  0.2262
 6390SOL    HW220612   0.153   0.165   4.000 -2.0722  1.0987  1.6442
 6391SOL     OW20613   1.555   7.757   5.616 -0.0562  0.4265  0.0635
 6391SOL    HW120614   1.478   7.809   5.640  0.0906  1.1486 -0.9973
 6391SOL    HW220615   1.628   7.819   5.618 -0.0050  0.5086 -2.0477
 6392SOL     OW20616   3.032   0.772   6.435  0.0771  0.5693  0.0169
 6392SOL    HW120617   3.056   0.762   6.527  0.3891 -1.7142 -0.2432
 6392SOL    HW220618   3.084   0.704   6.390 -2.6004 -0.7241 -1.3452
 6393SOL     OW20619   2.803   1.693   3.796  0.1315  0.3883  0.4931
 6393SOL    HW120620   2.802   1.709   3.702 -1.8193 -0.6332  0.2981
 6393SOL    HW220621   2.801   1.598   3.805 -0.3124  0.4841  1.5583
 6394SOL     OW20622   1.683   3.274   5.392  0.2237  0.1209 -0.3998
 6394SOL    HW120623   1.767   3.319   5.398  0.0862  0.6715 -1.9828
 6394SOL    HW220624   1.704   3.192   5.346 -0.1823  0.5982 -1.4814
 6395SOL     OW20625   3.598   1.198   3.324 -0.2196  0.0059  0.2151
 6395SOL    HW120626   3.526   1.137   3.307 -0.6180  0.6238 -0.3810
 6395SOL    HW220627   3.592   1.218   3.417 -1.7687  1.1966 -0.1006
 6396SOL     OW20628   2.776   0.482   4.322 -0.3843  0.1910  0.0610
 6396SOL    HW120629   2.682   0.473   4.306 -1.0180  2.0403  2.2435
 6396SOL    HW220630   2.810   0.520   4.241 -1.6970  0.4640 -0.3933
 6397SOL     OW20631   2.941   6.932   5.704  0.2903 -0.4544  0.3400
 6397SOL    HW120632   2.922   6.930   5.610 -0.2289 -1.0989  0.4526
 6397SOL    HW220633   3.034   6.907   5.710 -0.0721 -1.9757  0.0837
 6398SOL     OW20634   2.010   1.222   4.705 -0.1248  0.7608 -0.7528
 6398SOL    HW120635   1.996   1.215   4.610  0.8157  1.5552 -0.9666
 6398SOL    HW220636   2.087   1.168   4.722 -1.3569 -0.8768 -0.1177
 6399SOL     OW20637   1.601   7.222   6.612 -0.0796 -0.3782 -0.0238
 6399SOL    HW120638   1.610   7.282   6.686 -0.0617 -0.4075 -0.0022
 6399SOL    HW220639   1.670   7.249   6.551 -1.0162  0.5771 -0.6748
 6400SOL     OW20640   2.866   6.590   4.277 -0.2529  0.8908 -0.8942
 6400SOL    HW120641   2.773   6.568   4.277  0.1132 -0.9893  0.9522
 6400SOL    HW220642   2.891   6.585   4.185 -1.7381  0.2514 -1.3097
 6401SOL     OW20643   2.144   2.795   3.871  0.5045  1.0402 -0.4099
 6401SOL    HW120644   2.200   2.718   3.861 -0.7707  0.0407 -0.1757
 6401SOL    HW220645   2.079   2.786   3.800 -1.5384  0.1837  1.4461
 6402SOL     OW20646   2.470   0.176   3.907  0.0263 -0.2402  0.5578
 6402SOL    HW120647   2.502   0.138   3.824 -0.5294  1.2678 -0.3892
 6402SOL    HW220648   2.537   0.241   3.930 -0.4517  0.2376  0.6032
 6403SOL     OW20649   4.040   7.733   4.514  0.5561  0.3034  0.1273
 6403SOL    HW120650   4.019   7.719   4.421  1.8438 -1.6560  0.0713
 6403SOL    HW220651   4.064   7.825   4.520  1.2493  0.2725 -1.6549
 6404SOL     OW20652   1.563   3.670   3.002 -0.1734 -0.8518 -0.6221
 6404SOL    HW120653   1.587   3.581   3.029  1.4552 -1.0384 -2.5001
 6404SOL    HW220654   1.521   3.659   2.917 -2.6021 -0.0187  0.3777
 6405SOL     OW20655   1.600   0.800   5.932  0.0137 -0.2068 -0.1662
 6405SOL    HW120656   1.516   0.767   5.900 -0.2113 -1.1762  1.3463
 6405SOL    HW220657   1.585   0.894   5.944 -0.3819 -0.1055 -1.2770
 6406SOL     OW20658   0.621   1.612   3.186  0.0273  0.3757 -0.0354
 6406SOL    HW120659   0.606   1.687   3.129 -1.9902 -0.0670 -0.1714
 6406SOL    HW220660   0.618   1.649   3.275 -0.2674  0.5708 -0.1234
 6407SOL     OW20661   2.691   1.717   4.908  0.8203  0.1429 -0.2922
 6407SOL    HW120662   2.756   1.760   4.853 -0.0728 -0.2058 -1.6965
 6407SOL    HW220663   2.621   1.781   4.918  1.0447  0.2639  0.6103
 6408SOL     OW20664   0.747   1.841   5.389  0.1201  0.2335 -0.1067
 6408SOL    HW120665   0.753   1.920   5.335  0.3118 -0.3884 -1.0185
 6408SOL    HW220666   0.781   1.771   5.333  0.1558 -0.4624  0.7644
 6409SOL     OW20667   1.507   7.394   6.121  0.4143  0.0132  0.1346
 6409SOL    HW120668   1.591   7.399   6.075  0.2427 -0.1644 -0.2033
 6409SOL    HW220669   1.524   7.337   6.196  0.2593 -1.2016 -0.7175
 6410SOL     OW20670   3.490   7.483   5.116 -0.2567 -0.3817  0.3819
 6410SOL    HW120671   3.463   7.436   5.195 -0.3823  0.4020  0.8217
 6410SOL    HW220672   3.410   7.489   5.064 -0.2912 -0.4618  0.4254
 6411SOL     OW20673   1.291   2.013   3.996 -0.1730 -0.1295  0.6153
 6411SOL    HW120674   1.256   2.000   3.908  0.1255 -0.2002  0.5058
 6411SOL    HW220675   1.242   2.088   4.030  0.4043  0.5486  0.0054
 6412SOL     OW20676   4.226   2.869   3.320  0.3118  0.1058  0.2144
 6412SOL    HW120677   4.258   2.845   3.407 -0.1157  2.3417  1.0460
 6412SOL    HW220678   4.142   2.826   3.312 -0.6775  1.6049  1.8720
 6413SOL     OW20679   2.499   0.650   5.851  0.2429 -0.5980  0.4044
 6413SOL    HW120680   2.543   0.698   5.921  1.2389 -0.7452 -0.1042
 6413SOL    HW220681   2.544   0.678   5.771  0.4682 -1.9600  0.0411
 6414SOL     OW20682   3.563   7.964   3.569 -0.1039 -0.9510 -0.2455
 6414SOL    HW120683   3.554   8.059   3.559  1.2889 -0.6446  1.0092
 6414SOL    HW220684   3.486   7.939   3.620  0.1060 -0.2870  0.4257
 6415SOL     OW20685   2.766   2.352   6.149 -0.5072  0.0270  0.0141
 6415SOL    HW120686   2.842   2.318   6.197  0.9539  1.1018 -1.4161
 6415SOL    HW220687   2.721   2.408   6.213  1.8915  2.1484  0.0119
 6416SOL     OW20688   1.060   7.407   6.287 -0.1248  0.4032  0.5361
 6416SOL    HW120689   1.038   7.352   6.212 -0.5018  1.7825 -0.4124
 6416SOL    HW220690   1.140   7.453   6.261  0.7571 -0.3853  1.7110
 6417SOL     OW20691   2.495   2.321   3.925  0.1897 -0.0071 -0.3824
 6417SOL    HW120692   2.417   2.337   3.872  1.0134 -0.4634 -1.8083
 6417SOL    HW220693   2.526   2.409   3.949  0.0425  0.2446 -1.0651
 6418SOL     OW20694   1.365   0.319   6.043  0.3704  0.3388 -0.2282
 6418SOL    HW120695   1.331   0.273   6.120  2.3411  0.1141  0.5660
 6418SOL    HW220696   1.359   0.412   6.065 -1.5082  0.4290 -0.9203
 6419SOL     OW20697   4.170   7.894   3.587  0.0540 -0.0406 -1.0293
 6419SOL    HW120698   4.184   7.989   3.591 -2.4011  0.3862  0.1419
 6419SOL    HW220699   4.120   7.880   3.507 -1.2411 -0.0033 -0.2675
 6420SOL     OW20700   1.427   1.134   4.575 -0.1443 -0.8011  0.4255
 6420SOL    HW120701   1.423   1.038   4.575 -0.5352 -0.7898 -0.2019
 6420SOL    HW220702   1.355   1.161   4.632 -0.1661 -0.8776  0.4350
 6421SOL     OW20703   4.340   1.073   4.780 -0.5577 -0.0395  0.0467
 6421SOL    HW120704   4.307   1.123   4.705  0.1404  0.5068  0.1023
 6421SOL    HW220705   4.389   1.001   4.742  0.8865  0.9623 -0.0313
 6422SOL     OW20706   3.363   1.596   5.586  0.0439 -0.4080 -0.1386
 6422SOL    HW120707   3.359   1.646   5.667 -0.9484 -0.7918  0.0589
 6422SOL    HW220708   3.446   1.548   5.592  0.4066  0.2354  0.2309
 6423SOL     OW20709   2.505   0.923   6.651 -0.1994 -0.2829  0.0160
 6423SOL    HW120710   2.526   0.951   6.562 -0.7323  0.4618  0.1177
 6423SOL    HW220711   2.546   0.837   6.659  0.5783  0.0115 -0.6603
 6424SOL     OW20712   2.899   0.426   5.599  0.4367  0.2457  0.2298
 6424SOL    HW120713   2.925   0.516   5.614 -0.6768  0.3377  1.8236
 6424SOL    HW220714   2.857   0.427   5.513 -0.7555  1.5296  0.8026
 6425SOL     OW20715   2.516   1.931   4.862 -0.2007  0.0730 -0.0840
 6425SOL    HW120716   2.538   1.996   4.796 -1.4291 -0.9077 -1.5257
 6425SOL    HW220717   2.428   1.901   4.838  0.1636 -1.8286  0.7425
 6426SOL     OW20718   1.559   7.528   4.354  0.5097  0.1420 -0.5297
 6426SOL    HW120719   1.553   7.500   4.445  0.6542  1.1530 -0.1991
 6426SOL    HW220720   1.569   7.447   4.304  4.9264 -0.3321  0.6918
 6427SOL     OW20721   1.606   1.725   3.715  0.1233  0.3431 -0.2168
 6427SOL    HW120722   1.529   1.680   3.751 -0.6857  1.1270 -0.9290
 6427SOL    HW220723   1.583   1.818   3.717 -0.0874  0.4218 -2.9970
 6428SOL     OW20724   2.707   2.683   4.835  0.4906  0.0056 -0.1549
 6428SOL    HW120725   2.753   2.628   4.772  3.4284  2.3620 -0.2966
 6428SOL    HW220726   2.676   2.758   4.783 -1.1771 -0.2200  0.4514
 6429SOL     OW20727   1.897   7.273   3.570 -0.0409 -0.4766 -0.2103
 6429SOL    HW120728   1.956   7.343   3.545  0.1335  0.3836  2.3024
 6429SOL    HW220729   1.829   7.273   3.503  1.9048 -0.4348 -2.3002
 6430SOL     OW20730   3.386   2.389   5.016 -0.2554 -0.3287  0.2269
 6430SOL    HW120731   3.397   2.478   5.049  0.1715  0.5500 -2.1315
 6430SOL    HW220732   3.346   2.400   4.930 -1.2496 -2.4992  0.3468
 6431SOL     OW20733   3.274   0.569   6.101  0.4101  0.0729 -0.5809
 6431SOL    HW120734   3.349   0.565   6.161  0.8510  0.2437 -1.1171
 6431SOL    HW220735   3.205   0.523   6.148  1.0980 -0.8448 -0.4291
 6432SOL     OW20736   2.570   0.081   4.844 -0.0773 -0.1243 -0.2733
 6432SOL    HW120737   2.602   0.171   4.850 -0.4514  0.0123 -0.2786
 6432SOL    HW220738   2.485   0.083   4.889  0.7302 -0.8769  1.3656
 6433SOL     OW20739   3.318   0.713   4.739 -0.0872 -0.0645  0.0670
 6433SOL    HW120740   3.292   0.649   4.672 -1.3056  0.7223 -0.2634
 6433SOL    HW220741   3.236   0.758   4.761  0.8131  1.7618 -0.1334
 6434SOL     OW20742   1.867   1.265   5.375 -0.0189  0.0776 -0.2922
 6434SOL    HW120743   1.881   1.346   5.423  2.1798  0.0278 -0.7755
 6434SOL    HW220744   1.892   1.196   5.436 -0.7412 -0.2041 -0.2958
 6435SOL     OW20745   2.259   1.972   5.038 -0.0588  0.0421 -0.9211
 6435SOL    HW120746   2.253   1.918   4.959  0.9278 -0.6801 -0.5160
 6435SOL    HW220747   2.289   2.057   5.007  0.9037 -0.4120 -1.2684
 6436SOL     OW20748   2.068   0.601   3.272 -0.4706 -0.1190 -0.7070
 6436SOL    HW120749   2.033   0.535   3.331 -0.6328  0.9751  0.4762
 6436SOL    HW220750   2.109   0.665   3.330  0.5766  0.3102 -1.8745
 6437SOL     OW20751   1.810   6.882   6.087  1.0018 -0.3185 -0.1502
 6437SOL    HW120752   1.759   6.919   6.015 -0.7071  1.0125  1.6351
 6437SOL    HW220753   1.841   6.958   6.136 -0.6227 -1.1511  2.3182
 6438SOL     OW20754   1.664   1.120   5.050 -0.6349 -0.1333 -0.1781
 6438SOL    HW120755   1.727   1.133   4.980 -0.9772 -0.0784 -0.4787
 6438SOL    HW220756   1.580   1.144   5.012 -0.8541 -0.3021  0.1875
 6439SOL     OW20757   1.456   0.359   3.227 -0.0850  0.5142 -0.4846
 6439SOL    HW120758   1.473   0.328   3.138 -0.1877 -0.3601 -0.2117
 6439SOL    HW220759   1.372   0.320   3.251  0.3007  0.1024  0.2656
 6440SOL     OW20760   2.223   0.729   4.229 -0.1535 -0.0490 -0.2913
 6440SOL    HW120761   2.298   0.694   4.278  0.4774  0.9713 -0.5007
 6440SOL    HW220762   2.157   0.744   4.296  0.3442  0.3812  0.1168
 6441SOL     OW20763   3.156   0.903   4.063 -0.4839  0.3514  0.2952
 6441SOL    HW120764   3.137   0.989   4.101 -0.1577 -0.2012  1.8057
 6441SOL    HW220765   3.200   0.922   3.980 -1.5462  1.6244 -0.0002
 6442SOL     OW20766   4.335   2.103   3.669 -0.3645 -0.5834 -0.1479
 6442SOL    HW120767   4.384   2.024   3.645 -1.1135 -0.4337 -2.3272
 6442SOL    HW220768   4.382   2.138   3.745  1.7962 -1.4484 -1.0188
 6443SOL     OW20769   2.306   2.139   4.585 -0.4289 -0.0369 -0.1861
 6443SOL    HW120770   2.230   2.093   4.549  0.1934 -1.3076  0.1002
 6443SOL    HW220771   2.378   2.116   4.526  0.8453 -2.9568  2.2611
 6444SOL     OW20772   2.050   2.407   5.043 -0.2737 -0.3118  0.7541
 6444SOL    HW120773   2.045   2.362   4.959  0.6435 -0.4145  0.7429
 6444SOL    HW220774   2.121   2.470   5.033 -1.3552  0.9856  0.8647
 6445SOL     OW20775   2.542   2.049   4.380  0.0420  0.5625  0.1352
 6445SOL    HW120776   2.506   2.067   4.293 -2.5924  2.0666  1.4176
 6445SOL    HW220777   2.589   2.129   4.404 -2.3146  1.6499  1.4464
 6446SOL     OW20778   2.630   7.782   4.016 -0.3255  0.1091 -0.2407
 6446SOL    HW120779   2.673   7.818   4.093  0.1848 -1.9930  0.5167
 6446SOL    HW220780   2.556   7.733   4.050  0.1141 -1.1533 -1.0310
 6447SOL     OW20781   2.091   3.135   5.090  0.5673 -0.2106 -0.5391
 6447SOL    HW120782   2.009   3.170   5.055  1.3748  2.3718 -0.0748
 6447SOL    HW220783   2.141   3.111   5.013  0.2002  0.2310 -0.9246
 6448SOL     OW20784   3.312   0.519   7.375 -0.5982 -0.1883  0.1031
 6448SOL    HW120785   3.303   0.614   7.386 -1.4294 -0.2699  0.1658
 6448SOL    HW220786   3.235   0.482   7.418  0.5241 -0.9910  1.4728
 6449SOL     OW20787   2.707   2.971   3.147 -0.0186 -0.8954  0.5450
 6449SOL    HW120788   2.613   2.970   3.130  0.2982 -1.4679 -1.5376
 6449SOL    HW220789   2.745   2.922   3.073  2.0732  1.0838  0.1852
 6450SOL     OW20790   0.732   1.140   4.719 -0.2034 -0.1945  0.1601
 6450SOL    HW120791   0.769   1.174   4.637 -0.8665  0.7685  0.2359
 6450SOL    HW220792   0.792   1.070   4.745 -0.2077 -0.8067 -1.3544
 6451SOL     OW20793   3.489   0.212   3.344 -0.9100 -0.6170 -0.1406
 6451SOL    HW120794   3.394   0.207   3.329 -1.0155  0.7547 -0.0508
 6451SOL    HW220795   3.528   0.202   3.257 -1.3226  2.3887 -0.7831
 6452SOL     OW20796   1.490   1.172   3.373 -1.0458  0.6349  0.2335
 6452SOL    HW120797   1.520   1.082   3.363 -1.2345  0.5687  0.2645
 6452SOL    HW220798   1.451   1.194   3.289 -0.9370  0.7110  0.2029
 6453SOL     OW20799   1.778   0.785   5.547  0.1748  0.1836 -0.3219
 6453SOL    HW120800   1.745   0.858   5.599 -0.9627 -1.2920  1.1462
 6453SOL    HW220801   1.718   0.780   5.472 -0.2092  0.2859 -0.0226
 6454SOL     OW20802   1.996   6.709   4.523  0.1878  0.2138  0.1554
 6454SOL    HW120803   1.922   6.714   4.584 -0.8963 -2.6658 -0.7630
 6454SOL    HW220804   1.963   6.660   4.448  2.7443 -0.2374 -0.7871
 6455SOL     OW20805   2.012   7.732   5.022 -0.2380 -0.6693  0.0445
 6455SOL    HW120806   1.933   7.695   4.983 -1.6629  1.6785  0.5170
 6455SOL    HW220807   2.050   7.660   5.071 -1.5626 -2.1229 -0.9509
 6456SOL     OW20808   1.907   0.660   4.886 -0.1398  0.1453  0.1386
 6456SOL    HW120809   1.938   0.674   4.796  0.0287  0.1560  0.1974
 6456SOL    HW220810   1.944   0.733   4.935 -1.2385  0.8269 -0.0168
 6457SOL     OW20811   2.766   7.669   6.705  0.0287  0.1377 -0.1418
 6457SOL    HW120812   2.801   7.603   6.645 -1.3530  0.9851 -1.9796
 6457SOL    HW220813   2.731   7.737   6.648 -1.4181  0.9660  1.6343
 6458SOL     OW20814   1.999   2.257   4.776  0.5729  0.4029  0.0727
 6458SOL    HW120815   2.085   2.221   4.798 -0.0755 -1.4229 -0.2010
 6458SOL    HW220816   1.960   2.192   4.717 -0.6201  1.6567 -0.5784
 6459SOL     OW20817   5.653   0.421   3.774  0.4769  0.0421 -0.1964
 6459SOL    HW120818   5.662   0.505   3.730  0.6994  0.8161  1.2499
 6459SOL    HW220819   5.606   0.366   3.711  2.2826  0.5213 -2.0525
 6460SOL     OW20820   4.029   0.313   5.229  0.6140 -0.0979 -0.7468
 6460SOL    HW120821   4.030   0.255   5.153  0.6680  1.2397 -1.8106
 6460SOL    HW220822   3.990   0.394   5.196 -3.4236 -0.7845  1.6409
 6461SOL     OW20823   5.000   0.193   4.371  0.0628  0.3717 -0.0622
 6461SOL    HW120824   4.989   0.281   4.409  1.0176  0.4629  0.0085
 6461SOL    HW220825   5.051   0.207   4.292  0.7695 -0.1963  0.2833
 6462SOL     OW20826   4.103   0.096   2.578  0.2117  0.7439  0.4605
 6462SOL    HW120827   4.173   0.112   2.641  0.9723 -0.8013  0.0532
 6462SOL    HW220828   4.099   0.000   2.571 -0.7616  0.8631 -0.8289
 6463SOL     OW20829   2.220   0.027   3.993 -0.3558 -0.0812 -0.4557
 6463SOL    HW120830   2.304   0.067   3.970  0.3944 -0.3757  1.5903
 6463SOL    HW220831   2.220  -0.057   3.947  0.7165 -0.3034 -0.0774
 6464SOL     OW20832   1.945   7.536   5.472  0.1201  0.3893 -0.2188
 6464SOL    HW120833   1.913   7.625   5.485 -0.3946  0.2053 -0.2067
 6464SOL    HW220834   1.975   7.508   5.559  1.0457  0.8414 -0.3852
 6465SOL     OW20835   1.439   0.339   5.692  0.3819  0.2968  0.2923
 6465SOL    HW120836   1.431   0.429   5.661  2.1326  0.5305  0.3636
 6465SOL    HW220837   1.513   0.343   5.754 -1.9011 -0.4447  3.3167
 6466SOL     OW20838   2.958   2.530   5.370  0.2265 -0.3147 -0.0879
 6466SOL    HW120839   2.890   2.475   5.331 -0.5498 -0.9845  2.0511
 6466SOL    HW220840   3.018   2.468   5.412 -0.6265  0.3596  2.3170
 6467SOL     OW20841   2.265   1.862   4.786  0.4257  0.1749  0.4071
 6467SOL    HW120842   2.255   1.769   4.766  0.8965 -0.2060  1.8158
 6467SOL    HW220843   2.178   1.899   4.770  0.7684 -0.0182 -2.3476
 6468SOL     OW20844   3.172   2.551   4.795  0.2090  0.5984  0.1784
 6468SOL    HW120845   3.224   2.604   4.734 -1.4681  1.8604 -0.2513
 6468SOL    HW220846   3.087   2.544   4.753 -0.1915 -0.8214  1.1698
 6469SOL     OW20847   2.254   2.343   1.776 -0.0182 -0.1939  0.3583
 6469SOL    HW120848   2.336   2.393   1.774 -0.9256  1.3459 -0.1533
 6469SOL    HW220849   2.218   2.354   1.688 -1.3464  0.1791  0.9264
 6470SOL     OW20850   2.980   7.516   7.662  0.1919 -0.6048 -0.0138
 6470SOL    HW120851   2.889   7.489   7.647  0.4016 -1.3864  0.0509
 6470SOL    HW220852   2.991   7.511   7.757 -0.3359  1.6768  0.2270
 6471SOL     OW20853   2.186   0.939   5.529  0.1231  0.4868  0.6343
 6471SOL    HW120854   2.169   0.847   5.546 -0.1907  0.6227  1.0815
 6471SOL    HW220855   2.276   0.953   5.560  0.4030  0.1931 -0.0188
 6472SOL     OW20856   2.355   0.192   3.446  0.1858  0.0886 -0.6052
 6472SOL    HW120857   2.351   0.268   3.504 -2.0481  0.6274 -1.3422
 6472SOL    HW220858   2.334   0.227   3.359 -0.3042 -1.2549 -1.0592
 6473SOL     OW20859   3.231   0.590   3.303 -0.3613  0.4525 -0.2059
 6473SOL    HW120860   3.185   0.670   3.329 -1.2559 -0.3284  0.7096
 6473SOL    HW220861   3.287   0.569   3.377 -0.3466  0.0796 -0.3200
 6474SOL     OW20862   4.014   7.312   4.817 -0.5638  0.1221  0.4993
 6474SOL    HW120863   3.919   7.324   4.810 -0.4050  2.1223  1.2513
 6474SOL    HW220864   4.048   7.347   4.734 -0.3508  1.6298  1.1936
 6475SOL     OW20865   2.367   0.615   4.457  0.6670  1.2393 -0.7393
 6475SOL    HW120866   2.313   0.557   4.510  1.4063 -0.5759 -1.8835
 6475SOL    HW220867   2.377   0.694   4.511 -0.2755  0.2871  0.9210
 6476SOL     OW20868   2.463   1.113   4.563  0.1653 -0.1112 -0.0157
 6476SOL    HW120869   2.440   1.046   4.628 -0.3116 -1.5945 -1.6498
 6476SOL    HW220870   2.556   1.129   4.577 -0.0612  0.1008  1.4512
 6477SOL     OW20871   3.111   2.330   4.278 -0.1022 -0.4811 -0.1674
 6477SOL    HW120872   3.042   2.380   4.235 -0.2426 -0.5419 -0.0134
 6477SOL    HW220873   3.167   2.301   4.206  1.3963  1.9590 -0.0867
 6478SOL     OW20874   4.333   1.944   3.931 -0.2173 -0.2782  0.2900
 6478SOL    HW120875   4.351   1.888   4.008 -2.2550 -1.2414  0.1273
 6478SOL    HW220876   4.304   1.882   3.864  0.5892  0.6753 -0.9746
 6479SOL     OW20877   4.512   1.233   2.547 -0.4180  0.1887 -0.1748
 6479SOL    HW120878   4.512   1.308   2.488 -1.5359 -0.4986 -1.0763
 6479SOL    HW220879   4.500   1.157   2.490  0.8430 -0.7093  0.7010
 6480SOL     OW20880   4.610   0.271   4.537  0.1582 -0.1513 -0.1711
 6480SOL    HW120881   4.692   0.231   4.508  0.7725  1.4003 -0.6644
 6480SOL    HW220882   4.543   0.229   4.482  0.6285 -1.1959  0.0144
 6481SOL     OW20883   4.073   0.370   5.847 -0.6338 -0.0924 -0.2629
 6481SOL    HW120884   4.032   0.452   5.873  0.3274 -0.1584  1.5707
 6481SOL    HW220885   4.116   0.390   5.763  0.1054  1.4605  0.4536
 6482SOL     OW20886   2.683   1.268   5.997 -0.5513  0.1182 -0.3175
 6482SOL    HW120887   2.703   1.193   5.941  0.5830  0.1911 -0.0290
 6482SOL    HW220888   2.728   1.249   6.079  0.4752  1.5265 -0.5343
 6483SOL     OW20889   3.015   2.241   6.234  0.0101  0.1401  0.6792
 6483SOL    HW120890   3.066   2.292   6.172 -0.5754  0.8980  0.8112
 6483SOL    HW220891   3.080   2.187   6.280  0.4841 -0.2111 -0.3705
 6484SOL     OW20892   3.562   0.284   5.786  0.3370 -0.0461 -0.0737
 6484SOL    HW120893   3.480   0.287   5.834  0.6732 -0.6537  0.5500
 6484SOL    HW220894   3.563   0.365   5.735  0.0055  0.6572  1.0082
 6485SOL     OW20895   3.735   7.988   4.714 -0.4106  0.4055  0.1738
 6485SOL    HW120896   3.688   7.997   4.797  2.1213 -1.1051  1.9226
 6485SOL    HW220897   3.809   8.048   4.721  0.5538 -0.6513 -0.3810
 6486SOL     OW20898   1.691   0.382   7.692 -0.1944  0.1291  0.2016
 6486SOL    HW120899   1.776   0.425   7.679  0.0061 -0.4294 -0.3600
 6486SOL    HW220900   1.674   0.392   7.786  0.8147 -0.3543  0.4496
 6487SOL     OW20901   1.882   1.169   6.170 -0.2978 -0.0325  0.6167
 6487SOL    HW120902   1.926   1.219   6.238  0.9060 -1.5487  1.0004
 6487SOL    HW220903   1.917   1.203   6.088  0.3315 -0.0827  0.8623
 6488SOL     OW20904   4.480   1.685   4.074 -0.0680 -0.2533 -0.3250
 6488SOL    HW120905   4.559   1.738   4.083 -0.3072 -0.1210  1.3279
 6488SOL    HW220906   4.513   1.596   4.060  0.3675 -0.1310 -0.0993
 6489SOL     OW20907   3.699   1.536   4.749  0.0610 -0.3788 -0.3044
 6489SOL    HW120908   3.604   1.551   4.757 -0.0858 -1.8666  1.4731
 6489SOL    HW220909   3.735   1.571   4.831  1.2166  0.9417 -1.3142
 6490SOL     OW20910   2.173   1.004   4.754  0.1970  0.1796 -0.1159
 6490SOL    HW120911   2.141   0.914   4.755 -0.6258  0.4413  1.8344
 6490SOL    HW220912   2.208   1.018   4.843 -0.6103  2.0657 -0.0539
 6491SOL     OW20913   7.596   6.782   5.585 -0.3141  0.1395 -0.4662
 6491SOL    HW120914   7.539   6.713   5.618 -1.4749  1.8902  1.3835
 6491SOL    HW220915   7.581   6.857   5.643  0.5773  2.1102 -2.5860
 6492SOL     OW20916   3.727   0.292   3.638 -0.2320  0.2612 -0.1081
 6492SOL    HW120917   3.797   0.236   3.673  0.6954  1.0040 -0.7448
 6492SOL    HW220918   3.763   0.329   3.558 -1.0633  1.2859 -0.0270
 6493SOL     OW20919   4.538   1.125   3.174  0.3137  0.2329 -0.6571
 6493SOL    HW120920   4.621   1.081   3.194  1.2971  2.1724 -0.2886
 6493SOL    HW220921   4.556   1.178   3.097 -0.3063  1.3782 -0.0444
 6494SOL     OW20922   2.914   0.845   4.378 -0.2531  0.1330 -0.5959
 6494SOL    HW120923   2.968   0.923   4.388 -0.0068 -0.0933 -0.1402
 6494SOL    HW220924   2.973   0.780   4.339 -0.3083  0.0130 -0.4818
 6495SOL     OW20925   7.409   7.697   4.100 -0.1312  0.0488 -0.1167
 6495SOL    HW120926   7.496   7.688   4.061 -0.9566  1.4743 -2.4852
 6495SOL    HW220927   7.391   7.791   4.097 -2.0793 -0.2994 -0.4509
 6496SOL     OW20928   1.934   1.870   5.949 -0.1687 -0.0318 -0.1125
 6496SOL    HW120929   1.983   1.948   5.971 -0.3442 -0.1145  0.5991
 6496SOL    HW220930   1.845   1.901   5.932 -0.0235  0.0383 -0.7861
 6497SOL     OW20931   3.688   0.888   3.279  0.9273  0.5525  0.2653
 6497SOL    HW120932   3.768   0.913   3.324 -0.0772  3.0134  0.8252
 6497SOL    HW220933   3.619   0.901   3.343 -0.1612  0.5937 -0.8691
 6498SOL     OW20934   3.937   0.162   3.229  0.4141 -0.6912  0.2575
 6498SOL    HW120935   3.928   0.196   3.319 -0.9408 -0.9929  0.2574
 6498SOL    HW220936   4.018   0.202   3.197  0.5221  0.0300  1.3509
 6499SOL     OW20937   5.148   6.541   6.169  0.5173  0.3917  0.2988
 6499SOL    HW120938   5.220   6.586   6.124  1.0404 -0.6870  0.0151
 6499SOL    HW220939   5.146   6.579   6.257  2.7510 -0.9011  0.9803
 6500SOL     OW20940   2.068   0.197   6.177  0.2816 -0.3507 -0.2814
 6500SOL    HW120941   1.989   0.242   6.150 -1.0650 -2.2249  0.3354
 6500SOL    HW220942   2.089   0.234   6.263 -1.3729 -1.4962  0.6674
 6501SOL     OW20943   3.025   1.108   4.709  0.2102 -0.2792 -0.2751
 6501SOL    HW120944   2.967   1.094   4.784 -0.9106 -0.3397 -1.1305
 6501SOL    HW220945   3.062   1.022   4.691  0.6790 -0.2188  0.3387
 6502SOL     OW20946   4.176   0.598   3.109  0.3637  0.0271  0.0951
 6502SOL    HW120947   4.144   0.526   3.162 -0.6503  0.9177  0.7299
 6502SOL    HW220948   4.190   0.670   3.171  2.9402 -0.0714 -0.2575
 6503SOL     OW20949   1.616   0.351   5.918  0.5314  0.3475  0.1928
 6503SOL    HW120950   1.661   0.270   5.893  0.8111  0.7193 -0.5666
 6503SOL    HW220951   1.534   0.322   5.956  0.0996 -0.2886 -1.1367
 6504SOL     OW20952   0.818   0.065   6.034  0.3905 -0.5132 -0.1745
 6504SOL    HW120953   0.863   0.094   5.954  1.4419  1.1269  0.9583
 6504SOL    HW220954   0.725   0.081   6.015  0.7362  1.3485 -0.5467
 6505SOL     OW20955   1.923   0.734   4.315 -0.5621  0.1139  0.2227
 6505SOL    HW120956   1.958   0.761   4.400  0.7362 -0.5408 -0.0788
 6505SOL    HW220957   1.842   0.785   4.305 -0.3558  0.7364  1.5167
 6506SOL     OW20958   4.477   1.805   6.227 -0.3327 -0.3256 -0.2789
 6506SOL    HW120959   4.467   1.823   6.321 -1.8292 -0.7069 -0.3441
 6506SOL    HW220960   4.567   1.830   6.208 -0.5619  1.6055  0.8536
 6507SOL     OW20961   1.680   7.593   5.865 -0.0480  0.4150  0.1200
 6507SOL    HW120962   1.727   7.516   5.896  2.2481  1.4995 -0.3468
 6507SOL    HW220963   1.655   7.640   5.944  1.0170  0.5264  0.4084
 6508SOL     OW20964   4.428   1.081   4.114 -0.3126  0.2777 -0.5739
 6508SOL    HW120965   4.333   1.083   4.099 -0.1331 -1.5712 -2.2414
 6508SOL    HW220966   4.456   1.170   4.097 -1.7229  0.8372 -0.1771
 6509SOL     OW20967   2.721   1.269   4.155 -0.0816 -0.1405  0.1732
 6509SOL    HW120968   2.731   1.364   4.157  0.6719 -0.1913 -0.8222
 6509SOL    HW220969   2.798   1.235   4.200 -0.3050 -0.2889  0.4502
 6510SOL     OW20970   1.640   0.444   7.211  0.7927 -0.0989  0.2690
 6510SOL    HW120971   1.642   0.540   7.207 -1.3176  0.0039  0.7142
 6510SOL    HW220972   1.571   0.419   7.149  1.2679 -1.3400  0.2086
 6511SOL     OW20973   3.998   1.135   4.417  1.4876 -0.4682  0.4024
 6511SOL    HW120974   3.996   1.146   4.512  3.2529  2.1657  0.2564
 6511SOL    HW220975   3.937   1.063   4.399 -0.0875 -0.0046  3.3472
 6512SOL     OW20976   3.200   0.317   6.365 -0.3018 -0.0518 -0.0294
 6512SOL    HW120977   3.172   0.267   6.288 -2.9369  1.9022 -0.4648
 6512SOL    HW220978   3.260   0.258   6.411 -0.7865 -2.3494 -2.1198
 6513SOL     OW20979   3.669   7.495   2.059 -0.3952 -0.2334  0.1936
 6513SOL    HW120980   3.685   7.585   2.028  2.0589 -0.6130  0.1598
 6513SOL    HW220981   3.643   7.506   2.150  1.7630  0.5048  0.7889
 6514SOL     OW20982   2.750   7.744   4.728  0.3834  0.4485  0.4244
 6514SOL    HW120983   2.718   7.710   4.644  0.8209  0.8067  0.1122
 6514SOL    HW220984   2.673   7.783   4.769  0.3050  0.8576 -0.1017
 6515SOL     OW20985   1.684   2.660   4.928 -0.1370  0.2074  0.3098
 6515SOL    HW120986   1.724   2.591   4.981  0.2257  0.1587 -0.0194
 6515SOL    HW220987   1.615   2.696   4.983  0.2159  0.1371  0.8025
 6516SOL     OW20988   6.767   0.253   6.528 -0.2781  0.3486  0.0791
 6516SOL    HW120989   6.797   0.258   6.438  1.9564 -0.3262  0.7386
 6516SOL    HW220990   6.801   0.170   6.561 -0.0938  1.0834  1.8498
 6517SOL     OW20991   1.565   1.424   3.475  0.0866 -0.1612 -0.1869
 6517SOL    HW120992   1.627   1.403   3.546  2.3589  0.8337 -1.7538
 6517SOL    HW220993   1.538   1.339   3.441  1.7028 -0.6623 -0.3135
 6518SOL     OW20994   3.874   7.645   3.616  0.4818 -0.6730  0.2486
 6518SOL    HW120995   3.897   7.672   3.527 -0.1757 -1.7260 -0.2564
 6518SOL    HW220996   3.912   7.557   3.625 -2.8713 -2.3824 -0.5141
 6519SOL     OW20997   2.987   7.980   4.145  0.1616  0.2863  0.1403
 6519SOL    HW120998   3.014   8.027   4.067  0.2126  2.9247  1.6363
 6519SOL    HW220999   3.002   8.042   4.217  1.6266 -2.5004  2.4849
 6520SOL     OW21000   3.287   1.326   3.412  0.3888  0.7230 -0.3892
 6520SOL    HW121001   3.352   1.391   3.385  0.0288 -0.0301 -3.5033
 6520SOL    HW221002   3.338   1.246   3.424  0.3872  0.7869  0.0647
 6521SOL     OW21003   1.200   1.001   4.896 -0.9226  0.0894  0.5872
 6521SOL    HW121004   1.153   1.030   4.818  0.0232  0.1420  0.0162
 6521SOL    HW221005   1.137   0.947   4.944 -1.6864  0.5079  0.0645
 6522SOL     OW21006   1.233   3.716   5.319  0.0970  0.2994  0.6186
 6522SOL    HW121007   1.203   3.653   5.253 -0.3974 -1.7087  2.6352
 6522SOL    HW221008   1.314   3.751   5.284  0.1706 -1.1753 -0.7902
 6523SOL     OW21009   3.533   0.248   2.527 -0.0893 -0.0522  0.5366
 6523SOL    HW121010   3.553   0.240   2.433 -0.5352  1.1685  0.3151
 6523SOL    HW221011   3.546   0.341   2.546  1.1929 -0.5018  1.9965
 6524SOL     OW21012   1.408   0.550   4.456 -0.0551 -0.2185  0.1390
 6524SOL    HW121013   1.393   0.623   4.396 -1.5121  0.3749  1.1438
 6524SOL    HW221014   1.335   0.556   4.519 -1.7152 -4.0000 -1.1494
 6525SOL     OW21015   1.901   0.448   5.062 -0.5211  0.0860  0.0382
 6525SOL    HW121016   1.822   0.393   5.065 -0.6234  0.1919 -0.5743
 6525SOL    HW221017   1.892   0.498   4.981  0.7941 -0.8415 -0.7190
 6526SOL     OW21018   3.336   2.502   4.166 -0.4037 -0.0058 -0.0609
 6526SOL    HW121019   3.246   2.506   4.133 -0.1397 -1.5895 -1.0964
 6526SOL    HW221020   3.390   2.506   4.087  0.3953 -0.1382  0.4728
 6527SOL     OW21021   3.034   1.530   5.411 -0.4239  0.4323  0.1674
 6527SOL    HW121022   2.996   1.442   5.415  0.2232  0.1700  1.5007
 6527SOL    HW221023   2.960   1.589   5.401 -1.0758 -0.1491  1.3770
 6528SOL     OW21024   1.695   7.603   5.070  0.2527  0.7033  0.3043
 6528SOL    HW121025   1.713   7.630   4.980 -0.4847 -1.2474 -0.4729
 6528SOL    HW221026   1.728   7.514   5.076 -1.4269  0.1099  1.3739
 6529SOL     OW21027   3.396   7.695   5.527  0.1307  0.0504 -0.0070
 6529SOL    HW121028   3.431   7.633   5.591 -1.6079 -0.4941  0.4660
 6529SOL    HW221029   3.416   7.782   5.565  0.6903 -0.2385  0.3803
 6530SOL     OW21030   2.489   7.976   6.229  0.0759 -0.3820  0.4191
 6530SOL    HW121031   2.485   8.030   6.151  3.6077 -0.4614  0.0230
 6530SOL    HW221032   2.484   7.886   6.197  1.5407 -0.4151  0.2230
 6531SOL     OW21033   2.257   0.592   4.922 -0.5323  0.1232  0.2143
 6531SOL    HW121034   2.333   0.650   4.920 -1.1266  0.9175  0.3866
 6531SOL    HW221035   2.252   0.557   4.833  0.6065 -0.7069  0.4563
 6532SOL     OW21036   3.285   7.562   4.953  0.3380  0.9375  0.3603
 6532SOL    HW121037   3.308   7.559   4.860  0.4241 -2.2539  0.3937
 6532SOL    HW221038   3.204   7.613   4.955 -1.3319 -1.3501 -1.9653
 6533SOL     OW21039   3.840   0.906   4.361  0.0577 -0.1146 -0.6348
 6533SOL    HW121040   3.841   0.830   4.304 -0.6580 -0.5549 -0.0725
 6533SOL    HW221041   3.864   0.872   4.447 -1.4094  0.0794 -0.1305
 6534SOL     OW21042   3.426   6.916   5.306 -0.0878 -0.3732 -0.0550
 6534SOL    HW121043   3.477   6.994   5.283 -0.1499 -0.0068  1.0180
 6534SOL    HW221044   3.451   6.897   5.396 -1.0927 -0.7978  0.1382
 6535SOL     OW21045   2.174   0.864   5.850  0.1117  0.3756  0.7568
 6535SOL    HW121046   2.133   0.803   5.788  1.2216 -0.9533  1.2926
 6535SOL    HW221047   2.153   0.951   5.815 -0.4445 -0.3187 -0.7202
 6536SOL     OW21048   1.216   2.199   4.876 -0.5270  0.0491  0.7949
 6536SOL    HW121049   1.255   2.279   4.912 -0.3432 -0.1470  1.0348
 6536SOL    HW221050   1.130   2.227   4.843  0.5212  0.8805 -1.4063
 6537SOL     OW21051   2.432   2.771   5.086  0.3689  0.0780 -0.3588
 6537SOL    HW121052   2.405   2.695   5.035 -1.1819  0.8273 -0.7211
 6537SOL    HW221053   2.351   2.820   5.101  1.0778  0.8267  1.2605
 6538SOL     OW21054   1.963   1.489   6.105  0.0654 -0.3524  0.3408
 6538SOL    HW121055   2.045   1.486   6.056 -0.0273  2.2039 -0.1128
 6538SOL    HW221056   1.902   1.438   6.053  0.2574  1.4072 -1.7701
 6539SOL     OW21057   3.024   7.724   4.246  0.0601  0.2727  0.7290
 6539SOL    HW121058   2.985   7.797   4.198  0.7103 -0.0048 -0.2482
 6539SOL    HW221059   2.951   7.663   4.260 -0.3930  0.9162  1.1819
 6540SOL     OW21060   3.834   2.768   5.137  0.5416  0.0658  0.7711
 6540SOL    HW121061   3.851   2.804   5.224 -0.6706  0.2790  0.9439
 6540SOL    HW221062   3.746   2.800   5.114  0.7699 -0.1285 -0.4582
 6541SOL     OW21063   1.492   3.427   7.089 -0.3691  0.1825 -0.0512
 6541SOL    HW121064   1.579   3.467   7.090 -0.6153  0.7208  0.6213
 6541SOL    HW221065   1.463   3.435   6.998  0.1542  0.2831 -0.2125
 6542SOL     OW21066   2.698   7.135   4.006 -0.5081  0.3000 -0.7917
 6542SOL    HW121067   2.720   7.211   3.952 -1.3461  0.3849 -1.0265
 6542SOL    HW221068   2.691   7.170   4.095 -1.0328  0.5273 -0.9213
 6543SOL     OW21069   3.015   2.207   4.814 -0.4592  0.1278  0.4551
 6543SOL    HW121070   2.941   2.260   4.845 -0.5634  0.7480 -0.7861
 6543SOL    HW221071   3.012   2.215   4.719  0.6662 -0.5890  0.3411
 6544SOL     OW21072   2.549   0.358   6.131 -0.0180  0.0471 -0.6668
 6544SOL    HW121073   2.481   0.315   6.079 -0.4162 -1.7809  1.1779
 6544SOL    HW221074   2.502   0.422   6.184 -0.1900 -0.5449 -0.0850
 6545SOL     OW21075   3.261   0.794   7.388 -0.2002 -0.1006  0.0888
 6545SOL    HW121076   3.168   0.809   7.373 -1.1417 -2.7638  2.3843
 6545SOL    HW221077   3.279   0.838   7.471  0.5005  0.0510 -0.1340
 6546SOL     OW21078   3.955   0.826   5.040 -0.6500  0.1009  0.0985
 6546SOL    HW121079   3.905   0.846   5.120  0.4494  0.6563  0.6637
 6546SOL    HW221080   3.903   0.758   4.996 -1.2624 -0.2448  1.3073
 6547SOL     OW21081   2.793   1.214   5.193 -0.0679  0.4761 -0.0368
 6547SOL    HW121082   2.702   1.235   5.215 -0.1920  2.4996 -2.2089
 6547SOL    HW221083   2.845   1.261   5.258 -0.5000 -0.8042  1.3045
 6548SOL     OW21084   3.069   0.823   3.374 -0.5795 -0.0396 -0.4327
 6548SOL    HW121085   3.095   0.900   3.425  0.4927  0.4042 -1.5702
 6548SOL    HW221086   3.049   0.858   3.287  1.7480 -1.1852 -1.5372
 6549SOL     OW21087   2.766   0.980   7.005  0.0175 -0.4815 -0.4813
 6549SOL    HW121088   2.677   0.950   7.021  0.3432 -1.1764  0.0509
 6549SOL    HW221089   2.821   0.905   7.027  0.8456  0.4899  0.8504
 6550SOL     OW21090   2.483   0.762   4.968  0.1142  0.3629  0.0154
 6550SOL    HW121091   2.559   0.816   4.943  0.4524 -0.1425 -0.0599
 6550SOL    HW221092   2.522   0.683   5.006 -0.3700  1.1229  2.2559
 6551SOL     OW21093   4.596   2.368   4.942  0.2499 -0.2358  0.5067
 6551SOL    HW121094   4.531   2.355   5.011  1.4007 -1.5390  1.4040
 6551SOL    HW221095   4.672   2.405   4.987  1.1878 -1.5604  0.0840
 6552SOL     OW21096   2.301   1.190   5.726 -0.2417  0.0487 -0.4935
 6552SOL    HW121097   2.274   1.227   5.642 -1.4007  0.3492 -0.0014
 6552SOL    HW221098   2.372   1.130   5.704 -0.9632 -0.3757 -1.7621
 6553SOL     OW21099   3.664   1.705   4.188  0.1308  0.0341 -0.1352
 6553SOL    HW121100   3.619   1.742   4.112 -3.2492 -2.3281  0.5352
 6553SOL    HW221101   3.640   1.762   4.261  0.8183  0.5008 -0.2562
 6554SOL     OW21102   2.827   2.501   2.511 -0.3170 -0.8153 -0.0417
 6554SOL    HW121103   2.831   2.519   2.417 -1.4989 -0.0767  0.0336
 6554SOL    HW221104   2.900   2.439   2.526  0.3096 -0.4320 -1.3061
 6555SOL     OW21105   2.754   6.883   3.438  0.0165 -0.1109  0.0041
 6555SOL    HW121106   2.690   6.851   3.373  0.0844  0.0404 -0.1394
 6555SOL    HW221107   2.810   6.808   3.455  2.9352  0.9293 -3.5721
 6556SOL     OW21108   3.716   0.288   2.105  0.7094  0.4719 -0.5129
 6556SOL    HW121109   3.723   0.214   2.044  1.8382 -0.5676  0.8230
 6556SOL    HW221110   3.759   0.360   2.059  0.4450  0.0416 -1.4598
 6557SOL     OW21111   2.271   1.574   4.681 -0.2434 -0.0089  0.0396
 6557SOL    HW121112   2.324   1.505   4.722 -0.9634 -0.2495  0.5923
 6557SOL    HW221113   2.205   1.526   4.630  0.1802  0.2881 -0.8067
 6558SOL     OW21114   1.087   1.399   2.988  0.4575 -0.8662  0.0821
 6558SOL    HW121115   0.993   1.415   2.995  0.3625 -1.7046  0.9557
 6558SOL    HW221116   1.096   1.304   3.001  1.0863 -1.4811 -3.6786
 6559SOL     OW21117   4.355   7.369   5.492  0.8180  0.2528 -0.0734
 6559SOL    HW121118   4.356   7.278   5.462  1.8280  0.6611 -1.3588
 6559SOL    HW221119   4.298   7.414   5.430  0.4810  0.5366  0.4411
 6560SOL     OW21120   0.910   6.622   5.113 -0.2384  0.4291  0.4454
 6560SOL    HW121121   0.973   6.604   5.183  0.7212  0.4491 -0.3759
 6560SOL    HW221122   0.948   6.578   5.036 -1.2439  0.4379 -0.0656
 6561SOL     OW21123   3.763   1.623   4.495 -1.1449 -0.1022  0.0672
 6561SOL    HW121124   3.748   1.607   4.589 -0.3659 -1.9236 -0.0747
 6561SOL    HW221125   3.751   1.717   4.485  1.6142  0.6908  2.5884
 6562SOL     OW21126   1.267   6.346   5.294 -0.7546 -0.9953  0.7571
 6562SOL    HW121127   1.241   6.254   5.289  0.4286 -1.3743  1.2001
 6562SOL    HW221128   1.336   6.348   5.360  2.6005 -0.6551 -2.4127
 6563SOL     OW21129   2.330   1.330   2.748  0.9450 -0.1295  0.2659
 6563SOL    HW121130   2.246   1.330   2.704  0.9167 -0.7566  0.3233
 6563SOL    HW221131   2.395   1.335   2.678  0.8642  0.9418  0.2375
 6564SOL     OW21132   1.234   0.298   5.513  0.1306  0.7823  0.0233
 6564SOL    HW121133   1.308   0.306   5.574 -1.2227  0.2257  1.8232
 6564SOL    HW221134   1.180   0.375   5.532 -1.0719 -0.1868  0.6541
 6565SOL     OW21135   4.401   2.631   2.898  0.1207 -0.3234 -0.1601
 6565SOL    HW121136   4.479   2.685   2.888  1.0319 -1.7335 -1.0151
 6565SOL    HW221137   4.351   2.673   2.969 -0.4208  2.9933 -2.2594
 6566SOL     OW21138   3.583   7.619   7.076 -0.1761 -0.1002  0.1476
 6566SOL    HW121139   3.632   7.574   7.145 -0.3663  0.0920  0.4093
 6566SOL    HW221140   3.539   7.691   7.121  0.3869  0.5516 -0.3266
 6567SOL     OW21141   3.348   1.610   5.039 -0.2564 -0.4366 -0.2335
 6567SOL    HW121142   3.403   1.586   5.114 -1.4918 -0.9325  0.5508
 6567SOL    HW221143   3.281   1.668   5.076 -0.7201 -0.4606 -1.0103
 6568SOL     OW21144   0.656   2.144   4.258  0.2945  0.5449  0.5715
 6568SOL    HW121145   0.569   2.111   4.282  0.2243  0.1326 -0.2156
 6568SOL    HW221146   0.671   2.217   4.318  0.2777 -0.6357  2.0773
 6569SOL     OW21147   2.800   0.691   7.015  0.3488 -0.5969 -0.5280
 6569SOL    HW121148   2.772   0.675   6.925  0.3446 -2.5349 -0.2211
 6569SOL    HW221149   2.870   0.628   7.030 -1.0034 -1.7484  1.4442
 6570SOL     OW21150   3.972   0.804   3.620 -0.0049 -0.4025 -0.0016
 6570SOL    HW121151   3.938   0.726   3.576 -0.1251 -1.2552  1.5214
 6570SOL    HW221152   4.066   0.786   3.629 -0.2381 -1.0118  1.5210
 6571SOL     OW21153   0.856   1.683   5.184 -0.2935  0.2440 -0.1109
 6571SOL    HW121154   0.851   1.588   5.193  0.1954  0.2471  0.2706
 6571SOL    HW221155   0.916   1.697   5.111 -1.0106  0.2547 -0.7026
 6572SOL     OW21156   3.970   1.002   6.606  0.1017 -0.4359 -0.3923
 6572SOL    HW121157   3.936   0.937   6.666 -0.5908  0.9545  0.7960
 6572SOL    HW221158   4.041   1.044   6.654  1.7681 -1.4779 -1.8252
 6573SOL     OW21159   3.192   0.153   4.931  0.0362  0.0579  0.3384
 6573SOL    HW121160   3.136   0.193   4.865 -0.7150  1.4243  1.7407
 6573SOL    HW221161   3.145   0.074   4.958 -1.0800  1.0241  1.2772
 6574SOL     OW21162   2.217   2.365   3.364  0.1543  0.2040 -0.4755
 6574SOL    HW121163   2.207   2.432   3.297 -0.9711  1.4441  0.8550
 6574SOL    HW221164   2.129   2.329   3.376  0.7132 -1.4823 -1.0790
 6575SOL     OW21165   0.531   2.132   5.703 -0.4340  0.0349  0.1979
 6575SOL    HW121166   0.530   2.188   5.781  1.5343  1.1200 -0.5155
 6575SOL    HW221167   0.440   2.134   5.672 -1.0949  0.1924  1.9956
 6576SOL     OW21168   2.110   1.686   5.013  0.3014 -0.1966  0.0574
 6576SOL    HW121169   2.114   1.632   4.934  1.0261  0.2789 -0.2369
 6576SOL    HW221170   2.039   1.647   5.064  1.5164 -2.1211  0.3641
 6577SOL     OW21171   4.192   2.188   4.026 -0.3930 -0.2111 -0.2825
 6577SOL    HW121172   4.227   2.102   4.049  1.8576  0.4158 -1.0716
 6577SOL    HW221173   4.154   2.175   3.939  2.3558  0.1020 -1.6094
 6578SOL     OW21174   3.931   2.425   3.766 -0.3243 -0.5711  0.2592
 6578SOL    HW121175   3.878   2.410   3.688 -0.2521 -1.2137  0.3324
 6578SOL    HW221176   3.873   2.476   3.823  0.0050  0.8542 -0.6317
 6579SOL     OW21177   1.466   7.672   4.893 -0.1776 -0.1343  0.0829
 6579SOL    HW121178   1.388   7.691   4.946  0.0643  0.1615  0.3342
 6579SOL    HW221179   1.522   7.621   4.952  0.0671  0.1478  0.0950
 6580SOL     OW21180   1.365   0.690   5.852 -0.1494 -0.4415  0.0830
 6580SOL    HW121181   1.300   0.760   5.864 -0.4381 -0.5055 -1.0418
 6580SOL    HW221182   1.351   0.659   5.763 -0.3155 -2.2530  0.7024
 6581SOL     OW21183   2.092   0.549   4.042  0.4632  0.1590  0.1379
 6581SOL    HW121184   2.133   0.626   4.082 -0.3764  0.3698  0.6278
 6581SOL    HW221185   2.011   0.536   4.093  0.1156 -0.4622 -0.5576
 6582SOL     OW21186   4.329   7.996   3.294  0.4653 -0.3655  0.6835
 6582SOL    HW121187   4.290   8.049   3.224  0.0598  0.5356  1.5733
 6582SOL    HW221188   4.275   7.917   3.297 -1.7362  1.1044  2.2855
 6583SOL     OW21189   1.759   7.252   5.167 -0.2022  0.1462 -0.4571
 6583SOL    HW121190   1.835   7.201   5.141  0.0444  0.3376 -0.1253
 6583SOL    HW221191   1.700   7.188   5.206 -0.2227 -0.0061 -0.7313
 6584SOL     OW21192   1.403   1.475   6.303 -0.0062  0.1427 -0.4612
 6584SOL    HW121193   1.456   1.540   6.350 -2.1158  0.6498  1.3867
 6584SOL    HW221194   1.360   1.525   6.234  1.0883 -0.0572 -1.3047
 6585SOL     OW21195   1.382   3.215   5.198  0.0009  0.2639 -0.2207
 6585SOL    HW121196   1.340   3.201   5.113 -0.5089  0.9978 -0.0983
 6585SOL    HW221197   1.437   3.137   5.211 -1.0843 -0.5728 -0.5292
 6586SOL     OW21198   2.664   2.136   5.283  0.4642 -0.2999 -0.1400
 6586SOL    HW121199   2.595   2.087   5.326 -0.8215  0.4663 -1.2521
 6586SOL    HW221200   2.680   2.090   5.201  0.8495 -0.1411 -0.1587
 6587SOL     OW21201   3.271   7.350   4.432  0.3204  0.2750 -0.0884
 6587SOL    HW121202   3.213   7.415   4.473 -0.0079 -0.2112  0.2350
 6587SOL    HW221203   3.341   7.402   4.393  1.1047  0.7288  1.7901
 6588SOL     OW21204   3.409   0.521   6.563  0.4370 -0.5834  0.1193
 6588SOL    HW121205   3.315   0.505   6.572  0.7279 -1.3251  2.3382
 6588SOL    HW221206   3.427   0.593   6.624  1.3826 -0.6920 -0.0201
 6589SOL     OW21207   2.599   1.549   4.338 -0.2033  0.3505 -0.4304
 6589SOL    HW121208   2.573   1.629   4.383 -0.4562  0.5790 -0.9686
 6589SOL    HW221209   2.520   1.496   4.334 -0.2970  0.5188 -0.9788
 6590SOL     OW21210   1.227   3.086   4.385 -0.0564 -0.5223 -0.0165
 6590SOL    HW121211   1.258   3.086   4.294 -1.8307 -1.0818 -0.6625
 6590SOL    HW221212   1.194   2.997   4.398 -1.6912  0.1418  0.4953
 6591SOL     OW21213   2.080   6.550   5.200 -0.0668  0.3339  0.2142
 6591SOL    HW121214   2.150   6.601   5.240  0.5105  0.2610 -0.6740
 6591SOL    HW221215   2.027   6.519   5.274  0.7133  0.5628  0.8818
 6592SOL     OW21216   5.018   0.599   3.273  0.3786 -0.1274 -0.1200
 6592SOL    HW121217   4.979   0.542   3.206  0.8853 -0.1818 -0.3675
 6592SOL    HW221218   5.096   0.553   3.302 -1.2425 -1.4832  2.5322
 6593SOL     OW21219   4.887   7.465   3.315  0.2512  0.6278  0.7845
 6593SOL    HW121220   4.902   7.553   3.281 -2.7230  0.3261 -1.8506
 6593SOL    HW221221   4.959   7.413   3.279  0.4963  1.4971 -0.0403
 6594SOL     OW21222   1.347   1.596   3.474 -0.9689 -0.7548 -0.3029
 6594SOL    HW121223   1.407   1.522   3.480  0.2791  0.3398  2.1813
 6594SOL    HW221224   1.266   1.564   3.513 -0.1645 -0.6201  1.5602
 6595SOL     OW21225   4.250   0.789   3.634  0.2354  0.5684  0.8113
 6595SOL    HW121226   4.262   0.873   3.590  0.2942  0.0425 -0.1865
 6595SOL    HW221227   4.335   0.744   3.625 -0.4419 -0.4776 -0.5550
 6596SOL     OW21228   0.903   7.965   7.405 -0.3572 -0.2424  0.3734
 6596SOL    HW121229   0.826   7.911   7.424 -0.8740  0.5663  0.6271
 6596SOL    HW221230   0.926   8.004   7.490 -1.0482  1.2880 -0.1080
 6597SOL     OW21231   2.492   7.309   7.186 -0.2710 -0.5766 -0.4948
 6597SOL    HW121232   2.552   7.262   7.244  0.2106 -0.5388 -0.9479
 6597SOL    HW221233   2.434   7.357   7.244 -0.6155 -1.5389 -0.0273
 6598SOL     OW21234   1.287   3.398   6.342  0.2536  0.3437 -0.2001
 6598SOL    HW121235   1.195   3.421   6.351  0.5836  1.3911  0.7168
 6598SOL    HW221236   1.292   3.307   6.372 -0.4890  0.2666 -0.2980
 6599SOL     OW21237   3.228   0.942   7.640  0.0857 -0.2512 -0.4803
 6599SOL    HW121238   3.157   0.896   7.686  0.4865  0.5479  1.0081
 6599SOL    HW221239   3.301   0.940   7.702  1.0305 -0.1506 -1.5743
 6600SOL     OW21240   3.299   0.860   7.011  0.3666  0.1540 -0.7934
 6600SOL    HW121241   3.361   0.863   6.938  1.2053 -2.0655 -0.2634
 6600SOL    HW221242   3.215   0.884   6.972  0.4790 -2.4516 -2.9525
 6601SOL     OW21243   3.449   7.496   5.760  0.7764 -0.1500 -0.2839
 6601SOL    HW121244   3.486   7.432   5.821  0.5307  1.3414  1.5270
 6601SOL    HW221245   3.354   7.487   5.771  0.7325  0.1489 -0.4047
 6602SOL     OW21246   1.888   0.406   6.905 -0.4006  0.1602  0.0585
 6602SOL    HW121247   1.963   0.368   6.951 -0.6361  2.6034  2.7820
 6602SOL    HW221248   1.818   0.342   6.916  0.6001 -1.0442 -0.3461
 6603SOL     OW21249   3.455   1.250   9.591  0.1009 -0.3686 -1.0706
 6603SOL    HW121250   3.549   1.245   9.579  0.0670 -0.3670 -1.3322
 6603SOL    HW221251   3.444   1.292   9.676  0.3320 -0.2147 -1.1180
 6604SOL     OW21252   2.919   7.398   8.280  0.0962 -0.0057 -0.1874
 6604SOL    HW121253   2.905   7.458   8.354 -0.3668 -0.1715 -0.1325
 6604SOL    HW221254   2.926   7.312   8.321 -1.5274 -0.2745 -0.4255
 6605SOL     OW21255   1.254   0.202   9.285 -0.2268 -0.1365  0.5219
 6605SOL    HW121256   1.312   0.155   9.345  0.0999  0.1840  0.4579
 6605SOL    HW221257   1.173   0.152   9.287  0.8462 -2.1006 -1.3376
 6606SOL     OW21258   2.969   3.793   7.314 -0.5709  0.1137 -0.4999
 6606SOL    HW121259   3.040   3.732   7.292  1.0914  1.4626  0.9431
 6606SOL    HW221260   2.920   3.802   7.232  0.1082 -1.8426 -1.1900
 6607SOL     OW21261   2.942   2.776   5.601 -0.1040  0.0926  0.1766
 6607SOL    HW121262   2.966   2.737   5.685  1.3956 -1.0880 -0.7491
 6607SOL    HW221263   2.908   2.703   5.550 -0.0565  0.5942 -0.5866
 6608SOL     OW21264   1.064   0.342   7.927 -0.8328 -1.2319  0.1830
 6608SOL    HW121265   1.002   0.340   8.001  1.3250 -1.0822  2.0945
 6608SOL    HW221266   1.053   0.430   7.891 -0.2109 -0.3720  1.9402
 6609SOL     OW21267   1.755   0.653   6.384 -0.1546  0.5503  0.1167
 6609SOL    HW121268   1.782   0.734   6.341  0.6352  0.3870  0.2939
 6609SOL    HW221269   1.814   0.644   6.459  0.0956 -0.4402 -0.1774
 6610SOL     OW21270   1.138   0.176   7.508  0.4950 -0.2753  0.3522
 6610SOL    HW121271   1.200   0.102   7.502  0.4922 -0.2016 -0.8868
 6610SOL    HW221272   1.162   0.233   7.435 -2.7645 -1.6118 -1.9799
 6611SOL     OW21273   3.569   0.430   6.984 -0.3426 -0.1070  0.5440
 6611SOL    HW121274   3.525   0.363   7.036 -0.5195 -0.6151 -0.2494
 6611SOL    HW221275   3.642   0.384   6.943  0.3505  0.5056  1.0658
 6612SOL     OW21276   1.047   7.890   4.844  0.1375 -0.1069 -0.2342
 6612SOL    HW121277   0.960   7.892   4.883 -0.3352  0.6799 -1.2745
 6612SOL    HW221278   1.051   7.806   4.799 -0.5408  0.3371 -1.1463
 6613SOL     OW21279   2.812   7.822   8.759  0.3244 -0.1026  0.1532
 6613SOL    HW121280   2.892   7.871   8.738 -0.0451  0.0720 -0.9241
 6613SOL    HW221281   2.844   7.736   8.786  0.8775 -0.1299 -0.5480
 6614SOL     OW21282   1.410   4.169   6.998 -0.2898  0.3349  0.4952
 6614SOL    HW121283   1.399   4.110   7.072  2.8861  0.1381  0.9223
 6614SOL    HW221284   1.422   4.111   6.923  0.0251  0.4729  0.4379
 6615SOL     OW21285   2.406   1.031   5.379 -0.4863 -0.4111  0.1291
 6615SOL    HW121286   2.476   1.065   5.324 -1.0517 -1.2040 -1.1262
 6615SOL    HW221287   2.413   0.936   5.371 -0.4033 -0.5544  1.6797
 6616SOL     OW21288   4.000   1.576   5.280 -0.8829  0.4311  0.3351
 6616SOL    HW121289   4.056   1.601   5.206  0.4750 -1.4444  0.6721
 6616SOL    HW221290   3.933   1.520   5.240 -0.4033 -0.2300  0.4482
 6617SOL     OW21291   2.413   0.189   6.411 -0.5262 -0.5108 -0.2201
 6617SOL    HW121292   2.475   0.259   6.391  0.0608 -0.4977  1.4335
 6617SOL    HW221293   2.424   0.126   6.339 -0.0131  0.4074 -0.9680
 6618SOL     OW21294   3.540   1.081   4.645  0.3432  0.0492 -0.1763
 6618SOL    HW121295   3.499   1.044   4.723 -0.6375  1.1486 -0.1373
 6618SOL    HW221296   3.603   1.145   4.679  1.8047 -1.2935 -0.2504
 6619SOL     OW21297   1.479   2.269   5.410  0.5111 -0.2954 -0.0938
 6619SOL    HW121298   1.394   2.270   5.366  1.2462 -2.3930 -1.7227
 6619SOL    HW221299   1.511   2.180   5.398  3.1683  0.5551  0.0080
 6620SOL     OW21300   4.576   0.959   6.002  0.1141  0.0118 -0.4789
 6620SOL    HW121301   4.542   0.953   6.092 -1.3220  1.7478 -0.8361
 6620SOL    HW221302   4.662   0.917   6.006  0.3377  0.5374  1.8331
 6621SOL     OW21303   4.791   0.817   5.633  0.0801 -0.1877 -0.5411
 6621SOL    HW121304   4.884   0.823   5.655  0.0653  0.4031 -0.6315
 6621SOL    HW221305   4.754   0.900   5.662 -0.7090 -0.9832  0.8420
 6622SOL     OW21306   1.869   7.844   6.076 -0.1372  0.3849  0.2913
 6622SOL    HW121307   1.933   7.827   6.007  0.1321 -1.1403  0.8780
 6622SOL    HW221308   1.920   7.841   6.158 -0.6505  1.0236  0.6486
 6623SOL     OW21309   1.063   2.189   7.188  0.2617  0.3625  0.1291
 6623SOL    HW121310   1.127   2.251   7.224 -0.7553  0.8453  1.1729
 6623SOL    HW221311   0.979   2.234   7.197 -0.4431 -0.9834  0.4864
 6624SOL     OW21312   1.482   2.401   7.118 -0.2623  0.3884 -0.6177
 6624SOL    HW121313   1.536   2.479   7.102 -0.4182  0.1915 -2.2119
 6624SOL    HW221314   1.416   2.403   7.049 -1.6470  0.0224  0.6529
 6625SOL     OW21315   1.331   7.275   6.401  0.8330 -0.3822  0.3170
 6625SOL    HW121316   1.294   7.223   6.472 -1.7692 -2.1075 -2.1055
 6625SOL    HW221317   1.389   7.214   6.355  0.3031 -0.1712 -0.6491
 6626SOL     OW21318   1.946   0.851   7.036  0.9715 -0.0136 -0.1741
 6626SOL    HW121319   1.978   0.941   7.035  0.8891  0.0183  0.1218
 6626SOL    HW221320   1.856   0.858   7.069  0.9538 -0.2024 -0.1810
 6627SOL     OW21321   4.323   1.622   5.284  0.1842  0.1535 -0.0550
 6627SOL    HW121322   4.343   1.693   5.345 -0.8705  0.6390 -0.2384
 6627SOL    HW221323   4.388   1.555   5.301  1.5754  1.4096 -0.2659
 6628SOL     OW21324   3.798   1.012   8.605 -0.2828 -0.2890  0.3237
 6628SOL    HW121325   3.726   1.016   8.543 -0.8134  0.6450  0.9784
 6628SOL    HW221326   3.825   0.920   8.604 -2.2123 -0.9185  0.8692
 6629SOL     OW21327   2.376   0.314   8.229 -0.1853  0.0485 -0.4342
 6629SOL    HW121328   2.294   0.281   8.195 -0.8051  1.0360  0.0491
 6629SOL    HW221329   2.351   0.386   8.286  0.9630 -0.2142  0.4361
 6630SOL     OW21330   3.028   0.954   7.383  0.1434 -0.3680  0.1461
 6630SOL    HW121331   3.098   0.995   7.434 -0.2813 -0.3538  0.7307
 6630SOL    HW221332   3.003   1.021   7.318  0.0865 -0.0436  0.4965
 6631SOL     OW21333   3.666   0.634   6.799 -0.6697  0.5026 -0.5152
 6631SOL    HW121334   3.657   0.592   6.885  0.7521  1.8361  0.3506
 6631SOL    HW221335   3.589   0.690   6.792 -2.1234 -1.5159 -1.2939
 6632SOL     OW21336   2.417   7.458   5.443  0.4009 -0.1376  0.9755
 6632SOL    HW121337   2.434   7.548   5.416 -0.9998 -0.1302 -0.0245
 6632SOL    HW221338   2.349   7.465   5.510 -0.4971 -0.4716  0.1334
 6633SOL     OW21339   2.304   0.242   6.020  0.3244  0.1306 -0.3426
 6633SOL    HW121340   2.216   0.221   6.049  0.1129  0.3164 -0.8289
 6633SOL    HW221341   2.296   0.328   5.978  0.3602 -0.6092 -1.9722
 6634SOL     OW21342   4.210   1.132   6.993  0.3131  0.7851 -0.3463
 6634SOL    HW121343   4.163   1.123   7.076  1.3775  0.1651  0.2072
 6634SOL    HW221344   4.145   1.169   6.933 -1.1038 -0.6544  0.2025
 6635SOL     OW21345   2.412   6.922   7.061  0.3522 -0.1003 -0.0499
 6635SOL    HW121346   2.391   6.961   7.146  2.0034 -0.4203  0.5441
 6635SOL    HW221347   2.452   6.994   7.011 -0.5141  0.0585 -0.5361
 6636SOL     OW21348   2.321   0.332   8.985  0.0059 -0.6274  0.2991
 6636SOL    HW121349   2.367   0.265   8.934  0.8335  0.4189 -0.3883
 6636SOL    HW221350   2.264   0.283   9.044  0.9541 -1.9347  0.1675
 6637SOL     OW21351   3.063   7.253   7.197 -0.2423 -0.1288  0.2727
 6637SOL    HW121352   3.026   7.334   7.162 -2.2955 -1.7983 -1.7454
 6637SOL    HW221353   3.136   7.232   7.139 -1.2049 -0.8716 -0.7305
 6638SOL     OW21354   2.137   0.602   5.151 -0.5920 -0.2925  0.8291
 6638SOL    HW121355   2.186   0.621   5.071 -0.7385  0.4341  0.9091
 6638SOL    HW221356   2.092   0.519   5.131 -1.0829  0.1637 -0.0657
 6639SOL     OW21357   2.554   0.432   6.421  0.2437 -0.3104  0.0137
 6639SOL    HW121358   2.479   0.470   6.374  0.6002 -0.7239 -0.9251
 6639SOL    HW221359   2.629   0.484   6.391  0.3252  0.1578  1.0142
 6640SOL     OW21360   2.533   7.353   5.804  0.0834 -0.1319  0.1720
 6640SOL    HW121361   2.498   7.441   5.788  0.1210  0.3652  2.4503
 6640SOL    HW221362   2.505   7.302   5.728 -1.5448  1.3961 -0.3353
 6641SOL     OW21363   2.215   0.863   8.314 -0.1559 -0.0380 -1.2060
 6641SOL    HW121364   2.135   0.915   8.320 -1.0745 -1.4138 -1.1754
 6641SOL    HW221365   2.186   0.773   8.325  1.0731 -0.7973 -3.5415
 6642SOL     OW21366   3.500   5.658   6.948  0.7795  0.6077 -0.1263
 6642SOL    HW121367   3.500   5.575   6.996 -2.2773  0.2770 -0.4610
 6642SOL    HW221368   3.470   5.634   6.860  0.5517  1.9780 -0.4386
 6643SOL     OW21369   4.298   7.315   7.345 -0.2742 -0.0525  0.0682
 6643SOL    HW121370   4.289   7.229   7.304 -1.0480 -1.1401  2.3387
 6643SOL    HW221371   4.210   7.353   7.342 -0.2835 -0.0370  0.4834
 6644SOL     OW21372   3.553   2.029   5.370  0.0618 -0.6345 -0.5602
 6644SOL    HW121373   3.538   2.075   5.288  1.0266 -0.7519 -0.8159
 6644SOL    HW221374   3.647   2.034   5.384 -0.1374 -0.2112  0.7921
 6645SOL     OW21375   2.555   7.081   8.169 -0.5955 -0.0521  0.7277
 6645SOL    HW121376   2.498   7.145   8.213 -0.6889  0.1571  0.3020
 6645SOL    HW221377   2.579   7.019   8.239 -0.4928  0.4529  1.1462
 6646SOL     OW21378   2.504   2.201   5.005  0.5896 -0.1261  0.3433
 6646SOL    HW121379   2.525   2.122   5.055  2.3360 -0.9488 -1.5488
 6646SOL    HW221380   2.589   2.235   4.977 -0.1934  1.8628  0.2366
 6647SOL     OW21381   1.987   1.486   5.665 -0.0554 -0.5814  0.7438
 6647SOL    HW121382   2.000   1.528   5.750  1.4936  0.3902  0.0586
 6647SOL    HW221383   2.073   1.453   5.641 -0.2131  0.1664 -0.9795
 6648SOL     OW21384   2.495   0.953   5.635  0.3399  0.0973  0.2441
 6648SOL    HW121385   2.516   0.860   5.621 -0.8173 -0.5008  2.0780
 6648SOL    HW221386   2.496   0.991   5.548  0.3716 -1.7468 -0.6134
 6649SOL     OW21387   1.955   2.598   7.419  0.6399 -0.2832 -0.0097
 6649SOL    HW121388   2.049   2.582   7.431  0.4249  0.2073  2.8145
 6649SOL    HW221389   1.939   2.683   7.459 -1.0112 -0.2708 -0.6116
 6650SOL     OW21390   1.482   7.408   5.234  0.0189  0.4575 -0.0587
 6650SOL    HW121391   1.436   7.339   5.187 -0.5437 -0.3739  1.6183
 6650SOL    HW221392   1.545   7.443   5.171 -1.2765  0.0112 -1.6680
 6651SOL     OW21393   2.918   1.205   4.350 -0.4390 -0.4655  0.2926
 6651SOL    HW121394   2.954   1.292   4.367 -0.8321 -0.1526 -0.4440
 6651SOL    HW221395   2.994   1.147   4.353  0.1107  0.1485 -0.9419
 6652SOL     OW21396   1.301   3.090   7.573  0.1449  0.0010  0.1829
 6652SOL    HW121397   1.368   3.026   7.599  0.4079  0.5012  0.7461
 6652SOL    HW221398   1.313   3.100   7.479  1.7203  1.0344  0.4452
 6653SOL     OW21399   2.269   2.294   6.569  0.2412  0.1126 -0.7513
 6653SOL    HW121400   2.197   2.330   6.517 -0.3298 -0.2729 -0.2490
 6653SOL    HW221401   2.284   2.360   6.637 -0.3941 -0.2929 -0.1973
 6654SOL     OW21402   2.689   6.854   8.953 -0.0471 -0.8498  0.5342
 6654SOL    HW121403   2.680   6.760   8.962 -1.2402 -1.0735 -2.1190
 6654SOL    HW221404   2.773   6.867   8.908  0.3954 -0.5764  1.4129
 6655SOL     OW21405   2.281   1.221   6.215  0.5669  0.0108  0.1965
 6655SOL    HW121406   2.203   1.220   6.271  1.7916  1.4521  2.0277
 6655SOL    HW221407   2.252   1.180   6.133 -1.3468 -2.0816  1.7821
 6656SOL     OW21408   2.275   0.448   7.318 -0.3853 -0.1283  0.2591
 6656SOL    HW121409   2.193   0.432   7.271 -2.3257  2.1959  2.5157
 6656SOL    HW221410   2.259   0.530   7.365  3.4989  0.7145  0.3947
 6657SOL     OW21411   3.647   7.890   6.489  0.4763  0.2005 -0.4690
 6657SOL    HW121412   3.602   7.928   6.414 -0.2739 -2.2792 -1.3758
 6657SOL    HW221413   3.642   7.795   6.475  1.4210 -0.3189  2.0849
 6658SOL     OW21414   1.963   0.430   6.567 -0.0876  0.4188  0.2547
 6658SOL    HW121415   1.947   0.518   6.602  1.4885  1.1286 -0.6623
 6658SOL    HW221416   2.014   0.387   6.635  0.0836  0.6112  0.2510
 6659SOL     OW21417   2.410   2.351   5.988  0.4133  0.2864 -0.2660
 6659SOL    HW121418   2.338   2.407   6.017  0.0612  1.0110 -2.3572
 6659SOL    HW221419   2.409   2.278   6.050 -2.1214  0.2765 -0.1811
 6660SOL     OW21420   2.218   0.288   5.268 -0.3362  0.5009 -0.0910
 6660SOL    HW121421   2.199   0.334   5.350  0.0562  1.1504 -0.3651
 6660SOL    HW221422   2.246   0.201   5.296  1.5947  1.2761  0.5827
 6661SOL     OW21423   3.404   1.476   7.057  0.1978  0.5081  0.3306
 6661SOL    HW121424   3.453   1.427   7.123 -0.0008  1.2283  1.0259
 6661SOL    HW221425   3.451   1.559   7.049 -0.2801  0.7732  0.2036
 6662SOL     OW21426   3.635   1.001   5.377 -1.2813  0.0008  0.1176
 6662SOL    HW121427   3.544   1.021   5.402 -1.3915 -0.3373 -0.0135
 6662SOL    HW221428   3.627   0.939   5.304 -0.9439 -1.8970  1.6067
 6663SOL     OW21429   3.657   7.410   6.685 -0.2340 -0.9640 -0.3910
 6663SOL    HW121430   3.607   7.328   6.681  0.7106 -1.5010 -2.7479
 6663SOL    HW221431   3.730   7.397   6.625  0.3630  1.3709 -0.2759
 6664SOL     OW21432   2.532   7.458   7.826  0.3859  0.3097  0.3463
 6664SOL    HW121433   2.437   7.464   7.814  0.2798  0.1907  1.0895
 6664SOL    HW221434   2.559   7.547   7.845  0.1562  0.0823  1.9029
 6665SOL     OW21435   4.888   1.437   5.864 -0.0302  0.0734 -1.0752
 6665SOL    HW121436   4.935   1.392   5.794  0.4145  0.4755 -1.0378
 6665SOL    HW221437   4.954   1.490   5.908 -0.8352  2.1962 -2.2509
 6666SOL     OW21438   3.808   0.408   7.404 -0.5837 -0.4214 -0.5031
 6666SOL    HW121439   3.888   0.378   7.447 -1.1733 -0.6913  0.4335
 6666SOL    HW221440   3.839   0.453   7.325  0.5345  0.2204  0.2749
 6667SOL     OW21441   2.364   0.337   6.905 -0.6310  0.5301 -0.0047
 6667SOL    HW121442   2.430   0.375   6.847 -0.1811  1.0491  0.8375
 6667SOL    HW221443   2.411   0.268   6.952 -0.7498  0.7341  0.4151
 6668SOL     OW21444   3.259   7.943   6.666  0.3232  0.4380 -0.2826
 6668SOL    HW121445   3.262   8.021   6.722  0.0776 -0.6970  1.4009
 6668SOL    HW221446   3.167   7.915   6.669  0.5512 -0.3444 -0.2262
 6669SOL     OW21447   2.235   7.799   5.180  0.1137  0.0468 -0.4301
 6669SOL    HW121448   2.233   7.887   5.217 -0.9128 -0.2950  0.3691
 6669SOL    HW221449   2.157   7.793   5.125 -0.2330 -0.5998  0.1140
 6670SOL     OW21450   1.993   6.674   6.680  0.4147  0.3117 -0.4994
 6670SOL    HW121451   2.010   6.743   6.745 -0.2587 -0.9604  1.1253
 6670SOL    HW221452   2.038   6.703   6.601  0.4117  2.4478  0.2123
 6671SOL     OW21453   3.222   6.650   7.545  1.0791 -0.2461 -0.4937
 6671SOL    HW121454   3.254   6.740   7.548 -2.4386  1.1592  0.1826
 6671SOL    HW221455   3.210   6.625   7.636  1.5449 -1.2094 -0.6908
 6672SOL     OW21456   3.206   0.978   8.016 -0.0337 -0.1023  0.0559
 6672SOL    HW121457   3.256   0.901   8.043  0.0650 -0.4306 -0.9961
 6672SOL    HW221458   3.150   0.998   8.091  1.4368  0.0930  1.1306
 6673SOL     OW21459   1.816   7.811   5.771 -0.5045 -0.7058  0.6729
 6673SOL    HW121460   1.762   7.742   5.809 -0.6861  0.3092  2.3188
 6673SOL    HW221461   1.902   7.800   5.811  0.7335 -2.4708 -2.1086
 6674SOL     OW21462   3.569   1.263   7.244 -0.0717 -0.3617 -0.0165
 6674SOL    HW121463   3.573   1.330   7.313 -1.3158 -0.7469  0.4714
 6674SOL    HW221464   3.618   1.189   7.280 -0.1741 -0.3308  0.1904
 6675SOL     OW21465   4.387   0.931   7.147 -0.9706 -0.2294  0.0593
 6675SOL    HW121466   4.469   0.980   7.145 -0.2205 -1.4051  0.8954
 6675SOL    HW221467   4.328   0.981   7.091  0.2656  0.7181 -0.4445
 6676SOL     OW21468   0.393   1.175   8.388  0.0421 -0.1701  0.4560
 6676SOL    HW121469   0.458   1.211   8.328  0.6132 -1.0838  0.5082
 6676SOL    HW221470   0.353   1.103   8.339 -0.9955  0.4274  0.3955
 6677SOL     OW21471   1.708   0.724   7.156 -0.2500  0.0496 -0.0720
 6677SOL    HW121472   1.727   0.701   7.247  0.5148  0.6993 -0.0504
 6677SOL    HW221473   1.624   0.770   7.159 -0.0710  0.3559  0.3595
 6678SOL     OW21474   3.269   7.171   5.850  0.1262  0.2636  0.2050
 6678SOL    HW121475   3.302   7.204   5.933 -0.6137 -3.0044  1.9552
 6678SOL    HW221476   3.223   7.089   5.872  0.9067 -1.4195 -3.5378
 6679SOL     OW21477   2.633   1.491   6.235  0.2006 -0.7180  0.3020
 6679SOL    HW121478   2.726   1.471   6.241  0.3611 -1.1593 -2.5404
 6679SOL    HW221479   2.628   1.586   6.247  0.8854 -0.7940  1.2867
 6680SOL     OW21480   3.885   1.838   6.071 -0.0488  0.1474 -0.6004
 6680SOL    HW121481   3.917   1.756   6.033  1.1482  0.7454 -0.8987
 6680SOL    HW221482   3.941   1.906   6.034  1.7960  0.6927  2.8048
 6681SOL     OW21483   2.136   1.942   7.975 -0.4024 -0.5497  0.1318
 6681SOL    HW121484   2.087   1.903   7.903 -0.0212 -0.5134 -0.1551
 6681SOL    HW221485   2.226   1.946   7.943 -0.4073  0.4350  0.2093
 6682SOL     OW21486   3.157   0.942   6.078  0.1062 -0.3367  0.1614
 6682SOL    HW121487   3.113   1.024   6.055 -0.0218 -0.4668 -0.0707
 6682SOL    HW221488   3.089   0.889   6.120  0.2689 -0.2072  0.5880
 6683SOL     OW21489   3.667   0.435   7.915  0.0013  0.3865  0.0305
 6683SOL    HW121490   3.604   0.487   7.965 -0.0289 -0.7140  1.2157
 6683SOL    HW221491   3.631   0.431   7.827 -0.8536  0.9449  0.3431
 6684SOL     OW21492   2.578   7.139   6.972  0.2199 -0.2293 -0.1715
 6684SOL    HW121493   2.653   7.178   6.929  0.2010  0.6905  0.5855
 6684SOL    HW221494   2.556   7.200   7.043 -1.3787 -0.3472 -0.5119
 6685SOL     OW21495   4.140   1.900   8.502 -0.2183  0.0533 -0.0396
 6685SOL    HW121496   4.201   1.858   8.562  0.2783  0.9562  0.1137
 6685SOL    HW221497   4.091   1.828   8.463  0.9330 -0.6935 -0.1577
 6686SOL     OW21498   2.502   7.609   8.254 -0.0375  0.2962 -0.1096
 6686SOL    HW121499   2.471   7.634   8.342 -1.0133 -0.9369 -0.0637
 6686SOL    HW221500   2.572   7.671   8.234  1.8015 -0.7458  2.5094
 6687SOL     OW21501   1.964   0.187   7.796 -0.0738  0.7119 -0.3466
 6687SOL    HW121502   1.888   0.192   7.737 -0.3529  1.8145  0.0863
 6687SOL    HW221503   2.030   0.142   7.744 -0.7050  0.6059 -1.0905
 6688SOL     OW21504   2.817   0.800   7.434 -0.0472  0.3358  0.2037
 6688SOL    HW121505   2.891   0.858   7.418  1.1165 -1.1301 -0.0050
 6688SOL    HW221506   2.855   0.725   7.481 -1.4936 -0.2368  0.5259
 6689SOL     OW21507   3.001   0.186   6.650  0.0016  0.5788  0.3829
 6689SOL    HW121508   2.971   0.117   6.591 -1.5443  1.0397  0.5669
 6689SOL    HW221509   2.981   0.152   6.738  1.3815  0.3039  0.6062
 6690SOL     OW21510   3.697   1.415   7.983  0.3488 -0.1999  0.2623
 6690SOL    HW121511   3.709   1.335   7.932 -2.8791 -1.1744  0.8014
 6690SOL    HW221512   3.641   1.389   8.056 -2.2851  2.8378 -0.4715
 6691SOL     OW21513   1.463   0.771   6.317 -0.3026 -0.0350  0.3204
 6691SOL    HW121514   1.490   0.853   6.359  1.6024 -1.2611  1.6912
 6691SOL    HW221515   1.546   0.726   6.297 -1.2839 -1.7519 -0.0975
 6692SOL     OW21516   1.625   7.878   8.385 -0.1747 -0.4203  0.1216
 6692SOL    HW121517   1.644   7.856   8.294 -0.9983 -0.4006 -0.0662
 6692SOL    HW221518   1.699   7.931   8.414 -0.7510  1.1259 -1.1062
 6693SOL     OW21519   1.653   1.120   7.861  0.3965 -0.2280  0.0216
 6693SOL    HW121520   1.692   1.035   7.883 -1.7913 -1.6661 -1.2083
 6693SOL    HW221521   1.630   1.112   7.768  1.4033  2.2915 -0.5044
 6694SOL     OW21522   2.397   7.728   6.557 -0.3232 -0.3326 -0.3359
 6694SOL    HW121523   2.456   7.656   6.582 -0.4639  0.1331  1.4644
 6694SOL    HW221524   2.323   7.685   6.516 -0.3217 -1.2217  0.5542
 6695SOL     OW21525   1.798   1.232   6.797  0.6569  0.3191  0.5762
 6695SOL    HW121526   1.762   1.171   6.862  1.3312 -0.3119  0.3799
 6695SOL    HW221527   1.759   1.316   6.818 -1.3926 -0.4318  0.0038
 6696SOL     OW21528   3.798   0.279   6.306  0.5900  0.7789 -0.3825
 6696SOL    HW121529   3.839   0.206   6.353 -0.7192 -0.2277 -0.7309
 6696SOL    HW221530   3.719   0.300   6.356  0.3143  1.1296 -0.9472
 6697SOL     OW21531   3.082   1.372   8.869 -0.4085  0.3621 -0.1713
 6697SOL    HW121532   3.145   1.326   8.925  0.7526  0.0716 -1.6413
 6697SOL    HW221533   3.080   1.320   8.788 -2.7656  0.2204 -0.0947
 6698SOL     OW21534   3.350   7.515   8.563 -0.1137 -0.2202  0.0182
 6698SOL    HW121535   3.332   7.589   8.506 -0.3488 -0.5550 -0.3527
 6698SOL    HW221536   3.380   7.446   8.504 -0.0289 -0.4657  0.3410
 6699SOL     OW21537   3.716   7.703   6.754 -0.0283  0.0712  0.3963
 6699SOL    HW121538   3.764   7.634   6.707  2.2420  1.4692  0.4905
 6699SOL    HW221539   3.691   7.765   6.686 -0.7538 -0.1131  0.4930
 6700SOL     OW21540   2.779   0.368   7.804  0.4011 -0.0950  0.0634
 6700SOL    HW121541   2.708   0.410   7.853  0.3474  0.8370 -0.7593
 6700SOL    HW221542   2.756   0.275   7.803 -0.9528  0.2180 -0.3919
 6701SOL     OW21543   2.455   0.815   7.420 -0.1726  0.2578 -0.7900
 6701SOL    HW121544   2.527   0.785   7.364 -0.2666 -1.0094 -0.2597
 6701SOL    HW221545   2.388   0.843   7.359  0.7351  1.4280 -1.2982
 6702SOL     OW21546   3.594   0.306   6.504 -0.3056  0.4025  0.0442
 6702SOL    HW121547   3.662   0.313   6.571 -0.5498  1.4678  0.2083
 6702SOL    HW221548   3.544   0.388   6.512 -0.3295  0.5681 -1.4618
 6703SOL     OW21549   3.290   1.443   7.924 -1.0284 -0.0669 -0.2081
 6703SOL    HW121550   3.265   1.474   8.011  0.4347 -1.3532  0.7323
 6703SOL    HW221551   3.207   1.414   7.884 -1.6843  0.2695  0.8646
 6704SOL     OW21552   4.311   5.561   7.678 -0.3273  0.1434 -0.2805
 6704SOL    HW121553   4.267   5.633   7.723 -0.3657  0.3898 -0.7116
 6704SOL    HW221554   4.301   5.580   7.585 -0.9569 -0.7906 -0.4192
 6705SOL     OW21555   3.516   0.208   8.110 -0.0392 -0.5586 -0.3221
 6705SOL    HW121556   3.486   0.160   8.187 -1.7121  0.3570 -0.3457
 6705SOL    HW221557   3.505   0.300   8.134  0.5637 -0.2356 -1.2390
 6706SOL     OW21558   2.196   7.549   6.286 -0.0617 -0.0021 -0.6596
 6706SOL    HW121559   2.217   7.489   6.357 -0.0627  0.1684 -0.5128
 6706SOL    HW221560   2.221   7.502   6.206 -0.6321 -0.4400 -0.5870
 6707SOL     OW21561   2.776   7.111   7.610  0.7549  0.3433 -0.5636
 6707SOL    HW121562   2.733   7.049   7.669  0.1721 -0.4060 -1.7484
 6707SOL    HW221563   2.855   7.066   7.581  1.9877  1.4120  0.9975
 6708SOL     OW21564   1.785   7.973   7.158  0.1601  0.1214  0.1461
 6708SOL    HW121565   1.825   8.057   7.182  2.1898 -0.4114 -1.0910
 6708SOL    HW221566   1.850   7.908   7.185 -1.1950 -1.0392  0.6856
 6709SOL     OW21567   2.135   1.312   7.354  0.3516 -0.4665 -0.2409
 6709SOL    HW121568   2.192   1.237   7.339 -0.2575 -1.4968  2.1827
 6709SOL    HW221569   2.053   1.289   7.309  0.6897 -0.4901 -0.8626
 6710SOL     OW21570   1.321   7.004   8.029  0.0257  0.1355  0.3349
 6710SOL    HW121571   1.277   7.085   8.000  0.5749  0.9340  1.6631
 6710SOL    HW221572   1.323   6.949   7.950 -1.4015  0.9343 -0.3039
 6711SOL     OW21573   3.138   0.251   8.006 -0.7167  0.1040 -0.0825
 6711SOL    HW121574   3.085   0.264   8.085 -0.7993 -0.6846  0.0047
 6711SOL    HW221575   3.150   0.339   7.970 -0.0803  0.5509  1.1855
 6712SOL     OW21576   2.985   0.204   7.236  0.3691  0.6768 -0.1246
 6712SOL    HW121577   3.006   0.174   7.324  1.1924  0.9853 -0.2107
 6712SOL    HW221578   2.889   0.206   7.234  0.3367  1.8757  1.1609
 6713SOL     OW21579   2.546   0.421   6.705 -0.1103  0.0098 -0.9061
 6713SOL    HW121580   2.553   0.515   6.689 -0.1496 -0.0334 -1.1715
 6713SOL    HW221581   2.539   0.382   6.618 -1.2101 -0.1479 -0.7687
 6714SOL     OW21582   2.265   7.652   7.128  0.5875  0.4426  0.1895
 6714SOL    HW121583   2.266   7.617   7.217 -2.5118 -0.9416 -0.1951
 6714SOL    HW221584   2.227   7.739   7.137  0.3973  0.3541  0.2486
 6715SOL     OW21585   2.588   3.313   6.535  0.8490 -0.8475  0.8423
 6715SOL    HW121586   2.673   3.298   6.495  0.0596 -0.6628 -1.0135
 6715SOL    HW221587   2.544   3.228   6.531 -0.6326 -0.0799 -2.3046
 6716SOL     OW21588   2.856   6.402   6.629  0.4805 -0.3145 -0.4929
 6716SOL    HW121589   2.939   6.358   6.650  0.1888 -0.5116  0.2983
 6716SOL    HW221590   2.871   6.442   6.543  2.0486  1.2636  0.4322
 6717SOL     OW21591   1.575   2.615   8.507  0.0934  0.4397 -0.2389
 6717SOL    HW121592   1.595   2.552   8.576 -0.3069  0.8560  0.2650
 6717SOL    HW221593   1.530   2.564   8.440  0.2428  0.0848 -0.0693
 6718SOL     OW21594   3.370   0.383   5.000  0.1860 -0.3249  0.0286
 6718SOL    HW121595   3.290   0.337   4.974  0.8926 -0.5303 -1.9313
 6718SOL    HW221596   3.416   0.321   5.057 -0.4017 -0.7430  0.0610
 6719SOL     OW21597   4.613   1.888   4.183 -0.7593  0.2321  0.0456
 6719SOL    HW121598   4.584   1.842   4.262  0.4805 -1.2431 -0.3133
 6719SOL    HW221599   4.607   1.981   4.206 -1.8037 -0.1282  1.3610
 6720SOL     OW21600   3.754   3.030   6.126 -0.2772 -0.1202 -0.0732
 6720SOL    HW121601   3.830   3.088   6.114 -0.1120 -0.2475  0.3289
 6720SOL    HW221602   3.704   3.070   6.197  0.4039 -1.0311  0.9522
 6721SOL     OW21603   1.517   1.249   6.243  0.0668  0.2572  0.2805
 6721SOL    HW121604   1.455   1.321   6.238 -0.1909  0.0124 -0.1045
 6721SOL    HW221605   1.584   1.279   6.305  0.7754  1.4557 -1.0002
 6722SOL     OW21606   0.713   7.434   6.915  0.0502 -0.0059  0.6273
 6722SOL    HW121607   0.732   7.515   6.963 -1.3237  0.7692 -0.1168
 6722SOL    HW221608   0.643   7.457   6.855 -0.5420 -1.8214  0.5773
 6723SOL     OW21609   5.283   0.000   5.790 -0.6521  0.0515  0.4904
 6723SOL    HW121610   5.240  -0.071   5.743 -0.6284 -0.6496  1.4950
 6723SOL    HW221611   5.294  -0.033   5.880  0.1927  0.9670  0.7493
 6724SOL     OW21612   5.319   7.134   7.030  0.6991 -0.3322  0.1331
 6724SOL    HW121613   5.388   7.137   6.964 -0.5877 -0.4638 -1.2703
 6724SOL    HW221614   5.306   7.040   7.047  1.5473 -0.2848  1.1892
 6725SOL     OW21615   2.450   2.432   4.291 -0.3162 -0.4063  0.4583
 6725SOL    HW121616   2.375   2.375   4.278 -0.3833  0.1059 -1.7592
 6725SOL    HW221617   2.437   2.504   4.229  2.9202 -1.3211 -1.5730
 6726SOL     OW21618   2.835   1.942   7.882 -0.2483 -0.1667  0.4548
 6726SOL    HW121619   2.829   1.907   7.793 -1.5558  0.6625  0.1850
 6726SOL    HW221620   2.807   2.033   7.875  1.0674  0.3651  1.4896
 6727SOL     OW21621   1.796   0.679   7.974  0.1917 -0.2499  0.4426
 6727SOL    HW121622   1.790   0.756   7.917 -2.2887 -1.0090 -0.4119
 6727SOL    HW221623   1.863   0.624   7.933  0.2905  0.3776 -0.2625
 6728SOL     OW21624   0.954   0.277   6.390 -0.2450 -0.5288 -0.7159
 6728SOL    HW121625   1.010   0.355   6.398 -0.2619 -0.4946 -0.9290
 6728SOL    HW221626   0.970   0.245   6.302 -0.5886 -0.4996 -0.7895
 6729SOL     OW21627   2.229   7.058   8.352  0.7472 -0.4729 -0.2744
 6729SOL    HW121628   2.265   7.023   8.433 -0.9821 -0.3163  0.6105
 6729SOL    HW221629   2.221   7.152   8.368 -1.1373 -0.6449  0.0589
 6730SOL     OW21630   4.369   1.609   7.355 -0.3976 -0.1140  0.3380
 6730SOL    HW121631   4.453   1.648   7.381 -0.8792  0.4520  1.1258
 6730SOL    HW221632   4.392   1.528   7.310  0.5860  0.3164  0.0408
 6731SOL     OW21633   3.487   6.275   5.785  0.6148  0.0962  0.0403
 6731SOL    HW121634   3.422   6.336   5.822  1.9603  0.8790  1.2140
 6731SOL    HW221635   3.437   6.195   5.769 -1.1219  1.3139 -1.1246
 6732SOL     OW21636   3.994   1.299   7.139  0.3224 -0.0428 -0.5303
 6732SOL    HW121637   4.005   1.290   7.234 -1.1163 -0.2536 -0.3567
 6732SOL    HW221638   4.003   1.393   7.123 -2.0764  0.3957  0.2474
 6733SOL     OW21639   2.282   1.995   6.919  0.3546  0.5680 -0.6515
 6733SOL    HW121640   2.253   2.008   6.829 -0.8679  4.0006  0.0939
 6733SOL    HW221641   2.375   1.973   6.911  0.2449  0.6583 -2.7162
 6734SOL     OW21642   1.767   2.118   8.110 -0.2367  0.4309  0.4132
 6734SOL    HW121643   1.678   2.113   8.145 -0.5183 -1.1217 -0.4572
 6734SOL    HW221644   1.821   2.075   8.177 -0.7325 -2.2485 -0.7728
 6735SOL     OW21645   1.224   1.292   5.674  0.2552 -0.2711 -0.0063
 6735SOL    HW121646   1.158   1.311   5.607 -0.7828 -0.2477  0.9905
 6735SOL    HW221647   1.308   1.305   5.629 -0.3808  2.5577 -0.5777
 6736SOL     OW21648   2.454   0.143   7.101 -0.1894  0.5358  0.3866
 6736SOL    HW121649   2.474   0.165   7.192 -0.1145 -1.5417  0.9220
 6736SOL    HW221650   2.377   0.087   7.105 -0.6379  0.9948 -0.9232
 6737SOL     OW21651   3.921   1.945   6.643 -0.0893  0.0365  0.3004
 6737SOL    HW121652   3.934   1.852   6.625 -0.2721  0.3817 -1.8706
 6737SOL    HW221653   3.837   1.965   6.603  0.6329  1.4433 -0.5765
 6738SOL     OW21654   2.148   1.652   6.769  0.3432 -0.0083 -0.1602
 6738SOL    HW121655   2.116   1.563   6.786 -1.6564  0.8577  0.8755
 6738SOL    HW221656   2.108   1.705   6.838  0.7855  1.8553 -1.2851
 6739SOL     OW21657   2.698   0.570   5.158  0.4806 -0.0243  0.0316
 6739SOL    HW121658   2.608   0.538   5.167  0.5981 -0.2690  0.3484
 6739SOL    HW221659   2.721   0.552   5.067  0.4511 -0.5894  0.1357
 6740SOL     OW21660   2.243   2.410   5.695 -0.4699 -0.0986  0.1703
 6740SOL    HW121661   2.276   2.498   5.714  0.2201 -0.5761  1.3071
 6740SOL    HW221662   2.207   2.416   5.606 -1.5557  1.6276  0.6802
 6741SOL     OW21663   1.300   2.011   7.632 -0.0110  0.6619  0.2522
 6741SOL    HW121664   1.217   2.020   7.678  0.0877 -0.9264  0.8296
 6741SOL    HW221665   1.283   1.945   7.565  0.8074  0.2061  0.4797
 6742SOL     OW21666   1.016   1.769   7.977 -0.3059 -0.0497  0.7601
 6742SOL    HW121667   0.939   1.820   7.952 -0.1774 -0.6560 -1.0241
 6742SOL    HW221668   1.002   1.748   8.070 -2.1769  0.0425  0.5434
 6743SOL     OW21669   1.361   3.301   7.310 -0.5544 -0.1088  0.8570
 6743SOL    HW121670   1.389   3.213   7.283  2.5496  0.0252  3.1044
 6743SOL    HW221671   1.416   3.361   7.260 -0.7160  0.4518  1.3405
 6744SOL     OW21672   3.873   6.991   6.638 -0.3010  0.0283 -0.5888
 6744SOL    HW121673   3.861   7.069   6.694 -0.0668  0.2019 -0.7821
 6744SOL    HW221674   3.938   6.939   6.684  1.7673  1.3184 -1.8871
 6745SOL     OW21675   3.009   7.340   8.574  0.4471  0.1833 -0.8427
 6745SOL    HW121676   2.939   7.402   8.554 -1.1513 -0.7187  1.4817
 6745SOL    HW221677   3.001   7.272   8.508 -0.0859  0.6904 -1.3117
 6746SOL     OW21678   0.537   7.769   6.363 -0.0672 -0.6414  0.5058
 6746SOL    HW121679   0.620   7.746   6.405  0.2941  1.1282  0.8235
 6746SOL    HW221680   0.528   7.705   6.292  1.3594 -1.1217  0.7190
 6747SOL     OW21681   2.494   0.948   6.370 -0.3505 -0.4746  0.0529
 6747SOL    HW121682   2.519   0.898   6.293  0.1250 -3.0628  1.7514
 6747SOL    HW221683   2.402   0.928   6.384  0.1441 -2.0397  1.4523
 6748SOL     OW21684   3.853   6.860   5.944 -0.9189 -0.1648 -0.0051
 6748SOL    HW121685   3.857   6.787   6.005  0.9498 -0.9798 -1.0448
 6748SOL    HW221686   3.802   6.927   5.991 -0.5076 -1.1645  1.9823
 6749SOL     OW21687   3.458   0.468   8.187 -0.1732  0.5956 -0.0332
 6749SOL    HW121688   3.533   0.527   8.195  0.0820  0.3459 -0.5055
 6749SOL    HW221689   3.385   0.516   8.225  0.2499  0.7966  0.5394
 6750SOL     OW21690   4.048   7.919   7.189  0.1289 -0.1659 -0.2964
 6750SOL    HW121691   4.033   8.006   7.225  0.0610 -1.0306  1.9273
 6750SOL    HW221692   3.987   7.862   7.237  1.0185 -1.6259 -0.8279
 6751SOL     OW21693   1.916   0.769   5.994  0.0869  0.3867  0.4315
 6751SOL    HW121694   1.903   0.834   5.924  0.3455 -1.3678 -1.3206
 6751SOL    HW221695   1.874   0.690   5.961  0.5698 -0.6183  2.1171
 6752SOL     OW21696   3.079   1.931   5.727 -0.3600 -0.1814 -0.0415
 6752SOL    HW121697   3.054   1.840   5.738 -1.4388  0.1521  0.4571
 6752SOL    HW221698   3.066   1.970   5.814  1.5377  0.1277  0.1476
 6753SOL     OW21699   2.111   3.091   7.156 -0.3066  0.4594 -0.3202
 6753SOL    HW121700   2.134   3.025   7.091  3.5693  0.9716  0.2875
 6753SOL    HW221701   2.084   3.167   7.105 -0.6248 -0.2038 -1.1663
 6754SOL     OW21702   4.036   0.258   6.971  0.0811  0.7613  0.8603
 6754SOL    HW121703   4.065   0.173   7.005 -1.5966  0.4981  1.7561
 6754SOL    HW221704   4.074   0.322   7.032  0.9842  0.6461  0.4382
 6755SOL     OW21705   2.000   1.299   7.040 -0.0608  0.5019 -1.3419
 6755SOL    HW121706   1.936   1.256   7.097 -0.8472  0.8653 -1.9554
 6755SOL    HW221707   2.055   1.227   7.008  0.4209  0.2864 -0.1238
 6756SOL     OW21708   1.357   7.854   5.924 -0.4352  0.0628  0.1765
 6756SOL    HW121709   1.315   7.939   5.938 -0.5654 -0.0730  0.6151
 6756SOL    HW221710   1.449   7.868   5.946 -0.2346  0.3647 -0.7999
 6757SOL     OW21711   2.641   1.431   7.525  0.6856  0.6004  0.0084
 6757SOL    HW121712   2.564   1.467   7.480  1.3008  1.2296 -0.5774
 6757SOL    HW221713   2.615   1.342   7.550  0.0423  0.5190 -0.8859
 6758SOL     OW21714   4.179   7.693   5.841  0.0705  0.2328 -0.3361
 6758SOL    HW121715   4.221   7.608   5.826  0.2114  0.4319 -1.1076
 6758SOL    HW221716   4.230   7.732   5.912  0.3832 -0.0718 -0.3887
 6759SOL     OW21717   2.287   1.412   5.000 -0.1469  0.1719 -0.1729
 6759SOL    HW121718   2.299   1.474   5.072 -0.5510  0.1653 -0.0946
 6759SOL    HW221719   2.372   1.407   4.957 -0.2304  1.1734 -0.4872
 6760SOL     OW21720   1.829   1.703   7.171  0.4044 -0.4242 -0.2793
 6760SOL    HW121721   1.909   1.658   7.196  0.3898 -0.2786  0.0283
 6760SOL    HW221722   1.782   1.640   7.117  0.2249 -0.9123  0.4356
 6761SOL     OW21723   2.106   7.930   7.415 -0.4776  0.1822 -0.0307
 6761SOL    HW121724   2.071   7.973   7.337 -1.1431 -0.4946 -0.1262
 6761SOL    HW221725   2.186   7.888   7.386  1.5996  3.3376  0.6160
 6762SOL     OW21726   1.909   7.265   7.208 -0.0852  0.0653 -0.5558
 6762SOL    HW121727   1.989   7.238   7.161  1.3869 -2.5368  3.0192
 6762SOL    HW221728   1.941   7.320   7.279 -1.0892 -2.4465  2.0224
 6763SOL     OW21729   4.113   0.479   7.972 -0.0720  0.3132  0.7128
 6763SOL    HW121730   4.119   0.408   8.037 -1.0817 -0.6999 -0.2636
 6763SOL    HW221731   4.053   0.446   7.906  0.2329  1.6956 -0.2939
 6764SOL     OW21732   2.214   7.836   4.852  0.0723  0.2286  0.5015
 6764SOL    HW121733   2.131   7.806   4.888 -0.7840 -0.3802 -1.8202
 6764SOL    HW221734   2.202   7.930   4.839 -0.2317  0.1515  0.2300
 6765SOL     OW21735   1.684   1.730   5.480 -0.4610 -0.4460 -0.7617
 6765SOL    HW121736   1.623   1.793   5.520 -0.6696 -1.5179  0.6941
 6765SOL    HW221737   1.692   1.660   5.545  1.5615 -0.8190 -1.3535
 6766SOL     OW21738   0.468   0.665   9.795 -0.5064  0.1081 -0.4037
 6766SOL    HW121739   0.383   0.679   9.752 -0.7815 -2.9697 -1.1692
 6766SOL    HW221740   0.532   0.677   9.725 -0.1693  2.9628  0.2952
 6767SOL     OW21741   2.040   2.106   5.996  0.3676 -0.6889 -0.0951
 6767SOL    HW121742   2.135   2.104   5.991  0.4911  0.2894  1.4684
 6767SOL    HW221743   2.018   2.194   6.026 -1.1321 -0.4074 -1.8056
 6768SOL     OW21744   3.516   0.202   7.121  0.5620 -0.0571  0.2796
 6768SOL    HW121745   3.567   0.136   7.169 -0.6466 -0.5505  0.9459
 6768SOL    HW221746   3.432   0.205   7.167 -0.4363 -0.0977 -1.4528
 6769SOL     OW21747   2.884   7.929   7.300 -0.0544 -0.4200  0.0816
 6769SOL    HW121748   2.807   7.877   7.322  1.1371 -2.7573 -0.9003
 6769SOL    HW221749   2.897   7.915   7.206  1.8734 -0.5973  0.3232
 6770SOL     OW21750   3.476   7.702   8.106 -0.5637  0.0972  0.3600
 6770SOL    HW121751   3.408   7.692   8.173 -0.8534 -0.4461 -0.0132
 6770SOL    HW221752   3.543   7.756   8.148  0.6628 -2.5905  2.1733
 6771SOL     OW21753   3.972   1.229   6.848 -0.4000  0.3907 -0.2331
 6771SOL    HW121754   4.018   1.287   6.788 -0.2333 -0.9230 -1.4344
 6771SOL    HW221755   3.970   1.276   6.931  2.4991  0.8140 -0.3210
 6772SOL     OW21756   1.355   1.820   5.423  0.0377 -0.2734  0.2787
 6772SOL    HW121757   1.340   1.763   5.498 -0.0580 -0.5982  0.0157
 6772SOL    HW221758   1.283   1.799   5.362 -0.1478  0.3122  0.2936
 6773SOL     OW21759   2.339   7.169   6.264 -0.3552  0.1779 -0.3747
 6773SOL    HW121760   2.411   7.201   6.210  1.7612 -0.6069  1.8005
 6773SOL    HW221761   2.314   7.245   6.317  1.0054 -0.2714  0.9891
 6774SOL     OW21762   5.259   1.979   7.357  0.3647 -0.1086 -0.0862
 6774SOL    HW121763   5.322   1.952   7.290 -0.9263 -0.3440 -1.2467
 6774SOL    HW221764   5.261   2.075   7.355 -0.2336 -0.1015 -1.0545
 6775SOL     OW21765   3.632   1.666   6.639  0.0634  0.8317 -0.2316
 6775SOL    HW121766   3.725   1.667   6.661  0.2536  2.7248 -0.9607
 6775SOL    HW221767   3.626   1.607   6.564  0.2273 -1.3215  1.3317
 6776SOL     OW21768   2.747   7.997   6.130 -0.0851  0.4471  0.5228
 6776SOL    HW121769   2.808   8.060   6.168  1.6454 -0.4406 -0.6595
 6776SOL    HW221770   2.684   7.979   6.199  0.2942  2.2848  1.3976
 6777SOL     OW21771   1.577   2.778   7.278  0.0403 -0.0965 -0.0215
 6777SOL    HW121772   1.521   2.844   7.238 -1.2950 -1.6592 -0.8694
 6777SOL    HW221773   1.529   2.750   7.356  0.6613  0.0399  0.4138
 6778SOL     OW21774   1.910   1.592   5.402  0.0487  0.4842  0.0406
 6778SOL    HW121775   1.941   1.560   5.486 -0.0368 -0.7989 -0.3920
 6778SOL    HW221776   1.839   1.653   5.424 -0.6305 -0.5837  0.8783
 6779SOL     OW21777   2.709   1.211   4.522 -0.1789  0.1728 -0.0730
 6779SOL    HW121778   2.662   1.283   4.479 -1.9402 -0.1886  1.1515
 6779SOL    HW221779   2.787   1.198   4.467 -1.1763  1.2167 -1.8530
 6780SOL     OW21780   1.963   1.782   6.198 -0.2514  0.3241  0.1334
 6780SOL    HW121781   1.935   1.809   6.110  1.1527 -0.2063 -0.5043
 6780SOL    HW221782   1.972   1.687   6.192 -2.0196  0.0292  1.4368
 6781SOL     OW21783   1.424   0.692   7.095  0.7096 -0.0039 -0.3776
 6781SOL    HW121784   1.406   0.738   7.013 -2.9982  0.1322  0.3523
 6781SOL    HW221785   1.394   0.603   7.080  0.2559 -0.0560  0.7292
 6782SOL     OW21786   2.523   1.255   5.245  0.4021 -0.6945 -0.0388
 6782SOL    HW121787   2.495   1.267   5.154 -1.9451 -0.9837  0.5958
 6782SOL    HW221788   2.504   1.339   5.287  1.4482 -0.5752  0.2121
 6783SOL     OW21789   3.036   0.438   7.784 -0.2204 -0.1342  0.0194
 6783SOL    HW121790   3.062   0.346   7.791 -0.8507 -0.2096  1.7759
 6783SOL    HW221791   2.941   0.436   7.776 -0.1378  0.3445 -1.5211
 6784SOL     OW21792   3.507   1.441   6.091  0.0571 -0.1578 -0.1979
 6784SOL    HW121793   3.567   1.503   6.049 -0.9865 -0.8015 -2.8262
 6784SOL    HW221794   3.557   1.360   6.098  0.1880 -0.0877 -0.3231
 6785SOL     OW21795   3.236   7.682   6.439  0.0289  0.8215  0.2317
 6785SOL    HW121796   3.314   7.734   6.458  1.0527  0.1041 -1.7589
 6785SOL    HW221797   3.190   7.731   6.371 -0.1822  0.2662 -0.0361
 6786SOL     OW21798   2.811   1.107   6.234 -0.4496 -0.2698 -0.6888
 6786SOL    HW121799   2.775   1.020   6.216  0.0789 -0.2129 -2.2014
 6786SOL    HW221800   2.870   1.094   6.308  0.0217 -1.3172 -1.2294
 6787SOL     OW21801   1.166   0.542   6.782  0.2760 -0.2881  0.4990
 6787SOL    HW121802   1.226   0.506   6.847  1.7724 -1.4249 -1.3987
 6787SOL    HW221803   1.217   0.610   6.737 -1.4464  2.0849  1.8600
 6788SOL     OW21804   3.544   1.650   7.292  0.4887 -0.3439 -0.2564
 6788SOL    HW121805   3.484   1.654   7.218 -0.3341  2.5151  0.4766
 6788SOL    HW221806   3.521   1.568   7.336  0.1004 -1.4455 -2.3531
 6789SOL     OW21807   1.947   0.172   5.723  0.0617  0.1449 -0.3740
 6789SOL    HW121808   1.865   0.139   5.686 -0.4382 -0.1047  0.9115
 6789SOL    HW221809   2.015   0.122   5.677 -0.6502 -2.3639  1.0737
 6790SOL     OW21810   2.249   0.411   7.939  0.2956  0.3196 -0.6909
 6790SOL    HW121811   2.209   0.335   7.981 -0.5362  1.4933  0.7747
 6790SOL    HW221812   2.322   0.434   7.997  0.3719  0.7814 -0.9684
 6791SOL     OW21813   2.321   2.723   5.673  0.0687  0.3804  0.3582
 6791SOL    HW121814   2.325   2.721   5.577 -0.9313 -0.0199  0.3089
 6791SOL    HW221815   2.412   2.725   5.701  0.5466 -3.1633 -0.5404
 6792SOL     OW21816   5.129   1.605   6.519 -0.2109  0.0571 -0.0244
 6792SOL    HW121817   5.124   1.552   6.599 -1.8990  0.1783 -0.0068
 6792SOL    HW221818   5.082   1.553   6.453  0.7086  0.1953 -0.8145
 6793SOL     OW21819   2.926   0.189   5.906  0.3192  0.1404  0.8131
 6793SOL    HW121820   2.977   0.137   5.843 -0.8458 -0.3659  0.2589
 6793SOL    HW221821   2.836   0.181   5.876 -0.0378  1.4726  1.4621
 6794SOL     OW21822   2.339   0.657   6.929  0.6592  0.1978 -0.3232
 6794SOL    HW121823   2.243   0.648   6.931  0.6165  0.5169 -0.7451
 6794SOL    HW221824   2.370   0.573   6.894  0.4433  0.5846 -1.4845
 6795SOL     OW21825   4.879   0.630   6.354  0.7841  0.2154 -0.2473
 6795SOL    HW121826   4.974   0.623   6.362  0.7791  0.5782  0.1294
 6795SOL    HW221827   4.859   0.720   6.381  0.1482 -0.4063  1.4709
 6796SOL     OW21828   1.326   1.079   7.023 -0.1233  0.0679 -0.2653
 6796SOL    HW121829   1.289   1.034   7.099 -0.7244  2.3701  0.8890
 6796SOL    HW221830   1.308   1.172   7.039  1.8615  0.8424 -2.0846
 6797SOL     OW21831   1.665   2.561   6.581  0.5466  0.2483  0.5741
 6797SOL    HW121832   1.649   2.655   6.575 -0.7753  0.1999  2.3356
 6797SOL    HW221833   1.720   2.551   6.659 -0.7260 -0.5097  1.4234
 6798SOL     OW21834   1.757   7.783   7.723  0.1728 -0.3121 -0.2442
 6798SOL    HW121835   1.810   7.787   7.643  0.0606  1.1181 -0.2697
 6798SOL    HW221836   1.669   7.763   7.693  0.1773 -0.0169 -0.4519
 6799SOL     OW21837   3.304   6.316   8.361  0.1556 -0.3416  0.1049
 6799SOL    HW121838   3.319   6.407   8.384  0.3473 -0.1912 -0.6139
 6799SOL    HW221839   3.249   6.282   8.432  0.7354  0.1120  0.7830
 6800SOL     OW21840   1.314   0.565   7.914 -0.1116 -0.1490  0.5691
 6800SOL    HW121841   1.329   0.659   7.904 -1.2988  0.1786  1.6911
 6800SOL    HW221842   1.300   0.533   7.824  0.9553  0.5990  0.1152
 6801SOL     OW21843   2.854   1.522   8.243 -0.3993  0.0998 -0.2912
 6801SOL    HW121844   2.926   1.463   8.266 -0.6584 -0.4970 -0.9496
 6801SOL    HW221845   2.861   1.532   8.148  0.3855  2.1560 -0.0637
 6802SOL     OW21846   3.954   2.840   7.336 -0.3207 -0.0399 -0.3013
 6802SOL    HW121847   4.020   2.886   7.387  1.0864 -1.0074 -1.1844
 6802SOL    HW221848   3.920   2.906   7.276 -1.0006  0.7507  0.9093
 6803SOL     OW21849   3.083   0.821   8.368  0.2018  0.0305  0.3568
 6803SOL    HW121850   3.046   0.816   8.456 -0.4506 -1.6779  0.0336
 6803SOL    HW221851   3.069   0.912   8.341 -3.9456 -0.4659  0.2421
 6804SOL     OW21852   2.527   7.902   7.674 -0.3460 -0.0372  0.9474
 6804SOL    HW121853   2.534   7.921   7.767 -1.8275  3.9594  0.4373
 6804SOL    HW221854   2.584   7.966   7.632 -1.0621 -0.5662 -0.9464
 6805SOL     OW21855   2.333   0.237   9.806  0.3854  0.1790 -0.1336
 6805SOL    HW121856   2.416   0.226   9.852  0.3913  0.5578 -0.0484
 6805SOL    HW221857   2.346   0.196   9.721 -0.1483 -1.9788  0.7732
 6806SOL     OW21858   0.631   0.046   9.016 -0.2537  0.1804  0.1034
 6806SOL    HW121859   0.608   0.106   9.087 -0.0509 -1.1817  1.3632
 6806SOL    HW221860   0.646   0.103   8.941 -0.5942  1.6591  1.1099
 6807SOL     OW21861   3.197   0.539   8.887  0.6668  0.1392  0.8221
 6807SOL    HW121862   3.223   0.627   8.915  1.1422  0.5817 -0.8830
 6807SOL    HW221863   3.102   0.544   8.878  0.8462  1.0127 -0.9000
 6808SOL     OW21864   0.984   7.016  11.327 -0.0278  0.0988  0.3273
 6808SOL    HW121865   0.899   6.996  11.365  0.0548  0.1208  0.5266
 6808SOL    HW221866   1.030   7.065  11.395 -0.0580  0.5644  0.0143
 6809SOL     OW21867   2.584   0.490   9.962  0.2532 -0.8548  0.5846
 6809SOL    HW121868   2.565   0.454   9.875  0.5967 -1.6472  0.8262
 6809SOL    HW221869   2.588   0.584   9.948 -0.4989 -0.9167 -0.1028
 6810SOL     OW21870   2.369   0.187   9.563 -0.0846 -0.0624 -0.2057
 6810SOL    HW121871   2.306   0.245   9.521  0.0883 -0.1897 -0.6409
 6810SOL    HW221872   2.449   0.198   9.513  0.4296  0.5715  0.7268
 6811SOL     OW21873   2.535   7.136   9.541  0.3202 -0.2278  0.9531
 6811SOL    HW121874   2.533   7.231   9.529 -1.4214 -0.2892  0.4768
 6811SOL    HW221875   2.599   7.106   9.476  0.2318  0.5455  0.4850
 6812SOL     OW21876   2.344   1.164   7.564  0.7256 -0.0972 -0.1009
 6812SOL    HW121877   2.275   1.152   7.630  1.9425 -0.9833  1.0692
 6812SOL    HW221878   2.311   1.119   7.486 -0.4173  0.3217  0.1174
 6813SOL     OW21879   2.964   0.728   8.894 -0.0028 -0.0309 -0.3981
 6813SOL    HW121880   2.929   0.661   8.953 -0.1715 -1.0867 -1.6581
 6813SOL    HW221881   2.906   0.804   8.907 -0.1372 -0.3021  0.6588
 6814SOL     OW21882   2.314   0.464   8.476 -0.2839  0.1791  0.0144
 6814SOL    HW121883   2.243   0.494   8.532 -0.6203 -0.2107 -0.1960
 6814SOL    HW221884   2.392   0.505   8.512 -0.7873  1.7796 -0.5993
 6815SOL     OW21885   3.545   2.155   7.308 -0.5756  0.3756  0.1966
 6815SOL    HW121886   3.621   2.212   7.323 -0.6341  0.2800  0.9274
 6815SOL    HW221887   3.555   2.085   7.373 -1.0580  0.1269  0.0078
 6816SOL     OW21888   2.179   1.501   8.839  0.7265 -0.4971 -0.0443
 6816SOL    HW121889   2.197   1.417   8.796  1.0354  0.0538 -1.0149
 6816SOL    HW221890   2.084   1.511   8.835  0.7352 -0.5564 -0.3955
 6817SOL     OW21891   0.230   7.798   7.392 -0.3992 -0.0502 -0.0910
 6817SOL    HW121892   0.166   7.728   7.381  0.2995 -0.7585  0.2514
 6817SOL    HW221893   0.217   7.855   7.316 -1.6900  0.0458  0.1632
 6818SOL     OW21894   3.500   2.571   7.744  0.5475  0.2248  0.2926
 6818SOL    HW121895   3.516   2.491   7.793 -0.4368 -0.4408 -0.4366
 6818SOL    HW221896   3.489   2.639   7.811  0.8291 -0.3528  0.9313
 6819SOL     OW21897   0.859   0.885   7.080  0.8534 -0.3171  0.2825
 6819SOL    HW121898   0.865   0.867   7.174  0.3968  2.7034  1.0117
 6819SOL    HW221899   0.950   0.899   7.052  0.9569 -0.8138  0.3665
 6820SOL     OW21900   3.630   0.658   8.273 -0.0540  0.6769  0.3041
 6820SOL    HW121901   3.586   0.693   8.350 -1.3645 -0.9212  0.3409
 6820SOL    HW221902   3.702   0.719   8.256 -1.0993  2.2943  1.4295
 6821SOL     OW21903   2.566   0.499   7.933 -0.3035 -0.1125 -0.1348
 6821SOL    HW121904   2.512   0.568   7.893 -1.7620 -1.4641 -0.5980
 6821SOL    HW221905   2.636   0.547   7.977 -1.5881  1.7107  0.0822
 6822SOL     OW21906   1.401   7.067  10.305 -0.0559  0.2158 -0.1473
 6822SOL    HW121907   1.460   7.004  10.263 -0.4896 -1.4089  1.5420
 6822SOL    HW221908   1.334   7.084  10.239  0.6842 -0.2197 -1.0399
 6823SOL     OW21909   2.702   3.665  10.127 -0.2337 -0.2202 -0.5133
 6823SOL    HW121910   2.735   3.697  10.042 -0.0695  1.4504  0.1369
 6823SOL    HW221911   2.741   3.725  10.191 -0.5050 -1.3530  0.7360
 6824SOL     OW21912   2.891   1.930   8.479  0.2378  0.1130 -0.2735
 6824SOL    HW121913   2.962   1.949   8.417 -0.5759  0.5943 -1.0751
 6824SOL    HW221914   2.859   1.844   8.454 -0.7102  0.7003 -1.1450
 6825SOL     OW21915   2.593   7.963   8.974 -0.3679  0.0214 -0.0357
 6825SOL    HW121916   2.664   8.025   8.991 -0.7019  0.1396  1.0286
 6825SOL    HW221917   2.619   7.918   8.894  1.7176 -1.0777  1.1513
 6826SOL     OW21918   3.937   0.621   8.756  0.1471  0.2588 -0.3920
 6826SOL    HW121919   3.957   0.555   8.690 -2.7252  1.4868 -2.7316
 6826SOL    HW221920   3.866   0.583   8.808 -0.1911  0.7135 -0.5068
 6827SOL     OW21921   3.113   0.423   6.710  0.5096 -0.2118  0.2075
 6827SOL    HW121922   3.165   0.397   6.786 -0.3706 -0.0996  0.8605
 6827SOL    HW221923   3.086   0.341   6.670  0.0007 -0.2911  0.7006
 6828SOL     OW21924   2.918   2.360   9.969 -0.1574 -0.1272 -0.0664
 6828SOL    HW121925   2.965   2.423   9.915 -1.2987  0.1582 -0.7664
 6828SOL    HW221926   2.930   2.390  10.059 -0.2665  0.8013 -0.3576
 6829SOL     OW21927   2.209   0.188  10.141 -0.0749 -0.1876  0.4238
 6829SOL    HW121928   2.160   0.270  10.152 -0.5476 -0.1199 -1.6749
 6829SOL    HW221929   2.284   0.213  10.088 -0.6852 -1.2323 -0.9779
 6830SOL     OW21930   4.606   2.833   8.127  0.7112 -0.0384  0.0068
 6830SOL    HW121931   4.568   2.863   8.210 -0.0628 -1.6415  0.2782
 6830SOL    HW221932   4.571   2.893   8.062 -0.3355  0.0195  0.5904
 6831SOL     OW21933   2.460   1.592   7.820  0.7518  0.1928 -0.0237
 6831SOL    HW121934   2.442   1.521   7.758  0.1586  0.2921  0.0353
 6831SOL    HW221935   2.472   1.670   7.766 -1.8050  0.7138  0.0656
 6832SOL     OW21936   1.569   0.780  10.730 -0.0358  0.1182 -0.5942
 6832SOL    HW121937   1.577   0.700  10.677 -0.7627  0.5257 -1.3484
 6832SOL    HW221938   1.603   0.756  10.816 -1.6702 -1.4558 -0.3500
 6833SOL     OW21939   3.292   2.731   6.496 -0.0925 -0.0770 -0.3707
 6833SOL    HW121940   3.306   2.785   6.574  2.0905  0.1283 -0.8467
 6833SOL    HW221941   3.224   2.777   6.447 -0.4632  0.5644  0.7156
 6834SOL     OW21942   2.894   1.204   7.504  0.0909  0.2455  0.3037
 6834SOL    HW121943   2.986   1.187   7.487  0.0182  0.6894 -0.6083
 6834SOL    HW221944   2.855   1.214   7.417 -1.4345 -2.8630  0.4999
 6835SOL     OW21945   3.786   0.692   6.494  0.5712  0.0269  0.0301
 6835SOL    HW121946   3.770   0.610   6.539 -0.1505  0.2854  0.2563
 6835SOL    HW221947   3.817   0.752   6.562  0.7504  0.0428 -0.0651
 6836SOL     OW21948   3.616   1.970   8.630  0.8408 -0.2262  0.2120
 6836SOL    HW121949   3.654   2.006   8.711  2.2734  1.0290 -0.9529
 6836SOL    HW221950   3.530   1.938   8.657  0.1616  2.5058  1.7740
 6837SOL     OW21951   3.140   7.835   8.077 -0.1083 -0.1266 -0.1098
 6837SOL    HW121952   3.203   7.808   8.144  1.0947  0.1018 -1.1178
 6837SOL    HW221953   3.054   7.828   8.121  0.3731 -2.6705  0.5852
 6838SOL     OW21954   3.111   0.064   6.917 -0.0585  0.3076  0.3688
 6838SOL    HW121955   3.170   0.110   6.977  0.1450 -0.2282  0.5823
 6838SOL    HW221956   3.067  -0.001   6.972 -0.5269  0.4059  0.1163
 6839SOL     OW21957   0.957   0.154   8.290  0.7157  0.1436  0.8116
 6839SOL    HW121958   0.913   0.208   8.224  1.3182 -0.6953 -0.3234
 6839SOL    HW221959   0.904   0.164   8.369  0.0958  1.3574  0.2662
 6840SOL     OW21960   1.323   0.945   8.152  0.3344  0.4714 -0.4362
 6840SOL    HW121961   1.297   0.954   8.060  0.3489 -0.0351 -0.4935
 6840SOL    HW221962   1.277   0.867   8.182 -0.3993  1.1573  0.2567
 6841SOL     OW21963   5.163   7.454   6.286  0.0007 -0.3689 -0.5430
 6841SOL    HW121964   5.071   7.428   6.287  0.2693 -1.4185  0.8081
 6841SOL    HW221965   5.185   7.462   6.194 -1.5513  0.3329 -0.8864
 6842SOL     OW21966   3.033   7.718   9.259 -0.1220  0.0829 -0.3977
 6842SOL    HW121967   3.098   7.706   9.190 -0.6633 -1.2550 -0.7017
 6842SOL    HW221968   2.982   7.795   9.230 -2.6584 -2.4297 -3.4859
 6843SOL     OW21969   4.521   0.965   9.293  0.1546 -0.4346  0.5684
 6843SOL    HW121970   4.616   0.956   9.297  0.1491 -0.2414  1.1457
 6843SOL    HW221971   4.502   1.048   9.336 -0.2419 -0.2680  0.0818
 6844SOL     OW21972   1.867   1.621   7.836  0.3847  0.2868  0.1491
 6844SOL    HW121973   1.849   1.539   7.790 -5.0554  0.3916  1.4561
 6844SOL    HW221974   1.859   1.598   7.929 -0.4023  2.0878  0.5552
 6845SOL     OW21975   4.018   7.949   9.856  0.4383  0.1453 -0.1615
 6845SOL    HW121976   4.004   8.011   9.784 -0.0650  0.7068  0.4043
 6845SOL    HW221977   3.931   7.916   9.877  0.3276  1.2071  1.2395
 6846SOL     OW21978   3.635   1.575   8.769 -0.0153  0.0795 -0.5819
 6846SOL    HW121979   3.660   1.606   8.856  1.2793  0.6366 -1.1291
 6846SOL    HW221980   3.640   1.653   8.714 -0.0675 -0.4227 -1.3058
 6847SOL     OW21981   0.416   7.530   7.155 -0.3272  0.0983  0.2592
 6847SOL    HW121982   0.472   7.602   7.186  0.4797 -0.2375 -0.3797
 6847SOL    HW221983   0.471   7.452   7.162 -0.3394 -0.0831 -1.3723
 6848SOL     OW21984   4.852   1.457   7.618  0.0805  0.3844 -0.2170
 6848SOL    HW121985   4.796   1.521   7.661  1.8834  2.5028 -0.7823
 6848SOL    HW221986   4.816   1.450   7.529 -2.0435 -1.9547  0.7356
 6849SOL     OW21987   3.257   1.362   9.419 -0.3528  0.2075  0.6087
 6849SOL    HW121988   3.336   1.330   9.463  0.1689  1.6697  0.7831
 6849SOL    HW221989   3.276   1.351   9.326  0.7328  1.9559  0.5772
 6850SOL     OW21990   4.419   2.806   7.190 -0.4276 -1.0809 -0.0083
 6850SOL    HW121991   4.478   2.822   7.116 -1.4260 -1.0330 -0.8228
 6850SOL    HW221992   4.377   2.891   7.206 -2.2188 -1.6784 -1.2050
 6851SOL     OW21993   0.393   7.078   7.336  0.0139 -0.3689  0.2706
 6851SOL    HW121994   0.420   7.168   7.355 -0.7339  0.5078 -2.4146
 6851SOL    HW221995   0.469   7.040   7.292 -0.7827  0.0581 -1.5526
 6852SOL     OW21996   2.779   0.660   7.994  0.4928 -0.4059 -0.1134
 6852SOL    HW121997   2.863   0.630   7.960  0.4419 -0.4541 -0.1991
 6852SOL    HW221998   2.795   0.678   8.087  0.0042 -2.8137  0.4959
 6853SOL     OW21999   1.252   2.637   6.855 -0.2028  0.3709 -0.0923
 6853SOL    HW122000   1.337   2.659   6.892 -0.5365  0.6644  0.5177
 6853SOL    HW222001   1.195   2.626   6.931 -0.5530 -0.4878 -0.4638
 6854SOL     OW22002   3.310   7.248   9.298  0.4253 -0.3320  0.6057
 6854SOL    HW122003   3.234   7.249   9.240  0.9585  0.3028 -0.0989
 6854SOL    HW222004   3.287   7.185   9.367 -0.5732 -0.4321  0.1922
 6855SOL     OW22005   1.321   2.490  10.143 -0.4136  0.1808 -0.7236
 6855SOL    HW122006   1.245   2.448  10.183  1.6061 -2.8265  0.3428
 6855SOL    HW222007   1.311   2.473  10.049 -0.1690 -2.0175 -0.4111
 6856SOL     OW22008   2.695   1.600   7.991  0.1962 -0.0522 -0.5526
 6856SOL    HW122009   2.662   1.517   8.026 -0.8282  0.3948 -0.4198
 6856SOL    HW222010   2.638   1.619   7.916  2.0748 -0.7626 -2.2457
 6857SOL     OW22011   1.511   1.230   7.374 -0.1808  0.1234 -0.0502
 6857SOL    HW122012   1.538   1.297   7.438 -2.3191  0.6366  0.3836
 6857SOL    HW222013   1.418   1.245   7.361 -0.5485 -2.2426 -0.6345
 6858SOL     OW22014   3.571   6.387  10.996 -0.0268 -0.3946  0.2762
 6858SOL    HW122015   3.478   6.363  11.001 -0.0678 -0.2326  0.3051
 6858SOL    HW222016   3.617   6.304  11.000 -0.1259 -0.4058  1.4148
 6859SOL     OW22017   4.142   6.583   7.004  0.4813  0.2861  0.0544
 6859SOL    HW122018   4.061   6.634   7.016 -1.3943 -2.4750  0.0339
 6859SOL    HW222019   4.172   6.566   7.093  0.8652  0.9866  0.0697
 6860SOL     OW22020   1.884   0.290   8.018 -0.4277 -0.2352 -0.2491
 6860SOL    HW122021   1.792   0.300   7.995 -0.2557  0.6839 -0.6074
 6860SOL    HW222022   1.922   0.242   7.945 -0.6411 -0.6962 -0.0567
 6861SOL     OW22023   2.558   1.468   9.046  0.3941  0.2748  0.0227
 6861SOL    HW122024   2.548   1.563   9.053  1.4105  0.4388 -0.5715
 6861SOL    HW222025   2.642   1.456   9.001  0.6300 -0.9158  0.7501
 6862SOL     OW22026   2.581   1.093   8.072  0.0421 -0.1169  0.3492
 6862SOL    HW122027   2.564   1.066   8.162  1.5167 -0.6970  0.4725
 6862SOL    HW222028   2.619   1.016   8.030  0.1370  0.4020 -0.5390
 6863SOL     OW22029   2.379   6.992   7.834 -0.9522 -0.5241 -0.1768
 6863SOL    HW122030   2.333   7.058   7.782  0.2474  0.9437  0.5512
 6863SOL    HW222031   2.335   6.994   7.919  1.0991  1.8428  0.9769
 6864SOL     OW22032   2.822   7.034   7.995  0.9210  0.3444 -0.4226
 6864SOL    HW122033   2.850   7.125   7.997 -0.2484  0.7280 -0.3392
 6864SOL    HW222034   2.834   7.003   8.085  1.4465  0.3746 -0.4826
 6865SOL     OW22035   4.568   1.854   5.913  0.3632  0.8606 -0.1374
 6865SOL    HW122036   4.641   1.793   5.900 -0.7620 -0.3939 -0.8280
 6865SOL    HW222037   4.568   1.871   6.008 -0.9431 -2.4376  0.5680
 6866SOL     OW22038   2.024   6.939   9.234 -0.4285 -0.0338 -0.5275
 6866SOL    HW122039   2.077   7.016   9.255 -0.5576  0.6750 -2.5582
 6866SOL    HW222040   2.082   6.865   9.245  0.4042  0.5660 -0.8068
 6867SOL     OW22041   3.446   7.532   7.382  0.0600 -0.1243  0.1873
 6867SOL    HW122042   3.354   7.547   7.406 -0.3624  0.1262 -1.4555
 6867SOL    HW222043   3.495   7.591   7.439 -0.7871 -0.2331  1.0638
 6868SOL     OW22044   2.388   0.860   8.929  0.1507  0.4546  0.0659
 6868SOL    HW122045   2.440   0.883   8.852  0.3244 -0.9117 -0.2643
 6868SOL    HW222046   2.321   0.928   8.934 -0.2505  0.2375 -1.6867
 6869SOL     OW22047   1.746   1.048   9.425  0.0100  0.2435  0.4390
 6869SOL    HW122048   1.754   1.142   9.409  1.2585 -0.0606 -0.9398
 6869SOL    HW222049   1.811   1.030   9.493  0.8958  0.1550 -0.4026
 6870SOL     OW22050   2.475   1.494   5.920  0.3065 -0.0732  0.1407
 6870SOL    HW122051   2.532   1.494   5.996  0.4299  0.4804  0.0511
 6870SOL    HW222052   2.502   1.417   5.870  0.1728 -0.4801  0.6904
 6871SOL     OW22053   4.449   1.418   8.361 -0.6321  0.0177 -0.2822
 6871SOL    HW122054   4.369   1.377   8.395 -1.7529  1.9220 -0.4755
 6871SOL    HW222055   4.450   1.395   8.269  0.6810 -2.4549  0.2604
 6872SOL     OW22056   2.091   6.568   7.741 -0.4352  0.5205 -0.7106
 6872SOL    HW122057   2.151   6.642   7.730 -0.1375  0.2844 -0.6948
 6872SOL    HW222058   2.136   6.511   7.803 -1.0856  0.7735  0.0070
 6873SOL     OW22059   2.372   0.881   8.559 -0.2694  0.9817 -0.3104
 6873SOL    HW122060   2.360   0.948   8.626  0.8337  3.0268 -2.0602
 6873SOL    HW222061   2.349   0.925   8.477 -1.7898 -1.4936 -1.3263
 6874SOL     OW22062   1.851   7.997   8.478  0.0823 -0.4678  0.0115
 6874SOL    HW122063   1.939   7.970   8.451  0.1078 -1.6344  1.1433
 6874SOL    HW222064   1.849   8.091   8.464  1.2526 -0.5372 -0.7318
 6875SOL     OW22065   0.118   1.035   8.355 -0.0197 -0.0533  0.5079
 6875SOL    HW122066   0.162   0.953   8.377 -0.5630  0.0433  2.0912
 6875SOL    HW222067   0.075   1.061   8.437 -1.3278  0.8915 -0.4569
 6876SOL     OW22068   4.317   1.309   7.637  0.2711 -0.0626  0.2408
 6876SOL    HW122069   4.281   1.354   7.713  1.4609  0.6343  0.4127
 6876SOL    HW222070   4.240   1.286   7.584 -0.6593 -1.3685  2.0447
 6877SOL     OW22071   3.873   7.917   9.110 -0.0293 -0.3462 -0.1453
 6877SOL    HW122072   3.931   7.978   9.064 -0.4105 -0.3381 -0.6236
 6877SOL    HW222073   3.909   7.913   9.199 -0.5366  1.2823  0.1681
 6878SOL     OW22074   4.209   7.730   9.125 -0.6010  0.1708 -0.8085
 6878SOL    HW122075   4.150   7.763   9.193 -0.1504  0.9951 -0.8146
 6878SOL    HW222076   4.150   7.703   9.054 -1.0305 -0.0562 -0.3768
 6879SOL     OW22077   3.475   1.439   7.437  0.6977  0.4639 -0.3402
 6879SOL    HW122078   3.525   1.443   7.519  0.7289 -0.1668 -0.3250
 6879SOL    HW222079   3.386   1.415   7.465  0.3225  1.7669 -0.3472
 6880SOL     OW22080   2.636   1.200   7.226 -0.0353 -0.7100  0.3097
 6880SOL    HW122081   2.628   1.247   7.143  0.3147 -0.8343  0.2036
 6880SOL    HW222082   2.690   1.258   7.281  0.9417 -1.2640 -0.0390
 6881SOL     OW22083   3.534   2.588   8.977  0.1994  0.6192  0.1740
 6881SOL    HW122084   3.456   2.573   9.030 -0.6445 -2.1565 -1.6245
 6881SOL    HW222085   3.599   2.526   9.011 -0.6177 -1.8064 -2.2937
 6882SOL     OW22086   3.780   1.032   6.890 -0.3589  0.4711  0.3858
 6882SOL    HW122087   3.850   1.094   6.866 -0.8049  0.4001 -1.2356
 6882SOL    HW222088   3.809   0.948   6.853 -0.9720  0.2935  0.2923
 6883SOL     OW22089   2.237   0.907   9.445  0.1766  0.3016  0.5641
 6883SOL    HW122090   2.164   0.915   9.384  0.9367  1.3780 -0.2629
 6883SOL    HW222091   2.276   0.822   9.425  1.0724  1.0728 -1.2993
 6884SOL     OW22092   2.668   6.882   7.731  0.2083 -0.1599 -0.0860
 6884SOL    HW122093   2.743   6.823   7.731  0.3221 -0.0442  0.8629
 6884SOL    HW222094   2.592   6.824   7.731  0.2927 -0.4636  2.8589
 6885SOL     OW22095   2.101   0.035   9.892 -0.4632  0.6583  0.3277
 6885SOL    HW122096   2.117   0.060   9.801 -2.0095  1.1703  0.1717
 6885SOL    HW222097   2.157   0.093   9.943  2.1429 -1.0927 -0.3059
 6886SOL     OW22098   1.949   1.350   8.442 -0.2424 -0.3773 -0.1038
 6886SOL    HW122099   1.901   1.358   8.524 -1.0920 -1.8152 -0.4349
 6886SOL    HW222100   1.894   1.295   8.387  0.9604 -0.5719 -1.1555
 6887SOL     OW22101   4.058   0.422   7.559  0.7649 -0.3822 -0.5685
 6887SOL    HW122102   4.020   0.388   7.640 -0.8186 -0.8602 -1.4572
 6887SOL    HW222103   4.045   0.517   7.565 -0.9449 -0.5573 -0.9844
 6888SOL     OW22104   3.301   7.995   9.008 -0.5210  0.2559 -0.1003
 6888SOL    HW122105   3.314   7.945   8.927 -0.0638  0.7053 -0.3057
 6888SOL    HW222106   3.207   8.015   9.008 -0.6881 -0.4722 -0.0856
 6889SOL     OW22107   1.719   2.560  10.501 -0.0315 -0.6191  0.3765
 6889SOL    HW122108   1.654   2.628  10.513 -0.3075 -0.9007  0.4817
 6889SOL    HW222109   1.700   2.495  10.569 -0.5065 -1.3695 -0.4429
 6890SOL     OW22110   4.066   7.438   7.278  0.2637  0.3052  0.2463
 6890SOL    HW122111   4.062   7.494   7.355  0.7794 -0.0649  0.5460
 6890SOL    HW222112   3.974   7.424   7.254 -0.2182 -2.9010  3.2352
 6891SOL     OW22113   2.610   0.194   9.453  0.0406  0.4414  0.0279
 6891SOL    HW122114   2.565   0.152   9.380 -0.5278  1.8725 -0.4953
 6891SOL    HW222115   2.659   0.266   9.412  3.3549 -1.3890  0.4925
 6892SOL     OW22116   3.417   7.438   8.013  0.7574  0.2477 -0.1368
 6892SOL    HW122117   3.333   7.424   8.056  0.1655 -1.0958 -1.6325
 6892SOL    HW222118   3.440   7.528   8.034 -0.5809  0.3379  1.0928
 6893SOL     OW22119   2.031   0.573   8.599  0.3248  0.0183  0.0662
 6893SOL    HW122120   1.967   0.506   8.573 -0.3418  1.1343 -1.3124
 6893SOL    HW222121   2.088   0.529   8.661 -0.9179 -1.4377  0.2337
 6894SOL     OW22122   3.441   0.609   7.945  0.6773 -0.4293  0.0046
 6894SOL    HW122123   3.358   0.644   7.912  1.4158  0.1828 -1.2714
 6894SOL    HW222124   3.418   0.567   8.028 -0.8895 -0.2088 -0.2916
 6895SOL     OW22125   1.690   7.819   6.970  0.3953 -0.6614  0.6430
 6895SOL    HW122126   1.761   7.766   6.933 -0.5503 -1.9186  0.5706
 6895SOL    HW222127   1.732   7.872   7.037  1.5272 -0.8610  0.1104
 6896SOL     OW22128   5.866   0.227   7.144 -0.6189  0.0675 -0.3212
 6896SOL    HW122129   5.774   0.211   7.165 -0.7499  1.6342  0.4456
 6896SOL    HW222130   5.914   0.159   7.191 -1.2728  0.4017  0.8471
 6897SOL     OW22131   1.254   1.116  10.380 -0.1324  0.6567 -0.0516
 6897SOL    HW122132   1.303   1.064  10.316  0.7608  1.1529  0.2083
 6897SOL    HW222133   1.205   1.051  10.430  0.7955  0.0597  0.1221
 6898SOL     OW22134   2.935   0.300   8.193 -0.3042  0.9120 -0.7847
 6898SOL    HW122135   2.902   0.225   8.145 -0.0493 -1.6746  2.7159
 6898SOL    HW222136   2.858   0.337   8.237 -0.1620  1.7451 -1.2040
 6899SOL     OW22137   1.995   0.265   9.239 -0.5310  0.0010 -0.3400
 6899SOL    HW122138   2.003   0.297   9.328 -1.1947  0.7763 -0.5486
 6899SOL    HW222139   1.910   0.221   9.237 -1.2398  1.3620 -0.9921
 6900SOL     OW22140   1.842   7.900   9.283  0.1861 -0.0513 -0.5159
 6900SOL    HW122141   1.840   7.967   9.215  0.2251  1.1070  0.5809
 6900SOL    HW222142   1.935   7.889   9.304  0.0553  2.2220  1.7653
 6901SOL     OW22143   2.767   7.408   9.675  0.2300  0.1212  0.1329
 6901SOL    HW122144   2.681   7.425   9.637 -0.4567  0.1792  1.6395
 6901SOL    HW222145   2.782   7.481   9.734  2.8692  1.9556 -2.5223
 6902SOL     OW22146   4.192   0.071  10.768 -0.0931  0.1245 -0.3121
 6902SOL    HW122147   4.268   0.127  10.776 -0.5162  0.6306  0.2850
 6902SOL    HW222148   4.150   0.074  10.855 -0.6118 -0.3962 -0.5328
 6903SOL     OW22149   2.051   0.385  10.192 -0.3877  0.0012  0.4490
 6903SOL    HW122150   1.955   0.388  10.183 -0.3631 -0.3984  0.0322
 6903SOL    HW222151   2.080   0.472  10.163 -0.5356 -0.2755 -0.5613
 6904SOL     OW22152   4.337   1.047   7.974 -0.6188 -0.5023 -0.5891
 6904SOL    HW122153   4.253   1.003   7.970  0.0702 -1.9667  0.2124
 6904SOL    HW222154   4.359   1.050   8.068 -0.2636  0.8403 -0.6862
 6905SOL     OW22155   4.612   6.571   7.064  0.3990 -0.1192  0.3762
 6905SOL    HW122156   4.567   6.497   7.023 -0.0034  0.6499 -0.5670
 6905SOL    HW222157   4.545   6.614   7.117  0.2739  0.4070 -0.2018
 6906SOL     OW22158   3.662   7.697   9.874 -0.0720  0.0530 -0.5117
 6906SOL    HW122159   3.577   7.732   9.900 -0.6779 -0.3904 -1.8128
 6906SOL    HW222160   3.725   7.762   9.905 -0.7303 -0.3077  1.7704
 6907SOL     OW22161   2.022   3.346   8.719  0.0036  0.6216 -0.4551
 6907SOL    HW122162   2.079   3.409   8.675 -0.3137  0.7557 -0.6764
 6907SOL    HW222163   1.934   3.378   8.703 -0.1359  0.4099 -0.1189
 6908SOL     OW22164   2.580   7.609   9.315 -0.1659 -0.4215  0.1409
 6908SOL    HW122165   2.586   7.695   9.274 -1.2597 -0.3568  0.0917
 6908SOL    HW222166   2.651   7.609   9.380 -1.9315  1.7285  2.2990
 6909SOL     OW22167   2.177   7.578   9.898  0.2725 -0.1648 -0.1530
 6909SOL    HW122168   2.244   7.600   9.833 -0.5343 -0.3379 -1.0875
 6909SOL    HW222169   2.163   7.484   9.886  0.2773 -0.2454  0.4478
 6910SOL     OW22170   1.038   1.003   7.917 -0.2335 -0.0922  0.2251
 6910SOL    HW122171   1.058   0.983   8.008 -0.3800 -2.4407 -0.2165
 6910SOL    HW222172   1.123   1.015   7.875 -0.1466  0.3731  0.5304
 6911SOL     OW22173   4.097   7.313   6.865 -0.2952 -0.1217 -0.3634
 6911SOL    HW122174   4.144   7.230   6.872 -1.8957 -1.1354 -1.0483
 6911SOL    HW222175   4.135   7.368   6.933  0.9841 -1.3199 -0.0663
 6912SOL     OW22176   4.505   0.101   7.090 -0.2930 -0.0755 -0.4659
 6912SOL    HW122177   4.560   0.159   7.038 -0.5739 -0.2077 -0.9162
 6912SOL    HW222178   4.459   0.047   7.026  0.6014 -1.3861 -0.0360
 6913SOL     OW22179   3.999   2.351   8.415 -0.1396  0.5952  0.2265
 6913SOL    HW122180   3.993   2.381   8.324  2.8151 -0.6738 -0.4898
 6913SOL    HW222181   4.070   2.403   8.453  2.2999 -2.3618  0.1364
 6914SOL     OW22182   5.075   0.848  10.693 -0.3928  0.2188  0.0024
 6914SOL    HW122183   5.056   0.870  10.602  3.1599  3.6864 -0.1523
 6914SOL    HW222184   5.024   0.909  10.745  0.2882  0.6860  0.1369
 6915SOL     OW22185   1.864   0.274   8.475  0.2882  0.0298  0.1304
 6915SOL    HW122186   1.817   0.331   8.535 -1.3127  1.0643 -1.9800
 6915SOL    HW222187   1.873   0.325   8.395  2.0113 -1.4233 -0.6828
 6916SOL     OW22188   3.670   7.980   8.576  0.4716 -0.0265 -0.8505
 6916SOL    HW122189   3.660   8.061   8.627 -0.2741 -0.8518  0.3657
 6916SOL    HW222190   3.582   7.961   8.544  0.8306  0.1614 -1.9961
 6917SOL     OW22191   1.795   0.527   9.906 -0.1155 -0.3343  0.3144
 6917SOL    HW122192   1.728   0.594   9.894 -0.2674 -0.8582 -2.3211
 6917SOL    HW222193   1.874   0.576   9.931 -0.0038  0.9898 -2.3303
 6918SOL     OW22194   2.674   0.903   7.919 -0.2456  0.6079  0.3077
 6918SOL    HW122195   2.730   0.941   7.851  0.5782  2.2921  1.8530
 6918SOL    HW222196   2.721   0.823   7.946  0.1414  0.6875 -0.1028
 6919SOL     OW22197   2.780   0.117   8.080 -0.6785 -0.1943  0.4518
 6919SOL    HW122198   2.692   0.152   8.063 -0.8255 -0.9492 -0.4526
 6919SOL    HW222199   2.801   0.068   8.001  0.4404 -0.2806  0.7933
 6920SOL     OW22200   2.195   1.015   7.362 -0.1674  0.3121  0.0396
 6920SOL    HW122201   2.137   0.965   7.418 -1.0001  0.6676 -0.4916
 6920SOL    HW222202   2.176   0.985   7.273 -0.5400  1.3966 -0.2707
 6921SOL     OW22203   3.665   1.190   8.413  0.8016  0.4262  0.2154
 6921SOL    HW122204   3.619   1.109   8.436  0.5893  0.3201 -0.5808
 6921SOL    HW222205   3.646   1.249   8.486  0.1443  0.0919  0.3228
 6922SOL     OW22206   4.500   7.814   9.595  0.0176  0.0574 -0.1905
 6922SOL    HW122207   4.515   7.893   9.647 -0.5005  1.2740 -1.8387
 6922SOL    HW222208   4.561   7.750   9.632  0.1560  1.0688  1.4575
 6923SOL     OW22209   2.339   1.125   8.702 -0.3214 -0.1295 -0.5618
 6923SOL    HW122210   2.389   1.192   8.749 -0.6842  0.8226 -1.4892
 6923SOL    HW222211   2.253   1.125   8.743  0.5580 -2.2724  1.5162
 6924SOL     OW22212   3.465   0.857   8.112  0.5217  0.1439 -0.5475
 6924SOL    HW122213   3.515   0.901   8.181  0.9468 -1.2443  0.0649
 6924SOL    HW222214   3.531   0.820   8.054  0.1668  0.4908 -1.1829
 6925SOL     OW22215   2.376   1.406   8.026 -0.1613 -0.3132  0.1718
 6925SOL    HW122216   2.428   1.463   7.969 -1.9783  0.5165 -0.7441
 6925SOL    HW222217   2.438   1.341   8.059  1.3662  0.4487 -1.0979
 6926SOL     OW22218   4.142   0.062   9.139  0.6385  0.9508 -0.0547
 6926SOL    HW122219   4.192   0.034   9.215  0.8403 -0.7153 -0.7586
 6926SOL    HW222220   4.200   0.047   9.064 -0.5420 -0.1610 -0.7925
 6927SOL     OW22221   3.581   7.866   9.513  0.0497 -0.3187  0.0853
 6927SOL    HW122222   3.591   7.770   9.513 -0.3703 -0.3970  1.5018
 6927SOL    HW222223   3.552   7.886   9.603  1.5549  1.2885  0.2449
 6928SOL     OW22224   0.933   7.559  10.687  0.0121 -0.2125  0.5257
 6928SOL    HW122225   1.016   7.543  10.642 -0.5888 -0.4284 -0.5518
 6928SOL    HW222226   0.954   7.549  10.780  1.4251  0.8436  0.3581
 6929SOL     OW22227   4.078   2.036  10.590 -0.4837  0.4819 -0.2986
 6929SOL    HW122228   3.998   1.989  10.567  0.6626 -1.3152 -0.8737
 6929SOL    HW222229   4.119   2.056  10.506 -0.2766  1.3272 -0.0093
 6930SOL     OW22230   3.418   0.311   7.508 -0.0475  0.4685 -0.4207
 6930SOL    HW122231   3.347   0.248   7.524 -0.0656  0.4090 -0.7296
 6930SOL    HW222232   3.384   0.367   7.438  0.7861 -0.4722 -1.6068
 6931SOL     OW22233   3.533   7.719   7.607 -0.0162 -0.1902  0.4816
 6931SOL    HW122234   3.527   7.787   7.539 -1.2336 -1.6780 -1.0033
 6931SOL    HW222235   3.494   7.760   7.684 -0.7096  0.8289 -0.3627
 6932SOL     OW22236   1.080   0.754  11.333  0.1108  0.4859  0.0931
 6932SOL    HW122237   1.097   0.845  11.359  1.6052 -0.2518  1.9374
 6932SOL    HW222238   1.019   0.722  11.400  0.0085 -0.0144 -0.2396
 6933SOL     OW22239   2.802   7.977  11.241 -0.5211  0.2556  0.3282
 6933SOL    HW122240   2.874   7.918  11.265 -1.4195 -1.3965 -0.8613
 6933SOL    HW222241   2.846   8.051  11.199  0.5312 -0.4618  0.1122
 6934SOL     OW22242   2.030   2.301   9.077  0.0696  0.0354  0.0794
 6934SOL    HW122243   1.988   2.221   9.047  1.5423 -1.2426  1.2716
 6934SOL    HW222244   2.123   2.286   9.062  0.5923  0.5123  2.4827
 6935SOL     OW22245   2.897   7.910   6.771 -0.2415 -0.4962  0.2972
 6935SOL    HW122246   2.847   7.990   6.782  1.0795  0.1651  2.0097
 6935SOL    HW222247   2.833   7.845   6.741 -1.4727  1.0057 -0.4529
 6936SOL     OW22248   1.389   0.976   9.001  0.3290  0.2503  0.2333
 6936SOL    HW122249   1.369   0.884   8.984 -1.3963  0.0751  2.6494
 6936SOL    HW222250   1.421   0.977   9.091  0.1723  2.0196  0.3067
 6937SOL     OW22251   2.659   0.291   8.322  0.1124 -0.4813  0.6113
 6937SOL    HW122252   2.580   0.277   8.271  1.4906 -0.0565 -1.7815
 6937SOL    HW222253   2.689   0.202   8.344 -0.0814 -0.7126 -0.0303
 6938SOL     OW22254   2.737   7.058   6.254  0.0451  0.3525  0.3361
 6938SOL    HW122255   2.787   7.122   6.304  0.1973 -0.5156  1.3241
 6938SOL    HW222256   2.793   6.981   6.251 -1.7859 -1.2059  2.8384
 6939SOL     OW22257   3.696   1.048   9.431  0.6979  0.1143  0.5315
 6939SOL    HW122258   3.769   0.986   9.437  0.6573  0.1298  1.2120
 6939SOL    HW222259   3.734   1.126   9.391  0.8027 -0.2579 -0.1156
 6940SOL     OW22260   2.867   0.973   9.032  0.4298 -0.4616 -0.1005
 6940SOL    HW122261   2.775   0.984   9.057  0.1995 -1.9024 -0.1946
 6940SOL    HW222262   2.870   0.995   8.939  0.5488  1.2627  0.2764
 6941SOL     OW22263   2.147   7.890   9.136 -0.2039 -0.1786  0.0549
 6941SOL    HW122264   2.213   7.825   9.111  2.3987  1.5390  1.9621
 6941SOL    HW222265   2.124   7.867   9.226  0.0896  0.9850  0.4418
 6942SOL     OW22266   2.400   0.589   9.653 -0.2896 -0.6334  0.9387
 6942SOL    HW122267   2.364   0.625   9.572  0.2653 -1.4497  0.3017
 6942SOL    HW222268   2.334   0.526   9.682 -0.4843 -0.3480  1.1134
 6943SOL     OW22269   4.085   7.769   6.515  0.4027 -0.4422  0.5555
 6943SOL    HW122270   4.132   7.715   6.452 -0.8367 -0.1142 -0.6996
 6943SOL    HW222271   4.034   7.706   6.566 -1.9728 -0.5093 -1.6852
 6944SOL     OW22272   3.439   1.794   6.789 -0.4243 -0.4005  0.0739
 6944SOL    HW122273   3.439   1.882   6.751  0.7335 -0.6846 -0.6196
 6944SOL    HW222274   3.513   1.750   6.749 -0.7282 -1.5698  0.7375
 6945SOL     OW22275   1.894   2.121   9.902 -0.2021  0.5044  0.2585
 6945SOL    HW122276   1.847   2.045   9.937 -0.3204  0.5156  0.1296
 6945SOL    HW222277   1.976   2.085   9.869  0.0012  0.5280  0.7323
 6946SOL     OW22278   2.170   0.722   9.087 -0.0407 -0.6304 -0.2644
 6946SOL    HW122279   2.224   0.693   9.161 -0.3275 -2.0442 -0.5822
 6946SOL    HW222280   2.224   0.786   9.042 -0.4068  1.3552  1.9441
 6947SOL     OW22281   2.668   1.096   8.517 -0.2196  0.0932  0.0624
 6947SOL    HW122282   2.757   1.109   8.483 -0.2606 -0.2702 -0.1889
 6947SOL    HW222283   2.645   1.180   8.555  0.4569  0.0272  0.6578
 6948SOL     OW22284   1.767   0.690   9.560 -0.4570  0.2595 -0.1867
 6948SOL    HW122285   1.693   0.746   9.538 -2.6027 -1.6784  1.5532
 6948SOL    HW222286   1.768   0.690   9.656 -0.0104 -1.9755 -0.1541
 6949SOL     OW22287   2.741   2.342   8.264  0.4994  0.1892  0.2687
 6949SOL    HW122288   2.767   2.343   8.173  1.4028 -2.4617  0.4176
 6949SOL    HW222289   2.823   2.342   8.313  0.0302  2.6964  1.1810
 6950SOL     OW22290   4.561   7.624   6.172 -0.1163 -0.5491  0.2777
 6950SOL    HW122291   4.503   7.692   6.139  0.4607 -0.1540  0.0718
 6950SOL    HW222292   4.549   7.551   6.112 -1.7396 -1.1358  1.2628
 6951SOL     OW22293   1.493   7.523   6.875 -0.0147  0.2287 -0.2666
 6951SOL    HW122294   1.448   7.485   6.800  0.3313  1.4697 -1.1319
 6951SOL    HW222295   1.450   7.484   6.951  0.7159 -2.3565 -1.0477
 6952SOL     OW22296   3.734   2.331   8.234  0.2668 -0.3879 -0.5615
 6952SOL    HW122297   3.744   2.287   8.319 -0.1850  0.7384  0.1074
 6952SOL    HW222298   3.703   2.263   8.175 -0.1449 -1.0374  0.3772
 6953SOL     OW22299   3.341   1.564   9.068 -0.3479 -0.4912 -0.2116
 6953SOL    HW122300   3.367   1.472   9.060 -0.2140 -0.3672 -1.2992
 6953SOL    HW222301   3.407   1.603   9.125  0.4473 -0.7457 -0.9429
 6954SOL     OW22302   2.177   7.791   8.745  0.6424 -0.6177 -0.0814
 6954SOL    HW122303   2.172   7.717   8.806  0.0280 -1.1386 -0.7474
 6954SOL    HW222304   2.201   7.752   8.662 -2.1975 -0.4954 -1.0778
 6955SOL     OW22305   1.170   1.792   6.826 -0.2645  0.4968  0.0360
 6955SOL    HW122306   1.157   1.798   6.731  0.2118  1.5858  0.0217
 6955SOL    HW222307   1.081   1.793   6.862 -0.4557 -0.1254 -0.4074
 6956SOL     OW22308   1.203   1.405   8.006 -0.4434 -0.1087 -0.2784
 6956SOL    HW122309   1.122   1.359   7.986  0.3412 -0.3850 -3.3758
 6956SOL    HW222310   1.208   1.475   7.941  1.1351  0.7926  0.7330
 6957SOL     OW22311   4.219   2.027   7.724  0.1198  0.0281  0.2971
 6957SOL    HW122312   4.125   2.031   7.743  0.3876 -1.2607  2.1020
 6957SOL    HW222313   4.242   2.117   7.702 -1.5566  0.3423 -0.3475
 6958SOL     OW22314   1.651   0.432   7.950  0.0966 -0.3374  0.1327
 6958SOL    HW122315   1.685   0.522   7.957  0.0988 -0.1990 -1.2264
 6958SOL    HW222316   1.556   0.442   7.954  0.1085 -0.3321  0.4377
 6959SOL     OW22317   4.486   7.553   8.544  0.3404  0.2043 -0.2643
 6959SOL    HW122318   4.559   7.601   8.503 -0.9932  1.0884 -1.7311
 6959SOL    HW222319   4.489   7.466   8.505 -0.3755  0.7668 -1.6404
 6960SOL     OW22320   2.535   2.720   8.836  0.0631  0.3417 -0.2620
 6960SOL    HW122321   2.507   2.674   8.757  2.3451  0.6744 -1.3570
 6960SOL    HW222322   2.585   2.655   8.885 -0.4175  0.4478  0.3817
 6961SOL     OW22323   3.557   2.489   8.093 -0.7572  0.3469 -0.1603
 6961SOL    HW122324   3.538   2.572   8.135 -0.7968  0.4375 -0.3539
 6961SOL    HW222325   3.616   2.444   8.153  0.4092  1.1150 -0.6997
 6962SOL     OW22326   2.381   0.500   7.712 -0.1578 -0.6935  0.2398
 6962SOL    HW122327   2.324   0.467   7.781  1.1446 -1.4748  0.9719
 6962SOL    HW222328   2.419   0.422   7.672  1.2592 -0.1678  0.5158
 6963SOL     OW22329   2.160   0.084   7.627 -0.0560 -0.0807 -0.2718
 6963SOL    HW122330   2.242   0.111   7.585 -1.2132  1.5760 -1.6010
 6963SOL    HW222331   2.122   0.021   7.566 -0.1213 -0.2859 -0.0182
 6964SOL     OW22332   3.009   7.391   8.838  0.3417 -0.1514  0.0795
 6964SOL    HW122333   3.028   7.372   8.746  0.0036 -1.6052  0.2850
 6964SOL    HW222334   2.916   7.410   8.841  0.1269 -1.1745  0.2607
 6965SOL     OW22335   0.889   6.092   7.845 -0.0339  0.6604  0.5008
 6965SOL    HW122336   0.883   6.187   7.836 -0.4366  0.6032  0.1243
 6965SOL    HW222337   0.817   6.058   7.791  0.7266  0.1023 -0.1884
 6966SOL     OW22338   3.247   2.332   8.056 -0.2897 -0.0351 -0.2644
 6966SOL    HW122339   3.232   2.404   7.994 -0.6176  0.3595  0.2610
 6966SOL    HW222340   3.254   2.375   8.141  1.8815 -0.4060 -0.2214
 6967SOL     OW22341   2.249   6.688   8.588 -0.4039 -0.8942  0.4847
 6967SOL    HW122342   2.191   6.615   8.565  0.0456 -0.8447 -0.9066
 6967SOL    HW222343   2.311   6.650   8.650  0.1331 -1.8717 -0.6001
 6968SOL     OW22344   4.324   1.076   9.033  0.4511  0.1008 -0.0346
 6968SOL    HW122345   4.372   1.096   9.113  0.3443 -1.1660  0.3644
 6968SOL    HW222346   4.366   1.129   8.966  1.9914 -0.4765  0.4348
 6969SOL     OW22347   3.737   1.049   8.979  0.6618  0.3382  0.4504
 6969SOL    HW122348   3.763   0.978   9.037 -1.6280  0.1706  1.3944
 6969SOL    HW222349   3.701   1.116   9.037 -0.4717  0.7361 -0.6575
 6970SOL     OW22350   2.511   1.968   7.464 -0.4205  0.4162 -0.5689
 6970SOL    HW122351   2.418   1.982   7.480 -0.7820 -0.9619 -1.2930
 6970SOL    HW222352   2.520   1.970   7.369  0.0236 -0.8819 -0.5760
 6971SOL     OW22353   3.319   1.241   8.912  0.3300 -0.2010  0.2139
 6971SOL    HW122354   3.338   1.190   8.834  1.6118  2.2321 -1.1984
 6971SOL    HW222355   3.401   1.242   8.961 -0.3479 -1.3716  1.4307
 6972SOL     OW22356   5.138   7.525   9.209  0.3452 -0.0865 -0.4236
 6972SOL    HW122357   5.106   7.606   9.249  0.8496  1.2753 -2.5930
 6972SOL    HW222358   5.070   7.501   9.145  0.7444 -0.7026 -0.6257
 6973SOL     OW22359   1.730   7.385   6.797  0.6920 -0.1649 -0.3869
 6973SOL    HW122360   1.823   7.406   6.795  0.6539  0.0597 -0.0108
 6973SOL    HW222361   1.687   7.470   6.807  0.4669 -0.2999 -0.2020
 6974SOL     OW22362   2.717   0.230   7.244  0.1914  0.6077 -0.0968
 6974SOL    HW122363   2.683   0.318   7.258 -0.0955  0.5709 -0.5457
 6974SOL    HW222364   2.666   0.195   7.171 -1.8484 -1.0648  1.9825
 6975SOL     OW22365   2.855   7.555   8.493  0.4433 -0.1808 -0.0593
 6975SOL    HW122366   2.924   7.620   8.500 -0.1450  0.3458  1.0426
 6975SOL    HW222367   2.795   7.576   8.564 -0.6439 -0.8799 -0.7480
 6976SOL     OW22368   3.327   0.697   8.290 -0.0833  0.1537  0.0129
 6976SOL    HW122369   3.255   0.756   8.314  1.3463  1.2122  1.9909
 6976SOL    HW222370   3.383   0.750   8.233  0.4365  0.2286  0.5849
 6977SOL     OW22371   2.946   0.326   8.761 -0.3176  0.6712 -0.2859
 6977SOL    HW122372   2.857   0.292   8.750  0.4016 -0.9252 -1.5742
 6977SOL    HW222373   2.942   0.377   8.842 -1.8706 -1.2475  0.9406
 6978SOL     OW22374   3.536   0.551   9.096 -0.2998  0.4257  0.1467
 6978SOL    HW122375   3.440   0.543   9.093 -0.3587  1.4803 -1.5613
 6978SOL    HW222376   3.552   0.627   9.151 -0.4256  0.1554  0.5633
 6979SOL     OW22377   2.113   7.943   8.098 -0.1377 -0.0784  0.3133
 6979SOL    HW122378   2.182   7.879   8.078 -0.0420 -0.4641  1.7857
 6979SOL    HW222379   2.038   7.914   8.047  0.8354  0.5229 -1.5618
 6980SOL     OW22380   3.846   1.300   6.528  0.3057  0.6261 -0.2836
 6980SOL    HW122381   3.773   1.300   6.590  0.0153  0.5388 -0.6243
 6980SOL    HW222382   3.915   1.350   6.572 -0.5004  2.0846 -0.6045
 6981SOL     OW22383   3.026   1.069   8.292  0.3179 -0.4608 -0.1596
 6981SOL    HW122384   3.054   1.111   8.374  0.4466 -0.0433 -0.4114
 6981SOL    HW222385   2.990   1.141   8.240 -0.4701 -0.8620 -0.1669
 6982SOL     OW22386   1.425   0.833   7.862  0.0939  0.0512 -0.0980
 6982SOL    HW122387   1.458   0.802   7.778 -0.6060  2.8483 -1.5451
 6982SOL    HW222388   1.398   0.924   7.845  0.3890  0.9175  3.2743
 6983SOL     OW22389   1.556   3.872   9.073  0.4165  0.2371 -0.1348
 6983SOL    HW122390   1.596   3.864   8.987  0.4592 -1.5077  0.0173
 6983SOL    HW222391   1.595   3.951   9.111  1.0284  0.5471 -1.3731
 6984SOL     OW22392   1.788   7.768   6.352  0.1816 -0.1762  0.1841
 6984SOL    HW122393   1.828   7.681   6.344  1.1052  0.3227 -0.7830
 6984SOL    HW222394   1.863   7.828   6.356 -0.4329  0.5307  1.5559
 6985SOL     OW22395   4.665   1.071   8.996 -0.5865  0.0210 -0.3576
 6985SOL    HW122396   4.616   0.989   8.992 -0.1761 -0.2689  0.3813
 6985SOL    HW222397   4.708   1.077   8.910  0.6084 -1.3247  0.0928
 6986SOL     OW22398   2.840   6.941   8.268 -0.2321 -0.0820  0.2948
 6986SOL    HW122399   2.746   6.924   8.274 -0.0896 -0.7558  0.6226
 6986SOL    HW222400   2.882   6.863   8.304  0.4226  1.2427  2.6281
 6987SOL     OW22401   3.350   1.077   7.249  0.3619  0.2590 -0.0357
 6987SOL    HW122402   3.426   1.135   7.253  0.9981 -0.5641  0.0899
 6987SOL    HW222403   3.280   1.128   7.290  0.9208  0.9044  0.1603
 6988SOL     OW22404   4.702   6.012   8.306 -0.0698  0.2165 -0.1081
 6988SOL    HW122405   4.614   5.984   8.332  0.3305  0.3763  1.5300
 6988SOL    HW222406   4.699   6.107   8.309 -0.2537  0.2804 -1.5932
 6989SOL     OW22407   1.886   7.704   8.422 -0.2230  0.2539 -0.0068
 6989SOL    HW122408   1.942   7.782   8.417 -1.5931  1.2040 -1.3813
 6989SOL    HW222409   1.804   7.736   8.460 -0.4873 -0.7303  0.2799
 6990SOL     OW22410   2.873   1.377   6.928 -0.4099 -0.0172 -0.9168
 6990SOL    HW122411   2.856   1.301   6.872 -2.1217  1.3310 -2.3283
 6990SOL    HW222412   2.790   1.394   6.972  1.1467 -1.8148  3.2746
 6991SOL     OW22413   2.369   1.962   8.404  0.0907 -0.6966 -0.1224
 6991SOL    HW122414   2.462   1.940   8.395  0.2125 -0.7887  1.1763
 6991SOL    HW222415   2.351   1.951   8.497 -1.2725 -0.8438 -0.3849
 6992SOL     OW22416   2.690   7.863   9.244  0.0418  0.3354 -0.1399
 6992SOL    HW122417   2.626   7.933   9.227  0.2451  0.1032 -2.0320
 6992SOL    HW222418   2.738   7.854   9.162 -0.0519 -2.1210  0.0167
 6993SOL     OW22419   2.985   7.145   8.400 -0.1402  0.1895 -0.4506
 6993SOL    HW122420   3.054   7.155   8.334 -1.0734  0.7128 -1.3584
 6993SOL    HW222421   2.921   7.086   8.361  0.0109 -0.7111  0.5950
 6994SOL     OW22422   3.898   0.794   6.785 -0.3491 -0.4966  0.2870
 6994SOL    HW122423   3.977   0.742   6.798 -0.3927 -0.7104 -0.2673
 6994SOL    HW222424   3.828   0.729   6.779 -0.1749 -0.5382 -2.2689
 6995SOL     OW22425   0.383   1.080   7.003  0.1918  0.2724  0.1775
 6995SOL    HW122426   0.470   1.084   6.964  0.1069 -0.5025 -0.1131
 6995SOL    HW222427   0.324   1.109   6.933  0.1460 -0.0088  0.0963
 6996SOL     OW22428   1.957   0.481   7.611 -0.1944 -0.0529  0.3891
 6996SOL    HW122429   1.946   0.401   7.559  0.7798  0.1160 -0.0971
 6996SOL    HW222430   2.010   0.538   7.555  0.9374  0.1089  1.5923
 6997SOL     OW22431   0.756   0.115  10.254 -0.1319  0.3848 -0.5323
 6997SOL    HW122432   0.806   0.035  10.271 -1.6386 -0.1703  1.7981
 6997SOL    HW222433   0.670   0.083  10.227  0.3369  1.3154 -3.4398
 6998SOL     OW22434   2.937   0.029   9.850 -0.1970  0.4199 -0.0008
 6998SOL    HW122435   2.899   0.046   9.764 -0.6515 -0.7874 -0.0532
 6998SOL    HW222436   2.875  -0.031   9.892 -0.7624  2.0838  1.7414
 6999SOL     OW22437   2.532   7.909  11.577 -0.8244  0.4451 -0.2966
 6999SOL    HW122438   2.563   7.890  11.488  0.5026 -2.2107  0.6310
 6999SOL    HW222439   2.453   7.856  11.586 -0.3548 -0.1360  0.4463
 7000SOL     OW22440   3.697   1.417  10.889  0.1326  0.1414 -0.4829
 7000SOL    HW122441   3.746   1.385  10.813 -1.4565 -1.2596 -0.9726
 7000SOL    HW222442   3.654   1.339  10.925 -0.8379  1.1246  0.5973
 7001SOL     OW22443   4.832   0.984  10.031  0.5288 -0.6114 -0.6475
 7001SOL    HW122444   4.808   0.938   9.951 -2.7145 -1.5250  0.6882
 7001SOL    HW222445   4.859   0.915  10.091 -1.5952 -0.5961  0.4418
 7002SOL     OW22446   1.941   7.781   9.919 -0.0121 -0.3857  0.1864
 7002SOL    HW122447   2.003   7.711   9.900 -0.0035  0.0261 -1.5140
 7002SOL    HW222448   1.992   7.861   9.908 -0.2278 -0.0784  1.3039
 7003SOL     OW22449   2.159   0.603  10.424 -0.2504  0.4302 -0.4091
 7003SOL    HW122450   2.144   0.522  10.473 -1.4842  0.2675 -1.0298
 7003SOL    HW222451   2.090   0.662  10.454 -0.7020  0.5003 -1.5647
 7004SOL     OW22452   1.798   1.108   9.878  0.3507  0.4778 -0.0625
 7004SOL    HW122453   1.716   1.072   9.844  0.4583  0.3854 -0.2191
 7004SOL    HW222454   1.784   1.113   9.973  0.5644 -0.5579  0.0295
 7005SOL     OW22455   3.593   0.435  10.849 -0.4350 -0.0376 -0.2935
 7005SOL    HW122456   3.678   0.478  10.847 -1.7794  3.3171  2.6853
 7005SOL    HW222457   3.600   0.369  10.918 -0.0415 -0.2970 -0.5840
 7006SOL     OW22458   1.815   0.897  10.829 -0.5051  0.2137  0.0410
 7006SOL    HW122459   1.839   0.834  10.762 -1.2633  0.2245 -0.2520
 7006SOL    HW222460   1.774   0.845  10.899 -0.8741  0.3424 -0.0759
 7007SOL     OW22461   3.882   1.931  11.674  0.1392 -0.5008  0.3118
 7007SOL    HW122462   3.878   1.986  11.595  0.7508 -1.2777 -0.2697
 7007SOL    HW222463   3.868   1.993  11.746  2.2347  0.7078 -0.2320
 7008SOL     OW22464   2.518   2.459   9.247  0.3531 -0.1646  0.1002
 7008SOL    HW122465   2.600   2.502   9.272 -0.1096  0.7683  0.0355
 7008SOL    HW222466   2.452   2.499   9.304  0.0667 -1.5174  0.7551
 7009SOL     OW22467   3.006   2.183   9.327  0.3168  0.5780  0.5565
 7009SOL    HW122468   3.062   2.188   9.250 -1.4507  3.7263 -0.7213
 7009SOL    HW222469   2.917   2.177   9.292 -0.4289 -0.6377  2.4531
 7010SOL     OW22470   2.835   5.362   0.005  0.0785  0.3827 -0.1767
 7010SOL    HW122471   2.877   5.276   0.017 -1.1311 -0.3016 -0.7024
 7010SOL    HW222472   2.837   5.401   0.093 -1.0277 -0.9860  0.4996
 7011SOL     OW22473   3.669   1.739  10.306  0.8237 -0.2806  0.3978
 7011SOL    HW122474   3.627   1.816  10.270  1.1513  0.0779  0.7733
 7011SOL    HW222475   3.617   1.716  10.383  2.0247  0.9344  1.6283
 7012SOL     OW22476   2.898   2.887   8.746  0.3880 -0.5703 -0.4035
 7012SOL    HW122477   2.816   2.876   8.793  0.1272 -1.3338 -1.0245
 7012SOL    HW222478   2.896   2.979   8.717 -0.4347 -0.7012 -0.7740
 7013SOL     OW22479   3.444   3.937  11.289  0.0027  0.0781  0.3997
 7013SOL    HW122480   3.476   3.855  11.252  0.0685  0.0845  0.4421
 7013SOL    HW222481   3.477   4.005  11.230 -1.3198 -0.0288 -0.4940
 7014SOL     OW22482   0.957   1.940   9.474 -0.4612 -0.3018  0.2574
 7014SOL    HW122483   1.000   1.921   9.391 -1.3935  0.2072 -0.3495
 7014SOL    HW222484   0.913   1.858   9.498 -0.9349 -0.1852 -0.2063
 7015SOL     OW22485   2.617   0.991   9.975 -0.0158 -0.3572 -0.1609
 7015SOL    HW122486   2.682   0.967  10.042 -0.8403 -0.0840  0.7540
 7015SOL    HW222487   2.577   0.908   9.950  0.9542 -0.5823 -1.0354
 7016SOL     OW22488   1.926   1.704  10.286 -0.3014 -0.1865  0.4196
 7016SOL    HW122489   2.010   1.737  10.255 -0.2756  1.1922  1.8318
 7016SOL    HW222490   1.884   1.779  10.328 -1.6597 -1.1772  0.9230
 7017SOL     OW22491   2.086   7.179   8.736  0.1431 -0.2828  0.1220
 7017SOL    HW122492   2.107   7.088   8.718 -0.4426 -0.2192 -0.9272
 7017SOL    HW222493   2.107   7.190   8.829  0.1144 -1.5026  0.2879
 7018SOL     OW22494   3.619   1.325  11.627 -0.3819 -0.7465  0.1168
 7018SOL    HW122495   3.703   1.305  11.669  0.4576  0.4247 -0.9185
 7018SOL    HW222496   3.590   1.406  11.669 -1.9436 -2.0641  1.7351
 7019SOL     OW22497   2.675   0.703   8.731 -0.1742  0.2853  0.4544
 7019SOL    HW122498   2.673   0.793   8.764 -0.6540 -0.2763  2.0287
 7019SOL    HW222499   2.658   0.649   8.808  1.7718 -1.2583 -0.1404
 7020SOL     OW22500   3.237   1.614  10.234  0.4773 -0.0311 -0.0433
 7020SOL    HW122501   3.245   1.708  10.249 -2.1818  0.2917 -0.2080
 7020SOL    HW222502   3.255   1.575  10.320  2.8695  0.4480 -0.2424
 7021SOL     OW22503   1.889   7.920   7.911 -1.0771  0.1015  0.2272
 7021SOL    HW122504   1.855   7.867   7.839 -3.0589  0.7487  0.6128
 7021SOL    HW222505   1.953   7.978   7.871  1.3492 -2.6096 -0.1733
 7022SOL     OW22506   3.702   7.478   8.991  0.1713  0.4908  0.0163
 7022SOL    HW122507   3.694   7.551   8.930  0.8312  0.3977 -0.1890
 7022SOL    HW222508   3.647   7.503   9.066 -2.4304 -0.3549 -1.4849
 7023SOL     OW22509   2.229   1.474   9.109 -0.0321 -0.4114 -0.1319
 7023SOL    HW122510   2.322   1.496   9.103  0.1617 -1.4143 -1.1857
 7023SOL    HW222511   2.194   1.493   9.021 -1.5290  2.8035  1.0071
 7024SOL     OW22512   2.236   1.532   9.970  0.3948  0.1363 -0.1604
 7024SOL    HW122513   2.158   1.563  10.016  0.4416 -1.1756  0.8472
 7024SOL    HW222514   2.264   1.455  10.019  3.1030  1.3089  0.3269
 7025SOL     OW22515   1.931   1.049   9.648 -0.1164 -0.0358 -0.1370
 7025SOL    HW122516   1.895   1.071   9.734 -0.5274  1.0613 -0.5807
 7025SOL    HW222517   1.974   1.128   9.618  0.6193 -0.6198 -0.6594
 7026SOL     OW22518   3.574   2.725  11.839  0.0929 -0.4776  0.2093
 7026SOL    HW122519   3.513   2.798  11.844 -0.5676 -1.0321  0.2832
 7026SOL    HW222520   3.661   2.766  11.847 -0.2331  0.3664 -0.4996
 7027SOL     OW22521   3.014   1.247   9.547 -0.4790 -0.2780 -0.1175
 7027SOL    HW122522   3.089   1.267   9.490  0.3351 -0.5554  0.8169
 7027SOL    HW222523   2.991   1.331   9.586 -0.8715 -0.1335 -0.6523
 7028SOL     OW22524   1.296   1.327  10.048 -0.1140 -0.1482  0.4348
 7028SOL    HW122525   1.202   1.339  10.066  0.3099  0.9509  2.2248
 7028SOL    HW222526   1.308   1.361   9.960 -1.1870  1.0275  0.7105
 7029SOL     OW22527   2.929   0.776   8.628  0.2533  0.0596  0.4350
 7029SOL    HW122528   2.983   0.744   8.700 -1.6272  2.3611  3.0773
 7029SOL    HW222529   2.841   0.743   8.647 -0.0158 -0.8690 -1.9566
 7030SOL     OW22530   3.047   2.679  11.730 -0.0325  0.4275  0.2445
 7030SOL    HW122531   3.072   2.712  11.817 -0.6344 -1.8652  1.3814
 7030SOL    HW222532   3.122   2.626  11.702 -0.6624 -0.5616  0.3693
 7031SOL     OW22533   1.731   0.274   9.958 -0.0406 -0.0043 -0.3939
 7031SOL    HW122534   1.750   0.363   9.928  0.0294 -0.3450 -1.4086
 7031SOL    HW222535   1.687   0.233   9.883 -1.0254 -0.5089  0.4300
 7032SOL     OW22536   1.916   1.671   9.834  0.8254 -0.5759  0.6075
 7032SOL    HW122537   1.927   1.618   9.755 -1.0098 -0.3929  0.1909
 7032SOL    HW222538   1.861   1.618   9.891  1.3784 -0.3126  1.4107
 7033SOL     OW22539   2.972   1.685  10.244  0.5681 -0.2182 -0.1599
 7033SOL    HW122540   2.929   1.664  10.161  0.5081  0.4120 -0.2949
 7033SOL    HW222541   3.063   1.660  10.230  0.6989  0.4878 -0.6614
 7034SOL     OW22542   1.632   7.393  10.114 -0.0076  0.7654  0.7293
 7034SOL    HW122543   1.543   7.358  10.119  0.5308 -0.9122 -0.4087
 7034SOL    HW222544   1.673   7.366  10.196  0.0333 -0.2726  0.3833
 7035SOL     OW22545   4.672   7.630   9.731  0.0641  0.1074  0.1452
 7035SOL    HW122546   4.623   7.549   9.717 -1.3216  0.8930  0.3215
 7035SOL    HW222547   4.714   7.618   9.816  2.1694 -1.5183 -1.0132
 7036SOL     OW22548   1.475   0.696   9.327  0.6200 -0.0144  0.3131
 7036SOL    HW122549   1.413   0.627   9.304  1.9342 -0.6824 -1.4759
 7036SOL    HW222550   1.482   0.693   9.422  1.0351 -2.7155  0.2585
 7037SOL     OW22551   3.947   2.310  10.471  0.8548 -0.1368 -0.5277
 7037SOL    HW122552   4.000   2.264  10.405 -0.1831  0.8785 -2.1440
 7037SOL    HW222553   4.008   2.371  10.512  2.1756 -2.5719  1.4113
 7038SOL     OW22554   3.332   0.937  10.214 -0.1292 -0.6299  0.3493
 7038SOL    HW122555   3.358   0.888  10.292 -1.2561 -0.5863  0.7735
 7038SOL    HW222556   3.308   1.024  10.248 -2.2890 -1.1314  0.2279
 7039SOL     OW22557   5.017   0.320  10.680 -0.7454 -0.6087  0.0909
 7039SOL    HW122558   5.088   0.306  10.742 -0.7806  0.0774  0.2958
 7039SOL    HW222559   4.999   0.414  10.685 -1.4957 -0.7313 -0.1422
 7040SOL     OW22560   2.956   1.383  11.416 -0.7822 -0.1469 -0.2451
 7040SOL    HW122561   3.005   1.459  11.447  0.1420 -0.4277 -0.9861
 7040SOL    HW222562   2.868   1.396  11.452  0.1125 -0.2797  2.2043
 7041SOL     OW22563   3.831   0.800  10.918 -0.2871 -0.1890  0.2266
 7041SOL    HW122564   3.855   0.711  10.941 -1.1131 -0.3434  0.5311
 7041SOL    HW222565   3.914   0.846  10.907  0.1594 -1.1707 -0.6276
 7042SOL     OW22566   2.899   1.226  10.062 -0.1128 -0.2898 -0.4115
 7042SOL    HW122567   2.991   1.238  10.085  0.0327 -1.1549 -0.5240
 7042SOL    HW222568   2.851   1.259  10.138  0.2852  0.0878 -0.3199
 7043SOL     OW22569   1.097   3.431  10.166 -0.0939 -0.6185 -0.1309
 7043SOL    HW122570   1.124   3.439  10.257 -1.0071 -0.1358  0.1021
 7043SOL    HW222571   1.167   3.380  10.125  1.1483  0.5385  0.4760
 7044SOL     OW22572   3.285   0.245   9.376  0.1819  0.2374  0.5982
 7044SOL    HW122573   3.251   0.276   9.292  1.7786  0.1405 -0.1205
 7044SOL    HW222574   3.277   0.149   9.371  0.3023  0.2299  0.5336
 7045SOL     OW22575   5.813   0.071  11.628 -0.1367 -0.1103 -0.1866
 7045SOL    HW122576   5.776  -0.005  11.584  2.2000 -0.7141 -1.2711
 7045SOL    HW222577   5.842   0.038  11.713 -0.9368  0.0666  0.1595
 7046SOL     OW22578   3.331   7.986   9.379 -0.2984  0.0426 -0.1504
 7046SOL    HW122579   3.266   7.927   9.417 -1.2444  0.2705 -1.3428
 7046SOL    HW222580   3.415   7.945   9.398 -0.6521  0.3329  2.4758
 7047SOL     OW22581   1.702   2.341  10.655 -0.3314 -0.1350  0.4126
 7047SOL    HW122582   1.682   2.299  10.572  0.1087  0.2182  0.1221
 7047SOL    HW222583   1.776   2.290  10.690  0.7764  0.8877 -0.3481
 7048SOL     OW22584   2.725   0.523   9.550  0.1064  0.6077  0.2807
 7048SOL    HW122585   2.724   0.485   9.462  0.7050  0.6620  0.2466
 7048SOL    HW222586   2.754   0.613   9.537 -0.9759  0.9898  0.4016
 7049SOL     OW22587   1.241   2.277  10.832 -0.6890 -0.3187 -1.0235
 7049SOL    HW122588   1.317   2.232  10.867  1.6302  2.8135 -1.5994
 7049SOL    HW222589   1.250   2.270  10.737 -1.5162 -0.4961 -1.0994
 7050SOL     OW22590   2.809   1.629  10.583 -0.3278 -0.3000 -0.0148
 7050SOL    HW122591   2.731   1.618  10.528  0.0616  0.4450 -0.7527
 7050SOL    HW222592   2.780   1.607  10.671 -1.1585 -0.8339 -0.4034
 7051SOL     OW22593   1.396   0.331  11.136  0.2005  0.3342  0.1635
 7051SOL    HW122594   1.367   0.404  11.191  1.8584 -0.3509  2.0651
 7051SOL    HW222595   1.373   0.253  11.187  0.6049 -0.3930 -0.7436
 7052SOL     OW22596   0.906   0.332   8.761  0.5617 -0.0190  0.0222
 7052SOL    HW122597   0.961   0.291   8.695  1.1986  0.8210  0.0224
 7052SOL    HW222598   0.913   0.274   8.838  0.8056 -0.3327 -0.2345
 7053SOL     OW22599   1.889   1.856  11.291 -0.4528 -0.1396  0.3811
 7053SOL    HW122600   1.893   1.815  11.377 -1.8271  0.5358  0.7856
 7053SOL    HW222601   1.898   1.783  11.229  0.8214 -0.5925  1.0693
 7054SOL     OW22602   2.312   1.047   8.035 -0.6369 -0.2486  0.0556
 7054SOL    HW122603   2.404   1.073   8.040 -0.5957 -0.5755  1.1314
 7054SOL    HW222604   2.267   1.105   8.096 -0.9663 -0.8526  0.3937
 7055SOL     OW22605   1.370   7.839  11.249 -0.1530  0.0612 -0.9049
 7055SOL    HW122606   1.312   7.800  11.184 -0.2264 -1.0725 -0.1901
 7055SOL    HW222607   1.391   7.767  11.309 -0.5613  1.1926  0.6664
 7056SOL     OW22608   2.458   0.740   7.908 -0.0980 -0.1063 -0.1481
 7056SOL    HW122609   2.534   0.799   7.914  0.5227 -0.3589 -3.4788
 7056SOL    HW222610   2.409   0.773   7.833 -2.3162 -1.1107  0.7880
 7057SOL     OW22611   1.586   1.534   9.729  0.0720  0.0005 -0.1280
 7057SOL    HW122612   1.495   1.505   9.729 -0.0304  0.3195  0.0176
 7057SOL    HW222613   1.631   1.469   9.783  0.1385 -0.7812 -1.1092
 7058SOL     OW22614   3.978   6.617   7.668 -0.4840  0.5242  0.3268
 7058SOL    HW122615   3.909   6.683   7.661 -0.4943  0.4368 -0.5865
 7058SOL    HW222616   4.013   6.611   7.579  0.0469 -0.1308  0.5776
 7059SOL     OW22617   2.161   1.609  11.096  0.1599 -0.7772 -0.0587
 7059SOL    HW122618   2.132   1.668  11.166  1.5409  0.2140 -0.2938
 7059SOL    HW222619   2.210   1.664  11.036 -0.1488 -1.8099 -1.3157
 7060SOL     OW22620   2.995   1.809   9.580  0.9560  0.0898  0.1764
 7060SOL    HW122621   2.956   1.725   9.603  0.0080  1.0386  2.2984
 7060SOL    HW222622   3.036   1.794   9.495 -0.2318 -2.1663 -0.0725
 7061SOL     OW22623   2.746   0.140   9.125  0.1530 -0.0861  0.1140
 7061SOL    HW122624   2.797   0.220   9.114  0.6441 -0.2382  1.1100
 7061SOL    HW222625   2.797   0.088   9.186 -0.8046 -0.5889  0.5092
 7062SOL     OW22626   3.732   0.607  10.295  0.3183 -0.3971 -0.1507
 7062SOL    HW122627   3.749   0.690  10.250 -0.2374 -0.7651 -1.0619
 7062SOL    HW222628   3.768   0.540  10.236 -1.2589 -0.9567 -0.5266
 7063SOL     OW22629   1.322   0.301   9.986 -0.2780 -0.0245 -0.6191
 7063SOL    HW122630   1.242   0.256   9.957  0.4356 -0.9295 -1.2435
 7063SOL    HW222631   1.331   0.376   9.926  0.3849 -1.0422 -1.8410
 7064SOL     OW22632   2.999   0.668   0.576 -0.1582 -0.5001  0.0799
 7064SOL    HW122633   3.055   0.738   0.611  0.6062 -0.9137 -0.2833
 7064SOL    HW222634   2.987   0.608   0.650 -1.2419  0.2529  0.5422
 7065SOL     OW22635   3.967   1.660   9.871  0.4545 -0.2963 -0.1587
 7065SOL    HW122636   3.899   1.657   9.939 -0.0208  0.2947 -0.6029
 7065SOL    HW222637   3.979   1.753   9.852  1.5075 -0.3836  0.0183
 7066SOL     OW22638   5.006   3.828  11.708 -0.2367  0.1404 -0.2357
 7066SOL    HW122639   5.056   3.751  11.681  0.5893  0.0851  1.3006
 7066SOL    HW222640   5.025   3.894  11.642  1.0414 -0.2115 -0.2477
 7067SOL     OW22641   4.514   2.055   9.303  0.2845  0.0916  0.2314
 7067SOL    HW122642   4.541   2.143   9.275  1.6369 -0.5723 -0.6594
 7067SOL    HW222643   4.457   2.024   9.234  1.7620 -0.6424 -0.7138
 7068SOL     OW22644   3.031   7.462  10.847 -0.1948  0.0280 -0.1301
 7068SOL    HW122645   3.078   7.514  10.781  1.8849 -1.3005  0.2346
 7068SOL    HW222646   3.023   7.521  10.922 -0.8869  0.9190 -0.8768
 7069SOL     OW22647   1.589   0.551  10.567  0.2029 -0.0818 -0.2094
 7069SOL    HW122648   1.559   0.542  10.476 -0.9143  0.5119  0.0873
 7069SOL    HW222649   1.548   0.477  10.613  0.6520 -0.2988 -0.1478
 7070SOL     OW22650   2.779   3.802   9.891  0.0161  0.6395  0.1745
 7070SOL    HW122651   2.730   3.884   9.888 -0.2022  0.5911  1.8593
 7070SOL    HW222652   2.871   3.829   9.897 -0.1198  0.8002  1.8443
 7071SOL     OW22653   1.942   7.286  10.191 -0.4071 -0.6821 -0.0122
 7071SOL    HW122654   1.949   7.196  10.223 -0.9995 -0.3563  1.0896
 7071SOL    HW222655   1.852   7.312  10.211  0.5826  1.1979  2.6369
 7072SOL     OW22656   3.213   7.129   9.533  0.1626  0.1362  0.5837
 7072SOL    HW122657   3.260   7.052   9.501 -0.0274  0.1291  0.3126
 7072SOL    HW222658   3.142   7.093   9.586  1.8776  0.1911  3.0600
 7073SOL     OW22659   3.133   1.169  10.247 -0.3437  0.4034 -0.3026
 7073SOL    HW122660   3.080   1.101  10.206 -0.7274  1.5059 -1.7120
 7073SOL    HW222661   3.104   1.169  10.339 -1.0665 -0.6271 -0.5140
 7074SOL     OW22662   4.388   3.014   0.360  0.9272  0.1371  0.0653
 7074SOL    HW122663   4.311   3.021   0.417  1.4183 -1.7057  1.0694
 7074SOL    HW222664   4.426   3.101   0.360  0.8135  0.2640  2.5222
 7075SOL     OW22665   1.672   7.913  10.162 -0.5051  0.3196  0.1544
 7075SOL    HW122666   1.730   7.988  10.154 -0.7843  0.4883 -0.3282
 7075SOL    HW222667   1.713   7.844  10.110 -1.0438  0.6361 -0.7196
 7076SOL     OW22668   3.337   2.211  10.303 -0.3629 -0.4813 -0.5629
 7076SOL    HW122669   3.246   2.191  10.325 -0.3746  0.2036  0.0377
 7076SOL    HW222670   3.331   2.286  10.244 -0.1689 -0.1079 -0.1146
 7077SOL     OW22671   2.152   7.509   8.830  0.6656  0.2884  0.4867
 7077SOL    HW122672   2.125   7.486   8.742 -0.3241  2.2909  0.2065
 7077SOL    HW222673   2.236   7.465   8.842 -0.2213 -1.7927 -0.6052
 7078SOL     OW22674   3.046   1.085  10.863  0.0939  0.3192  0.0883
 7078SOL    HW122675   3.087   1.074  10.948 -0.2635  0.8349  0.3335
 7078SOL    HW222676   3.048   1.179  10.847  0.2239  0.2202 -0.5078
 7079SOL     OW22677   2.578   0.214  11.398 -0.6195  0.3295  0.3742
 7079SOL    HW122678   2.662   0.184  11.434 -0.4000  0.1141 -0.3025
 7079SOL    HW222679   2.572   0.306  11.425 -0.1034  0.3814  0.3196
 7080SOL     OW22680   2.546   1.052  10.247 -0.2693  0.3463 -0.2439
 7080SOL    HW122681   2.496   1.133  10.255 -3.9063 -1.5330 -1.6845
 7080SOL    HW222682   2.573   1.050  10.155  2.1423  1.0037  0.3574
 7081SOL     OW22683   0.554   1.164  10.524 -0.4235  0.8405  0.2199
 7081SOL    HW122684   0.564   1.083  10.575 -1.1649 -0.2630 -1.3018
 7081SOL    HW222685   0.462   1.188  10.534 -0.7602  0.1977 -1.1428
 7082SOL     OW22686   2.892   1.013   8.747 -0.5489 -0.2621  0.1270
 7082SOL    HW122687   2.893   0.949   8.675 -0.0235  1.3158 -1.3365
 7082SOL    HW222688   2.941   1.088   8.713  0.8164  0.0698  2.6231
 7083SOL     OW22689   1.924   0.361  10.479 -0.5368  0.3186 -0.1992
 7083SOL    HW122690   1.874   0.363  10.397 -1.2697  0.2510  0.2389
 7083SOL    HW222691   1.859   0.378  10.547  0.1794  1.0009  0.3226
 7084SOL     OW22692   3.380   7.997  10.500  0.0859 -0.4328  0.5076
 7084SOL    HW122693   3.325   8.050  10.443  0.6297 -1.2681 -0.8464
 7084SOL    HW222694   3.330   7.987  10.581  0.0191  2.2261  0.8850
 7085SOL     OW22695   1.100   1.722   9.760  0.1547  0.1994 -0.1829
 7085SOL    HW122696   1.090   1.765   9.845  0.0969  1.7905 -0.9439
 7085SOL    HW222697   1.170   1.658   9.773  1.1396  1.4016  0.7271
 7086SOL     OW22698   3.851   2.121   0.380  0.0990  0.1753  0.1901
 7086SOL    HW122699   3.889   2.034   0.391 -0.0009  0.0980 -0.0709
 7086SOL    HW222700   3.870   2.144   0.289  0.5626  0.6353  0.3975
 7087SOL     OW22701   3.052   7.189  10.879  0.4612 -0.3176  0.0822
 7087SOL    HW122702   3.031   7.282  10.871 -0.3254 -0.4258  0.7104
 7087SOL    HW222703   3.106   7.170  10.803 -0.2991  0.3921 -0.6589
 7088SOL     OW22704   3.926   6.526  10.315 -0.5087 -0.3669  0.6476
 7088SOL    HW122705   3.943   6.608  10.269 -0.6871 -0.5180  0.3146
 7088SOL    HW222706   3.919   6.552  10.407 -1.6846  0.1529  0.4223
 7089SOL     OW22707   2.032   0.972  10.407 -0.7398  0.0837 -0.7283
 7089SOL    HW122708   1.959   1.025  10.437 -0.0739  0.7786 -0.3187
 7089SOL    HW222709   2.069   0.934  10.486  0.5260  1.2825 -0.7041
 7090SOL     OW22710   2.914   1.243   8.077 -0.1040 -0.0345  0.0506
 7090SOL    HW122711   2.924   1.258   7.983 -0.5482 -0.0237  0.0039
 7090SOL    HW222712   2.987   1.291   8.116  1.8858 -2.4539 -0.4579
 7091SOL     OW22713   4.241   1.392  10.271  0.3769 -0.0162 -0.0540
 7091SOL    HW122714   4.152   1.367  10.246  1.3067 -2.5867 -1.0323
 7091SOL    HW222715   4.237   1.405  10.366 -1.0858  0.2787 -0.1371
 7092SOL     OW22716   3.391   1.172   7.955 -0.0126 -0.0197  0.4531
 7092SOL    HW122717   3.318   1.111   7.965 -0.0186 -0.5622 -2.1336
 7092SOL    HW222718   3.353   1.258   7.971 -0.3819 -0.5245  2.5272
 7093SOL     OW22719   3.943   2.801  11.159 -0.3099 -0.5203  0.1301
 7093SOL    HW122720   3.951   2.879  11.215 -0.0064  0.0787 -0.7304
 7093SOL    HW222721   3.900   2.832  11.080 -0.9539 -1.4152  0.1120
 7094SOL     OW22722   4.296   0.390   9.518 -0.4651  0.1308 -0.0354
 7094SOL    HW122723   4.383   0.353   9.501 -1.0956 -1.1876 -0.5539
 7094SOL    HW222724   4.270   0.353   9.602 -0.2866  1.0011  0.4098
 7095SOL     OW22725   2.531   2.107   9.785  0.4871 -0.0855 -0.8182
 7095SOL    HW122726   2.583   2.045   9.734  0.5343  0.6570 -1.6958
 7095SOL    HW222727   2.582   2.189   9.783 -0.1153  0.3016 -0.6455
 7096SOL     OW22728   3.620   0.175   9.702  1.0703  0.6065  0.2484
 7096SOL    HW122729   3.544   0.118   9.713 -0.2283  2.1847 -0.2428
 7096SOL    HW222730   3.664   0.172   9.788  0.0853  0.2017  0.7534
 7097SOL     OW22731   2.349   0.868  11.656  0.0402 -0.0054  0.2347
 7097SOL    HW122732   2.270   0.916  11.633 -0.1102 -0.8027 -0.9556
 7097SOL    HW222733   2.347   0.864  11.752 -0.5544  1.3047  0.2998
 7098SOL     OW22734   3.928   0.428   9.736 -0.1710  0.1149 -0.0037
 7098SOL    HW122735   3.960   0.472   9.814 -0.3237  1.0304 -0.4417
 7098SOL    HW222736   3.877   0.495   9.689 -0.1752 -0.4428 -0.8263
 7099SOL     OW22737   2.438   1.930  10.281 -0.0199  0.3396  0.3243
 7099SOL    HW122738   2.410   1.891  10.363 -1.4672  0.4706 -0.0782
 7099SOL    HW222739   2.469   2.017  10.306  0.9251 -0.1493  0.9029
 7100SOL     OW22740   1.618   7.616   9.256  0.1407  0.0532  0.3487
 7100SOL    HW122741   1.605   7.599   9.350 -1.6607  1.5919  0.4581
 7100SOL    HW222742   1.712   7.610   9.243  0.5440  0.7889  2.5002
 7101SOL     OW22743   5.702   6.558  10.921 -0.3915 -0.3528  0.1968
 7101SOL    HW122744   5.745   6.550  11.006 -1.0696 -1.5842  0.4551
 7101SOL    HW222745   5.680   6.651  10.914 -0.7448 -0.3060  1.5883
 7102SOL     OW22746   4.337   0.001   8.978  0.0556 -0.1459 -0.1780
 7102SOL    HW122747   4.275  -0.025   8.910  0.9526 -0.7586 -0.7891
 7102SOL    HW222748   4.389  -0.078   8.994 -0.1782 -0.0216  1.2706
 7103SOL     OW22749   2.211   1.782  10.203 -0.1417 -0.0262  0.6212
 7103SOL    HW122750   2.223   1.826  10.118  0.6060  0.6125  1.0415
 7103SOL    HW222751   2.247   1.844  10.267  0.2047 -0.9192  1.3094
 7104SOL     OW22752   3.027   0.490   8.550 -0.2307 -0.8067 -0.1053
 7104SOL    HW122753   3.012   0.429   8.622 -0.7400 -0.3099  0.2257
 7104SOL    HW222754   2.941   0.527   8.531  0.3578  1.5875  1.3413
 7105SOL     OW22755   1.365   0.284  10.258  0.0066  0.2642 -0.5727
 7105SOL    HW122756   1.357   0.287  10.163 -0.6670 -0.2129 -0.5410
 7105SOL    HW222757   1.419   0.360  10.280  0.8187 -0.0529 -1.3952
 7106SOL     OW22758   0.968   1.008  10.965  0.0093  0.8421 -0.1496
 7106SOL    HW122759   0.979   1.049  11.050  3.5313 -2.4832  1.2527
 7106SOL    HW222760   0.890   0.953  10.975  0.0707  0.9025  0.7237
 7107SOL     OW22761   4.358   1.484  10.791 -0.1889  0.1518 -0.3883
 7107SOL    HW122762   4.348   1.467  10.697 -2.1431  2.2502 -0.6418
 7107SOL    HW222763   4.413   1.562  10.796 -0.2094  0.1372  0.2160
 7108SOL     OW22764   3.989   0.563   9.959 -0.3857  0.4733 -0.0052
 7108SOL    HW122765   4.014   0.654   9.973  0.2006  0.4325 -0.7387
 7108SOL    HW222766   4.031   0.515  10.031 -0.8271  0.7908  0.4739
 7109SOL     OW22767   4.317   1.082  10.948 -0.2751  0.0250 -0.5522
 7109SOL    HW122768   4.265   1.030  11.009  0.2339 -2.9647 -2.4828
 7109SOL    HW222769   4.345   1.158  11.000 -2.8386 -0.4642  1.8078
 7110SOL     OW22770   3.116   1.684  10.852 -0.0528 -0.0983 -0.0184
 7110SOL    HW122771   3.028   1.720  10.866 -0.1579 -0.0730 -0.7054
 7110SOL    HW222772   3.122   1.671  10.757  0.9181  0.4785 -0.0471
 7111SOL     OW22773   3.568   6.989   8.204  0.5157 -0.0505  0.0746
 7111SOL    HW122774   3.635   7.013   8.268  0.5583  1.6624 -0.5621
 7111SOL    HW222775   3.488   6.979   8.255  1.2851 -2.7582  0.9481
 7112SOL     OW22776   3.362   1.008   9.705  0.3770 -0.0302  0.1952
 7112SOL    HW122777   3.395   1.069   9.639  0.0154  1.3291  1.2237
 7112SOL    HW222778   3.268   1.004   9.688  0.4438 -0.5457 -0.0579
 7113SOL     OW22779   3.786   7.618  11.006 -0.4413  0.1633  0.4278
 7113SOL    HW122780   3.726   7.671  11.059 -0.2707  0.9714 -0.1638
 7113SOL    HW222781   3.825   7.556  11.068 -2.7185 -1.1756  0.6323
 7114SOL     OW22782   2.203   1.972  10.874 -0.2637  0.6217  0.4093
 7114SOL    HW122783   2.242   1.890  10.904  0.3090  1.2689  1.4921
 7114SOL    HW222784   2.273   2.016  10.826 -0.7807  0.1891 -0.7869
 7115SOL     OW22785   1.420   0.911  10.250 -0.6022  0.2800 -0.5371
 7115SOL    HW122786   1.453   0.988  10.203 -0.2074 -0.7610 -2.0402
 7115SOL    HW222787   1.351   0.876  10.194 -0.3130 -0.8549 -0.2098
 7116SOL     OW22788   3.145   0.847   0.107  0.4293 -0.3286  0.4459
 7116SOL    HW122789   3.155   0.771   0.164  2.0712  0.5192  1.3512
 7116SOL    HW222790   3.054   0.875   0.120 -0.4338 -2.5220 -0.4678
 7117SOL     OW22791   3.082   0.527   9.911  0.3119 -0.3559 -0.8773
 7117SOL    HW122792   3.137   0.598   9.879  2.9155 -1.9526 -0.2763
 7117SOL    HW222793   3.058   0.478   9.832  0.8272 -0.3386 -1.0499
 7118SOL     OW22794   5.728   0.626   8.254 -0.4732 -0.0629 -0.1839
 7118SOL    HW122795   5.709   0.706   8.303  0.3788  0.2063 -0.2883
 7118SOL    HW222796   5.712   0.650   8.163 -2.0798 -0.5697 -0.0729
 7119SOL     OW22797   2.032   6.663  10.952 -0.1602 -0.1544 -0.0313
 7119SOL    HW122798   2.067   6.706  10.874 -1.1066  2.5818  0.9113
 7119SOL    HW222799   2.108   6.644  11.007  0.3994 -1.0119 -1.0717
 7120SOL     OW22800   3.964   3.360  11.274  0.5188 -0.3842 -0.2713
 7120SOL    HW122801   3.937   3.407  11.353 -0.6675 -0.7657 -0.4320
 7120SOL    HW222802   4.037   3.412  11.239 -1.6428  2.2655 -1.2550
 7121SOL     OW22803   4.421   1.759  11.887 -0.2405 -0.3739 -0.3389
 7121SOL    HW122804   4.331   1.788  11.907  0.0455  0.5388 -0.3195
 7121SOL    HW222805   4.464   1.837  11.853  0.3081 -1.0172 -1.1747
 7122SOL     OW22806   3.705   1.147  10.484  0.0981  0.5645 -0.2199
 7122SOL    HW122807   3.629   1.190  10.523  0.2164  0.7573 -0.2014
 7122SOL    HW222808   3.780   1.190  10.526  0.2400 -1.8445  2.2899
 7123SOL     OW22809   2.813   7.662  10.512  0.2371 -0.1912 -0.1920
 7123SOL    HW122810   2.834   7.622  10.428  0.2049  1.1050 -0.8414
 7123SOL    HW222811   2.882   7.726  10.527 -0.5801  0.6525  0.0296
 7124SOL     OW22812   2.374   7.839   9.834 -0.2443  0.2081 -0.1096
 7124SOL    HW122813   2.317   7.825   9.909  0.5570  0.3307  0.5296
 7124SOL    HW222814   2.451   7.882   9.870 -0.2227  1.0683 -1.1378
 7125SOL     OW22815   3.311   2.022   9.418  0.5667 -0.0653 -0.5423
 7125SOL    HW122816   3.306   1.941   9.368 -1.1903  1.2197 -2.6352
 7125SOL    HW222817   3.220   2.051   9.425  1.0745  1.3199  0.9056
 7126SOL     OW22818   1.771   7.640  10.103 -0.5163 -0.1311  0.0473
 7126SOL    HW122819   1.712   7.567  10.082  0.4972 -0.9007 -0.1770
 7126SOL    HW222820   1.802   7.671  10.018  1.0325 -1.1149  0.2159
 7127SOL     OW22821   2.985   0.851   9.262  0.4876  0.0223 -0.1770
 7127SOL    HW122822   2.938   0.892   9.190  0.2597 -1.2346 -0.7708
 7127SOL    HW222823   2.917   0.819   9.321  0.6454  3.0049  1.8416
 7128SOL     OW22824   4.014   1.144   9.355  0.1918 -0.0087 -0.0208
 7128SOL    HW122825   3.935   1.196   9.340  0.3779  0.2224 -0.2024
 7128SOL    HW222826   4.040   1.114   9.268  0.3373 -0.0360  0.0323
 7129SOL     OW22827   2.257   1.181   9.815 -0.2071  0.1029 -0.0362
 7129SOL    HW122828   2.183   1.227   9.776 -0.8480 -0.2873  0.6938
 7129SOL    HW222829   2.266   1.219   9.902  1.3326  1.1007 -0.5810
 7130SOL     OW22830   1.141   1.969   9.091  0.0595 -0.2383 -0.1191
 7130SOL    HW122831   1.098   1.891   9.126 -2.3639  0.8595 -0.4083
 7130SOL    HW222832   1.074   2.011   9.037  1.3561  1.9023 -0.1951
 7131SOL     OW22833   1.297   2.203   9.671 -0.2784 -0.5166  0.2879
 7131SOL    HW122834   1.205   2.206   9.644 -0.1246 -0.8238 -0.2752
 7131SOL    HW222835   1.344   2.245   9.599  0.2839 -2.5515 -0.5878
 7132SOL     OW22836   2.214   1.150  10.610  0.0076 -0.1350  0.7033
 7132SOL    HW122837   2.133   1.133  10.561  0.3947 -0.5538  0.1860
 7132SOL    HW222838   2.185   1.179  10.696 -0.6989  1.2110  0.0324
 7133SOL     OW22839   1.596   1.440  10.366 -0.0852 -0.0946 -0.0334
 7133SOL    HW122840   1.573   1.463  10.276 -1.4228 -0.7762  0.1068
 7133SOL    HW222841   1.545   1.361  10.384 -0.7623  0.6959  1.7023
 7134SOL     OW22842   1.731   0.708  12.139 -0.0102 -0.2335 -0.0742
 7134SOL    HW122843   1.698   0.682  12.225 -0.7087 -1.5073 -0.6867
 7134SOL    HW222844   1.671   0.665  12.077  1.4819 -0.7726 -1.2025
 7135SOL     OW22845   3.702   1.307   0.223 -0.1994  0.4473 -0.0126
 7135SOL    HW122846   3.770   1.343   0.165 -0.4788  1.7896  0.4586
 7135SOL    HW222847   3.730   1.333   0.311 -0.3841 -0.5857  0.3711
 7136SOL     OW22848   0.695   7.856  11.991  0.5516 -0.5311 -0.3283
 7136SOL    HW122849   0.709   7.927  11.928 -0.8537  0.8172  0.7844
 7136SOL    HW222850   0.781   7.814  11.999  1.0613  0.0653 -2.1614
 7137SOL     OW22851   3.062   0.916  10.149 -0.2885  0.2141 -0.4963
 7137SOL    HW122852   3.066   0.859  10.073 -0.6032  0.3721 -0.6345
 7137SOL    HW222853   3.150   0.912  10.188 -0.2947 -0.3200 -0.5327
 7138SOL     OW22854   2.289   2.463  11.415  0.5346  0.4491 -0.8224
 7138SOL    HW122855   2.202   2.476  11.376 -0.2896  1.0602  1.0757
 7138SOL    HW222856   2.310   2.547  11.454  1.2152 -0.1732  0.1908
 7139SOL     OW22857   3.990   0.350  11.434  0.2354  0.1219 -0.0008
 7139SOL    HW122858   3.975   0.427  11.489  0.1422  1.0387 -1.2544
 7139SOL    HW222859   3.905   0.306  11.429  0.3464 -0.2112  0.9182
 7140SOL     OW22860   3.371   3.555  11.550 -0.2842  0.1836 -0.4829
 7140SOL    HW122861   3.448   3.518  11.594  0.7197 -0.3371 -2.5322
 7140SOL    HW222862   3.308   3.484  11.548  0.1119 -0.1609 -0.9080
 7141SOL     OW22863   3.125   0.519   9.412 -0.4273  0.0331  0.4599
 7141SOL    HW122864   3.113   0.427   9.434 -2.5157  0.0886 -0.2119
 7141SOL    HW222865   3.138   0.519   9.317  0.2757  0.4078  0.5444
 7142SOL     OW22866   4.327   1.090  10.351 -0.1788 -0.4699 -0.0128
 7142SOL    HW122867   4.258   1.024  10.344  0.8261 -1.6961  1.0958
 7142SOL    HW222868   4.288   1.169  10.314 -2.4327 -0.9136  1.2078
 7143SOL     OW22869   4.098   7.588  10.221 -0.0341 -0.3010  0.4672
 7143SOL    HW122870   4.124   7.582  10.313  0.6830 -1.2108  0.2179
 7143SOL    HW222871   4.168   7.543  10.174 -0.8465 -0.6183 -0.4464
 7144SOL     OW22872   3.746   3.391  10.541 -0.8563 -0.2088  0.7241
 7144SOL    HW122873   3.835   3.400  10.506 -0.8985 -0.0842  0.6492
 7144SOL    HW222874   3.704   3.475  10.522 -1.0897 -0.3805  0.4855
 7145SOL     OW22875   0.279   1.445   8.779  0.1069 -0.4268 -0.0912
 7145SOL    HW122876   0.297   1.536   8.756  0.8966 -0.9586 -1.6712
 7145SOL    HW222877   0.218   1.451   8.853  0.9075  1.3789  0.4844
 7146SOL     OW22878   1.105   1.703  10.193  0.2995  0.0168  0.3411
 7146SOL    HW122879   1.057   1.748  10.124 -0.8813  1.0010  1.7536
 7146SOL    HW222880   1.163   1.769  10.230 -0.5016  0.0775  1.5656
 7147SOL     OW22881   3.474   7.012  10.094  0.5268 -0.4325  0.0555
 7147SOL    HW122882   3.435   7.099  10.097 -1.3329 -1.1252 -1.8653
 7147SOL    HW222883   3.445   6.969  10.175 -1.2802 -0.3172 -0.4914
 7148SOL     OW22884   3.320   0.997   8.538  0.3308 -0.1443 -0.1312
 7148SOL    HW122885   3.248   1.057   8.521  1.2386  0.8056 -0.8138
 7148SOL    HW222886   3.318   0.982   8.632 -0.1360  0.6868 -0.0020
 7149SOL     OW22887   0.698   2.592  11.262  0.3795 -0.2406  0.5175
 7149SOL    HW122888   0.728   2.640  11.185 -1.0033 -0.2363 -0.0577
 7149SOL    HW222889   0.776   2.549  11.296  0.9940 -0.3996 -1.0189
 7150SOL     OW22890   4.547   0.853  10.995 -0.3360  0.0690  0.3460
 7150SOL    HW122891   4.514   0.924  10.939  0.8644  0.1315 -0.3317
 7150SOL    HW222892   4.470   0.799  11.012 -0.7805  0.1088 -1.3047
 7151SOL     OW22893   3.436   2.820  11.221  0.2769  0.5430 -0.0222
 7151SOL    HW122894   3.524   2.800  11.253  0.6421  0.7579 -0.8632
 7151SOL    HW222895   3.447   2.828  11.126 -0.7332  0.1427 -0.1742
 7152SOL     OW22896   0.468   1.549  10.788 -1.0242 -0.5002  0.3249
 7152SOL    HW122897   0.538   1.485  10.774 -0.5071 -0.0517  0.8109
 7152SOL    HW222898   0.412   1.508  10.854 -0.8033 -0.5367  0.4910
 7153SOL     OW22899   2.305   1.893   9.933  0.0853 -0.0324 -0.4506
 7153SOL    HW122900   2.356   1.815   9.909  1.1633 -0.1631  1.9372
 7153SOL    HW222901   2.239   1.900   9.865  0.9518 -2.1015 -1.6161
 7154SOL     OW22902   4.986   0.072  10.028 -0.2043  0.3172 -0.7751
 7154SOL    HW122903   5.066   0.024  10.008 -1.1607 -0.3744 -3.3143
 7154SOL    HW222904   4.992   0.151   9.974 -0.4899  1.1004  0.3107
 7155SOL     OW22905   3.022   7.984   8.707 -0.1307 -0.4134  0.1070
 7155SOL    HW122906   3.038   8.034   8.787 -0.6058 -0.0005 -0.0554
 7155SOL    HW222907   3.033   8.048   8.637  1.4224 -1.0172 -0.2469
 7156SOL     OW22908   3.818   0.137   8.232  0.0977  0.1067  0.4647
 7156SOL    HW122909   3.858   0.140   8.319  1.6064 -0.1197 -0.1888
 7156SOL    HW222910   3.836   0.224   8.195  2.8742 -0.9664 -1.0143
 7157SOL     OW22911   2.827   1.391   8.975 -0.0285 -0.4762 -0.0791
 7157SOL    HW122912   2.890   1.368   8.906  0.9032 -0.8277  0.8656
 7157SOL    HW222913   2.852   1.336   9.049 -0.8061  0.1502  0.6598
 7158SOL     OW22914   3.224   7.690   9.089  0.3188 -0.2898  0.7152
 7158SOL    HW122915   3.291   7.623   9.084  0.4697 -0.0977  0.0693
 7158SOL    HW222916   3.251   7.756   9.025 -0.6693 -0.3854  0.1778
 7159SOL     OW22917   4.482   2.916   8.378 -0.2620 -0.1420 -0.0520
 7159SOL    HW122918   4.532   2.951   8.452 -1.8391 -1.0538  1.5325
 7159SOL    HW222919   4.437   2.992   8.342  0.7709  0.3678 -0.3131
 7160SOL     OW22920   1.180   1.303  11.928 -0.0233  1.0223  0.1054
 7160SOL    HW122921   1.233   1.352  11.865  0.2407  0.6139  0.0054
 7160SOL    HW222922   1.232   1.225  11.948 -0.8638  0.2690 -0.5122
 7161SOL     OW22923   2.231   1.590   8.387 -0.1769 -0.4480  0.5773
 7161SOL    HW122924   2.292   1.620   8.319 -1.1066  0.9656  0.3245
 7161SOL    HW222925   2.287   1.573   8.463  0.6541 -0.2087  0.0366
 7162SOL     OW22926   4.296   3.116   9.365 -0.1372 -0.0743  0.3061
 7162SOL    HW122927   4.249   3.184   9.413  0.8530  1.4997 -0.8419
 7162SOL    HW222928   4.302   3.149   9.275  1.4577 -1.0993 -0.0127
 7163SOL     OW22929   4.581   0.889  10.235 -0.4822  0.2115  0.1474
 7163SOL    HW122930   4.653   0.874  10.175 -1.1808  1.1354 -0.9537
 7163SOL    HW222931   4.504   0.852  10.191 -0.7267 -0.6746  1.2606
 7164SOL     OW22932   2.185   0.889   9.909  0.0502 -0.1200 -0.7309
 7164SOL    HW122933   2.155   0.860   9.823 -0.2444  0.5369 -0.8579
 7164SOL    HW222934   2.193   0.984   9.901 -0.7216  0.0424  0.1879
 7165SOL     OW22935   3.907   1.263  10.617  0.8169 -0.0063 -0.6854
 7165SOL    HW122936   3.938   1.328  10.554  1.2976  0.8780  0.4196
 7165SOL    HW222937   3.966   1.272  10.692  0.8796 -1.7147 -0.4844
 7166SOL     OW22938   2.553   0.784   9.230  0.7551 -0.2597 -0.6272
 7166SOL    HW122939   2.583   0.738   9.152  0.4224  0.1627 -1.0104
 7166SOL    HW222940   2.459   0.768   9.232  0.0261  2.8845 -2.5263
 7167SOL     OW22941   2.292   1.205  11.268 -0.6228  0.3329 -0.3851
 7167SOL    HW122942   2.220   1.142  11.266 -1.5048  1.1540  1.9405
 7167SOL    HW222943   2.352   1.171  11.335  0.6446  0.2192 -1.5367
 7168SOL     OW22944   3.397   0.152  10.843  0.4048 -0.5143  0.2297
 7168SOL    HW122945   3.432   0.065  10.865 -0.1106 -0.6178  0.6593
 7168SOL    HW222946   3.358   0.183  10.924  1.4042  0.5286  0.3282
 7169SOL     OW22947   2.883   7.934  10.834  0.1999  0.4645  0.5082
 7169SOL    HW122948   2.870   7.963  10.924  0.0449  1.3023  0.2260
 7169SOL    HW222949   2.805   7.964  10.788  0.7939  1.0394 -0.1415
 7170SOL     OW22950   3.812   1.215  11.227 -0.0275 -0.1344 -0.0404
 7170SOL    HW122951   3.729   1.166  11.232  0.1018 -0.7260 -2.3013
 7170SOL    HW222952   3.786   1.307  11.232 -0.4586 -0.3353  2.4355
 7171SOL     OW22953   3.458   7.539   9.346  0.3044 -0.2761  0.3320
 7171SOL    HW122954   3.402   7.526   9.269  0.0158  4.8301 -0.6436
 7171SOL    HW222955   3.398   7.536   9.421 -0.4270  0.2489 -0.2214
 7172SOL     OW22956   2.759   7.043  10.401  0.4701 -0.5317 -0.2259
 7172SOL    HW122957   2.796   7.029  10.489  1.9085 -0.2958 -0.7616
 7172SOL    HW222958   2.710   7.125  10.409  1.4292  0.0278  0.1324
 7173SOL     OW22959   3.886   2.645  11.973  0.6856  0.3038  0.6930
 7173SOL    HW122960   3.868   2.739  11.963  1.2984  0.3246 -0.3915
 7173SOL    HW222961   3.908   2.615  11.885  1.8180 -0.5788  1.2445
 7174SOL     OW22962   4.396   2.162  11.051  0.7475  0.0353  0.0047
 7174SOL    HW122963   4.384   2.251  11.016 -2.6120 -0.5463 -0.6510
 7174SOL    HW222964   4.419   2.176  11.143 -1.2332  1.6685  0.3221
 7175SOL     OW22965   2.716   0.382  10.862  0.2621  0.2245  0.1462
 7175SOL    HW122966   2.699   0.457  10.805 -0.7648  0.3234  0.5613
 7175SOL    HW222967   2.708   0.417  10.951  0.3080 -0.2646  0.3451
 7176SOL     OW22968   4.688   1.028  11.258  0.2930 -0.5002 -0.0440
 7176SOL    HW122969   4.689   0.992  11.169 -0.1322  1.0524 -0.7228
 7176SOL    HW222970   4.752   1.100  11.254  0.3406 -0.4823  0.9390
 7177SOL     OW22971   2.344   3.374   9.761  0.1004 -0.1750  0.2318
 7177SOL    HW122972   2.390   3.362   9.844  1.5120  1.2130 -0.3160
 7177SOL    HW222973   2.382   3.453   9.723 -1.5984  0.0977 -1.0335
 7178SOL     OW22974   3.695   7.642   9.230 -0.4842 -0.2456  0.1839
 7178SOL    HW122975   3.623   7.596   9.274  0.2460 -0.5956  1.0381
 7178SOL    HW222976   3.770   7.630   9.288  0.0557  0.8737 -0.2546
 7179SOL     OW22977   4.903   6.886   9.138  0.3400  0.0623 -0.8002
 7179SOL    HW122978   4.920   6.798   9.103  1.9123 -0.5457  1.3278
 7179SOL    HW222979   4.840   6.872   9.208 -1.1967  1.0085 -1.9102
 7180SOL     OW22980   4.803   0.690  10.451 -0.7503 -0.1499  0.0456
 7180SOL    HW122981   4.809   0.595  10.461  0.7093  0.1271  2.3459
 7180SOL    HW222982   4.869   0.711  10.385  1.1286 -0.5008  1.7115
 7181SOL     OW22983   3.024   2.258  11.640  0.1845  0.0046  0.0246
 7181SOL    HW122984   2.960   2.329  11.647 -1.2478 -1.3934  2.7230
 7181SOL    HW222985   3.101   2.291  11.686  0.2393  0.5028 -0.4143
 7182SOL     OW22986   1.798   0.717   8.725 -0.1692 -0.5684 -0.6550
 7182SOL    HW122987   1.820   0.765   8.805 -0.9779  0.5257 -1.0541
 7182SOL    HW222988   1.844   0.765   8.656 -0.1313 -1.0131 -0.9391
 7183SOL     OW22989   1.709   2.309  11.506  0.8027 -0.4708 -0.1350
 7183SOL    HW122990   1.684   2.363  11.581 -2.8689 -1.7722 -0.1941
 7183SOL    HW222991   1.792   2.269  11.531  1.2796  1.5855  1.8398
 7184SOL     OW22992   1.496   0.786   9.592 -0.4393  0.2057 -0.1236
 7184SOL    HW122993   1.498   0.761   9.684  0.9724 -0.6186 -0.3524
 7184SOL    HW222994   1.468   0.878   9.593 -1.3270 -0.0477  1.0438
 7185SOL     OW22995   2.087   0.832   9.670 -0.8523 -0.5219 -0.0212
 7185SOL    HW122996   2.017   0.898   9.665  0.3293  0.8204  0.3439
 7185SOL    HW222997   2.141   0.850   9.593  0.6985  0.4316  1.2313
 7186SOL     OW22998   4.495   1.036   9.699  0.2382  0.0799 -0.2406
 7186SOL    HW122999   4.446   0.967   9.654  2.0781 -0.3571 -1.6915
 7186SOL    HW223000   4.489   1.013   9.792 -0.4473 -1.1701 -0.5636
 7187SOL     OW23001   2.318   1.735  10.908 -0.7436  0.1426  0.1292
 7187SOL    HW123002   2.412   1.732  10.927 -0.8933 -1.7552  0.7687
 7187SOL    HW223003   2.302   1.655  10.858 -1.9923  0.6017 -0.2374
 7188SOL     OW23004   1.576   2.039  11.466 -0.1320 -0.2469 -0.0180
 7188SOL    HW123005   1.609   1.968  11.522 -0.2584 -0.9909 -0.8799
 7188SOL    HW223006   1.623   2.117  11.497 -0.4576 -0.5703  1.3618
 7189SOL     OW23007   2.795   2.132  12.045 -0.2523  0.2994 -0.4001
 7189SOL    HW123008   2.816   2.221  12.018  0.8833 -0.1120 -0.9276
 7189SOL    HW223009   2.807   2.079  11.965  1.4193 -0.6673  0.4297
 7190SOL     OW23010   2.098   0.799  10.620 -0.2044 -0.0628  0.4119
 7190SOL    HW123011   2.017   0.756  10.647  0.4133 -1.8861 -0.4234
 7190SOL    HW223012   2.157   0.787  10.695  0.1285 -1.2347 -0.0016
 7191SOL     OW23013   3.093   0.993   9.592 -0.8252 -0.3620  0.2889
 7191SOL    HW123014   3.116   0.980   9.500  1.2972  1.0777  0.5308
 7191SOL    HW223015   3.058   1.082   9.595  0.0220 -0.0392  0.9830
 7192SOL     OW23016   5.240   3.092  11.154 -0.4812 -0.4260  0.1971
 7192SOL    HW123017   5.251   3.052  11.240  1.0118  2.2449  1.3626
 7192SOL    HW223018   5.327   3.085  11.113 -1.1013 -1.4159 -1.0515
 7193SOL     OW23019   1.789   1.162  10.944  0.1455  0.2343  0.1711
 7193SOL    HW123020   1.741   1.167  10.862  1.6408 -0.1802 -0.7530
 7193SOL    HW223021   1.822   1.072  10.948 -0.7874 -0.0908  1.7596
 7194SOL     OW23022   1.080   2.201   9.280  0.0539  0.0138 -0.4516
 7194SOL    HW123023   1.131   2.126   9.247  0.1093  0.4603 -1.4262
 7194SOL    HW223024   1.145   2.270   9.293 -0.2047  0.3997 -1.1323
 7195SOL     OW23025   4.220   1.519   9.926  0.2859 -0.2136  0.2412
 7195SOL    HW123026   4.198   1.437   9.881 -0.0025  0.1101 -0.2146
 7195SOL    HW223027   4.135   1.563   9.938  0.3099 -0.4515  1.4157
 7196SOL     OW23028   3.144   0.529  11.467  0.2754  0.7536  0.3854
 7196SOL    HW123029   3.100   0.534  11.551  0.4763 -0.7497  0.6099
 7196SOL    HW223030   3.235   0.512  11.488  0.4291  0.9037 -0.1303
 7197SOL     OW23031   2.769   7.524   8.783 -0.1466 -0.7165  0.2364
 7197SOL    HW123032   2.694   7.512   8.726  0.7142 -0.4932 -0.9741
 7197SOL    HW223033   2.734   7.510   8.871 -2.1324  1.5848 -0.0547
 7198SOL     OW23034   2.343   0.764  10.312 -0.2527 -0.2005  0.1951
 7198SOL    HW123035   2.283   0.733  10.380 -2.4345  1.7252 -0.7258
 7198SOL    HW223036   2.346   0.692  10.248 -0.5689 -0.8144  0.8594
 7199SOL     OW23037   3.597   6.559   9.649 -0.0725 -0.1883  0.4440
 7199SOL    HW123038   3.601   6.546   9.554 -0.6921  1.3248  0.1936
 7199SOL    HW223039   3.671   6.616   9.668 -2.3175  3.0511  0.1901
 7200SOL     OW23040   4.527   0.025   9.756  0.4097  0.6680 -0.0159
 7200SOL    HW123041   4.541   0.056   9.846  2.0870 -0.5179  0.1608
 7200SOL    HW223042   4.515   0.106   9.705  2.4216  1.5653  0.8040
 7201SOL     OW23043   3.463   1.079  10.005  0.3912  0.3852 -0.7632
 7201SOL    HW123044   3.470   0.985  10.022 -2.7005  0.0040 -1.0939
 7201SOL    HW223045   3.426   1.115  10.085  0.6948  1.1831 -0.9726
 7202SOL     OW23046   2.108   1.884   9.763 -0.2429  0.1679 -0.5248
 7202SOL    HW123047   2.127   1.867   9.671  0.4025 -1.7178 -0.0943
 7202SOL    HW223048   2.020   1.849   9.777  0.2364 -0.9126 -0.1166
 7203SOL     OW23049   0.915   1.299   6.862 -0.5596  0.0102  0.1724
 7203SOL    HW123050   0.895   1.377   6.914 -1.2463 -0.4516  0.6087
 7203SOL    HW223051   1.003   1.274   6.891 -0.3043  0.6608 -0.0254
 7204SOL     OW23052   5.016   1.216  10.793 -0.0208 -0.2599 -0.1185
 7204SOL    HW123053   4.930   1.217  10.835  0.4994 -0.5008  0.9900
 7204SOL    HW223054   5.076   1.248  10.860  0.8236 -0.5260 -0.7261
 7205SOL     OW23055   1.407   1.529  11.531  0.4840 -0.3603  0.0855
 7205SOL    HW123056   1.396   1.444  11.575  1.6510  0.0691  1.2790
 7205SOL    HW223057   1.319   1.553  11.503 -0.0398 -1.4341  0.7359
 7206SOL     OW23058   3.869   0.880  11.350 -0.0076  0.3140 -0.4495
 7206SOL    HW123059   3.794   0.841  11.307 -0.4253 -0.4935  0.9386
 7206SOL    HW223060   3.870   0.841  11.438  1.6861  0.7408 -0.2283
 7207SOL     OW23061   2.194   0.221  11.959  0.7032 -0.5559 -0.3014
 7207SOL    HW123062   2.191   0.144  12.016  0.7879  1.0180  1.9433
 7207SOL    HW223063   2.278   0.263  11.979 -0.5670  1.6596  0.7114
 7208SOL     OW23064   5.121   2.851  10.736  0.5325 -0.7615  0.2994
 7208SOL    HW123065   5.111   2.944  10.717  1.3932 -1.3854 -4.5735
 7208SOL    HW223066   5.215   2.836  10.734  0.3651 -1.8937 -0.3631
 7209SOL     OW23067   3.464   2.050  11.600 -0.2812  0.3478  0.4444
 7209SOL    HW123068   3.370   2.047  11.617 -0.0177  0.0911  2.0859
 7209SOL    HW223069   3.482   2.141  11.576 -0.6858  0.8748  2.0301
 7210SOL     OW23070   3.488   1.035   1.601  0.2343  0.1886 -0.0742
 7210SOL    HW123071   3.526   1.058   1.516 -0.0638  0.8681 -0.0343
 7210SOL    HW223072   3.435   0.957   1.583 -2.2200  1.9515 -1.2022
 7211SOL     OW23073   3.821   2.067  11.892 -0.0446 -0.0300  0.6685
 7211SOL    HW123074   3.788   2.152  11.864 -0.5818 -0.0169  1.3178
 7211SOL    HW223075   3.798   2.062  11.985  0.0013 -0.8749  0.6396
 7212SOL     OW23076   3.743   0.437  11.859  0.5010 -0.1437 -0.3025
 7212SOL    HW123077   3.763   0.522  11.899 -2.1775 -0.0256  1.0147
 7212SOL    HW223078   3.775   0.372  11.922  1.2190 -0.0933 -0.6089
 7213SOL     OW23079   1.313   1.308  12.305  0.2520 -0.5315  0.1762
 7213SOL    HW123080   1.233   1.323  12.255  0.5451 -2.5080 -0.9860
 7213SOL    HW223081   1.301   1.222  12.345  1.2974 -0.3241  0.9971
 7214SOL     OW23082   5.260   1.610  10.739  0.2083 -0.1121 -0.0446
 7214SOL    HW123083   5.322   1.681  10.756 -0.2153 -0.0093  1.1017
 7214SOL    HW223084   5.235   1.577  10.825  0.0069 -1.3283 -0.5424
 7215SOL     OW23085   1.158   2.603   0.833  0.3934 -0.4756 -0.3846
 7215SOL    HW123086   1.072   2.566   0.853  0.4944 -1.0509 -0.9814
 7215SOL    HW223087   1.149   2.637   0.743  1.0429 -1.3435 -0.7843
 7216SOL     OW23088   3.528   0.851  10.901 -0.5728 -0.6016 -0.8219
 7216SOL    HW123089   3.498   0.902  10.826 -0.0726  2.0947  0.6893
 7216SOL    HW223090   3.622   0.869  10.905 -0.8751  0.8775  1.4753
 7217SOL     OW23091   2.608   1.261  12.353  0.4959 -0.0034 -0.9420
 7217SOL    HW123092   2.671   1.225  12.291  0.4498  0.7752 -1.4557
 7217SOL    HW223093   2.537   1.197  12.355  0.1007  0.3364 -2.3541
 7218SOL     OW23094   1.634   0.737  11.275  0.1110 -0.4357  0.0308
 7218SOL    HW123095   1.680   0.759  11.357 -1.7755  2.2357  0.5210
 7218SOL    HW223096   1.563   0.680  11.303 -1.4903  1.7151  0.6569
 7219SOL     OW23097   1.682   2.031  11.144 -0.4062  0.0402  0.3638
 7219SOL    HW123098   1.684   2.126  11.133 -0.3793 -0.0738 -0.7029
 7219SOL    HW223099   1.720   2.016  11.231 -0.0646  0.9719  0.3835
 7220SOL     OW23100   4.197   1.588   0.392 -0.3571 -0.4864  0.1162
 7220SOL    HW123101   4.260   1.580   0.464 -2.3577 -0.5243  1.9678
 7220SOL    HW223102   4.200   1.680   0.367  1.2540 -0.7175 -0.6584
 7221SOL     OW23103   2.948   1.867  11.529  0.7308  0.1588  0.3234
 7221SOL    HW123104   2.856   1.861  11.505  1.5303 -1.7429 -2.9284
 7221SOL    HW223105   2.956   1.813  11.608 -0.7024 -0.8865 -0.2096
 7222SOL     OW23106   4.173   2.294  10.716 -0.0771 -0.3475  0.5684
 7222SOL    HW123107   4.183   2.212  10.668 -0.0618 -0.6870  1.1336
 7222SOL    HW223108   4.215   2.360  10.661  0.0730 -0.7517  0.1952
 7223SOL     OW23109   5.977   7.194   0.192  0.3036  0.2059  0.1556
 7223SOL    HW123110   5.912   7.125   0.181 -0.1771  0.7079 -0.2216
 7223SOL    HW223111   5.972   7.217   0.285  0.3829 -0.1848  0.2567
 7224SOL     OW23112   1.246   2.104   0.457 -0.1778 -0.3720  0.2027
 7224SOL    HW123113   1.248   2.072   0.547  0.2043  3.3357  1.6846
 7224SOL    HW223114   1.335   2.092   0.425 -0.3308 -1.7593  0.2303
 7225SOL     OW23115   2.430   1.659   9.863 -0.4163 -0.1618 -0.1936
 7225SOL    HW123116   2.493   1.666   9.934 -0.4150  0.1441 -0.2263
 7225SOL    HW223117   2.365   1.596   9.895 -0.8320  0.5494  0.3836
 7226SOL     OW23118   3.124   7.987   1.343  0.5345  0.0314  0.1393
 7226SOL    HW123119   3.192   7.920   1.342  2.0745  1.5269 -0.0583
 7226SOL    HW223120   3.055   7.951   1.399  1.5867 -1.4423  0.5344
 7227SOL     OW23121   1.829   1.251  11.478 -0.3120 -0.3999  0.3132
 7227SOL    HW123122   1.738   1.224  11.468 -0.6965  0.9329 -0.0540
 7227SOL    HW223123   1.869   1.233  11.393 -0.3016 -0.7552  0.3941
 7228SOL     OW23124   5.199   3.293  11.565 -0.3517 -0.4691 -0.5447
 7228SOL    HW123125   5.186   3.379  11.604 -0.7377 -0.0595 -1.5263
 7228SOL    HW223126   5.286   3.265  11.593 -0.0882  0.3958 -0.4950
 7229SOL     OW23127   1.479   1.125  10.117 -0.0176  0.9902  0.0191
 7229SOL    HW123128   1.501   1.110  10.025  1.2608  0.3935  0.4115
 7229SOL    HW223129   1.417   1.198  10.115  0.2219  1.1745 -1.2917
 7230SOL     OW23130   5.088   2.130  10.223  0.5697  0.4517 -0.6556
 7230SOL    HW123131   5.082   2.042  10.261  2.4979 -0.2058 -1.7657
 7230SOL    HW223132   5.072   2.189  10.297 -0.5401 -0.8135  0.1460
 7231SOL     OW23133   3.575   1.193  10.950  0.5287  0.2867 -0.5761
 7231SOL    HW123134   3.644   1.144  10.905  1.8603  1.1272  0.4803
 7231SOL    HW223135   3.566   1.150  11.035  1.1031  1.3082  0.0192
 7232SOL     OW23136   3.908   0.221   0.955  0.1070  0.2253 -0.0237
 7232SOL    HW123137   3.938   0.290   1.013  0.4733  0.7003 -0.7595
 7232SOL    HW223138   3.885   0.149   1.013 -0.9019  1.1850  0.8064
 7233SOL     OW23139   3.748   1.705   0.099 -0.3521  0.1268  0.0305
 7233SOL    HW123140   3.739   1.794   0.064  1.8098  0.8836  1.2459
 7233SOL    HW223141   3.760   1.650   0.021 -1.5812  0.8684 -0.7261
 7234SOL     OW23142   2.777   1.374  11.041 -0.0871  0.3419  0.1570
 7234SOL    HW123143   2.716   1.321  11.092 -0.7898  2.3583  1.5701
 7234SOL    HW223144   2.766   1.345  10.951 -0.6867 -1.5934  0.8145
 7235SOL     OW23145   4.453   0.309   0.576 -0.3979 -0.4024  0.1035
 7235SOL    HW123146   4.527   0.353   0.536 -0.6953 -0.5837 -0.6707
 7235SOL    HW223147   4.379   0.368   0.563 -0.5485 -0.5717  0.1785
 7236SOL     OW23148   2.878   0.273   0.310  0.2791 -0.2777 -0.5208
 7236SOL    HW123149   2.848   0.309   0.393 -1.9136 -0.3560 -1.2204
 7236SOL    HW223150   2.968   0.246   0.326 -0.2359 -0.7005  1.9508
 7237SOL     OW23151   2.938   2.493  11.222  0.2251  0.0547 -0.2758
 7237SOL    HW123152   2.924   2.399  11.223  0.3512 -0.0064 -1.9890
 7237SOL    HW223153   2.880   2.526  11.291  1.2476 -1.3614  1.3406
 7238SOL     OW23154   2.642   2.418  12.255 -0.0169  0.8470 -0.1515
 7238SOL    HW123155   2.707   2.439  12.322  0.4013 -0.4744 -0.1142
 7238SOL    HW223156   2.633   2.498  12.204  1.0545  1.2914  0.3342
 7239SOL     OW23157   3.256   1.078  10.668 -0.1670 -0.5456  0.2135
 7239SOL    HW123158   3.346   1.092  10.640 -0.9466 -0.0293 -2.2823
 7239SOL    HW223159   3.243   1.139  10.741  1.1646  0.1564 -0.1228
 7240SOL     OW23160   2.764   1.022  10.839 -0.8204  0.6518 -0.5298
 7240SOL    HW123161   2.849   0.983  10.817 -0.0579  1.6093  0.6186
 7240SOL    HW223162   2.785   1.110  10.868 -2.2320  0.9251 -0.2925
 7241SOL     OW23163   3.247   2.223  10.959 -0.2513 -0.1730  0.0779
 7241SOL    HW123164   3.259   2.130  10.978 -1.7831 -0.1807  1.1748
 7241SOL    HW223165   3.333   2.262  10.975  0.3274 -1.3339 -0.0767
 7242SOL     OW23166   4.570   0.497  12.373  0.1107  0.1764 -0.0361
 7242SOL    HW123167   4.509   0.457  12.312 -0.4766  1.5713 -0.4122
 7242SOL    HW223168   4.653   0.500  12.326  0.0524 -0.2063 -0.1638
 7243SOL     OW23169   1.546   1.907  10.939  0.0067  0.2800 -0.2610
 7243SOL    HW123170   1.587   1.927  11.023  1.7241 -0.2069 -0.9360
 7243SOL    HW223171   1.532   1.812  10.941  0.1207  0.2557 -0.5471
 7244SOL     OW23172   3.899   3.046  11.324 -0.1464  0.3609  0.3479
 7244SOL    HW123173   3.988   3.023  11.353  0.7877  1.4535 -1.4480
 7244SOL    HW223174   3.907   3.134  11.289 -2.0789  0.6744  0.6017
 7245SOL     OW23175   5.154   0.979  11.870  0.6459 -0.1575  0.8947
 7245SOL    HW123176   5.118   0.941  11.950  1.2085 -0.6178  0.9320
 7245SOL    HW223177   5.141   1.073  11.880 -0.5609 -0.3022  0.8974
 7246SOL     OW23178   2.211   0.490   9.850 -0.3115 -0.0815 -0.6508
 7246SOL    HW123179   2.263   0.410   9.864 -1.6704 -0.9574 -0.3942
 7246SOL    HW223180   2.232   0.546   9.924  1.9211  0.5483 -1.6705
 7247SOL     OW23181   4.908   7.485  12.193 -0.1901  0.2456 -0.0739
 7247SOL    HW123182   4.905   7.565  12.140  2.2845  0.4414 -0.0292
 7247SOL    HW223183   4.905   7.516  12.283 -1.0878  0.1307 -0.0532
 7248SOL     OW23184   1.801   1.280  12.262 -0.2776  0.9406  0.2396
 7248SOL    HW123185   1.795   1.214  12.193 -0.5159  1.1884  0.0221
 7248SOL    HW223186   1.723   1.334  12.251 -0.7642  0.4704  1.2348
 7249SOL     OW23187   4.517   2.202  11.307  0.7117 -0.2592 -0.0275
 7249SOL    HW123188   4.583   2.145  11.267 -0.5143 -0.4279 -1.9148
 7249SOL    HW223189   4.486   2.152  11.382 -1.2311 -2.8080 -2.3314
 7250SOL     OW23190   2.214   7.916  11.037  0.0068  0.2156 -0.8684
 7250SOL    HW123191   2.224   8.010  11.047  1.1697 -0.0298  0.8724
 7250SOL    HW223192   2.285   7.891  10.977  1.6611  0.1289  1.0303
 7251SOL     OW23193   2.009   0.290  10.945  0.4780  0.1225  0.2196
 7251SOL    HW123194   2.077   0.223  10.950  0.6154  0.3541  2.3199
 7251SOL    HW223195   2.042   0.362  11.000  0.6977  2.2987 -2.5200
 7252SOL     OW23196   1.907   1.708  11.051 -0.4477  0.5223 -0.2340
 7252SOL    HW123197   1.980   1.654  11.021 -0.3082 -0.3674  1.5788
 7252SOL    HW223198   1.836   1.646  11.067 -0.0355  0.6854  2.6468
 7253SOL     OW23199   2.759   1.784  12.183  0.1024 -0.2194  0.4355
 7253SOL    HW123200   2.765   1.771  12.088 -0.6384 -0.4442  0.4149
 7253SOL    HW223201   2.754   1.879  12.193  2.7551  0.0109  0.4245
 7254SOL     OW23202   1.297   0.730  10.833 -0.4889  0.0660  0.0177
 7254SOL    HW123203   1.384   0.762  10.809 -0.6122 -0.0470 -0.5891
 7254SOL    HW223204   1.307   0.636  10.841 -0.3760  0.1340  0.7378
 7255SOL     OW23205   3.187   2.022  11.640  0.5955  0.0356 -0.5255
 7255SOL    HW123206   3.127   2.096  11.640  0.2823 -0.1885 -1.5456
 7255SOL    HW223207   3.137   1.952  11.597  1.1880 -0.4977 -0.3546
 7256SOL     OW23208   3.280   1.227  10.972 -0.2397  0.4121  0.0570
 7256SOL    HW123209   3.244   1.170  11.040 -1.4614  0.8525 -0.1965
 7256SOL    HW223210   3.375   1.222  10.984 -0.3855 -0.5379  0.9510
 7257SOL     OW23211   2.887   0.251  11.760  0.1947  0.1740 -0.5148
 7257SOL    HW123212   2.814   0.208  11.714  0.1369  1.9376 -2.1952
 7257SOL    HW223213   2.844   0.316  11.815  0.4439  1.9766 -2.3243
 7258SOL     OW23214   2.440   2.064  10.729 -0.4358 -0.5915  0.2575
 7258SOL    HW123215   2.414   2.078  10.638 -2.8386  2.3761  1.2164
 7258SOL    HW223216   2.503   2.133  10.746  1.1669 -2.0534  0.5392
 7259SOL     OW23217   2.196   3.181  10.784  0.3828 -0.0453 -0.4064
 7259SOL    HW123218   2.174   3.092  10.812 -1.2451  0.7450  1.0231
 7259SOL    HW223219   2.269   3.169  10.723 -0.3960 -2.4142 -1.0030
 7260SOL     OW23220   3.594   2.581  10.717  0.7038 -0.0852  0.5373
 7260SOL    HW123221   3.630   2.564  10.805  0.6949  0.5412  0.6686
 7260SOL    HW223222   3.670   2.599  10.663  0.6622  0.3260  0.6068
 7261SOL     OW23223   2.998   1.105  10.538  0.2613 -0.1353 -0.1074
 7261SOL    HW123224   2.980   1.199  10.536  1.3069  0.0767 -0.1768
 7261SOL    HW223225   3.065   1.095  10.605 -1.1004 -1.0879  1.1851
 7262SOL     OW23226   2.239   0.500  11.795 -0.1516 -0.0822  0.1364
 7262SOL    HW123227   2.180   0.554  11.848 -0.2476 -0.4486  0.4044
 7262SOL    HW223228   2.188   0.477  11.718 -0.6879 -1.1629  0.7921
 7263SOL     OW23229   2.189   0.269  11.586  0.1819  0.0598  0.3426
 7263SOL    HW123230   2.159   0.350  11.545  0.3734  1.3574  2.6246
 7263SOL    HW223231   2.281   0.262  11.560  0.2470  0.7363  0.3642
 7264SOL     OW23232   2.928   7.476   1.616  0.0217 -0.1712  0.6164
 7264SOL    HW123233   2.963   7.447   1.700 -0.2940  0.2923  0.9137
 7264SOL    HW223234   3.000   7.525   1.576  0.3025 -0.7185  0.4419
 7265SOL     OW23235   5.492   7.275  12.478 -0.2091 -0.2267  0.0832
 7265SOL    HW123236   5.571   7.263  12.425  0.1840 -1.4768  0.9134
 7265SOL    HW223237   5.524   7.290  12.566 -0.8350 -2.7681  0.8511
 7266SOL     OW23238   4.066   0.159  11.932 -0.1860 -0.4153  0.1240
 7266SOL    HW123239   4.025   0.163  11.845  0.4726  0.9086 -0.1569
 7266SOL    HW223240   4.006   0.207  11.988 -0.8704 -1.7159  0.5320
 7267SOL     OW23241   4.078   1.640  12.111  0.1580 -0.3383  0.4453
 7267SOL    HW123242   4.076   1.552  12.074 -0.1845  0.8763 -2.7300
 7267SOL    HW223243   3.990   1.675  12.097  0.9301  1.3062 -0.5872
 7268SOL     OW23244   2.078   6.372  11.125 -0.3987 -0.5363  0.1466
 7268SOL    HW123245   2.126   6.417  11.194 -0.2207 -1.6517  0.7728
 7268SOL    HW223246   2.059   6.285  11.161 -0.7981 -0.9444 -0.9927
 7269SOL     OW23247   3.666   2.791  10.405  0.4514 -0.0823 -0.0367
 7269SOL    HW123248   3.574   2.801  10.429  0.7461  1.3927  0.5743
 7269SOL    HW223249   3.695   2.880  10.384  1.1280 -0.8164 -2.6256
 7270SOL     OW23250   1.514   1.644  10.886  0.0960  0.2731  0.5685
 7270SOL    HW123251   1.455   1.609  10.819  1.2461  2.9639 -2.0873
 7270SOL    HW223252   1.580   1.576  10.898 -1.6951 -1.4342  1.1787
 7271SOL     OW23253   3.604   0.236   0.171 -0.4158  0.1891 -0.0611
 7271SOL    HW123254   3.614   0.331   0.175 -1.9511  0.3187  1.5616
 7271SOL    HW223255   3.509   0.222   0.164 -0.2197 -1.2239 -0.1797
 7272SOL     OW23256   4.176   2.059  11.256  0.6790  0.5248 -0.4694
 7272SOL    HW123257   4.236   2.112  11.310  0.6580  0.4851 -0.4075
 7272SOL    HW223258   4.166   2.110  11.176  1.4017  0.1675 -0.7971
 7273SOL     OW23259   3.208   0.555  12.159  0.5588  0.0065  0.0943
 7273SOL    HW123260   3.271   0.611  12.112  0.2326  1.2700  1.1029
 7273SOL    HW223261   3.151   0.521  12.090 -0.5252  2.5923 -0.4047
 7274SOL     OW23262   3.682   1.317  12.262 -0.4038 -0.3136  0.5384
 7274SOL    HW123263   3.687   1.411  12.283 -1.2928 -0.1089 -0.1105
 7274SOL    HW223264   3.768   1.283  12.287 -0.7811  0.2363  2.9013
 7275SOL     OW23265   2.686   0.505   0.474 -1.0900 -0.6549  0.3656
 7275SOL    HW123266   2.629   0.552   0.535 -1.2617  0.2068 -0.4387
 7275SOL    HW223267   2.631   0.436   0.437 -1.0705 -0.9899  0.9499
 7276SOL     OW23268   3.330   0.620   0.011 -0.2154 -0.4357  0.0627
 7276SOL    HW123269   3.327   0.585   0.100  0.8748  0.0888  0.3228
 7276SOL    HW223270   3.360   0.547  -0.042 -1.9633 -1.1022 -0.1000
 7277SOL     OW23271   2.727   1.971  10.549  0.0492 -0.0584  0.0674
 7277SOL    HW123272   2.750   2.061  10.524 -0.5277  0.2355  0.5615
 7277SOL    HW223273   2.637   1.960  10.519  0.1419 -0.4975 -0.0546
 7278SOL     OW23274   2.962   1.108   1.574  0.2259  0.2130 -0.1888
 7278SOL    HW123275   2.941   1.123   1.666  0.6170 -1.1438  0.1484
 7278SOL    HW223276   2.931   1.019   1.557 -1.5665  1.0786 -1.9018
 7279SOL     OW23277   4.599   0.759  12.070  0.5295 -0.2453  0.3314
 7279SOL    HW123278   4.524   0.811  12.099 -0.1525 -0.6889 -0.6107
 7279SOL    HW223279   4.600   0.767  11.975  0.4592 -1.8657  0.1617
 7280SOL     OW23280   2.857   2.423  12.005  0.2972 -0.4377 -0.1701
 7280SOL    HW123281   2.948   2.422  11.975  0.5793 -0.2497  0.6513
 7280SOL    HW223282   2.857   2.486  12.077 -0.4575 -0.5555 -0.0636
 7281SOL     OW23283   3.245   2.511   0.520 -0.0086  0.2486  0.4597
 7281SOL    HW123284   3.181   2.449   0.485  1.7740 -0.1780 -2.3419
 7281SOL    HW223285   3.296   2.461   0.584  0.9389 -1.0626 -1.2472
 7282SOL     OW23286   1.773   2.599  10.877  0.9839  0.0214  0.5948
 7282SOL    HW123287   1.826   2.537  10.926  0.3515  0.1544  1.4666
 7282SOL    HW223288   1.718   2.642  10.943 -0.4891 -0.3976 -0.3075
 7283SOL     OW23289   1.996   0.800  12.143  0.0216  0.0549  0.4611
 7283SOL    HW123290   2.032   0.802  12.055  3.7749 -3.5607  1.5836
 7283SOL    HW223291   1.906   0.770  12.132 -0.1097  1.1663 -2.1449
 7284SOL     OW23292   3.459   1.913   9.656  0.5369  0.4978 -0.3288
 7284SOL    HW123293   3.544   1.891   9.619  1.1503  2.1448  0.0031
 7284SOL    HW223294   3.407   1.942   9.581  0.9740  1.4720 -0.2747
 7285SOL     OW23295   1.788   6.357  11.766  0.0233  0.8632  0.3605
 7285SOL    HW123296   1.806   6.379  11.858 -1.5247 -0.2171  0.9479
 7285SOL    HW223297   1.696   6.378  11.754 -0.0054  0.1777 -0.7029
 7286SOL     OW23298   0.310   1.199   1.294 -0.0426 -0.4970  0.0809
 7286SOL    HW123299   0.284   1.185   1.385  0.2415  0.8193  0.3841
 7286SOL    HW223300   0.234   1.243   1.254 -0.5754 -1.9741 -0.6114
 7287SOL     OW23301   2.576   7.141  11.835 -0.3224  0.0251 -0.1325
 7287SOL    HW123302   2.657   7.148  11.885 -0.6152  1.8857  0.1302
 7287SOL    HW223303   2.596   7.180  11.750 -1.2280  1.5482  0.3243
 7288SOL     OW23304   2.565   0.599  10.968 -0.0737  0.4301 -0.1490
 7288SOL    HW123305   2.553   0.532  11.036  0.0544  0.5697  0.0130
 7288SOL    HW223306   2.622   0.664  11.009 -0.7546  0.9850 -0.0695
 7289SOL     OW23307   5.008   3.687  11.401  0.0205  0.4652 -0.3544
 7289SOL    HW123308   4.957   3.606  11.392 -1.0629  1.0024  0.6366
 7289SOL    HW223309   4.949   3.756  11.371  0.2006  1.0897  0.6783
 7290SOL     OW23310   3.375   0.795  12.126 -0.3742  0.7275 -0.0111
 7290SOL    HW123311   3.409   0.885  12.130 -0.9030  0.9709 -0.6386
 7290SOL    HW223312   3.381   0.772  12.033 -0.6276  0.2687  0.0840
 7291SOL     OW23313   4.526   7.641   6.949 -0.4635 -0.2813 -0.1859
 7291SOL    HW123314   4.493   7.650   7.038  0.5643 -0.1499  0.1887
 7291SOL    HW223315   4.483   7.562   6.916 -0.8618 -0.3259  0.4240
 7292SOL     OW23316   2.601   0.257  11.736 -0.6379 -0.1269  0.0104
 7292SOL    HW123317   2.550   0.322  11.687 -0.5898 -0.3757 -0.3738
 7292SOL    HW223318   2.636   0.198  11.669  3.0375  1.9677 -0.1991
 7293SOL     OW23319   3.778   2.102  11.188 -0.1430 -0.3971 -0.7514
 7293SOL    HW123320   3.810   2.143  11.107 -1.2577  0.2841 -0.8734
 7293SOL    HW223321   3.718   2.034  11.158 -0.3830 -0.2958 -0.5044
 7294SOL     OW23322   0.604   0.441  11.431 -0.2423 -0.0800  0.1593
 7294SOL    HW123323   0.557   0.399  11.503  1.4148  1.4982  2.2971
 7294SOL    HW223324   0.593   0.535  11.447 -0.8666  0.3740 -2.4287
 7295SOL     OW23325   5.212   0.466  11.758 -0.0867 -0.1862 -0.3965
 7295SOL    HW123326   5.191   0.559  11.747 -0.2209 -0.1671 -0.0056
 7295SOL    HW223327   5.179   0.445  11.845 -0.0125 -0.5903 -0.4669
 7296SOL     OW23328   2.989   0.484  12.006 -0.0354 -0.8141  0.5406
 7296SOL    HW123329   2.896   0.497  11.990  0.0401 -0.7345  0.1672
 7296SOL    HW223330   3.010   0.403  11.960  0.0284 -0.9649  0.8308
 7297SOL     OW23331   1.175   1.935  12.464  0.4574  0.1238  0.2118
 7297SOL    HW123332   1.120   1.861  12.488  1.5621 -1.2485 -1.3165
 7297SOL    HW223333   1.253   1.926  12.518  2.1670 -1.9652 -2.3712
 7298SOL     OW23334   2.761   2.674  10.467  0.3139 -0.1975 -0.2530
 7298SOL    HW123335   2.805   2.667  10.552  1.0232 -0.7134 -0.6592
 7298SOL    HW223336   2.731   2.586  10.447  1.5171 -0.4072 -1.2539
 7299SOL     OW23337   2.013   3.207  12.056  0.6689  0.3278 -0.1931
 7299SOL    HW123338   1.965   3.193  11.975  2.4168 -1.5048 -1.0030
 7299SOL    HW223339   2.010   3.123  12.101 -0.6606  1.4203  1.9589
 7300SOL     OW23340   2.242   7.992  12.053 -0.0892 -0.0361  0.0934
 7300SOL    HW123341   2.237   7.954  12.141 -2.0715 -0.5041 -0.1712
 7300SOL    HW223342   2.208   7.923  11.996 -2.0519  1.4331 -0.6052
 7301SOL     OW23343   2.691   6.896  12.381 -0.3810 -1.1078 -0.5362
 7301SOL    HW123344   2.606   6.936  12.403  0.4095  1.6689 -2.0776
 7301SOL    HW223345   2.668   6.811  12.345 -2.4871 -0.7486 -0.1790
 7302SOL     OW23346   3.989   7.768  10.869 -0.1825  0.2799 -0.5336
 7302SOL    HW123347   3.958   7.859  10.873  0.7701  0.5555  1.4686
 7302SOL    HW223348   3.934   7.721  10.931 -1.2216 -0.7533 -2.1517
 7303SOL     OW23349   1.999   7.284  12.323 -0.1599  0.0751 -0.6327
 7303SOL    HW123350   2.090   7.313  12.324 -0.4807  1.2086 -1.6275
 7303SOL    HW223351   1.976   7.272  12.415  0.7317  0.6319 -0.3272
 7304SOL     OW23352   3.530   1.397  11.267 -0.1330 -0.2598  0.2492
 7304SOL    HW123353   3.588   1.394  11.343 -0.1577 -1.6230  0.2401
 7304SOL    HW223354   3.522   1.305  11.240  1.0058  0.3165 -2.2680
 7305SOL     OW23355   4.245   0.487  11.421 -0.6598  0.2918 -0.5672
 7305SOL    HW123356   4.157   0.450  11.428  0.1243 -1.8212 -1.0317
 7305SOL    HW223357   4.300   0.424  11.467  0.7087  1.2352 -0.8721
 7306SOL     OW23358   2.697   6.768   0.859 -0.6833  0.1601  0.1915
 7306SOL    HW123359   2.650   6.851   0.846 -0.3487  0.2725 -0.3754
 7306SOL    HW223360   2.712   6.736   0.770 -0.4079 -0.2829  0.3958
 7307SOL     OW23361   2.440   1.769   0.004  0.4265 -0.1255  0.1926
 7307SOL    HW123362   2.375   1.838   0.017  1.0797  0.7863 -1.1818
 7307SOL    HW223363   2.389   1.692  -0.018 -0.1971  0.8787 -2.1522
 7308SOL     OW23364   3.316   3.318   0.461 -0.5476 -0.2446  0.7616
 7308SOL    HW123365   3.311   3.394   0.404  0.0098  0.1433  1.2138
 7308SOL    HW223366   3.226   3.303   0.490 -0.5549  0.6741  1.2242
 7309SOL     OW23367   2.910   0.979   0.220  0.1419  0.3520  0.5982
 7309SOL    HW123368   2.899   0.893   0.261  0.8846  0.7786  1.7426
 7309SOL    HW223369   2.822   1.003   0.191  0.1843 -1.5445 -1.3656
 7310SOL     OW23370   1.145   2.202   1.249 -0.0849  0.0673  0.5635
 7310SOL    HW123371   1.152   2.148   1.328  0.7990  1.6279  1.5947
 7310SOL    HW223372   1.052   2.222   1.242 -0.3109 -0.8958  0.6218
 7311SOL     OW23373   2.846   0.851  11.455 -0.3243  0.3941 -0.0010
 7311SOL    HW123374   2.769   0.824  11.506  1.7692  0.2971  3.3654
 7311SOL    HW223375   2.856   0.944  11.474  0.8307  0.2268  0.2807
 7312SOL     OW23376   4.074   1.834   0.010 -0.0014  0.7222  0.8202
 7312SOL    HW123377   4.118   1.874  -0.065  1.0040  0.8236  1.4375
 7312SOL    HW223378   3.982   1.829  -0.015  0.4475 -0.1780 -0.8288
 7313SOL     OW23379   3.520   7.248  11.742 -0.0650 -0.0500  0.2555
 7313SOL    HW123380   3.557   7.258  11.654  2.1970 -0.7727  1.0521
 7313SOL    HW223381   3.593   7.217  11.795 -1.5020 -0.1151  2.3051
 7314SOL     OW23382   2.965   2.081   9.560  0.0588 -0.4035 -0.8275
 7314SOL    HW123383   2.992   1.989   9.559  2.0573  0.1193 -2.4451
 7314SOL    HW223384   2.964   2.107   9.468 -0.0141  1.3046 -0.3820
 7315SOL     OW23385   3.065   1.715   0.197  0.5135  0.2040 -0.2874
 7315SOL    HW123386   2.975   1.725   0.227 -0.1502  0.1672 -2.1727
 7315SOL    HW223387   3.092   1.629   0.229 -0.8771 -0.7112 -1.4800
 7316SOL     OW23388   3.394   1.929   0.155  0.2108  0.0525  0.3343
 7316SOL    HW123389   3.451   1.857   0.129 -1.4256 -1.2827  0.3022
 7316SOL    HW223390   3.343   1.949   0.076  0.7535  1.3944  0.2925
 7317SOL     OW23391   2.996   1.414  10.533 -0.9732  0.0355  0.0132
 7317SOL    HW123392   2.959   1.502  10.534  0.8287  0.9809  3.9365
 7317SOL    HW223393   3.089   1.427  10.514 -0.4193 -0.7859  1.9249
 7318SOL     OW23394   2.122   3.297  11.586  0.3335 -0.0796 -0.0605
 7318SOL    HW123395   2.128   3.391  11.567  0.5577 -0.0383  0.2065
 7318SOL    HW223396   2.042   3.288  11.637 -0.3374 -0.2065 -1.1018
 7319SOL     OW23397   1.939   1.966  10.970  0.3257  0.2534 -0.2066
 7319SOL    HW123398   1.917   1.884  11.015  0.9041 -0.9910 -2.0623
 7319SOL    HW223399   2.035   1.964  10.963  0.3937  1.3690  0.1803
 7320SOL     OW23400   3.813   1.733  10.642  0.3910  0.2540  0.3817
 7320SOL    HW123401   3.831   1.800  10.576 -0.4211 -1.1251 -1.3142
 7320SOL    HW223402   3.719   1.738  10.657  0.4116 -0.1184  0.6691
 7321SOL     OW23403   5.030   3.518  11.878  0.1359 -0.5745 -0.0620
 7321SOL    HW123404   4.981   3.444  11.840 -1.7909  1.0150 -0.8339
 7321SOL    HW223405   4.992   3.530  11.965  0.0886 -0.1803 -0.1358
 7322SOL     OW23406   4.853   1.786  11.464  0.1977  0.4661  0.1841
 7322SOL    HW123407   4.895   1.839  11.531 -0.1349  0.7833  0.1471
 7322SOL    HW223408   4.925   1.746  11.416  0.4385 -0.8838  1.5973
 7323SOL     OW23409   4.423   1.023  11.394 -0.0340 -0.0885 -0.0603
 7323SOL    HW123410   4.377   1.040  11.311  1.1693 -0.1613 -0.7700
 7323SOL    HW223411   4.514   1.045  11.375  1.0176 -3.6600  0.0709
 7324SOL     OW23412   2.636   1.522  10.778  0.3605 -0.0293 -0.4529
 7324SOL    HW123413   2.597   1.591  10.831  0.1881 -0.7720  0.4152
 7324SOL    HW223414   2.562   1.481  10.733  0.5189  0.6737 -1.3747
 7325SOL     OW23415   3.703   0.263   0.742 -0.1493 -0.1552 -0.7382
 7325SOL    HW123416   3.699   0.358   0.727  0.0241  0.2398  1.3126
 7325SOL    HW223417   3.772   0.253   0.808  0.4544 -1.8326 -1.5713
 7326SOL     OW23418   2.584   1.743  10.939 -0.0087  0.0862 -0.5976
 7326SOL    HW123419   2.618   1.741  11.028 -0.8911  0.7951 -0.2377
 7326SOL    HW223420   2.629   1.816  10.897 -2.1709  2.0593  0.3537
 7327SOL     OW23421   3.730   0.766   9.882 -0.4814  0.0031  0.5320
 7327SOL    HW123422   3.717   0.850   9.837 -0.6347 -0.4016 -0.1961
 7327SOL    HW223423   3.654   0.758   9.939 -1.7286 -0.7157 -1.1382
 7328SOL     OW23424   3.330   0.673  11.837  0.3647  0.0018  0.2511
 7328SOL    HW123425   3.389   0.714  11.774 -0.7455  0.3314 -0.6064
 7328SOL    HW223426   3.368   0.586  11.852  1.4550  0.4682  0.2895
 7329SOL     OW23427   3.760   3.547  11.096 -0.1919  0.2111  0.7347
 7329SOL    HW123428   3.827   3.614  11.087 -0.1098 -0.0544 -0.9863
 7329SOL    HW223429   3.761   3.523  11.189  1.5180  0.7967  0.8856
 7330SOL     OW23430   2.539   1.449   0.690 -0.5085  0.8215 -0.2720
 7330SOL    HW123431   2.460   1.421   0.645  0.6213 -1.4527 -0.9820
 7330SOL    HW223432   2.585   1.503   0.626 -1.5033  2.2832  0.1996
 7331SOL     OW23433   3.330   0.220   0.130 -0.2335  0.5559  0.0147
 7331SOL    HW123434   3.275   0.287   0.171  0.5118  1.6942 -0.7613
 7331SOL    HW223435   3.268   0.159   0.090 -0.9333  1.0658  0.2953
 7332SOL     OW23436   3.014   6.837  11.900 -0.4335 -0.0942 -0.3771
 7332SOL    HW123437   2.965   6.900  11.953 -0.0266 -2.2046  2.7973
 7332SOL    HW223438   2.949   6.801  11.839 -1.5037  0.8178  0.1863
 7333SOL     OW23439   2.332   0.268  10.689  0.2355 -0.3025  1.1113
 7333SOL    HW123440   2.261   0.249  10.628 -0.5093 -2.3992  2.5089
 7333SOL    HW223441   2.334   0.363  10.694 -1.5288 -0.1481 -0.0527
 7334SOL     OW23442   3.826   1.236  11.851  0.1558 -0.3508  0.0275
 7334SOL    HW123443   3.792   1.221  11.940 -2.7808 -0.0344 -0.9079
 7334SOL    HW223444   3.880   1.160  11.833  1.3369 -0.1351  2.2693
 7335SOL     OW23445   1.492   0.964  10.548  0.2342  0.4941 -0.2709
 7335SOL    HW123446   1.505   0.895  10.614 -1.4769  0.8937  0.5326
 7335SOL    HW223447   1.462   0.917  10.470 -0.4052  0.2579  0.1058
 7336SOL     OW23448   2.047   1.885  11.957  0.5450  0.0408 -0.0281
 7336SOL    HW123449   2.043   1.796  11.992  0.8102  0.4787  1.1674
 7336SOL    HW223450   2.039   1.874  11.862  1.8762 -1.3628 -0.0197
 7337SOL     OW23451   4.403   1.653  11.442 -0.2231 -0.3575  0.5709
 7337SOL    HW123452   4.442   1.696  11.366 -0.6677 -1.5779 -0.3811
 7337SOL    HW223453   4.451   1.689  11.517  1.4170 -0.3881 -0.4093
 7338SOL     OW23454   4.501   1.296  11.123 -0.3037 -0.2123  0.2070
 7338SOL    HW123455   4.570   1.285  11.058 -0.0534  0.0463  0.4302
 7338SOL    HW223456   4.547   1.309  11.206 -0.5485 -3.6020  1.0385
 7339SOL     OW23457   3.320   7.922   0.359 -0.2572 -0.6131 -0.2821
 7339SOL    HW123458   3.392   7.891   0.304 -0.1812 -0.4698 -0.2647
 7339SOL    HW223459   3.355   8.001   0.401 -0.3948 -0.5931 -0.2072
 7340SOL     OW23460   2.436   1.337  10.573  0.2491 -0.3335  0.4074
 7340SOL    HW123461   2.375   1.264  10.583 -3.3178  2.2689 -0.4979
 7340SOL    HW223462   2.439   1.353  10.478  2.2071 -0.1526  0.4476
 7341SOL     OW23463   4.814   0.201  12.257 -0.7117 -0.0759  0.0094
 7341SOL    HW123464   4.775   0.236  12.177  0.3150  0.6669 -0.1879
 7341SOL    HW223465   4.740   0.191  12.317 -1.2832  0.8517 -0.5141
 7342SOL     OW23466   2.277   1.397   9.491  0.4953  0.0536 -0.4707
 7342SOL    HW123467   2.257   1.458   9.420 -2.5328 -0.4118 -0.1187
 7342SOL    HW223468   2.371   1.410   9.507  0.6037  2.4343 -2.4021
 7343SOL     OW23469   4.218   1.310   0.252  0.0326  0.1074  0.0801
 7343SOL    HW123470   4.199   1.244   0.184 -0.3106 -0.4509  0.7000
 7343SOL    HW223471   4.240   1.389   0.203  0.5024 -0.4815 -0.6841
 7344SOL     OW23472   2.921   0.619  10.125 -0.4576 -0.2278 -0.2909
 7344SOL    HW123473   2.940   0.538  10.172  1.8842  0.2053 -0.3822
 7344SOL    HW223474   2.962   0.607  10.039  1.9739  1.8519  0.4600
 7345SOL     OW23475   1.666   1.807  11.594 -0.1576 -0.5665  0.3880
 7345SOL    HW123476   1.736   1.766  11.545  0.7247  1.8386 -0.5351
 7345SOL    HW223477   1.701   1.817  11.683  0.3495 -0.1538  0.1468
 7346SOL     OW23478   2.977   1.374  11.750  0.3054 -0.5632  0.6145
 7346SOL    HW123479   2.963   1.295  11.697  0.6518 -1.5477  1.9460
 7346SOL    HW223480   3.070   1.370  11.774  0.3812  0.3857  0.4995
 7347SOL     OW23481   4.624   7.468  12.181  0.1510  0.1460  0.6103
 7347SOL    HW123482   4.718   7.484  12.183  0.1866 -0.1031  1.7413
 7347SOL    HW223483   4.611   7.394  12.240 -0.6093 -0.7031 -0.5762
 7348SOL     OW23484   3.763   1.076  10.816 -0.2194 -0.2562  0.0667
 7348SOL    HW123485   3.825   1.121  10.760 -0.7948  0.0980 -0.2973
 7348SOL    HW223486   3.797   0.987  10.824  1.8989  0.6364  2.2208
 7349SOL     OW23487   2.975   7.847  12.028 -0.1537  0.5389 -0.2539
 7349SOL    HW123488   3.051   7.801  12.063  0.8135  1.4531 -1.0663
 7349SOL    HW223489   2.953   7.912  12.095 -0.2480  0.2445  0.0020
 7350SOL     OW23490   0.941   0.350  12.043 -0.5351  0.0244  0.0742
 7350SOL    HW123491   0.970   0.434  12.078 -2.2297  0.0862  1.5331
 7350SOL    HW223492   0.848   0.363  12.025  0.1259 -0.1163 -4.4271
 7351SOL     OW23493   2.665   1.875   9.968 -0.1618 -0.3131  0.3295
 7351SOL    HW123494   2.670   1.781   9.982  1.0364 -0.1784  0.9817
 7351SOL    HW223495   2.743   1.896   9.917  0.0094  0.4249  0.8729
 7352SOL     OW23496   2.557   2.087   0.603 -0.0209  0.4146  0.0708
 7352SOL    HW123497   2.618   2.014   0.592 -1.6251 -1.2369  1.5636
 7352SOL    HW223498   2.561   2.108   0.696 -0.9458  0.9879 -0.0069
 7353SOL     OW23499   0.486   2.288   2.303 -0.1301  0.2464 -0.4376
 7353SOL    HW123500   0.502   2.270   2.396  1.3337 -0.3407 -0.7726
 7353SOL    HW223501   0.568   2.324   2.271 -0.4668  0.0168 -1.6105
 7354SOL     OW23502   1.426   1.092   0.973 -0.2557  0.4607 -0.5379
 7354SOL    HW123503   1.413   1.157   0.904 -1.0790 -0.4902 -1.3208
 7354SOL    HW223504   1.505   1.045   0.946 -0.9167 -0.3055 -1.1761
 7355SOL     OW23505   1.936   3.881   1.474 -0.2745 -0.3176 -0.1821
 7355SOL    HW123506   1.919   3.975   1.477  0.7549 -0.1195 -0.2977
 7355SOL    HW223507   2.019   3.870   1.519 -0.9606 -1.3355  0.8769
 7356SOL     OW23508   4.891   4.224   1.577 -0.0303  0.2790  0.4233
 7356SOL    HW123509   4.816   4.173   1.547  1.8590 -1.3072 -2.0191
 7356SOL    HW223510   4.887   4.306   1.527  0.1910 -0.0663 -0.1622
 7357SOL     OW23511   1.341   1.892   0.204  0.3319 -0.0538 -0.5386
 7357SOL    HW123512   1.410   1.891   0.271  0.7692  1.6582 -0.9151
 7357SOL    HW223513   1.348   1.806   0.163  1.4170 -0.3829  0.2564
 7358SOL     OW23514   5.243   1.257  11.467 -0.1958 -0.2561  0.4240
 7358SOL    HW123515   5.205   1.174  11.437 -0.2640 -0.2406  0.4662
 7358SOL    HW223516   5.315   1.230  11.524 -0.8086 -0.2981  1.1972
 7359SOL     OW23517   2.762   2.730   1.792 -0.0072  0.0654  0.2394
 7359SOL    HW123518   2.799   2.652   1.750  1.1613  1.6093 -1.7876
 7359SOL    HW223519   2.671   2.730   1.764  0.2811  0.0277 -0.7702
 7360SOL     OW23520   2.246   2.997   1.261 -0.4131 -0.5655 -0.1621
 7360SOL    HW123521   2.236   2.994   1.356 -0.4333 -0.0275 -0.1449
 7360SOL    HW223522   2.184   2.931   1.229 -1.0721 -0.1190  0.1563
 7361SOL     OW23523   2.742   3.243   0.900  0.2568 -0.2263 -0.1165
 7361SOL    HW123524   2.672   3.280   0.847  1.4284 -0.9018 -2.2625
 7361SOL    HW223525   2.770   3.316   0.957 -2.6842 -0.1920  1.4992
 7362SOL     OW23526   2.089   1.793   2.380 -0.4720 -0.2265 -0.2633
 7362SOL    HW123527   2.109   1.848   2.455 -4.4071  0.9902  0.0753
 7362SOL    HW223528   2.134   1.835   2.307  0.5403  0.5830  0.7900
 7363SOL     OW23529   3.400   4.358   2.107 -0.6168  0.0933 -0.3552
 7363SOL    HW123530   3.472   4.302   2.080  0.4919  1.6806 -0.8460
 7363SOL    HW223531   3.381   4.412   2.031 -2.6259 -0.5309 -0.3742
 7364SOL     OW23532   3.062   4.552   1.920  0.6741 -0.1764  0.2730
 7364SOL    HW123533   3.150   4.563   1.884  0.6216 -0.0729  0.1759
 7364SOL    HW223534   3.059   4.461   1.949  0.7620 -0.2231  0.1348
 7365SOL     OW23535   1.365   1.043   0.126  0.0040  0.5563  0.7938
 7365SOL    HW123536   1.302   1.108   0.157 -0.7238  0.4420 -0.3670
 7365SOL    HW223537   1.359   0.972   0.190  0.0764  1.1986  1.5274
 7366SOL     OW23538   3.661   1.594  12.322 -0.0408 -0.6865  0.3633
 7366SOL    HW123539   3.682   1.630  12.236  1.6571 -0.8326  0.6769
 7366SOL    HW223540   3.567   1.609  12.332 -0.0204  0.5433 -0.9402
 7367SOL     OW23541   2.659   2.842   0.393 -0.4328 -0.0119 -0.0195
 7367SOL    HW123542   2.673   2.936   0.378  0.4784 -0.4528 -2.4002
 7367SOL    HW223543   2.704   2.800   0.320 -0.6361 -2.3354  1.1277
 7368SOL     OW23544   3.205   2.638   3.670  0.4829 -0.1852 -0.9131
 7368SOL    HW123545   3.153   2.560   3.688 -0.2031  0.2956 -0.7671
 7368SOL    HW223546   3.140   2.706   3.653  1.0652  0.4138 -0.7640
 7369SOL     OW23547   1.446   3.467   2.420  0.8340 -0.1067 -0.5264
 7369SOL    HW123548   1.359   3.495   2.391  0.9043  0.4734 -0.2005
 7369SOL    HW223549   1.502   3.543   2.404  1.0011 -0.0003  0.5210
 7370SOL     OW23550   1.720   2.988  12.171 -0.5083 -0.5916 -0.1319
 7370SOL    HW123551   1.725   2.915  12.109  0.2792 -0.1722 -0.5745
 7370SOL    HW223552   1.810   2.999  12.202 -0.8990 -0.8314  1.1374
 7371SOL     OW23553   0.545   3.401   1.728  0.1235  0.7227 -0.1883
 7371SOL    HW123554   0.637   3.425   1.734 -0.1402  1.8936 -0.6014
 7371SOL    HW223555   0.498   3.476   1.763 -0.6519 -0.3708  1.2335
 7372SOL     OW23556   2.876   3.083   0.503  0.2348 -0.3167 -0.3241
 7372SOL    HW123557   2.888   3.052   0.413  1.7543  0.6257 -0.4847
 7372SOL    HW223558   2.889   3.177   0.498 -1.6547  0.0465  0.5850
 7373SOL     OW23559   2.699   2.343   1.920 -0.0493  0.0026 -0.0964
 7373SOL    HW123560   2.617   2.328   1.967  0.1212  0.3850  0.3427
 7373SOL    HW223561   2.681   2.317   1.830 -0.2474 -1.1785  0.2747
 7374SOL     OW23562   2.090   2.963   0.910  0.1602 -0.0671 -0.1515
 7374SOL    HW123563   2.039   2.883   0.899 -1.4400  0.5893  1.7712
 7374SOL    HW223564   2.094   3.002   0.823 -2.1293 -0.4697 -0.4980
 7375SOL     OW23565   2.014   3.888  12.185  0.2922  0.5463  0.2206
 7375SOL    HW123566   2.006   3.804  12.140  0.4703 -0.0950  1.3462
 7375SOL    HW223567   1.965   3.950  12.130 -1.4975 -0.6805  0.3474
 7376SOL     OW23568   0.849   2.447  12.005 -0.1126  0.4135  0.4328
 7376SOL    HW123569   0.928   2.443  11.951 -0.8247  1.7743 -0.7619
 7376SOL    HW223570   0.874   2.403  12.087  0.8784 -2.0712 -1.0949
 7377SOL     OW23571   2.814   3.487   1.075 -0.0894  0.3216  0.5172
 7377SOL    HW123572   2.885   3.518   1.019  0.4657 -1.2061  0.3282
 7377SOL    HW223573   2.735   3.500   1.022  0.4651 -1.5096 -0.8889
 7378SOL     OW23574   2.411   3.387   2.537 -0.2716  0.2760  0.3577
 7378SOL    HW123575   2.443   3.329   2.606 -0.5055  0.6749  0.8068
 7378SOL    HW223576   2.484   3.394   2.475 -0.1784 -0.3463  0.3902
 7379SOL     OW23577   1.658   1.491   1.683  0.7493  0.4339 -0.0408
 7379SOL    HW123578   1.618   1.574   1.657 -1.1821 -0.4852 -0.1781
 7379SOL    HW223579   1.694   1.507   1.770 -0.4678  1.1630  0.3497
 7380SOL     OW23580   0.854   3.285   0.173 -0.4957 -0.1849 -0.1159
 7380SOL    HW123581   0.789   3.318   0.235 -0.8362  1.9848 -1.5121
 7380SOL    HW223582   0.812   3.293   0.088  1.0165 -0.2951 -0.8966
 7381SOL     OW23583   3.324   1.475   0.572 -0.2755  0.2334 -0.3495
 7381SOL    HW123584   3.319   1.551   0.629 -0.8932 -0.6860  0.8791
 7381SOL    HW223585   3.416   1.449   0.573 -0.4141 -0.2770  0.9559
 7382SOL     OW23586   1.615   2.547   0.165  0.4004  0.3053 -0.4039
 7382SOL    HW123587   1.586   2.461   0.135 -0.9237  1.1882 -1.8119
 7382SOL    HW223588   1.610   2.543   0.260 -2.0137 -0.4221 -0.4990
 7383SOL     OW23589   2.009   1.753   4.027 -0.4172  1.0332  0.0073
 7383SOL    HW123590   1.982   1.724   4.114 -2.1851 -0.1440 -0.8727
 7383SOL    HW223591   2.105   1.748   4.029 -0.4746 -0.2836  1.4581
 7384SOL     OW23592   3.794   3.035   0.476 -0.2032 -0.4309  0.3867
 7384SOL    HW123593   3.796   3.085   0.558  0.0876 -1.6600  1.1536
 7384SOL    HW223594   3.762   2.948   0.502  0.7396 -1.1101 -0.6498
 7385SOL     OW23595   4.256   6.086   1.930 -0.2607  0.0186 -0.1376
 7385SOL    HW123596   4.243   6.153   1.997  2.3525  0.4411  0.0661
 7385SOL    HW223597   4.265   6.134   1.848  1.1070 -0.0606 -0.0655
 7386SOL     OW23598   2.062   2.655   2.620 -0.2247 -0.2771 -0.5229
 7386SOL    HW123599   1.980   2.627   2.578 -1.7412  1.4914  1.0496
 7386SOL    HW223600   2.099   2.720   2.561 -0.8562  0.1340 -0.4750
 7387SOL     OW23601   4.044   5.697   1.564  0.2465  0.1532 -0.0784
 7387SOL    HW123602   3.988   5.622   1.543 -0.9286  0.6387  1.2295
 7387SOL    HW223603   4.087   5.673   1.646  0.1664  0.7404  0.1417
 7388SOL     OW23604   5.547   3.519   0.387  0.4874 -0.2856  0.1052
 7388SOL    HW123605   5.558   3.473   0.470  0.9944  0.9037  0.7356
 7388SOL    HW223606   5.564   3.611   0.409 -2.7277  0.5856 -0.5992
 7389SOL     OW23607   0.935   2.441  12.294  0.6865 -0.0221  0.0590
 7389SOL    HW123608   0.925   2.528  12.332  1.6270 -0.4609  1.3669
 7389SOL    HW223609   1.030   2.429  12.286  0.5562 -0.2096 -1.8811
 7390SOL     OW23610   2.176   0.882  11.885 -0.0177 -0.1438  0.1053
 7390SOL    HW123611   2.206   0.884  11.976 -0.7134  0.6305  0.3264
 7390SOL    HW223612   2.203   0.966  11.848  0.0122 -0.3366 -0.3218
 7391SOL     OW23613   4.769   4.299   0.566 -0.1807  0.6099  0.1309
 7391SOL    HW123614   4.830   4.234   0.532  0.2478  1.0883 -0.0277
 7391SOL    HW223615   4.682   4.262   0.550  0.0541  0.2211 -0.2398
 7392SOL     OW23616   1.925   2.724   0.891  0.8727 -0.0395  0.0039
 7392SOL    HW123617   1.835   2.754   0.890  0.9384  0.3824  1.9525
 7392SOL    HW223618   1.939   2.693   0.980  3.2662  1.9144  0.4353
 7393SOL     OW23619   1.947   3.351   2.615 -0.0211  0.0898  0.6243
 7393SOL    HW123620   1.853   3.350   2.635 -0.1344  0.2312  0.1121
 7393SOL    HW223621   1.961   3.276   2.558  0.2070 -0.0195  0.8235
 7394SOL     OW23622   3.284   3.475   1.878  0.0689 -0.0780 -0.5826
 7394SOL    HW123623   3.283   3.410   1.807  0.5900 -0.5219 -0.1971
 7394SOL    HW223624   3.238   3.432   1.950  0.7824 -0.1829 -0.1875
 7395SOL     OW23625   2.519   2.264  11.404 -0.4136 -0.1693  0.0128
 7395SOL    HW123626   2.461   2.339  11.395 -0.4496 -0.1424  0.4363
 7395SOL    HW223627   2.463   2.193  11.436 -0.3309 -0.3106 -0.1489
 7396SOL     OW23628   2.130   2.299   0.293 -0.2633 -0.1233  0.2448
 7396SOL    HW123629   2.078   2.219   0.290 -1.5859  0.7353 -1.8248
 7396SOL    HW223630   2.113   2.342   0.209  4.3202 -0.0970 -0.9662
 7397SOL     OW23631   1.490   2.635   2.572 -0.1619 -0.4729 -0.3153
 7397SOL    HW123632   1.527   2.547   2.568 -0.9395 -0.7719 -1.5002
 7397SOL    HW223633   1.430   2.633   2.646  0.0768 -0.8446 -0.1326
 7398SOL     OW23634   2.996   3.935   1.910  0.6727  0.1422  0.0622
 7398SOL    HW123635   3.026   3.869   1.848 -1.2027 -0.9707  0.2546
 7398SOL    HW223636   2.973   4.010   1.856  0.9402 -0.0817 -0.3734
 7399SOL     OW23637   2.165   3.803   1.574 -0.0333 -0.2339 -0.1113
 7399SOL    HW123638   2.201   3.751   1.646 -4.1067 -2.9519  0.2474
 7399SOL    HW223639   2.204   3.766   1.495 -0.1608 -1.4532  0.3739
 7400SOL     OW23640   3.178   2.300   2.217 -0.5048  0.6420 -0.1935
 7400SOL    HW123641   3.165   2.233   2.285  0.3689 -0.1502 -0.7853
 7400SOL    HW223642   3.118   2.370   2.242 -2.0497 -0.6818  0.0045
 7401SOL     OW23643   2.206   2.240  12.465 -0.1041  0.1533  0.0550
 7401SOL    HW123644   2.281   2.227  12.523 -0.2259 -0.4194  0.0924
 7401SOL    HW223645   2.201   2.159  12.413 -1.7016 -0.5638  1.2216
 7402SOL     OW23646   2.167   2.738   1.205 -0.3941  0.2427 -0.1719
 7402SOL    HW123647   2.203   2.657   1.170  0.1751  0.7388 -0.7509
 7402SOL    HW223648   2.075   2.737   1.177 -1.0677 -1.3083  1.8191
 7403SOL     OW23649   2.779   4.673   0.454 -0.7784  0.2237 -0.0896
 7403SOL    HW123650   2.845   4.713   0.510 -1.5180  1.0578  0.2262
 7403SOL    HW223651   2.822   4.663   0.369 -0.8762  2.8574 -0.5381
 7404SOL     OW23652   4.111   3.631  11.418  0.2433 -0.2980  0.3824
 7404SOL    HW123653   4.112   3.725  11.433 -0.1160 -0.0331 -1.0363
 7404SOL    HW223654   4.188   3.614  11.364 -0.1019 -0.6695 -0.0126
 7405SOL     OW23655   3.291   1.671   0.786  0.0670  0.7786  0.4486
 7405SOL    HW123656   3.208   1.625   0.773 -0.3410  1.7292 -0.4931
 7405SOL    HW223657   3.285   1.706   0.875 -1.3106  2.2745 -0.1806
 7406SOL     OW23658   0.584   2.672   2.369  0.1301 -0.0011  0.2780
 7406SOL    HW123659   0.615   2.660   2.459 -1.9992 -0.3838  1.0180
 7406SOL    HW223660   0.600   2.587   2.327  1.7017  0.3674  0.0646
 7407SOL     OW23661   0.585   5.124   0.167  0.3915 -0.4516 -0.0413
 7407SOL    HW123662   0.601   5.052   0.228  0.7160  0.0573  0.4777
 7407SOL    HW223663   0.570   5.200   0.222  1.2378  0.1343 -0.5957
 7408SOL     OW23664   4.117   2.599   1.257  0.4415 -0.0115 -0.2422
 7408SOL    HW123665   4.197   2.559   1.222  1.0499  1.5925 -0.7912
 7408SOL    HW223666   4.046   2.551   1.214  1.1299 -0.5802 -0.7808
 7409SOL     OW23667   2.328   1.715   2.704  0.1993  0.3494  0.3493
 7409SOL    HW123668   2.360   1.806   2.710 -0.5324  0.7478 -1.1588
 7409SOL    HW223669   2.325   1.684   2.794  3.9686  0.5720  0.7156
 7410SOL     OW23670   2.102   3.203   0.407 -0.4418 -0.1101 -0.1876
 7410SOL    HW123671   2.152   3.279   0.376  0.0414 -0.2627  0.1897
 7410SOL    HW223672   2.061   3.168   0.329  0.6598 -0.4197 -0.6479
 7411SOL     OW23673   1.067   0.746   1.186 -0.2189  0.3434 -0.3764
 7411SOL    HW123674   1.140   0.686   1.199 -1.1256 -0.6763  0.1272
 7411SOL    HW223675   1.047   0.739   1.092 -0.9828 -0.9610 -0.1406
 7412SOL     OW23676   3.737   2.883   1.361  0.2325  0.3655  0.1295
 7412SOL    HW123677   3.767   2.843   1.280  1.6529  1.0040  0.3069
 7412SOL    HW223678   3.816   2.918   1.401 -0.6657  1.4504  1.0246
 7413SOL     OW23679   2.824   3.194   1.777 -0.2528  0.5312  0.2068
 7413SOL    HW123680   2.835   3.244   1.858  0.7354  0.1402  0.3178
 7413SOL    HW223681   2.835   3.103   1.803 -1.3919  0.2856 -0.1149
 7414SOL     OW23682   2.130   0.514   0.977 -0.1447 -0.1793 -0.4878
 7414SOL    HW123683   2.063   0.532   0.911 -0.1037 -0.0212 -0.4864
 7414SOL    HW223684   2.081   0.487   1.054 -0.1319 -2.1582 -1.1274
 7415SOL     OW23685   1.412   4.603   0.643 -0.1911 -0.1422  0.0133
 7415SOL    HW123686   1.335   4.659   0.653  0.7217  1.0844  0.3893
 7415SOL    HW223687   1.484   4.655   0.678  0.8116 -1.2815 -0.3009
 7416SOL     OW23688   3.197   3.285   1.701  0.1199  0.1903  1.0330
 7416SOL    HW123689   3.115   3.329   1.680  0.5213  1.5969  2.2536
 7416SOL    HW223690   3.238   3.269   1.615  0.1512  2.6358  0.5163
 7417SOL     OW23691   2.601   2.465  11.021  0.2437  0.2412  0.0882
 7417SOL    HW123692   2.654   2.530  10.975  0.5117 -1.3555 -1.9796
 7417SOL    HW223693   2.662   2.396  11.045 -0.5014 -0.5323 -0.2136
 7418SOL     OW23694   3.696   2.120   2.035 -0.1198  0.3420 -0.0283
 7418SOL    HW123695   3.617   2.144   1.987 -0.1322  1.1782  0.3809
 7418SOL    HW223696   3.699   2.025   2.032 -0.2352  0.3610 -1.4986
 7419SOL     OW23697   1.682   0.931   0.138 -0.1643  0.7716  1.0321
 7419SOL    HW123698   1.713   0.937   0.228  0.2411  0.1337  0.9430
 7419SOL    HW223699   1.609   0.869   0.142  0.3661  0.1201  0.8035
 7420SOL     OW23700   1.801   1.800   1.060 -0.3582 -0.4666  0.7888
 7420SOL    HW123701   1.736   1.805   1.130  0.4806  1.3136  1.4984
 7420SOL    HW223702   1.786   1.878   1.007 -1.0945 -1.8662 -1.1929
 7421SOL     OW23703   2.624   4.508   1.674  0.0269  0.1138  0.0172
 7421SOL    HW123704   2.712   4.541   1.693  0.9619 -1.2583 -1.6358
 7421SOL    HW223705   2.582   4.499   1.760  1.7658  0.0568  0.8942
 7422SOL     OW23706   3.857   2.619   0.505  0.3108  0.1652  0.0831
 7422SOL    HW123707   3.909   2.635   0.426 -0.0332  0.1054 -0.1548
 7422SOL    HW223708   3.865   2.525   0.521 -2.7210 -0.6049 -2.0921
 7423SOL     OW23709   3.144   2.489   0.859 -0.0727 -0.4454 -0.3050
 7423SOL    HW123710   3.229   2.449   0.877  0.4734  0.7349 -0.2034
 7423SOL    HW223711   3.146   2.573   0.905 -1.2266 -0.3114 -0.4571
 7424SOL     OW23712   2.600   2.044  11.665 -0.1833  0.7603  0.5473
 7424SOL    HW123713   2.598   2.136  11.692  0.8551  0.6178  1.1593
 7424SOL    HW223714   2.526   2.004  11.712 -1.1587  1.4367 -0.3767
 7425SOL     OW23715   2.907   0.691   0.307  0.3787 -0.4410 -0.1887
 7425SOL    HW123716   2.821   0.664   0.338 -0.0193 -0.6376 -1.4238
 7425SOL    HW223717   2.966   0.672   0.380 -0.2698 -2.3761 -0.1082
 7426SOL     OW23718   3.765   3.154   1.864 -0.9094 -0.4938  0.1494
 7426SOL    HW123719   3.796   3.190   1.781  0.8161  0.0058  0.9497
 7426SOL    HW223720   3.727   3.069   1.842 -0.0763 -0.5614 -1.0827
 7427SOL     OW23721   1.562   3.075   0.457 -0.0807 -0.1608  0.6156
 7427SOL    HW123722   1.510   3.138   0.406 -0.2165 -1.4397 -0.9044
 7427SOL    HW223723   1.559   2.994   0.406  1.8689 -0.8157  1.4183
 7428SOL     OW23724   1.992   2.001   0.386 -0.1373 -0.4903 -0.1372
 7428SOL    HW123725   1.959   2.069   0.444  1.8096 -0.1030  0.6210
 7428SOL    HW223726   2.046   1.945   0.442 -0.2191 -1.5812 -1.0980
 7429SOL     OW23727   2.413   1.724   1.373  0.3936  0.4378 -0.2491
 7429SOL    HW123728   2.451   1.653   1.424  1.0187  1.2283  0.4139
 7429SOL    HW223729   2.482   1.789   1.367 -0.6290  1.6213  0.3937
 7430SOL     OW23730   4.237   2.773  12.487 -0.5195 -0.4640  0.7510
 7430SOL    HW123731   4.182   2.695  12.483 -0.4515 -0.4769 -2.0225
 7430SOL    HW223732   4.215   2.822  12.408 -0.0696  2.0285  2.0545
 7431SOL     OW23733   0.703   3.194   1.452 -0.1877 -0.1035  0.9306
 7431SOL    HW123734   0.788   3.195   1.496  0.2153  0.3537  0.1578
 7431SOL    HW223735   0.688   3.285   1.426 -1.4194  0.0248  1.9962
 7432SOL     OW23736   4.027   4.659   1.015 -0.4181 -0.3200 -0.2987
 7432SOL    HW123737   3.966   4.591   0.987  0.9646 -1.9242  0.3951
 7432SOL    HW223738   4.113   4.627   0.988  0.3020  0.9759  0.3696
 7433SOL     OW23739   1.435   2.833   0.308  0.4598 -0.3966 -0.0451
 7433SOL    HW123740   1.528   2.834   0.286  0.3256  1.7066 -0.7402
 7433SOL    HW223741   1.392   2.796   0.231  0.6234 -0.3732 -0.1467
 7434SOL     OW23742   1.737   1.426   0.329  0.3158  0.6017 -0.1105
 7434SOL    HW123743   1.756   1.422   0.423 -0.3294  0.1730  0.0114
 7434SOL    HW223744   1.669   1.360   0.316  2.9482 -2.0266 -1.5438
 7435SOL     OW23745   2.846   2.499   2.953 -0.4347 -0.2380 -0.0543
 7435SOL    HW123746   2.777   2.501   2.886 -0.0679  2.4348 -0.4708
 7435SOL    HW223747   2.800   2.475   3.034 -1.2194 -1.6825 -0.8877
 7436SOL     OW23748   2.362   2.535   0.290  0.0512 -0.3670 -0.5777
 7436SOL    HW123749   2.385   2.443   0.284 -0.8277 -0.6086 -0.2894
 7436SOL    HW223750   2.378   2.558   0.382  0.5974 -0.1330 -0.7230
 7437SOL     OW23751   2.144   1.396   1.496  0.4544 -0.1523 -0.2172
 7437SOL    HW123752   2.050   1.403   1.513  0.1569 -0.7696 -1.4916
 7437SOL    HW223753   2.166   1.476   1.448  0.8002  0.4584  0.9230
 7438SOL     OW23754   5.563   3.046  11.909  1.0094 -0.2125 -0.7899
 7438SOL    HW123755   5.607   3.035  11.992  2.2277 -1.0236 -1.5171
 7438SOL    HW223756   5.475   3.011  11.923  1.5021 -1.2124 -0.0948
 7439SOL     OW23757   2.412   2.790  12.001 -0.1893  0.0901  0.3852
 7439SOL    HW123758   2.357   2.747  11.935 -0.8463  0.8283  0.4284
 7439SOL    HW223759   2.456   2.860  11.953  0.2030 -0.0718  0.5002
 7440SOL     OW23760   2.760   2.954   1.135  0.0859  0.4712 -0.0951
 7440SOL    HW123761   2.846   2.918   1.155 -0.7475 -1.3700  0.3553
 7440SOL    HW223762   2.733   2.998   1.216  0.3623  0.5581 -0.0502
 7441SOL     OW23763   2.668   3.419   0.143  0.3014  0.5585 -0.3327
 7441SOL    HW123764   2.586   3.373   0.157  0.5268  1.0202  4.0106
 7441SOL    HW223765   2.685   3.412   0.049 -1.9151 -4.2284 -0.6292
 7442SOL     OW23766   0.933   2.973   1.671 -0.0634  0.0294 -0.0397
 7442SOL    HW123767   0.988   2.911   1.623  0.1286  1.1666 -1.3499
 7442SOL    HW223768   0.843   2.948   1.647 -0.1637 -1.4789  1.6694
 7443SOL     OW23769   3.475   2.447   3.330 -0.6663 -0.1866 -0.3685
 7443SOL    HW123770   3.478   2.499   3.250 -0.3319  0.9540  0.3548
 7443SOL    HW223771   3.394   2.474   3.373 -0.8680 -0.8263 -0.3408
 7444SOL     OW23772   3.152   4.960   2.118 -0.0870 -0.0817  0.1221
 7444SOL    HW123773   3.230   5.011   2.099  0.4239 -1.3602 -1.4693
 7444SOL    HW223774   3.086   5.024   2.144  0.9100  1.2145 -0.4737
 7445SOL     OW23775   5.004   3.567   1.950  0.1350  0.6988  0.4559
 7445SOL    HW123776   5.075   3.597   2.007 -0.5372  0.4495  1.4668
 7445SOL    HW223777   5.037   3.486   1.911  1.0235  1.4452 -0.3910
 7446SOL     OW23778   2.528   3.629   1.985 -0.0576 -0.2871 -0.5771
 7446SOL    HW123779   2.604   3.684   1.964 -1.3937  1.5467 -0.7837
 7446SOL    HW223780   2.458   3.662   1.930 -1.6816 -0.2746  1.3765
 7447SOL     OW23781   2.303   3.872   2.019  0.1670 -0.2584  0.1029
 7447SOL    HW123782   2.287   3.802   1.955  0.7272 -0.3728  0.0766
 7447SOL    HW223783   2.221   3.881   2.066 -1.1662  1.6547 -2.3485
 7448SOL     OW23784   2.311   2.720  11.515  0.2781 -0.0982 -0.3935
 7448SOL    HW123785   2.402   2.749  11.506  0.5457 -0.5739  0.6523
 7448SOL    HW223786   2.266   2.796  11.552  0.7292 -0.5617  1.1905
 7449SOL     OW23787   0.884   2.534   2.414 -0.2782 -0.3294  0.1960
 7449SOL    HW123788   0.882   2.596   2.341  1.5193  0.1319  0.4882
 7449SOL    HW223789   0.823   2.570   2.478  0.7367  1.1754  0.3589
 7450SOL     OW23790   1.377   1.557  12.410  0.5903  0.1081  0.5109
 7450SOL    HW123791   1.350   1.466  12.398  0.9795  0.0493  0.0024
 7450SOL    HW223792   1.311   1.608  12.364  0.5684  0.0546  0.4832
 7451SOL     OW23793   2.198   3.369   1.686  0.5193 -0.1853  0.4968
 7451SOL    HW123794   2.104   3.383   1.673  0.9223  2.0781 -0.4029
 7451SOL    HW223795   2.226   3.444   1.739  2.3205  0.9039 -1.8369
 7452SOL     OW23796   1.114   2.087   2.620 -0.1272 -0.0833 -0.5324
 7452SOL    HW123797   1.127   2.033   2.542 -0.6879 -2.0429  0.6613
 7452SOL    HW223798   1.027   2.062   2.652  0.1315  0.5925  0.7644
 7453SOL     OW23799   1.920   3.642   0.754 -0.0837  0.4505  0.0734
 7453SOL    HW123800   1.918   3.671   0.663  1.3621  1.3605  0.2855
 7453SOL    HW223801   1.838   3.674   0.792  0.0506  1.5504 -0.5121
 7454SOL     OW23802   2.296   2.411  11.892 -0.3325 -0.0765  0.2399
 7454SOL    HW123803   2.301   2.360  11.811  1.5420 -0.6767  0.6756
 7454SOL    HW223804   2.214   2.385  11.932 -0.2753 -1.3995 -0.4440
 7455SOL     OW23805   4.134   4.858   0.525 -0.0924  0.2147 -0.1102
 7455SOL    HW123806   4.163   4.930   0.469 -0.6188 -0.1738 -0.9059
 7455SOL    HW223807   4.181   4.871   0.607 -0.3725  1.6157 -0.1462
 7456SOL     OW23808   3.377   4.758   1.321  0.0301 -0.0957 -0.3010
 7456SOL    HW123809   3.408   4.754   1.412  0.0423 -1.4619 -0.3476
 7456SOL    HW223810   3.326   4.839   1.317 -0.1509 -0.1218  0.9763
 7457SOL     OW23811   3.054   4.377   0.283  0.2827 -0.0344 -0.3445
 7457SOL    HW123812   3.095   4.338   0.360  1.5976  1.0753 -0.4545
 7457SOL    HW223813   3.059   4.471   0.298 -0.9036  0.1602 -1.0626
 7458SOL     OW23814   1.762   2.462   0.791 -0.7494  0.0810 -0.4601
 7458SOL    HW123815   1.818   2.475   0.715 -0.9931 -0.5711 -0.7605
 7458SOL    HW223816   1.732   2.550   0.814  0.7376  0.5042 -0.0157
 7459SOL     OW23817   0.909   3.420   3.967 -0.1638 -0.1992  0.3272
 7459SOL    HW123818   0.886   3.333   3.935 -0.0096 -0.3179  0.5383
 7459SOL    HW223819   0.868   3.480   3.905 -0.3665 -0.4209  0.2478
 7460SOL     OW23820   3.154   2.323   1.845  0.0009 -0.0634  0.2573
 7460SOL    HW123821   3.151   2.419   1.848 -0.2159 -0.0004 -1.3587
 7460SOL    HW223822   3.067   2.296   1.875 -0.0798  0.2495  0.3137
 7461SOL     OW23823   3.033   1.196   1.318 -0.8894 -0.3313  0.1597
 7461SOL    HW123824   2.988   1.132   1.374 -1.2133 -0.7819 -0.6006
 7461SOL    HW223825   3.118   1.209   1.361 -1.1435 -0.6436  0.7738
 7462SOL     OW23826   3.438   3.617   0.735  0.6030 -0.2986  0.6667
 7462SOL    HW123827   3.462   3.597   0.645  2.1697  1.4577  0.6286
 7462SOL    HW223828   3.512   3.585   0.787 -0.1828 -1.0876  1.3440
 7463SOL     OW23829   3.467   4.634   0.458  0.3145 -0.1812 -0.6051
 7463SOL    HW123830   3.441   4.663   0.370  1.1284 -0.1771 -0.8555
 7463SOL    HW223831   3.434   4.702   0.517 -0.0452 -0.0720 -0.9286
 7464SOL     OW23832   1.588   2.955   1.938 -0.6371 -0.7544  0.5194
 7464SOL    HW123833   1.585   3.049   1.952 -0.3604 -0.6158 -0.2910
 7464SOL    HW223834   1.639   2.921   2.012 -0.3216 -0.2111  0.5595
 7465SOL     OW23835   2.735   4.827   1.565  0.0587  0.0762  0.4010
 7465SOL    HW123836   2.654   4.791   1.528 -0.1181  0.4185  0.4475
 7465SOL    HW223837   2.775   4.754   1.612  0.4680 -0.4690 -0.7559
 7466SOL     OW23838   2.844   3.301   2.022 -0.2598 -0.1761 -0.1618
 7466SOL    HW123839   2.830   3.359   2.097 -0.0117  0.6718 -0.7509
 7466SOL    HW223840   2.866   3.216   2.061 -0.0990  0.2588  0.7244
 7467SOL     OW23841   2.400   2.594   1.420 -0.2000 -0.4621 -0.3397
 7467SOL    HW123842   2.329   2.654   1.443  0.9904  1.4433 -1.3597
 7467SOL    HW223843   2.463   2.648   1.372  1.5003 -2.2907 -0.3177
 7468SOL     OW23844   2.393   0.681  11.460 -0.4053 -0.1089  0.4550
 7468SOL    HW123845   2.376   0.737  11.536  2.5861 -1.4939  2.3575
 7468SOL    HW223846   2.378   0.738  11.384 -3.4650  1.3548  2.0125
 7469SOL     OW23847   3.305   1.672   0.069 -0.2596  0.6945 -0.1913
 7469SOL    HW123848   3.369   1.662   0.140 -1.8531 -2.8674  0.9430
 7469SOL    HW223849   3.231   1.717   0.110 -0.2617  0.7473 -0.2535
 7470SOL     OW23850   2.882   2.592   0.852  0.0919 -0.3094  0.7593
 7470SOL    HW123851   2.971   2.557   0.845  0.4730  0.8323 -0.4534
 7470SOL    HW223852   2.885   2.675   0.805 -1.4865  0.0247  1.1875
 7471SOL     OW23853   2.190   1.821   0.463  0.1940  0.0176 -0.5861
 7471SOL    HW123854   2.221   1.884   0.529  0.2368 -1.5615  0.9524
 7471SOL    HW223855   2.270   1.781   0.429  0.0744 -1.4599  0.7682
 7472SOL     OW23856   4.246   3.126   2.298  0.3660  0.1703  0.3501
 7472SOL    HW123857   4.265   3.159   2.385  1.5016  1.2915 -0.2968
 7472SOL    HW223858   4.225   3.204   2.246 -0.4760 -0.4872 -0.3569
 7473SOL     OW23859   1.863   2.594   3.390  0.3225 -0.0144  0.1229
 7473SOL    HW123860   1.924   2.526   3.417 -0.2780  0.4549  2.9932
 7473SOL    HW223861   1.795   2.594   3.457 -1.1580  1.6033 -1.2628
 7474SOL     OW23862   3.350   1.988   0.750 -0.1759 -0.1571  0.0423
 7474SOL    HW123863   3.390   1.902   0.763  0.9255  0.3105 -0.1218
 7474SOL    HW223864   3.390   2.043   0.817 -2.4440 -0.2292  1.5594
 7475SOL     OW23865   4.159   4.194   0.249  0.0965  0.1185 -0.2868
 7475SOL    HW123866   4.152   4.144   0.330  1.1911  1.8012  0.8977
 7475SOL    HW223867   4.238   4.247   0.259  0.7709 -0.2525 -2.8371
 7476SOL     OW23868   1.731   1.768   3.028  0.2556 -1.0271  0.2642
 7476SOL    HW123869   1.791   1.780   3.102  2.1809 -2.9579 -0.8672
 7476SOL    HW223870   1.788   1.744   2.955 -1.6761 -0.1510 -1.6262
 7477SOL     OW23871   2.581   0.906   1.899  0.2716  0.0955 -0.2690
 7477SOL    HW123872   2.659   0.958   1.919 -0.6729  1.3830  0.2557
 7477SOL    HW223873   2.562   0.926   1.807  0.6818 -0.3946 -0.4622
 7478SOL     OW23874   1.840   1.583   0.126 -0.1646 -0.0136  0.1950
 7478SOL    HW123875   1.805   1.503   0.166 -0.7572  1.2252  2.2856
 7478SOL    HW223876   1.908   1.613   0.186  2.2389 -0.4844 -2.0841
 7479SOL     OW23877   1.472   2.010  12.212  0.5415  0.0269  0.0659
 7479SOL    HW123878   1.485   1.923  12.174  0.3514 -0.1734  0.4563
 7479SOL    HW223879   1.530   2.013  12.288 -0.7523 -0.4252  1.1028
 7480SOL     OW23880   1.471   3.392   1.442 -0.4861 -1.0022 -0.3861
 7480SOL    HW123881   1.496   3.388   1.349 -1.0266 -1.3138 -0.5256
 7480SOL    HW223882   1.393   3.447   1.443 -1.0897 -1.8361 -0.2597
 7481SOL     OW23883   1.615   3.693   2.417 -0.0163 -0.6881 -0.2455
 7481SOL    HW123884   1.636   3.763   2.479 -0.1018 -1.3874  0.5924
 7481SOL    HW223885   1.699   3.661   2.387  0.0585 -1.1380  0.4244
 7482SOL     OW23886   2.103   3.382   2.202  0.1087  0.4107 -0.3071
 7482SOL    HW123887   2.015   3.358   2.231  0.4030 -1.6591 -1.0351
 7482SOL    HW223888   2.109   3.349   2.112  2.0408 -0.6143  0.1499
 7483SOL     OW23889   0.740   2.001   1.834 -0.2079 -0.0155  0.3154
 7483SOL    HW123890   0.790   1.949   1.897  0.1731  0.2605  0.2491
 7483SOL    HW223891   0.794   2.000   1.755 -0.1932  0.4821  0.3142
 7484SOL     OW23892   1.823   0.651   2.685  0.2094 -0.0042 -0.3684
 7484SOL    HW123893   1.740   0.607   2.671  0.0234  0.2149  0.0314
 7484SOL    HW223894   1.833   0.709   2.610  0.4381 -0.6901 -0.8782
 7485SOL     OW23895   2.775   3.761   0.528 -0.5246 -0.6315  0.2104
 7485SOL    HW123896   2.706   3.780   0.592  0.0550 -1.4962  1.1229
 7485SOL    HW223897   2.753   3.815   0.452 -2.0946 -0.7375  0.5545
 7486SOL     OW23898   3.262   3.648  11.306  0.2794 -0.1267 -0.1752
 7486SOL    HW123899   3.302   3.610  11.384  0.6198 -1.0237 -0.7736
 7486SOL    HW223900   3.336   3.668  11.248 -0.0273 -0.3688 -0.6595
 7487SOL     OW23901   3.396   0.981  12.375 -0.5267 -0.2565  0.2193
 7487SOL    HW123902   3.365   1.068  12.352 -1.4597 -0.9215 -1.1428
 7487SOL    HW223903   3.491   0.992  12.387 -0.0163  0.3758 -3.2681
 7488SOL     OW23904   2.712   3.157  12.475 -0.5812 -0.2139 -0.3581
 7488SOL    HW123905   2.630   3.108  12.473 -0.2972 -0.6999 -0.0732
 7488SOL    HW223906   2.717   3.198  12.388 -1.1503 -0.1334 -0.3581
 7489SOL     OW23907   2.367   3.181   1.755 -0.3818 -0.3633 -0.5131
 7489SOL    HW123908   2.300   3.247   1.739 -0.8531 -0.4103  1.0494
 7489SOL    HW223909   2.394   3.195   1.846 -0.6371 -2.4144 -0.0533
 7490SOL     OW23910   2.185   4.091   1.524  0.0311 -0.3075 -0.4151
 7490SOL    HW123911   2.091   4.087   1.508 -0.0699 -0.7304  0.2513
 7490SOL    HW223912   2.208   4.002   1.552  0.4826  0.0030  0.2186
 7491SOL     OW23913   2.974   3.625   1.319 -0.0969 -0.6177  0.3607
 7491SOL    HW123914   3.061   3.598   1.347 -0.1445 -0.7367  0.3949
 7491SOL    HW223915   2.990   3.685   1.246  0.0628  0.6914  1.4472
 7492SOL     OW23916   0.876   4.059   1.479  0.4120  0.1777  0.2164
 7492SOL    HW123917   0.818   4.086   1.408 -0.6415 -2.7350 -0.1327
 7492SOL    HW223918   0.831   4.087   1.558 -0.8958 -0.9050 -0.1079
 7493SOL     OW23919   2.784   1.063   2.854 -0.2422  0.3422  0.4835
 7493SOL    HW123920   2.854   1.012   2.812 -0.9547  0.0262 -0.3397
 7493SOL    HW223921   2.776   1.141   2.800 -0.4721  0.4178  0.6268
 7494SOL     OW23922   4.234   2.474  11.881  0.4196 -0.4694  1.2211
 7494SOL    HW123923   4.170   2.519  11.826 -0.2477 -0.0797  2.3033
 7494SOL    HW223924   4.195   2.389  11.900  0.1004 -0.1390  2.0827
 7495SOL     OW23925   2.616   3.508   0.862  0.0234  0.2889  0.1147
 7495SOL    HW123926   2.632   3.532   0.771  0.8747 -1.9117 -0.3852
 7495SOL    HW223927   2.553   3.572   0.893 -0.4587  0.9660 -2.0969
 7496SOL     OW23928   1.167   3.982   1.508 -0.1763  0.1964  0.0575
 7496SOL    HW123929   1.190   3.948   1.594  0.2388 -1.1036 -0.5553
 7496SOL    HW223930   1.071   3.983   1.508 -0.1852 -0.4831  0.2738
 7497SOL     OW23931   1.174   5.158   2.363 -0.1074 -0.2686 -0.6115
 7497SOL    HW123932   1.263   5.140   2.395 -0.3275  0.4554  0.4239
 7497SOL    HW223933   1.153   5.081   2.310  1.6157  0.0807 -1.9214
 7498SOL     OW23934   2.299   1.558  12.400 -0.3957 -0.1920 -0.8735
 7498SOL    HW123935   2.244   1.503  12.345 -0.1819 -2.4929  1.0295
 7498SOL    HW223936   2.269   1.540  12.489  1.7929  0.3271  0.0360
 7499SOL     OW23937   3.099   2.318  12.140 -0.4771  0.1663  0.1107
 7499SOL    HW123938   3.139   2.232  12.123 -0.4026  0.4156 -1.0557
 7499SOL    HW223939   3.034   2.301  12.209 -0.1239 -0.7305  0.2344
 7500SOL     OW23940   3.426   4.129   1.495  0.5878 -0.4223  0.8861
 7500SOL    HW123941   3.455   4.182   1.569  0.1478  0.7122  0.2607
 7500SOL    HW223942   3.473   4.164   1.420  0.4008 -1.0224  0.4799
 7501SOL     OW23943   1.836   4.926   1.921 -0.3401  0.0610 -0.6007
 7501SOL    HW123944   1.884   4.917   2.004 -1.4980 -1.3584 -0.0341
 7501SOL    HW223945   1.744   4.926   1.947 -0.7064  0.7629 -1.8220
 7502SOL     OW23946   1.514   3.010   2.467  0.3381 -0.2942  0.1811
 7502SOL    HW123947   1.472   2.927   2.444 -0.6328  0.1752  0.2173
 7502SOL    HW223948   1.468   3.075   2.414  1.2761  0.1988 -0.0508
 7503SOL     OW23949   2.963   2.485   1.716  0.0201 -0.0546 -0.4264
 7503SOL    HW123950   2.952   2.550   1.646  2.8629  1.2874  0.2042
 7503SOL    HW223951   3.033   2.427   1.684  0.8345  0.1197  0.9359
 7504SOL     OW23952   2.206   3.624  10.983  0.1945 -0.1313  0.0835
 7504SOL    HW123953   2.300   3.639  10.971  0.0363  0.5626 -0.3838
 7504SOL    HW223954   2.167   3.711  10.975 -0.3670 -0.2266  1.5442
 7505SOL     OW23955   2.504   3.915   2.211 -0.2008 -0.4257  0.0806
 7505SOL    HW123956   2.414   3.900   2.183 -0.3280 -1.5272  0.9959
 7505SOL    HW223957   2.552   3.838   2.180  0.6663  0.6405 -1.3224
 7506SOL     OW23958   2.551   1.324   1.291  0.7433 -0.1536  0.6766
 7506SOL    HW123959   2.620   1.262   1.269  2.8087  2.1749  0.2383
 7506SOL    HW223960   2.560   1.338   1.385  0.6864 -0.0607  0.6692
 7507SOL     OW23961   2.152   2.904  11.328 -0.5006  0.1754  0.4172
 7507SOL    HW123962   2.212   2.829  11.321 -1.2105 -0.4172  0.4735
 7507SOL    HW223963   2.078   2.880  11.272 -0.6527  0.9313  0.2869
 7508SOL     OW23964   2.475   2.242   0.375  0.0765 -0.0749  0.2883
 7508SOL    HW123965   2.512   2.201   0.454 -0.4217 -0.5238  0.2947
 7508SOL    HW223966   2.539   2.309   0.351 -0.4708  1.1147  1.9403
 7509SOL     OW23967   2.125   5.671   2.269  0.1892  0.1824 -0.0113
 7509SOL    HW123968   2.125   5.587   2.222  1.1806  0.6420 -0.8846
 7509SOL    HW223969   2.184   5.657   2.343  0.2168  0.0464 -0.0590
 7510SOL     OW23970   2.876   2.638  12.188 -0.2449 -0.5909 -0.0763
 7510SOL    HW123971   2.784   2.666  12.186 -0.4604 -1.0565  1.6078
 7510SOL    HW223972   2.888   2.604  12.277  1.4045 -1.0830 -0.4662
 7511SOL     OW23973   3.708   2.185   0.760  0.1496  0.1923 -0.2624
 7511SOL    HW123974   3.647   2.147   0.696 -1.3652  1.2415  0.5033
 7511SOL    HW223975   3.676   2.155   0.845 -0.8333  2.6827  0.3334
 7512SOL     OW23976   2.822   4.579   1.224  0.3175 -0.1320  0.1974
 7512SOL    HW123977   2.770   4.571   1.144  2.1880 -0.5258 -1.0244
 7512SOL    HW223978   2.791   4.508   1.281 -2.0443  1.0251  0.4989
 7513SOL     OW23979   2.879   3.301   1.367 -0.2029 -0.3262 -0.0275
 7513SOL    HW123980   2.955   3.276   1.420  0.3932 -1.3176 -1.3072
 7513SOL    HW223981   2.828   3.221   1.359 -0.8095  0.0645 -0.1365
 7514SOL     OW23982   3.310   2.978   0.141 -0.6513  0.2282  0.2896
 7514SOL    HW123983   3.256   2.915   0.092  0.7935 -0.1724 -0.8874
 7514SOL    HW223984   3.247   3.035   0.184 -2.0522  0.4282 -1.8379
 7515SOL     OW23985   2.233   2.094  11.917 -0.2899 -0.4312  0.2121
 7515SOL    HW123986   2.211   2.163  11.980 -0.8612  0.5687 -1.0561
 7515SOL    HW223987   2.191   2.016  11.952 -1.5417  0.3445  0.5253
 7516SOL     OW23988   1.628   3.380   0.936 -0.1731  0.0494  0.3303
 7516SOL    HW123989   1.573   3.317   0.888  0.6094 -0.5504  0.1997
 7516SOL    HW223990   1.640   3.453   0.875  1.2611 -0.9412 -0.6377
 7517SOL     OW23991   1.991   2.378   0.065 -0.0192 -0.0183 -0.4939
 7517SOL    HW123992   2.061   2.329   0.023 -0.4964 -1.1607  0.0061
 7517SOL    HW223993   1.914   2.322   0.057 -0.7539  0.9579 -0.5166
 7518SOL     OW23994   0.933   3.827   0.376 -0.3254 -0.1991 -0.1256
 7518SOL    HW123995   0.895   3.839   0.289  0.1310 -1.4844 -0.5355
 7518SOL    HW223996   0.983   3.907   0.393  0.0580 -0.1728 -1.3089
 7519SOL     OW23997   1.304   3.316   3.235 -0.2752  0.0873  0.0358
 7519SOL    HW123998   1.364   3.369   3.288  1.5528 -1.6562 -0.1791
 7519SOL    HW223999   1.217   3.354   3.253  0.3819  0.3800  3.2842
 7520SOL     OW24000   4.114   1.598   2.616  0.2338  0.0412 -0.2709
 7520SOL    HW124001   4.181   1.532   2.629 -0.9755 -0.9496  1.3874
 7520SOL    HW224002   4.034   1.549   2.597  0.1043  1.2199 -3.3130
 7521SOL     OW24003   2.269   3.421   1.429  0.5998  0.3982  0.1170
 7521SOL    HW124004   2.260   3.397   1.521  0.0878 -0.4072 -0.1362
 7521SOL    HW224005   2.212   3.360   1.382  0.3883  1.1894 -0.6846
 7522SOL     OW24006   2.003   2.460  11.343  0.2365  0.1354 -0.5990
 7522SOL    HW124007   2.024   2.475  11.251  0.8236  0.1369 -0.4687
 7522SOL    HW224008   1.934   2.523  11.363  0.0741  0.1014 -1.0527
 7523SOL     OW24009   3.752   4.120   1.607  0.3526  0.0283 -0.3960
 7523SOL    HW124010   3.762   4.110   1.513 -0.8317  0.0054 -0.5387
 7523SOL    HW224011   3.809   4.052   1.645 -0.5605 -1.2093 -1.1515
 7524SOL     OW24012   1.655   3.708   1.953 -0.4759  0.2346 -0.4455
 7524SOL    HW124013   1.740   3.699   1.995 -0.3747  2.0154 -0.1783
 7524SOL    HW224014   1.674   3.754   1.871 -1.2834  1.8727  0.2380
 7525SOL     OW24015   2.554   3.394   1.286 -0.1558  0.5393 -0.0794
 7525SOL    HW124016   2.516   3.316   1.245  0.2743  0.8975 -1.1881
 7525SOL    HW224017   2.504   3.406   1.366 -1.1797 -0.0406 -0.6194
 7526SOL     OW24018   1.945   3.532   3.041  0.6180  0.0046 -0.2255
 7526SOL    HW124019   1.865   3.509   2.992  0.4546 -1.4018  0.6381
 7526SOL    HW224020   2.000   3.454   3.034  1.9938  0.9994 -0.9024
 7527SOL     OW24021   2.320   2.911   0.710 -0.3536  0.6343  0.2274
 7527SOL    HW124022   2.271   2.991   0.692  1.0462  1.6615  0.7403
 7527SOL    HW224023   2.356   2.924   0.797  0.4494 -0.2648  0.0519
 7528SOL     OW24024   2.320   4.923   1.499 -0.1719  0.0337 -0.1271
 7528SOL    HW124025   2.235   4.899   1.463  0.2509 -0.4892 -0.8022
 7528SOL    HW224026   2.318   4.891   1.589  0.9600 -4.1651 -1.3954
 7529SOL     OW24027   5.221   0.978   2.196 -0.2764  0.5089  0.1205
 7529SOL    HW124028   5.176   1.044   2.250 -0.8052 -0.3406  0.7624
 7529SOL    HW224029   5.150   0.936   2.147  0.0822  0.5603 -0.4426
 7530SOL     OW24030   4.483   1.416   0.756 -0.2234 -0.1699 -0.2668
 7530SOL    HW124031   4.559   1.407   0.699  0.3640 -0.2865  0.5133
 7530SOL    HW224032   4.439   1.331   0.750 -0.1385 -0.1997 -0.4939
 7531SOL     OW24033   2.292   2.492   1.121 -0.5536 -0.3153 -0.4294
 7531SOL    HW124034   2.250   2.411   1.149 -1.2699 -0.3435 -1.5159
 7531SOL    HW224035   2.379   2.465   1.092 -0.0127 -0.3681  1.1374
 7532SOL     OW24036   5.207   1.654   2.437  0.1491 -0.2572 -0.1803
 7532SOL    HW124037   5.203   1.733   2.492  1.4708 -1.3876  1.6477
 7532SOL    HW224038   5.117   1.644   2.404 -0.5405  0.8673  1.2309
 7533SOL     OW24039   2.627   3.100   1.615 -0.1871  0.0598  0.2132
 7533SOL    HW124040   2.681   3.162   1.665 -0.8713 -1.5432  3.1385
 7533SOL    HW224041   2.538   3.117   1.644 -0.5101 -1.5500  0.2155
 7534SOL     OW24042   1.226   3.844  12.290  0.3124  0.8894 -0.5378
 7534SOL    HW124043   1.225   3.755  12.254 -3.2065  0.2944  0.5674
 7534SOL    HW224044   1.150   3.886  12.251 -0.5892  1.9314  2.1117
 7535SOL     OW24045   4.810   2.869   0.188 -0.0089  0.4205  0.0036
 7535SOL    HW124046   4.826   2.960   0.164  2.2526  0.5287  1.5884
 7535SOL    HW224047   4.869   2.853   0.262 -2.3745 -1.5305  1.6162
 7536SOL     OW24048   2.810   2.273   1.391  0.0280 -0.0184  0.4911
 7536SOL    HW124049   2.765   2.189   1.397  2.5046 -1.6003 -1.1625
 7536SOL    HW224050   2.829   2.283   1.298  2.7942  0.6085  1.0534
 7537SOL     OW24051   4.452   2.482   0.163  0.2998  0.2169  0.0193
 7537SOL    HW124052   4.445   2.435   0.080 -1.2848  0.8008 -0.2117
 7537SOL    HW224053   4.530   2.537   0.153 -1.0278  1.8911 -1.9829
 7538SOL     OW24054   1.991   4.145   1.977 -0.0169 -0.4219 -0.2753
 7538SOL    HW124055   1.993   4.052   1.955 -1.4358 -0.5548  0.0764
 7538SOL    HW224056   1.912   4.179   1.935  0.9435  0.8473 -1.1463
 7539SOL     OW24057   1.723   4.188   1.871 -0.3090  0.3768  0.0812
 7539SOL    HW124058   1.682   4.176   1.785 -1.6641 -0.6757  0.8367
 7539SOL    HW224059   1.711   4.281   1.890  1.2015  0.9301 -1.4139
 7540SOL     OW24060   1.257   2.836   2.687 -0.1109 -0.4910  0.5823
 7540SOL    HW124061   1.325   2.830   2.754  0.4273  0.8431  0.1759
 7540SOL    HW224062   1.254   2.929   2.663  0.1325 -1.0134 -1.6775
 7541SOL     OW24063   5.412   1.682   1.898 -0.2397 -0.0334 -0.2269
 7541SOL    HW124064   5.322   1.693   1.926  0.1994 -0.1289  1.2712
 7541SOL    HW224065   5.408   1.616   1.828 -1.1534 -1.1919  0.8927
 7542SOL     OW24066   0.639   2.935   1.631 -0.4930 -0.3881 -0.0295
 7542SOL    HW124067   0.654   2.903   1.543  1.6829  1.5183 -0.4472
 7542SOL    HW224068   0.600   3.022   1.619 -3.1241 -1.2951  1.0092
 7543SOL     OW24069   0.800   2.818   1.422 -0.3197  0.1396  0.3136
 7543SOL    HW124070   0.787   2.776   1.337 -0.8054  2.2881 -0.7296
 7543SOL    HW224071   0.889   2.791   1.448  0.4571  0.6489 -1.6192
 7544SOL     OW24072   1.354   3.768   2.599 -0.1612 -0.2529 -0.3184
 7544SOL    HW124073   1.347   3.785   2.505 -0.3554  1.8389  0.0293
 7544SOL    HW224074   1.430   3.819   2.627 -0.2647 -0.6360  0.7022
 7545SOL     OW24075   2.130   3.132   0.678 -0.6408 -0.4733  0.5848
 7545SOL    HW124076   2.134   3.216   0.723  1.3819 -1.0082  1.5278
 7545SOL    HW224077   2.138   3.154   0.585  0.5801  0.3668  0.8638
 7546SOL     OW24078   3.286   2.819   1.300 -0.0945 -0.6471  0.2031
 7546SOL    HW124079   3.346   2.893   1.290 -1.0445  0.1561  0.2837
 7546SOL    HW224080   3.342   2.742   1.296  0.7852  0.0221 -1.0847
 7547SOL     OW24081   1.468   2.514   1.925  0.3184 -0.1144 -0.1742
 7547SOL    HW124082   1.450   2.566   1.846  2.2430  0.3605 -0.3676
 7547SOL    HW224083   1.527   2.570   1.977  0.3244 -1.0555  0.8652
 7548SOL     OW24084   4.335   1.923  11.509 -0.4707  0.6856 -0.0510
 7548SOL    HW124085   4.322   2.017  11.506  0.5097  0.8042 -0.9335
 7548SOL    HW224086   4.254   1.886  11.475 -0.3366  1.2578 -1.0111
 7549SOL     OW24087   7.895   3.487   2.035 -0.6431  0.0604  0.3938
 7549SOL    HW124088   7.861   3.534   1.959  1.0246  0.3674 -0.2065
 7549SOL    HW224089   7.859   3.399   2.027 -1.6975  0.5058  0.0953
 7550SOL     OW24090   2.737   2.775  11.911 -0.1705  0.2344 -0.3464
 7550SOL    HW124091   2.695   2.861  11.899 -0.2473  0.0086 -1.9957
 7550SOL    HW224092   2.720   2.752  12.002 -2.4086  0.7911 -0.5766
 7551SOL     OW24093   1.326   2.904   1.789  0.0325  0.6864  0.0904
 7551SOL    HW124094   1.343   2.951   1.708  0.9483 -0.1283 -0.2246
 7551SOL    HW224095   1.405   2.918   1.842 -0.1905  0.5086  0.4767
 7552SOL     OW24096   3.048   0.614  12.350  0.4875 -0.0793 -0.3595
 7552SOL    HW124097   3.076   0.573  12.432 -0.5938 -0.4324 -0.1439
 7552SOL    HW224098   3.099   0.570  12.282 -1.3378 -2.5969 -0.2464
 7553SOL     OW24099   7.995   3.351   2.400 -0.1863 -0.6575  0.8834
 7553SOL    HW124100   8.036   3.403   2.331 -0.9960 -0.8978  0.2020
 7553SOL    HW224101   8.067   3.328   2.458  0.2492  0.8815  0.9887
 7554SOL     OW24102   2.524   1.856   0.962  1.1150  0.2233  0.1388
 7554SOL    HW124103   2.430   1.871   0.967  1.0918  0.3255 -0.5754
 7554SOL    HW224104   2.533   1.764   0.938  1.1904  0.2955 -0.1135
 7555SOL     OW24105   1.383   2.069   3.145 -0.1913 -0.1945  0.9771
 7555SOL    HW124106   1.411   2.155   3.178 -0.5474 -0.1490  1.1705
 7555SOL    HW224107   1.382   2.079   3.050 -1.6115  0.4651  1.0436
 7556SOL     OW24108   1.573   2.179   2.694  0.5362  0.6954 -0.2800
 7556SOL    HW124109   1.592   2.208   2.783  1.6349 -0.0755 -0.2399
 7556SOL    HW224110   1.570   2.259   2.643  0.4062  1.1089  0.3636
 7557SOL     OW24111   1.691   1.596   4.015  0.1764 -0.2343  0.8075
 7557SOL    HW124112   1.674   1.502   4.023 -1.4364  0.1512  2.5049
 7557SOL    HW224113   1.712   1.625   4.104  1.6341  0.8819  0.1524
 7558SOL     OW24114   2.777   4.350   1.852 -0.7177 -0.2391  0.1079
 7558SOL    HW124115   2.797   4.328   1.761 -2.0094  3.0003 -1.1298
 7558SOL    HW224116   2.703   4.294   1.874  0.2776 -1.8303 -0.4104
 7559SOL     OW24117   3.373   3.870   1.742  0.1232  0.6412  0.1853
 7559SOL    HW124118   3.366   3.965   1.732 -1.4394  0.7531  1.8235
 7559SOL    HW224119   3.460   3.857   1.781  1.0301  1.2010 -1.5315
 7560SOL     OW24120   1.408   1.875   3.420 -0.1782 -0.3401 -0.3840
 7560SOL    HW124121   1.404   1.784   3.449 -0.1062 -0.1317  0.3070
 7560SOL    HW224122   1.488   1.881   3.368 -0.6819 -0.8894 -1.2532
 7561SOL     OW24123   3.505   2.582   2.633 -0.0527 -0.0672  0.1925
 7561SOL    HW124124   3.490   2.493   2.663 -1.5584 -0.0255 -0.3484
 7561SOL    HW224125   3.460   2.587   2.549  0.2771  1.1135  0.0632
 7562SOL     OW24126   2.879   3.844   1.595  0.2540  0.1205  0.6390
 7562SOL    HW124127   2.936   3.917   1.619  1.1706 -0.2625 -0.3283
 7562SOL    HW224128   2.926   3.766   1.624  0.7649 -0.2637 -1.1151
 7563SOL     OW24129   2.952   1.996   3.020  0.2381  0.4109  0.7539
 7563SOL    HW124130   2.896   2.067   2.990 -1.3890 -0.2238  2.1186
 7563SOL    HW224131   2.936   1.925   2.957  0.1963  0.5263  0.6341
 7564SOL     OW24132   2.221   2.721   2.043 -0.4295  0.3836  0.0011
 7564SOL    HW124133   2.239   2.627   2.044 -0.4123  0.2925 -2.5998
 7564SOL    HW224134   2.134   2.729   2.082  0.3028 -0.4558  1.9332
 7565SOL     OW24135   1.539   3.952   1.441 -0.0105 -0.3080  0.0270
 7565SOL    HW124136   1.568   4.030   1.489  0.0059  0.3392 -1.0086
 7565SOL    HW224137   1.488   3.902   1.504 -0.7815  0.9957  0.4511
 7566SOL     OW24138   1.638   3.172   3.629 -0.1408  0.0856 -0.0094
 7566SOL    HW124139   1.678   3.224   3.699  0.9838 -0.5929 -0.1235
 7566SOL    HW224140   1.548   3.157   3.659 -0.1818  1.2404  0.4848
 7567SOL     OW24141   2.281   4.594   1.864  0.1557  0.6038 -0.7032
 7567SOL    HW124142   2.359   4.543   1.887 -0.5423 -0.0242  0.3187
 7567SOL    HW224143   2.207   4.537   1.886 -0.6124  0.9057 -2.3229
 7568SOL     OW24144   1.518   4.343   2.974 -0.2589  0.5103  0.0988
 7568SOL    HW124145   1.608   4.373   2.958  0.4684 -1.6150 -0.0253
 7568SOL    HW224146   1.466   4.388   2.908  0.8334  1.1398 -0.3601
 7569SOL     OW24147   3.149   2.391   1.497 -0.2505 -0.7857  0.0171
 7569SOL    HW124148   3.125   2.483   1.503  0.8785 -0.5045  0.5898
 7569SOL    HW224149   3.127   2.365   1.408 -2.6769 -0.5968  0.4965
 7570SOL     OW24150   0.190   4.969   1.913 -0.5779 -0.8882  0.3703
 7570SOL    HW124151   0.139   4.967   1.994 -0.7459  0.3592  0.3245
 7570SOL    HW224152   0.238   5.051   1.917  1.2422 -1.9098  0.2736
 7571SOL     OW24153   3.365   2.850   4.135  0.4192 -0.2100 -0.1405
 7571SOL    HW124154   3.432   2.916   4.119  0.4306 -0.3224 -0.5474
 7571SOL    HW224155   3.406   2.768   4.110 -0.2731 -0.1480 -1.5150
 7572SOL     OW24156   1.249   3.563   1.445 -0.7800 -0.2908 -0.0187
 7572SOL    HW124157   1.243   3.572   1.540  0.2366 -1.9220  0.2452
 7572SOL    HW224158   1.164   3.528   1.419 -0.5802 -1.2055  0.5077
 7573SOL     OW24159   3.094   3.761   2.350 -0.4222  0.1643 -0.0415
 7573SOL    HW124160   3.169   3.703   2.357 -1.8306 -1.6502  1.0126
 7573SOL    HW224161   3.101   3.821   2.424  0.9398  1.2932 -1.0288
 7574SOL     OW24162   2.981   2.825   3.544 -0.1053 -0.4613  0.6785
 7574SOL    HW124163   2.919   2.799   3.475  0.9346  0.3015 -0.5954
 7574SOL    HW224164   2.931   2.882   3.602 -0.2320  1.5023 -1.2456
 7575SOL     OW24165   2.443   4.458   3.912  0.5180 -0.2110 -0.1722
 7575SOL    HW124166   2.515   4.520   3.896  0.3462 -0.2023 -0.9274
 7575SOL    HW224167   2.436   4.455   4.008  2.4603 -1.2958 -0.0088
 7576SOL     OW24168   4.713   1.345   2.094  0.4108  0.3399  0.0796
 7576SOL    HW124169   4.637   1.398   2.069 -0.0566  0.2362  1.2149
 7576SOL    HW224170   4.780   1.410   2.119  0.3726  0.4170 -0.0185
 7577SOL     OW24171   3.774   1.739   2.843 -0.2398  0.3745 -0.2247
 7577SOL    HW124172   3.708   1.797   2.882  0.0560  0.9120 -0.5256
 7577SOL    HW224173   3.858   1.779   2.867 -0.0515  0.7156 -1.4111
 7578SOL     OW24174   4.648   2.601   1.438 -0.1095 -0.2269 -0.0236
 7578SOL    HW124175   4.697   2.662   1.494 -1.0921  1.4940 -0.9396
 7578SOL    HW224176   4.715   2.547   1.397  0.8245  0.3212  0.7255
 7579SOL     OW24177   0.721   2.812   2.027  0.0275  0.0214 -0.3319
 7579SOL    HW124178   0.671   2.854   2.097  1.3343  0.4904  0.3456
 7579SOL    HW224179   0.734   2.882   1.962 -2.2106 -0.6978 -1.7030
 7580SOL     OW24180   3.111   2.110   1.381 -0.3936 -0.1138 -0.2551
 7580SOL    HW124181   3.133   2.163   1.458  2.1516 -0.5582 -0.5903
 7580SOL    HW224182   3.068   2.171   1.322 -2.2353  0.2865  1.3906
 7581SOL     OW24183   3.219   3.535   1.339  0.5164  0.1885 -0.4064
 7581SOL    HW124184   3.276   3.497   1.273  0.8226  0.5271 -0.3488
 7581SOL    HW224185   3.275   3.601   1.382 -0.4519  1.8587 -1.5759
 7582SOL     OW24186   1.458   3.395   4.719 -0.7548  0.1319  0.5523
 7582SOL    HW124187   1.496   3.352   4.796 -1.4616 -1.1281  0.2209
 7582SOL    HW224188   1.453   3.326   4.653 -0.8483  1.0203 -0.3877
 7583SOL     OW24189   3.043   4.063   1.667 -0.1732  0.1310 -0.4995
 7583SOL    HW124190   3.101   4.019   1.606  0.3929  0.6252 -0.3307
 7583SOL    HW224191   3.102   4.115   1.722 -0.9014  2.3449 -1.6888
 7584SOL     OW24192   2.105   1.959   4.502 -0.1650  0.5443  0.3342
 7584SOL    HW124193   2.037   1.933   4.440 -0.5757  0.0006  0.9934
 7584SOL    HW224194   2.169   1.888   4.498  1.0459  1.6757 -1.2439
 7585SOL     OW24195   2.207   2.423   2.077  0.1761 -0.4434 -0.1661
 7585SOL    HW124196   2.171   2.360   2.015 -0.2364 -1.5235  1.1112
 7585SOL    HW224197   2.130   2.462   2.118  0.4046  1.3775 -1.3427
 7586SOL     OW24198   7.987   1.376   3.544  0.0949 -0.0047  0.6887
 7586SOL    HW124199   7.998   1.313   3.615 -2.2082  0.5189  1.6098
 7586SOL    HW224200   7.941   1.450   3.584 -1.7905  0.0754 -1.4179
 7587SOL     OW24201   3.353   2.449   2.009 -0.2255 -0.2029  0.5079
 7587SOL    HW124202   3.302   2.504   1.950 -0.3816 -0.3297  0.5236
 7587SOL    HW224203   3.407   2.510   2.058  0.4325 -0.1495 -0.2672
 7588SOL     OW24204   3.018   2.282   2.861  0.0989 -0.0051  0.1579
 7588SOL    HW124205   3.090   2.322   2.909  0.5038  0.6477 -0.9616
 7588SOL    HW224206   2.940   2.328   2.893  0.5141  1.4413 -0.8036
 7589SOL     OW24207   2.991   3.000   3.201  0.8845 -0.3410  0.3782
 7589SOL    HW124208   3.034   2.936   3.144  0.5834 -1.9455  1.8715
 7589SOL    HW224209   2.898   2.987   3.187  0.8136 -0.5192  0.9827
 7590SOL     OW24210   3.086   4.598   2.825  0.1605  0.1525  0.2402
 7590SOL    HW124211   3.093   4.526   2.762  1.0252  0.7016 -0.3034
 7590SOL    HW224212   3.153   4.578   2.890  0.6170  0.6388 -0.0829
 7591SOL     OW24213   3.102   2.033   2.318 -0.1074  0.4339  0.1548
 7591SOL    HW124214   3.167   1.999   2.257 -0.3113  1.5321 -0.7062
 7591SOL    HW224215   3.149   2.041   2.401  0.2816 -0.6972  0.0615
 7592SOL     OW24216   3.951   1.381   2.084  0.0012 -0.1423 -0.1781
 7592SOL    HW124217   3.914   1.300   2.118 -0.9984 -0.6427 -2.2955
 7592SOL    HW224218   4.044   1.361   2.069 -0.4549 -1.3236 -1.7113
 7593SOL     OW24219   2.844   3.447   3.132 -0.2873 -0.8392  0.2984
 7593SOL    HW124220   2.899   3.378   3.170  0.7826 -0.8586 -1.2080
 7593SOL    HW224221   2.901   3.492   3.071 -1.7186 -0.2951 -0.6874
 7594SOL     OW24222   2.938   1.948   3.705 -0.6317  0.6383  0.5710
 7594SOL    HW124223   3.009   1.971   3.764  1.8235 -2.9042 -0.6683
 7594SOL    HW224224   2.939   2.016   3.638  3.4219 -0.5083 -0.7794
 7595SOL     OW24225   1.693   1.415   4.733  0.4028 -0.0520 -0.2760
 7595SOL    HW124226   1.668   1.447   4.646 -1.0777 -0.5705 -0.0767
 7595SOL    HW224227   1.772   1.465   4.755  0.7027  0.2193 -1.8275
 7596SOL     OW24228   2.997   3.391   2.490 -0.2694 -0.2163 -0.0003
 7596SOL    HW124229   2.920   3.432   2.532  0.6040  0.6471  0.8117
 7596SOL    HW224230   3.072   3.431   2.534  0.6501 -1.8661  0.0078
 7597SOL     OW24231   3.564   2.886   2.252  0.7452 -0.2501  0.4274
 7597SOL    HW124232   3.589   2.855   2.340  1.7738  0.1501  0.2977
 7597SOL    HW224233   3.577   2.981   2.255 -0.2714 -0.0924  0.1630
 7598SOL     OW24234   3.434   3.406   2.205  0.2198 -0.0346  0.5215
 7598SOL    HW124235   3.397   3.344   2.142  0.8998  0.1497 -0.0732
 7598SOL    HW224236   3.484   3.468   2.152 -1.3570  1.7267  0.9871
 7599SOL     OW24237   2.006   2.872   2.931  0.1417  0.3373  0.4135
 7599SOL    HW124238   1.994   2.843   3.022  2.9646  1.8264  1.3692
 7599SOL    HW224239   2.007   2.968   2.936 -0.7958  0.4903 -1.4108
 7600SOL     OW24240   3.197   3.046   2.488  0.0162 -0.4856 -0.0779
 7600SOL    HW124241   3.240   2.973   2.534 -1.9042 -0.6203  1.6447
 7600SOL    HW224242   3.148   3.092   2.556  0.2167  1.7505 -1.3384
 7601SOL     OW24243   1.905   1.674   2.848 -0.4100  0.0948  0.4485
 7601SOL    HW124244   1.958   1.615   2.903 -2.0045 -0.7998  1.0908
 7601SOL    HW224245   1.866   1.616   2.782  2.0041  1.2433 -2.1766
 7602SOL     OW24246   3.592   2.709   2.860  0.1510 -0.9681 -0.0564
 7602SOL    HW124247   3.525   2.777   2.854 -0.6741 -1.6886  0.6601
 7602SOL    HW224248   3.573   2.649   2.788 -0.5050 -1.6160  0.6403
 7603SOL     OW24249   2.641   3.025   3.943  0.1282 -0.7099  0.1057
 7603SOL    HW124250   2.630   3.109   3.988  1.6751 -0.2887 -0.2528
 7603SOL    HW224251   2.554   2.986   3.944 -0.1351 -0.1612  2.3426
 7604SOL     OW24252   4.272   1.085   3.189 -0.3691 -0.2160 -0.3762
 7604SOL    HW124253   4.361   1.122   3.192 -0.2914 -0.4631  1.2889
 7604SOL    HW224254   4.236   1.102   3.276 -0.9660 -2.4751 -0.1171
 7605SOL     OW24255   3.193   2.032   2.023  0.2722 -0.1614  0.0081
 7605SOL    HW124256   3.187   1.963   1.957 -0.6965 -0.3681  0.2869
 7605SOL    HW224257   3.105   2.070   2.026  0.5743  0.5312  0.4488
 7606SOL     OW24258   4.764   1.684   2.787  0.0002 -0.0788 -0.6722
 7606SOL    HW124259   4.796   1.616   2.847  1.0876  1.3252  0.4090
 7606SOL    HW224260   4.840   1.740   2.773 -0.8278  0.8075 -1.6937
 7607SOL     OW24261   3.544   2.645   4.051  0.0972  0.1042 -0.5854
 7607SOL    HW124262   3.589   2.696   4.118 -1.2998  0.9451 -0.2672
 7607SOL    HW224263   3.613   2.623   3.988  0.8941  1.6341 -0.2900
 7608SOL     OW24264   0.910   4.311   2.505  0.0334 -0.0426 -0.3161
 7608SOL    HW124265   0.919   4.249   2.577  0.4970 -0.8696 -1.0595
 7608SOL    HW224266   0.952   4.391   2.536  0.6912 -0.5594  0.1393
 7609SOL     OW24267   4.007   3.195   3.366  0.2893 -0.3494  0.8980
 7609SOL    HW124268   3.961   3.120   3.329  1.1177 -1.6205  2.3153
 7609SOL    HW224269   3.990   3.267   3.305 -1.6676 -1.3285  0.2281
 7610SOL     OW24270   1.272   3.221   3.678 -0.2595 -0.1875  0.2805
 7610SOL    HW124271   1.235   3.204   3.592  0.2559  0.1891 -0.0245
 7610SOL    HW224272   1.221   3.166   3.738 -1.3398  0.3569 -0.1124
 7611SOL     OW24273   3.477   3.227   1.962  0.1024 -0.2003 -0.1223
 7611SOL    HW124274   3.454   3.140   1.928 -0.6867 -0.6948  1.5737
 7611SOL    HW224275   3.555   3.213   2.015  1.3842  0.5823 -1.7361
 7612SOL     OW24276   2.815   2.688   3.334 -0.0167 -0.3095 -0.0337
 7612SOL    HW124277   2.854   2.611   3.292  0.0301 -0.3301  0.0472
 7612SOL    HW224278   2.742   2.712   3.277  0.7739  0.3802 -0.7812
 7613SOL     OW24279   3.832   3.869   2.370  0.3059 -0.2039  0.0243
 7613SOL    HW124280   3.785   3.932   2.424  0.5942  0.0498 -0.0159
 7613SOL    HW224281   3.911   3.850   2.421  0.0765 -0.7624  0.1769
 7614SOL     OW24282   2.390   3.399   1.989  0.2598 -0.1280 -0.5134
 7614SOL    HW124283   2.472   3.445   2.007 -0.1691  0.6910 -0.6329
 7614SOL    HW224284   2.342   3.456   1.929 -0.2369 -0.7794 -0.7507
 7615SOL     OW24285   2.615   1.784   1.696 -0.0156  0.1841 -0.1571
 7615SOL    HW124286   2.525   1.813   1.703  0.0752  0.2241  0.9970
 7615SOL    HW224287   2.660   1.825   1.770  1.0719  0.5946 -1.0065
 7616SOL     OW24288   2.421   4.300   2.716  0.3550  0.4382 -0.3655
 7616SOL    HW124289   2.488   4.318   2.781  0.2102  1.3260 -0.4498
 7616SOL    HW224290   2.462   4.237   2.656  0.5211 -0.3187  0.5071
 7617SOL     OW24291   3.003   3.063   2.764 -0.3906  0.2063  0.1886
 7617SOL    HW124292   2.954   3.129   2.714 -0.9550 -0.0378  0.4015
 7617SOL    HW224293   2.935   3.018   2.816 -0.2036 -1.3242 -0.8280
 7618SOL     OW24294   3.893   2.460   2.682 -0.2006  0.3974  0.4806
 7618SOL    HW124295   3.979   2.438   2.720  0.9438  0.0813 -2.0918
 7618SOL    HW224296   3.859   2.529   2.739  1.4817  0.0960  1.9445
 7619SOL     OW24297   2.081   2.462   3.087 -0.6480 -0.1866 -0.3302
 7619SOL    HW124298   1.993   2.459   3.126 -0.5894 -0.6486 -0.2293
 7619SOL    HW224299   2.124   2.535   3.130 -1.4350  0.9127 -1.3425
 7620SOL     OW24300   1.326   2.057   2.853  0.6819  0.9175 -0.1219
 7620SOL    HW124301   1.235   2.077   2.830  0.4110  2.7810  2.1921
 7620SOL    HW224302   1.377   2.124   2.809  0.8754  0.4389 -0.6459
 7621SOL     OW24303   3.133   1.130   5.041  0.4032 -0.3075 -0.1497
 7621SOL    HW124304   3.055   1.184   5.030  0.7505 -0.0816 -1.8238
 7621SOL    HW224305   3.099   1.040   5.041  0.0973 -0.1948 -0.4082
 7622SOL     OW24306   1.746   3.471   2.858 -0.1706 -0.1760 -0.5173
 7622SOL    HW124307   1.732   3.383   2.892 -0.0784 -0.0168 -0.0592
 7622SOL    HW224308   1.658   3.504   2.839 -0.2485 -0.1436 -0.1117
 7623SOL     OW24309   3.894   2.763   4.034  0.4213  0.3871  0.0016
 7623SOL    HW124310   3.980   2.720   4.025  1.0327  1.5452  0.1590
 7623SOL    HW224311   3.863   2.772   3.944 -0.2462 -1.3895  0.0185
 7624SOL     OW24312   0.987   2.316   3.292 -0.1051 -0.1255  0.0581
 7624SOL    HW124313   0.955   2.389   3.240 -2.3783  0.4766  2.1256
 7624SOL    HW224314   1.060   2.352   3.342 -0.0503  0.2008 -0.2503
 7625SOL     OW24315   2.558   1.542   3.123  0.2032  0.3987  0.8377
 7625SOL    HW124316   2.641   1.581   3.149  0.4017  0.6810 -0.1730
 7625SOL    HW224317   2.572   1.516   3.031 -0.3571 -0.8388  1.0838
 7626SOL     OW24318   3.176   1.800   3.604 -0.1301  0.1943  0.2817
 7626SOL    HW124319   3.240   1.820   3.535  0.2739 -0.3129  0.5011
 7626SOL    HW224320   3.091   1.804   3.559  0.2340 -1.9902 -0.7377
 7627SOL     OW24321   4.172   1.116   2.475 -0.1116  0.0664 -0.3046
 7627SOL    HW124322   4.100   1.118   2.538  1.3109  3.2314  1.4572
 7627SOL    HW224323   4.133   1.144   2.393 -0.9547  1.8463  0.6491
 7628SOL     OW24324   3.158   2.618   1.887 -0.2309  0.1982  0.1524
 7628SOL    HW124325   3.200   2.700   1.912  1.5775 -0.0005 -1.9290
 7628SOL    HW224326   3.103   2.640   1.812 -0.2839 -0.3523  0.0223
 7629SOL     OW24327   3.698   2.777   4.226  0.1248 -0.0115 -0.0932
 7629SOL    HW124328   3.790   2.762   4.206  0.0943  1.2957 -1.3795
 7629SOL    HW224329   3.679   2.864   4.192 -0.8710  1.0243  2.7701
 7630SOL     OW24330   2.277   2.209   2.277 -0.4330 -0.3556 -0.6244
 7630SOL    HW124331   2.273   2.143   2.208  0.5357 -0.2173 -0.8306
 7630SOL    HW224332   2.256   2.161   2.358 -1.9203 -0.4434 -1.0470
 7631SOL     OW24333   0.741   3.360   2.492 -0.1056  0.4495 -0.2642
 7631SOL    HW124334   0.674   3.366   2.424 -0.1430 -1.0805 -0.3902
 7631SOL    HW224335   0.789   3.443   2.485  0.0193  0.2503 -2.2956
 7632SOL     OW24336   2.828   3.493   2.204  0.9810 -0.0521 -0.3081
 7632SOL    HW124337   2.868   3.564   2.153  1.5005 -0.3784 -0.3668
 7632SOL    HW224338   2.818   3.530   2.292 -0.2019  0.6205 -0.6964
 7633SOL     OW24339   2.801   4.187   1.225 -0.1488  0.2078 -0.0433
 7633SOL    HW124340   2.888   4.174   1.263 -0.2791 -1.0536 -0.1545
 7633SOL    HW224341   2.811   4.165   1.133 -0.9179 -1.4524  0.2479
 7634SOL     OW24342   1.204   2.344   2.903 -0.1081 -0.1050  0.5559
 7634SOL    HW124343   1.146   2.398   2.850 -1.4256 -1.0125  0.9944
 7634SOL    HW224344   1.147   2.309   2.972  0.6713 -2.0429  0.2835
 7635SOL     OW24345   2.615   2.770   2.678  0.1733 -0.3692  0.6303
 7635SOL    HW124346   2.605   2.843   2.616 -0.5209  0.2866  1.4959
 7635SOL    HW224347   2.615   2.692   2.622  2.6711  0.3379 -0.4936
 7636SOL     OW24348   3.377   3.267   3.066 -0.4637 -0.2715 -0.3590
 7636SOL    HW124349   3.460   3.305   3.036 -1.6021  2.0043 -0.8067
 7636SOL    HW224350   3.369   3.297   3.157 -2.0120  1.8263 -1.1231
 7637SOL     OW24351   2.224   3.068   1.535 -0.4301 -0.2328 -0.7989
 7637SOL    HW124352   2.295   3.096   1.592 -0.0477 -2.3187 -0.1780
 7637SOL    HW224353   2.149   3.057   1.594 -1.1004  1.2109 -1.3300
 7638SOL     OW24354   3.539   3.048   3.026  0.0630  0.1197  0.0496
 7638SOL    HW124355   3.552   3.044   2.931 -1.7685 -1.3246 -0.1863
 7638SOL    HW224356   3.458   3.097   3.037  0.1713  0.1284  0.8753
 7639SOL     OW24357   1.921   2.555   2.883 -0.0599  0.0367 -0.7917
 7639SOL    HW124358   1.852   2.492   2.860  0.5356 -0.5865 -0.8920
 7639SOL    HW224359   1.989   2.503   2.924  0.2986  0.6722 -0.5613
 7640SOL     OW24360   1.451   2.441   2.950  0.4072  0.1030 -0.2470
 7640SOL    HW124361   1.428   2.533   2.940  0.2006  0.1571  0.6665
 7640SOL    HW224362   1.370   2.394   2.933 -0.1015  0.2267  1.6633
 7641SOL     OW24363   2.518   4.454   1.924  0.6915 -0.6892 -0.0722
 7641SOL    HW124364   2.573   4.523   1.959 -0.9890  0.0264  1.3197
 7641SOL    HW224365   2.550   4.374   1.966  1.3498 -0.4507 -0.1155
 7642SOL     OW24366   1.267   3.272   1.867  0.5309 -0.4298  0.1238
 7642SOL    HW124367   1.263   3.230   1.781  1.1075 -1.2709  0.4937
 7642SOL    HW224368   1.361   3.283   1.884  0.4142 -0.1318  0.5885
 7643SOL     OW24369   3.050   3.519   0.902  0.0530 -0.1108  0.0462
 7643SOL    HW124370   3.033   3.428   0.878  0.2757 -0.5598  1.5046
 7643SOL    HW224371   3.132   3.541   0.856 -1.1935  0.1593 -2.2005
 7644SOL     OW24372   3.730   2.485   3.391  0.0323 -0.1291 -0.1191
 7644SOL    HW124373   3.635   2.482   3.381 -0.5699  0.1715  3.9076
 7644SOL    HW224374   3.746   2.569   3.434  1.8094 -1.1605  1.3592
 7645SOL     OW24375   2.757   2.860   2.330 -0.2602 -0.1113 -0.3097
 7645SOL    HW124376   2.850   2.841   2.336 -0.2198  0.1542 -0.1048
 7645SOL    HW224377   2.715   2.774   2.324 -0.0143 -0.2348 -0.2416
 7646SOL     OW24378   2.297   3.822   3.484  0.2227 -0.2985 -0.0847
 7646SOL    HW124379   2.317   3.832   3.578 -0.3277 -0.8692  0.1010
 7646SOL    HW224380   2.219   3.765   3.482 -0.9414  1.2375 -0.7948
 7647SOL     OW24381   3.828   3.030   0.793 -0.1872 -0.0415 -0.4846
 7647SOL    HW124382   3.836   2.939   0.765 -1.7789 -0.6059  0.7599
 7647SOL    HW224383   3.910   3.048   0.839  0.6164 -0.4628 -1.7018
 7648SOL     OW24384   3.066   1.539   3.754  0.1988 -0.0683 -0.1519
 7648SOL    HW124385   3.088   1.631   3.736 -0.1526 -0.4524 -2.9480
 7648SOL    HW224386   3.148   1.492   3.740  0.2362 -0.2817  0.7096
 7649SOL     OW24387   2.935   3.252   3.321  0.3287 -0.0591  0.1721
 7649SOL    HW124388   2.970   3.229   3.407  0.1536  0.0033  0.2616
 7649SOL    HW224389   2.968   3.184   3.263 -0.4448 -0.7355  0.4937
 7650SOL     OW24390   3.048   0.500   2.820 -0.4014  0.7700 -0.8711
 7650SOL    HW124391   3.089   0.548   2.748 -0.4335  1.9442 -0.1329
 7650SOL    HW224392   3.114   0.502   2.890 -0.0657 -1.0146 -1.1018
 7651SOL     OW24393   2.508   3.160   3.512 -0.1323 -0.0169  0.2947
 7651SOL    HW124394   2.427   3.120   3.480 -1.4905  2.9132 -0.2013
 7651SOL    HW224395   2.571   3.144   3.442  0.0628 -3.0727  1.0458
 7652SOL     OW24396   0.545   3.149   3.650  0.0158  0.3662  0.6526
 7652SOL    HW124397   0.487   3.219   3.683  1.3651  2.1426 -0.5741
 7652SOL    HW224398   0.628   3.163   3.696  0.5938  0.1802 -0.3044
 7653SOL     OW24399   1.644   2.774   2.824 -0.0608 -0.3283  0.2944
 7653SOL    HW124400   1.633   2.862   2.789 -0.4112 -0.0343  1.1226
 7653SOL    HW224401   1.557   2.735   2.821  0.2725 -1.0713 -1.1036
 7654SOL     OW24402   1.548   2.768   5.130  0.0146 -0.2583 -0.3898
 7654SOL    HW124403   1.603   2.722   5.192  0.8840 -2.0381 -2.3706
 7654SOL    HW224404   1.588   2.855   5.121 -0.7978  0.4817  2.2891
 7655SOL     OW24405   2.589   2.121   0.878 -0.0600 -0.0929  0.1255
 7655SOL    HW124406   2.648   2.159   0.943 -1.6002  0.1480  1.4339
 7655SOL    HW224407   2.579   2.030   0.906  0.0534 -0.2655 -0.3800
 7656SOL     OW24408   3.005   3.543   2.910  0.1236  0.2082  0.3123
 7656SOL    HW124409   3.044   3.613   2.857 -0.8055 -0.7552 -1.7805
 7656SOL    HW224410   3.064   3.468   2.898  0.1792  0.1231  1.0898
 7657SOL     OW24411   4.128   2.979   1.851 -0.3239  0.2192  0.0613
 7657SOL    HW124412   4.172   3.059   1.821  0.6068 -0.1924  0.3117
 7657SOL    HW224413   4.196   2.912   1.849 -0.9103 -0.4001  0.5954
 7658SOL     OW24414   2.401   2.781   1.830  0.7630  0.2708  0.1925
 7658SOL    HW124415   2.346   2.775   1.908  1.9163  0.2546  1.0327
 7658SOL    HW224416   2.343   2.818   1.763 -1.7891 -4.1549 -0.4914
 7659SOL     OW24417   0.763   3.166   4.571 -0.1066 -0.7577 -0.3400
 7659SOL    HW124418   0.698   3.096   4.574  0.9599 -1.7650  1.8025
 7659SOL    HW224419   0.847   3.120   4.564  0.6245  0.2402  1.2952
 7660SOL     OW24420   2.538   3.242   2.717  0.0983 -0.0756  0.3082
 7660SOL    HW124421   2.510   3.170   2.774  0.0063  0.0093  0.3692
 7660SOL    HW224422   2.580   3.305   2.776 -2.7963  1.5284  0.8132
 7661SOL     OW24423   3.109   1.034   4.421  0.4146  0.2044  0.1184
 7661SOL    HW124424   3.197   1.029   4.384 -0.0334  2.1837 -1.3911
 7661SOL    HW224425   3.116   1.097   4.492  0.2192  0.3487  0.0103
 7662SOL     OW24426   3.193   3.035   3.617  0.0244 -0.4364  0.1956
 7662SOL    HW124427   3.195   3.038   3.713  0.0805  0.6701  0.1796
 7662SOL    HW224428   3.166   2.946   3.596  1.4040 -1.1423  1.2234
 7663SOL     OW24429   2.080   2.697   0.633  0.4450 -0.7188  0.4257
 7663SOL    HW124430   2.021   2.751   0.581  0.9522 -0.7612 -0.2103
 7663SOL    HW224431   2.031   2.676   0.712  0.3695  1.0092  0.8814
 7664SOL     OW24432   4.287   3.071   3.689 -0.5278  0.5784 -0.3365
 7664SOL    HW124433   4.231   2.994   3.695  1.0123 -0.5891 -0.4215
 7664SOL    HW224434   4.293   3.091   3.596  1.7773 -1.3360 -0.6872
 7665SOL     OW24435   2.647   3.411   2.912  0.7294  0.4390 -0.3592
 7665SOL    HW124436   2.596   3.481   2.952 -2.0610 -2.3891  1.4541
 7665SOL    HW224437   2.735   3.423   2.946 -0.0249  2.1190  1.1731
 7666SOL     OW24438   2.959   2.157   3.511  1.2731  0.4313 -0.2935
 7666SOL    HW124439   2.977   2.251   3.504  0.0334  0.7428  0.3990
 7666SOL    HW224440   2.990   2.121   3.428  0.6619  1.6453 -1.0816
 7667SOL     OW24441   1.653   3.700   3.735  0.3509 -0.1773  0.5419
 7667SOL    HW124442   1.591   3.645   3.782 -2.4504  0.9481 -1.5808
 7667SOL    HW224443   1.675   3.650   3.657 -2.9273  1.7684 -1.8783
 7668SOL     OW24444   2.143   3.717   3.097  0.0850  0.2730 -0.7322
 7668SOL    HW124445   2.078   3.782   3.124 -0.2618 -0.8319  1.2338
 7668SOL    HW224446   2.095   3.634   3.098  1.6000 -0.6470  1.3225
 7669SOL     OW24447   5.317   1.916   3.514  0.0010 -0.3801 -0.0529
 7669SOL    HW124448   5.300   1.966   3.594  1.4117  0.4196 -0.2094
 7669SOL    HW224449   5.230   1.899   3.477 -0.5731  2.2320 -0.1229
 7670SOL     OW24450   2.293   1.774   3.320 -0.6287  0.2183  0.0495
 7670SOL    HW124451   2.306   1.765   3.226 -1.3389 -0.1823 -0.0158
 7670SOL    HW224452   2.255   1.691   3.348 -0.6798  0.4328  0.6501
 7671SOL     OW24453   4.070   7.993   4.472  0.3110 -0.3707  0.2694
 7671SOL    HW124454   4.012   8.017   4.400  1.3710  0.5246 -0.3377
 7671SOL    HW224455   4.040   8.047   4.545 -1.5805 -2.2067  0.9361
 7672SOL     OW24456   2.559   2.724   3.789  0.1492 -0.0560  0.3387
 7672SOL    HW124457   2.514   2.809   3.792  0.2449 -0.0152  0.5998
 7672SOL    HW224458   2.602   2.723   3.703  0.1345  0.1521  0.3280
 7673SOL     OW24459   1.120   1.561   2.562 -0.5976 -0.3607  0.1602
 7673SOL    HW124460   1.115   1.597   2.651 -1.1098  0.4524 -0.1884
 7673SOL    HW224461   1.176   1.623   2.515  1.3880 -1.8603  0.4050
 7674SOL     OW24462   4.010   2.175   2.117  0.0169  0.4122 -0.0708
 7674SOL    HW124463   4.090   2.131   2.147  0.0786 -0.2632 -1.1922
 7674SOL    HW224464   3.966   2.202   2.198  0.7048 -0.4052  0.5942
 7675SOL     OW24465   2.862   2.151   2.422  0.7760 -0.3094  0.1594
 7675SOL    HW124466   2.879   2.202   2.501  2.0374 -0.0803 -0.2246
 7675SOL    HW224467   2.949   2.120   2.395  0.5450  0.4824 -1.7002
 7676SOL     OW24468   2.872   4.235   2.124  0.1305  0.2438 -0.0116
 7676SOL    HW124469   2.821   4.228   2.043  1.2468 -0.3214 -0.6901
 7676SOL    HW224470   2.964   4.234   2.095  0.5470  1.2169  1.1697
 7677SOL     OW24471   1.986   1.930   2.745  1.0192 -0.1047  0.3135
 7677SOL    HW124472   1.988   1.852   2.802  1.0224  0.6078  1.3206
 7677SOL    HW224473   2.042   1.993   2.789 -2.0369  1.8901  1.6994
 7678SOL     OW24474   3.543   1.576   3.479  0.1960  0.2421  0.1292
 7678SOL    HW124475   3.474   1.605   3.420  0.6577  0.3482 -0.3688
 7678SOL    HW224476   3.512   1.600   3.566  1.0882  3.5117 -0.3043
 7679SOL     OW24477   3.587   2.563   4.803  0.2496 -0.2559 -0.3338
 7679SOL    HW124478   3.653   2.580   4.870 -1.9717  0.4125  1.7929
 7679SOL    HW224479   3.588   2.642   4.749  2.7840 -1.2136 -1.8926
 7680SOL     OW24480   5.156   1.646   3.049 -0.2966  0.1455  0.0032
 7680SOL    HW124481   5.069   1.659   3.013 -0.2236  0.2673 -0.1280
 7680SOL    HW224482   5.214   1.699   2.994  0.0095 -0.7496 -0.5609
 7681SOL     OW24483   7.982   2.266   2.251 -0.4019 -0.8264 -0.0668
 7681SOL    HW124484   7.895   2.233   2.230 -1.2884  0.7644  0.9287
 7681SOL    HW224485   7.986   2.265   2.347  0.2285  0.1821 -0.0683
 7682SOL     OW24486   1.396   3.209   2.232 -0.5730 -0.2978 -0.1640
 7682SOL    HW124487   1.447   3.176   2.158 -0.2626 -0.6347  0.1937
 7682SOL    HW224488   1.405   3.304   2.227  1.1285 -0.3812  0.5935
 7683SOL     OW24489   2.700   3.545   4.232  0.1028 -0.8914 -0.1596
 7683SOL    HW124490   2.775   3.486   4.236 -0.1125 -1.1961 -0.5292
 7683SOL    HW224491   2.679   3.550   4.139  0.3042  0.0062 -0.1631
 7684SOL     OW24492   2.554   0.838   4.313 -0.4843  0.1890  0.2822
 7684SOL    HW124493   2.564   0.746   4.337  1.0254 -0.2113 -1.6381
 7684SOL    HW224494   2.558   0.885   4.396  1.2719 -1.3203  1.1268
 7685SOL     OW24495   2.044   3.242   3.968 -0.2888 -0.2677  0.1489
 7685SOL    HW124496   2.098   3.167   3.995 -0.7129 -1.2331 -1.5423
 7685SOL    HW224497   2.014   3.220   3.880 -0.9298  1.6419 -0.1672
 7686SOL     OW24498   2.266   2.812   2.968 -0.6671  0.4967  0.1807
 7686SOL    HW124499   2.176   2.841   2.958 -0.5370  1.1244  0.7249
 7686SOL    HW224500   2.268   2.770   3.054 -0.3017  1.0677  0.4583
 7687SOL     OW24501   3.003   1.465   4.128 -0.0733 -0.1324 -0.0291
 7687SOL    HW124502   3.093   1.432   4.133  0.2054  0.3322 -1.3974
 7687SOL    HW224503   2.983   1.495   4.216  0.4338 -1.9296  0.7457
 7688SOL     OW24504   4.233   2.304   3.527  0.3874  0.3183  0.1793
 7688SOL    HW124505   4.162   2.348   3.574  1.3250  0.7089  1.2993
 7688SOL    HW224506   4.255   2.229   3.582  0.0077 -0.5211 -0.8036
 7689SOL     OW24507   1.996   2.242   3.419  0.0208 -0.3963  0.5386
 7689SOL    HW124508   2.044   2.200   3.490 -1.4274 -2.7011  0.2394
 7689SOL    HW224509   1.911   2.199   3.418 -0.2909  0.0976 -2.0934
 7690SOL     OW24510   2.965   2.418   3.428  0.1248  0.3526  0.4761
 7690SOL    HW124511   2.887   2.402   3.375 -0.2343  1.2119  0.7180
 7690SOL    HW224512   3.025   2.464   3.369 -0.1662  1.0629  0.7247
 7691SOL     OW24513   3.056   2.521   2.289 -0.2929 -0.1160 -0.1683
 7691SOL    HW124514   3.016   2.555   2.209  0.4909 -0.7371 -0.8377
 7691SOL    HW224515   3.062   2.597   2.346 -1.1104  0.2815 -0.5915
 7692SOL     OW24516   0.721   2.056   2.404 -0.2244  0.4010 -0.1819
 7692SOL    HW124517   0.716   2.063   2.309 -1.0125  1.4287 -0.0910
 7692SOL    HW224518   0.744   2.144   2.433 -0.5756  0.2455  0.6056
 7693SOL     OW24519   1.778   2.344   4.028 -0.1710 -0.0976 -0.3038
 7693SOL    HW124520   1.802   2.349   3.936  1.7430  1.4683  0.2081
 7693SOL    HW224521   1.853   2.302   4.070 -0.6544 -0.0289  0.6606
 7694SOL     OW24522   3.165   2.736   4.323 -0.5394 -0.1625  0.1989
 7694SOL    HW124523   3.236   2.707   4.266  0.4067  0.4079  1.0558
 7694SOL    HW224524   3.184   2.695   4.408 -0.5219  1.0139  0.7782
 7695SOL     OW24525   3.184   1.796   3.049 -0.1464 -0.8596 -0.0650
 7695SOL    HW124526   3.134   1.872   3.019 -1.0238 -0.6574  1.7398
 7695SOL    HW224527   3.263   1.833   3.088 -1.0169 -0.7318  1.6856
 7696SOL     OW24528   0.987   2.921   1.936 -0.0532  0.1461 -0.3948
 7696SOL    HW124529   1.046   2.846   1.930 -0.8812 -0.4354 -1.6002
 7696SOL    HW224530   0.966   2.943   1.845 -0.8081  1.0413 -0.0251
 7697SOL     OW24531   0.477   3.111   3.017 -0.5008  0.3986 -0.2936
 7697SOL    HW124532   0.519   3.033   2.980  1.0580  1.4655 -0.8798
 7697SOL    HW224533   0.383   3.097   3.003 -0.1917 -0.9608 -1.1961
 7698SOL     OW24534   1.449   2.258   4.426  0.1083 -0.0603 -0.0754
 7698SOL    HW124535   1.478   2.292   4.341 -0.6948 -0.1684 -0.4074
 7698SOL    HW224536   1.447   2.335   4.483 -2.1187  0.6044 -0.9384
 7699SOL     OW24537   3.470   2.712   1.661  0.1438 -0.3194 -0.3313
 7699SOL    HW124538   3.530   2.771   1.706 -0.9990  0.9253 -0.3593
 7699SOL    HW224539   3.523   2.671   1.593  2.1116 -2.7713  2.4217
 7700SOL     OW24540   2.082   2.809   2.405  0.1431  0.0483  0.5268
 7700SOL    HW124541   2.023   2.881   2.382  0.8629  0.2751 -0.7032
 7700SOL    HW224542   2.072   2.746   2.334  0.1343 -0.7060  1.1784
 7701SOL     OW24543   0.308   2.621   2.523 -0.4283  0.0723 -0.5076
 7701SOL    HW124544   0.340   2.542   2.566 -2.3685 -0.3300  0.2938
 7701SOL    HW224545   0.378   2.646   2.463  0.9119 -1.2965  0.4321
 7702SOL     OW24546   1.991   2.793   3.646 -0.2571  0.2574 -0.4232
 7702SOL    HW124547   1.949   2.781   3.561  0.1063  1.7267 -0.8464
 7702SOL    HW224548   1.919   2.790   3.709 -0.4166 -1.8160 -0.6460
 7703SOL     OW24549   2.515   2.992   2.474  0.4944  0.1597 -0.0379
 7703SOL    HW124550   2.572   2.954   2.407  0.4553  0.9547 -0.5291
 7703SOL    HW224551   2.568   3.062   2.513  0.4098 -0.1078  0.5758
 7704SOL     OW24552   2.657   3.992   1.663  0.1517 -0.2243 -0.1081
 7704SOL    HW124553   2.591   4.014   1.729 -0.4195 -0.2278 -0.6648
 7704SOL    HW224554   2.675   3.900   1.678  1.4021  0.2077  1.2292
 7705SOL     OW24555   3.441   4.008   0.838 -0.3610 -0.5545 -0.0581
 7705SOL    HW124556   3.401   4.078   0.890  0.5447 -1.5262  2.1134
 7705SOL    HW224557   3.373   3.940   0.833 -1.0093  0.1623 -1.6008
 7706SOL     OW24558   1.916   1.941   2.159  0.1424  0.2819 -0.2070
 7706SOL    HW124559   1.898   1.963   2.068 -2.2831 -0.4995  0.0021
 7706SOL    HW224560   1.829   1.933   2.199  1.1229 -0.3565  1.9290
 7707SOL     OW24561   4.529   4.282   2.764 -0.2956 -0.1854 -0.6152
 7707SOL    HW124562   4.613   4.255   2.803 -1.3934 -0.8022  1.4639
 7707SOL    HW224563   4.545   4.371   2.732  1.4830 -0.7390 -1.3729
 7708SOL     OW24564   2.187   3.764   2.498 -0.4990  0.6024  0.0363
 7708SOL    HW124565   2.134   3.764   2.577 -0.7146 -0.2837 -0.0988
 7708SOL    HW224566   2.181   3.675   2.464  0.3901  0.7027 -0.4439
 7709SOL     OW24567   4.090   1.867   2.036 -0.2052  0.2993  0.4574
 7709SOL    HW124568   4.063   1.882   1.946 -1.9975  0.2639  0.9458
 7709SOL    HW224569   4.028   1.801   2.069 -0.1843  0.9905  1.9757
 7710SOL     OW24570   2.113   5.257   1.764  0.5750  0.1108  0.3023
 7710SOL    HW124571   2.134   5.190   1.829 -0.6151  0.2628  0.8726
 7710SOL    HW224572   2.019   5.246   1.747  0.4659  1.3035  0.0244
 7711SOL     OW24573   3.009   3.254   3.619  0.2016  0.1382  0.2098
 7711SOL    HW124574   3.049   3.167   3.613 -0.9662 -0.6831  2.8490
 7711SOL    HW224575   3.074   3.307   3.665  1.6866  1.3170 -2.9441
 7712SOL     OW24576   2.848   3.047   3.753 -0.8152 -0.7877  0.3149
 7712SOL    HW124577   2.754   3.039   3.767 -1.2804  0.2084 -1.8586
 7712SOL    HW224578   2.859   3.133   3.712  0.9402 -1.2574 -0.2852
 7713SOL     OW24579   4.508   2.355   2.939  0.2325  0.0957 -0.3179
 7713SOL    HW124580   4.491   2.444   2.911  1.3353  0.5481  0.3911
 7713SOL    HW224581   4.502   2.358   3.035 -1.9086 -1.0823 -0.3443
 7714SOL     OW24582   4.891   3.306   3.149  0.7047  0.4412 -0.3945
 7714SOL    HW124583   4.853   3.218   3.140  1.3643  0.0553  0.4373
 7714SOL    HW224584   4.981   3.296   3.120  0.3468  1.2396 -1.8699
 7715SOL     OW24585   3.126   4.199   2.081  0.4953  0.4545  0.6880
 7715SOL    HW124586   3.199   4.251   2.114  0.0577 -0.0847  2.6288
 7715SOL    HW224587   3.164   4.112   2.064  0.1188 -0.2179  2.9537
 7716SOL     OW24588   1.050   1.817   1.558 -0.3733 -0.3391  0.8281
 7716SOL    HW124589   0.980   1.753   1.548  0.2442 -0.8002 -1.1081
 7716SOL    HW224590   1.130   1.768   1.541  0.1251  0.8924 -0.6618
 7717SOL     OW24591   7.989   3.589   3.750 -0.5260  0.1924 -0.3083
 7717SOL    HW124592   7.913   3.575   3.694 -2.1382  2.5486  1.1331
 7717SOL    HW224593   7.963   3.555   3.835 -0.4953  2.1623  0.5200
 7718SOL     OW24594   3.515   1.732   3.024  0.2526 -0.3172  0.4101
 7718SOL    HW124595   3.505   1.822   3.057 -0.4762 -0.2971  0.1475
 7718SOL    HW224596   3.474   1.734   2.937  1.1268 -0.6585 -0.0174
 7719SOL     OW24597   4.438   0.636   3.436 -0.1410 -0.6531 -0.3333
 7719SOL    HW124598   4.389   0.555   3.422  0.1837 -0.7814 -0.7322
 7719SOL    HW224599   4.510   0.633   3.373 -0.5800  0.3256 -0.8971
 7720SOL     OW24600   2.495   2.503   2.931  0.2061 -0.1125 -0.2292
 7720SOL    HW124601   2.428   2.548   2.880  1.7704  2.5545 -0.1779
 7720SOL    HW224602   2.576   2.520   2.883  1.1238 -1.4097  0.8037
 7721SOL     OW24603   3.521   3.766   2.438  0.0784 -0.2639  0.1986
 7721SOL    HW124604   3.489   3.848   2.476 -1.0377  0.2505 -1.6822
 7721SOL    HW224605   3.442   3.714   2.422  0.3404 -0.0609 -2.1303
 7722SOL     OW24606   2.194   2.585   3.567 -0.1944 -0.4278 -0.1721
 7722SOL    HW124607   2.151   2.671   3.568 -1.8833 -1.2370 -0.4357
 7722SOL    HW224608   2.220   2.572   3.476 -1.1068 -0.7391 -0.3970
 7723SOL     OW24609   3.301   2.233   4.726  0.6423  0.3451  0.0135
 7723SOL    HW124610   3.208   2.214   4.739  1.0054 -1.5756  0.0574
 7723SOL    HW224611   3.306   2.266   4.636 -0.0533  0.2012 -0.0841
 7724SOL     OW24612   3.735   1.759   3.356  0.0463  0.2064  0.0557
 7724SOL    HW124613   3.650   1.746   3.399 -0.3582  0.8543 -0.5124
 7724SOL    HW224614   3.735   1.697   3.283 -0.3123  0.7731 -0.4444
 7725SOL     OW24615   1.794   3.107   3.402 -0.0776  0.4140 -0.1699
 7725SOL    HW124616   1.752   3.108   3.488  0.1031  0.9374 -0.0843
 7725SOL    HW224617   1.732   3.061   3.345 -0.3578  0.3792  0.1617
 7726SOL     OW24618   3.167   2.034   2.805 -0.0128 -0.1696 -0.1913
 7726SOL    HW124619   3.107   2.108   2.816 -0.0871 -0.0108 -1.4616
 7726SOL    HW224620   3.109   1.958   2.795  0.0552 -0.3483  0.7212
 7727SOL     OW24621   3.629   2.126   2.816 -0.6004 -0.3219  0.0244
 7727SOL    HW124622   3.559   2.144   2.879 -3.2648 -0.8644 -2.5735
 7727SOL    HW224623   3.629   2.202   2.758  0.4654 -0.6796 -0.4680
 7728SOL     OW24624   2.562   3.035   2.156 -0.8326 -0.6824  0.1966
 7728SOL    HW124625   2.579   2.958   2.103 -0.4496 -0.7013  0.3459
 7728SOL    HW224626   2.482   3.072   2.119 -0.6428 -0.7693 -0.3098
 7729SOL     OW24627   4.355   1.758   2.824 -0.2235 -0.4499 -0.2634
 7729SOL    HW124628   4.325   1.711   2.902  0.5374 -0.5333 -0.0027
 7729SOL    HW224629   4.294   1.734   2.755  0.4112 -2.2229 -0.2574
 7730SOL     OW24630   3.829   2.843   2.960 -0.1102 -0.2439 -0.2577
 7730SOL    HW124631   3.907   2.813   2.913  0.2290 -0.7973  0.6354
 7730SOL    HW224632   3.755   2.810   2.908  0.2584 -1.4190 -0.0535
 7731SOL     OW24633   2.965   1.818   1.812  0.1674 -0.4104  0.1308
 7731SOL    HW124634   2.978   1.730   1.778 -1.3257 -1.4422  2.0498
 7731SOL    HW224635   2.885   1.813   1.863 -0.5086  2.3317 -0.4890
 7732SOL     OW24636   2.876   2.606   1.488 -0.3627 -0.0114 -0.4224
 7732SOL    HW124637   2.838   2.693   1.497 -0.1807 -0.0301  0.5835
 7732SOL    HW224638   2.858   2.582   1.397 -1.5831  0.5238 -0.3473
 7733SOL     OW24639   2.271   2.375   2.616  0.1859  0.3573  0.6135
 7733SOL    HW124640   2.263   2.458   2.662 -3.1422  0.1327  0.6878
 7733SOL    HW224641   2.273   2.398   2.523 -1.3132  0.5587  0.6093
 7734SOL     OW24642   3.719   3.490   2.298 -0.3721  0.4946  0.1796
 7734SOL    HW124643   3.771   3.424   2.252  1.1287  0.5930  1.6511
 7734SOL    HW224644   3.737   3.475   2.390 -3.5093  0.1199  0.8463
 7735SOL     OW24645   2.682   3.018   4.828 -0.3346 -0.4858 -0.0255
 7735SOL    HW124646   2.658   3.042   4.918 -0.4851  0.8030 -0.3954
 7735SOL    HW224647   2.604   3.036   4.776  0.1718  0.0488 -0.6214
 7736SOL     OW24648   7.610   2.866   2.058  0.1536 -1.0366 -0.4191
 7736SOL    HW124649   7.665   2.944   2.052  1.0237 -1.7147 -1.9115
 7736SOL    HW224650   7.660   2.807   2.115 -1.1788 -0.0391  1.9199
 7737SOL     OW24651   3.511   3.868   4.340 -0.1937 -0.5546 -0.5432
 7737SOL    HW124652   3.584   3.839   4.285 -0.1392 -3.4017  0.8490
 7737SOL    HW224653   3.456   3.791   4.350 -2.3331  0.9705  0.1435
 7738SOL     OW24654   3.961   1.107   2.661 -0.1206  0.0485 -0.0982
 7738SOL    HW124655   3.991   1.155   2.739 -0.8314  2.7327 -1.3748
 7738SOL    HW224656   3.866   1.115   2.663 -0.1743 -0.3017 -0.9982
 7739SOL     OW24657   3.331   1.421   2.405 -0.4949  0.0677  0.4181
 7739SOL    HW124658   3.353   1.348   2.348 -0.2179 -0.9644  1.8004
 7739SOL    HW224659   3.243   1.447   2.378 -0.2994 -0.2743 -0.5828
 7740SOL     OW24660   4.159   1.994   3.022 -0.0382 -0.3154 -0.1781
 7740SOL    HW124661   4.226   1.998   3.090 -0.0625 -1.4916 -0.0783
 7740SOL    HW224662   4.086   2.043   3.058  0.1394 -0.4889  0.4231
 7741SOL     OW24663   5.057   2.657   3.251  0.1772  0.5343  0.2142
 7741SOL    HW124664   5.029   2.731   3.197 -0.1506  0.9521  0.9538
 7741SOL    HW224665   5.024   2.580   3.204 -0.4215  0.9116  0.0011
 7742SOL     OW24666   2.770   1.820   3.534 -0.0714  0.3361 -0.2114
 7742SOL    HW124667   2.681   1.850   3.518  0.6093  1.1623 -2.9951
 7742SOL    HW224668   2.809   1.888   3.589 -1.4829 -0.7571  2.3236
 7743SOL     OW24669   3.145   0.114   1.779  0.1111 -0.5645  0.1342
 7743SOL    HW124670   3.051   0.096   1.768  0.2290 -0.6336 -0.7607
 7743SOL    HW224671   3.147   0.187   1.841 -0.6909  1.4258 -2.0163
 7744SOL     OW24672   1.219   4.903   2.235 -0.3215 -0.5532  0.2437
 7744SOL    HW124673   1.311   4.919   2.258 -0.1196  2.0936 -1.9521
 7744SOL    HW224674   1.223   4.832   2.170  0.5057  1.1239 -1.6310
 7745SOL     OW24675   2.322   3.694   2.891  0.1470  1.1883 -0.1665
 7745SOL    HW124676   2.269   3.703   2.971  0.1405 -0.8750  0.1112
 7745SOL    HW224677   2.272   3.635   2.835  2.7464 -2.2392  0.7733
 7746SOL     OW24678   2.610   2.686  12.141 -0.3948 -0.1052 -0.1441
 7746SOL    HW124679   2.531   2.689  12.087 -0.8889 -1.5323  0.4577
 7746SOL    HW224680   2.579   2.702  12.230  0.3002  1.3819 -0.1293
 7747SOL     OW24681   1.114   2.707   2.467 -0.1564 -0.1983 -0.4083
 7747SOL    HW124682   1.055   2.756   2.410  0.1752 -0.4619 -0.9872
 7747SOL    HW224683   1.155   2.773   2.523 -0.0796  0.1278 -0.8472
 7748SOL     OW24684   2.328   3.151   2.089  0.0834 -0.1830 -0.2433
 7748SOL    HW124685   2.334   3.240   2.054 -0.6410 -0.6385 -1.5978
 7748SOL    HW224686   2.290   3.162   2.176 -1.0826  0.7580 -0.8350
 7749SOL     OW24687   4.732   3.709   2.342  0.0343  0.3749 -0.3322
 7749SOL    HW124688   4.810   3.670   2.382  0.4980  2.1359  0.5681
 7749SOL    HW224689   4.690   3.636   2.297  1.1794 -1.0376  0.7640
 7750SOL     OW24690   1.600   2.304   2.281  0.3278  0.1956 -0.2261
 7750SOL    HW124691   1.659   2.323   2.208  1.1813 -1.0413  0.1050
 7750SOL    HW224692   1.564   2.218   2.260 -0.5060  0.4444  0.1404
 7751SOL     OW24693   0.694   3.242   4.966  0.3411  0.4637 -0.6001
 7751SOL    HW124694   0.720   3.150   4.967 -0.0514  0.3489 -0.7713
 7751SOL    HW224695   0.606   3.242   4.929 -0.8487  0.5915  2.0087
 7752SOL     OW24696   2.277   2.186   4.847 -0.0324  0.1481  0.4309
 7752SOL    HW124697   2.309   2.171   4.758 -1.5395  0.1190 -0.1320
 7752SOL    HW224698   2.356   2.204   4.898  0.8446  0.3132 -0.9328
 7753SOL     OW24699   1.953   2.976   6.414  0.1833  0.1891 -0.2825
 7753SOL    HW124700   2.040   2.971   6.374  0.2781  1.6714 -0.2975
 7753SOL    HW224701   1.931   3.069   6.413 -0.6947  0.0292  1.2478
 7754SOL     OW24702   3.674   3.195   5.045 -0.2712  0.2751 -1.0430
 7754SOL    HW124703   3.754   3.244   5.062  0.1121 -1.3757  3.0711
 7754SOL    HW224704   3.604   3.261   5.050  0.5793  1.2676 -1.7818
 7755SOL     OW24705   3.124   2.549   4.029 -0.5466 -0.5180  0.1360
 7755SOL    HW124706   3.049   2.560   4.086 -1.2902 -0.0394 -0.9023
 7755SOL    HW224707   3.104   2.603   3.952  1.3293  0.4915  0.2964
 7756SOL     OW24708   2.466   2.980   3.694  0.4148 -0.0896  0.1133
 7756SOL    HW124709   2.453   2.905   3.637 -0.7463  0.2875 -0.1662
 7756SOL    HW224710   2.515   3.043   3.640 -0.9202  0.3778 -0.6136
 7757SOL     OW24711   2.530   4.492   5.765  0.2848  0.3680 -0.1460
 7757SOL    HW124712   2.542   4.552   5.839 -0.9461  0.0637  0.3233
 7757SOL    HW224713   2.614   4.445   5.759  0.5084  0.6011  0.8757
 7758SOL     OW24714   1.831   1.946   5.361  0.5821 -0.1656 -0.1193
 7758SOL    HW124715   1.808   1.858   5.392 -1.3576  0.6159  0.8482
 7758SOL    HW224716   1.896   1.978   5.424  0.9355 -0.7164 -0.1980
 7759SOL     OW24717   0.799   3.421   1.856  0.1276  0.3052  0.1433
 7759SOL    HW124718   0.846   3.490   1.903  0.2483  0.5297 -0.3034
 7759SOL    HW224719   0.796   3.347   1.918  0.2992  0.5895  0.4940
 7760SOL     OW24720   3.006   3.398   6.188  0.3224 -0.0509 -0.0653
 7760SOL    HW124721   3.024   3.404   6.095 -0.1703 -0.2310 -0.1746
 7760SOL    HW224722   3.061   3.325   6.218  0.2784 -0.1649 -0.2639
 7761SOL     OW24723   1.487   4.244   6.442  0.4417 -0.0178 -0.1673
 7761SOL    HW124724   1.560   4.302   6.465  0.7038 -0.7265  0.8567
 7761SOL    HW224725   1.527   4.159   6.428 -0.0639 -0.1771 -0.6766
 7762SOL     OW24726   2.122   2.725   4.312 -0.2195  0.9188 -0.1024
 7762SOL    HW124727   2.188   2.678   4.261 -0.5957 -0.7785  0.8705
 7762SOL    HW224728   2.065   2.655   4.346 -1.5870  2.2159  0.3463
 7763SOL     OW24729   3.223   1.292   4.022 -0.6370 -0.4460  0.2001
 7763SOL    HW124730   3.289   1.225   4.041 -0.7138 -0.3385  0.8760
 7763SOL    HW224731   3.251   1.332   3.940 -0.0785 -0.6680  0.2820
 7764SOL     OW24732   2.226   4.056   3.696  0.2018  0.1415 -0.3965
 7764SOL    HW124733   2.164   4.109   3.647  0.0773  1.7726  1.4243
 7764SOL    HW224734   2.278   4.119   3.747  0.9541 -1.3861  0.8341
 7765SOL     OW24735   3.424   3.000   4.390 -0.5962  0.0148 -0.7025
 7765SOL    HW124736   3.459   3.038   4.471  0.0042 -2.4040  0.2729
 7765SOL    HW224737   3.494   3.011   4.326 -0.1496 -0.0680 -0.2332
 7766SOL     OW24738   2.114   4.315   4.971  0.3919 -0.7665 -0.1431
 7766SOL    HW124739   2.028   4.297   5.009 -0.3062  1.1755 -0.6698
 7766SOL    HW224740   2.142   4.231   4.933 -1.5955 -1.2907 -0.5822
 7767SOL     OW24741   2.171   3.727   5.339 -0.2949  0.1480 -0.4319
 7767SOL    HW124742   2.249   3.735   5.393  0.5785  0.7864 -1.7350
 7767SOL    HW224743   2.102   3.769   5.389  0.1189 -0.6326  0.8424
 7768SOL     OW24744   2.569   4.894   6.694  0.1842 -0.0326 -0.1539
 7768SOL    HW124745   2.543   4.830   6.627 -1.9745 -1.4583  1.8717
 7768SOL    HW224746   2.626   4.845   6.753 -2.3963 -0.6528  2.0583
 7769SOL     OW24747   2.666   4.540   4.678 -0.0590 -0.6032 -0.3256
 7769SOL    HW124748   2.605   4.467   4.669 -0.0474 -0.5256 -1.0377
 7769SOL    HW224749   2.728   4.529   4.606 -1.2612  1.2516 -1.7234
 7770SOL     OW24750   3.082   1.402   6.752 -0.5291  0.5767  0.0446
 7770SOL    HW124751   3.047   1.448   6.675 -0.9717 -0.4610 -0.3988
 7770SOL    HW224752   3.011   1.402   6.815 -1.3103 -1.3322 -0.7702
 7771SOL     OW24753   1.957   1.751   3.168 -0.3827  0.2880 -0.0841
 7771SOL    HW124754   1.991   1.664   3.147 -1.3676 -0.0918 -0.1528
 7771SOL    HW224755   2.010   1.811   3.115 -0.8713 -0.4104 -1.3941
 7772SOL     OW24756   3.931   3.026   4.530  1.0162 -0.0672 -0.1113
 7772SOL    HW124757   3.989   3.081   4.478  1.2761  0.3138  0.5688
 7772SOL    HW224758   3.864   3.086   4.563  1.0392 -0.2445  0.2590
 7773SOL     OW24759   2.969   2.804   3.919  0.5186  0.2500  0.2852
 7773SOL    HW124760   2.952   2.801   4.013 -1.0663  0.5902  0.0443
 7773SOL    HW224761   2.910   2.872   3.886  0.2386 -0.6125 -1.0952
 7774SOL     OW24762   4.995   2.240   2.794  0.1112  0.2137  0.0006
 7774SOL    HW124763   4.977   2.319   2.742 -1.5775 -0.6569 -0.7931
 7774SOL    HW224764   4.951   2.170   2.747  0.0846 -0.9290  1.6574
 7775SOL     OW24765   4.246   2.575   6.059 -0.2826 -0.6688  0.3968
 7775SOL    HW124766   4.198   2.521   6.121 -0.3026 -1.7252 -0.5001
 7775SOL    HW224767   4.180   2.605   5.996 -0.0734 -0.5995  0.2070
 7776SOL     OW24768   3.803   3.151   4.789  0.8350  0.1310  0.0272
 7776SOL    HW124769   3.723   3.160   4.841 -0.1452 -0.4708 -1.3142
 7776SOL    HW224770   3.820   3.240   4.756 -1.8647 -0.3604 -3.2436
 7777SOL     OW24771   1.688   0.655   3.836 -0.1984 -0.0401 -0.0934
 7777SOL    HW124772   1.705   0.583   3.898 -2.1241 -1.5864 -1.2456
 7777SOL    HW224773   1.760   0.650   3.774  0.9066  0.5219  1.0911
 7778SOL     OW24774   1.731   1.621   6.563  0.2574 -0.2713  0.0642
 7778SOL    HW124775   1.758   1.555   6.499 -0.2244  1.2652 -1.8269
 7778SOL    HW224776   1.813   1.664   6.589  0.6866 -2.0739  1.9649
 7779SOL     OW24777   3.128   1.725   5.185 -0.2860 -0.3921 -0.5909
 7779SOL    HW124778   3.069   1.674   5.131 -1.7022  0.0973  0.4478
 7779SOL    HW224779   3.122   1.814   5.150 -0.4553 -0.2637 -0.2320
 7780SOL     OW24780   1.410   0.252   6.751 -0.1232  0.3236  0.1692
 7780SOL    HW124781   1.371   0.279   6.835 -0.5352 -0.3589  0.2005
 7780SOL    HW224782   1.442   0.334   6.713 -1.6233  0.9388  0.1349
 7781SOL     OW24783   2.974   3.461   4.217 -0.4290 -0.7390 -0.4068
 7781SOL    HW124784   2.988   3.551   4.188 -1.2176 -0.6055 -0.4002
 7781SOL    HW224785   3.005   3.407   4.144 -1.0633 -0.4322 -0.9123
 7782SOL     OW24786   5.064   3.150   4.894 -0.0389 -0.0315  0.0533
 7782SOL    HW124787   5.144   3.147   4.947 -0.5056  0.5167  0.7998
 7782SOL    HW224788   5.009   3.215   4.936 -1.3286 -1.1573  0.1879
 7783SOL     OW24789   2.831   2.280   5.025 -0.4237  0.1828  0.3237
 7783SOL    HW124790   2.787   2.357   4.990  0.5717  0.0625 -1.2533
 7783SOL    HW224791   2.914   2.313   5.060  0.4275 -0.2676 -1.1962
 7784SOL     OW24792   2.088   1.715   5.808  0.2549  0.7093 -0.0723
 7784SOL    HW124793   2.141   1.771   5.752 -0.2681  0.1438 -1.1838
 7784SOL    HW224794   2.042   1.776   5.866  0.2801  1.3794 -0.7341
 7785SOL     OW24795   3.922   3.326   4.632  0.2282 -0.1243  0.4266
 7785SOL    HW124796   3.862   3.400   4.615  0.3376  0.0124  0.6278
 7785SOL    HW224797   3.953   3.300   4.546  0.0436 -0.0546  0.3386
 7786SOL     OW24798   2.881   1.958   6.187  0.1788  0.2433 -0.0229
 7786SOL    HW124799   2.911   1.957   6.096  3.5032  0.2925  0.9418
 7786SOL    HW224800   2.922   2.036   6.224 -1.7127  0.6349  1.3946
 7787SOL     OW24801   3.023   1.648   5.706 -0.4557  0.4362  0.2754
 7787SOL    HW124802   3.028   1.616   5.616  0.2848  3.0361 -0.7299
 7787SOL    HW224803   2.968   1.585   5.752 -1.6642 -0.4766 -2.2468
 7788SOL     OW24804   3.556   2.538   6.281  0.0225 -0.2731  0.0982
 7788SOL    HW124805   3.541   2.538   6.376 -2.7554  1.3419 -0.2371
 7788SOL    HW224806   3.568   2.446   6.258 -0.6640 -0.8273  1.8364
 7789SOL     OW24807   2.283   3.063   5.894 -0.4264  0.3438  0.2035
 7789SOL    HW124808   2.353   3.006   5.924 -0.4018  0.1663 -0.1861
 7789SOL    HW224809   2.284   3.055   5.798 -1.7015 -0.5257  0.2407
 7790SOL     OW24810   3.903   1.594   4.942 -0.2383 -0.1421 -0.3803
 7790SOL    HW124811   3.958   1.520   4.915  0.8061 -0.4681  2.3868
 7790SOL    HW224812   3.965   1.658   4.976 -1.4557  0.0301  1.6198
 7791SOL     OW24813   2.588   1.932   3.067 -0.2922  0.1227 -0.4981
 7791SOL    HW124814   2.628   1.889   3.143 -2.1606 -1.6197 -0.4303
 7791SOL    HW224815   2.603   2.026   3.082 -2.6223  0.0695  3.3106
 7792SOL     OW24816   6.323   4.052   4.665 -0.1377  0.0988 -0.0029
 7792SOL    HW124817   6.268   4.126   4.639 -0.5746 -0.6264 -1.2509
 7792SOL    HW224818   6.300   4.036   4.756  0.0248  1.5446  0.3120
 7793SOL     OW24819   2.285   2.319   2.970  0.2004  0.4105 -0.1140
 7793SOL    HW124820   2.358   2.380   2.967 -0.1974  1.0401  1.4714
 7793SOL    HW224821   2.209   2.374   2.991 -0.6107 -0.3103 -1.0921
 7794SOL     OW24822   2.959   3.471   5.594 -0.6783 -0.3927 -0.4022
 7794SOL    HW124823   3.029   3.503   5.652 -1.2278  0.5572 -0.2534
 7794SOL    HW224824   2.910   3.549   5.570 -1.4886 -1.0117 -0.7915
 7795SOL     OW24825   3.441   2.018   3.948 -0.3760  0.0368 -0.4165
 7795SOL    HW124826   3.510   1.974   3.897 -0.0521 -2.1438  1.7244
 7795SOL    HW224827   3.393   2.069   3.883  1.3170 -0.8578 -2.5226
 7796SOL     OW24828   1.049   2.638   6.554 -0.0245  0.2381  0.4690
 7796SOL    HW124829   0.983   2.591   6.604  1.6884 -1.7845  1.0091
 7796SOL    HW224830   1.121   2.652   6.616  1.1191 -0.0203 -0.7464
 7797SOL     OW24831   2.755   3.302   5.220  0.0403 -0.4021  0.5547
 7797SOL    HW124832   2.739   3.291   5.314 -1.2151 -1.0040  0.3015
 7797SOL    HW224833   2.773   3.395   5.209 -1.4163 -0.0135  1.2006
 7798SOL     OW24834   2.295   2.635   4.117 -1.6840  0.3255 -0.7732
 7798SOL    HW124835   2.302   2.731   4.120 -1.4321  0.3183 -1.1475
 7798SOL    HW224836   2.305   2.613   4.025 -2.8538  0.0238 -0.8521
 7799SOL     OW24837   2.583   3.080   6.288 -0.2484  0.3955  0.7775
 7799SOL    HW124838   2.666   3.126   6.278  0.2729 -0.5315  0.7381
 7799SOL    HW224839   2.606   2.987   6.284 -1.2470  0.1213  1.0648
 7800SOL     OW24840   3.418   0.654   3.545  0.0378  0.5863  0.1545
 7800SOL    HW124841   3.389   0.566   3.568 -0.0127  0.0502 -1.7850
 7800SOL    HW224842   3.485   0.675   3.610  1.1578 -1.5250 -0.2535
 7801SOL     OW24843   1.631   3.068   4.931 -0.0411 -0.0408 -0.6987
 7801SOL    HW124844   1.640   3.064   5.026  0.9369 -0.0963 -0.7828
 7801SOL    HW224845   1.547   3.111   4.917 -2.2506 -3.6833  0.1700
 7802SOL     OW24846   0.976   4.185   6.041  0.1500 -0.4943 -0.2639
 7802SOL    HW124847   0.944   4.275   6.041 -0.8607 -0.8373  0.3056
 7802SOL    HW224848   1.070   4.193   6.059  0.1512  0.4594 -0.6342
 7803SOL     OW24849   3.001   3.838   3.893  0.1550 -0.3331 -0.0810
 7803SOL    HW124850   2.977   3.848   3.801  0.0635 -1.4624 -0.1960
 7803SOL    HW224851   3.071   3.773   3.893  1.7697  1.3260  0.4594
 7804SOL     OW24852   2.227   3.034   5.594 -0.1385 -0.3730 -0.1961
 7804SOL    HW124853   2.269   2.955   5.559 -0.3830 -1.0488  0.9828
 7804SOL    HW224854   2.175   3.068   5.521  0.7691 -0.7206 -1.0232
 7805SOL     OW24855   1.606   5.066   3.635 -0.6735 -0.0552  1.0511
 7805SOL    HW124856   1.516   5.092   3.654 -1.0098  1.4214 -1.9913
 7805SOL    HW224857   1.600   5.013   3.556  1.1226 -0.2050  0.9779
 7806SOL     OW24858   2.184   2.839   5.155 -0.3199 -0.1481 -0.3115
 7806SOL    HW124859   2.103   2.789   5.150  0.4702 -1.4820 -0.4390
 7806SOL    HW224860   2.159   2.929   5.133 -1.5562 -0.7490 -1.4866
 7807SOL     OW24861   0.891   4.801   6.091 -0.5889 -0.7448 -0.0344
 7807SOL    HW124862   0.973   4.843   6.065 -1.0409  0.6871  0.7046
 7807SOL    HW224863   0.906   4.707   6.079  1.6068 -0.6218  1.2814
 7808SOL     OW24864   3.939   3.862   5.314  0.0848  0.4773 -0.1179
 7808SOL    HW124865   3.948   3.923   5.240  0.2190  0.3819 -0.1818
 7808SOL    HW224866   4.020   3.873   5.364  0.7628 -0.6683 -0.9103
 7809SOL     OW24867   1.996   4.371   4.048 -0.0937  0.1225  1.0624
 7809SOL    HW124868   2.024   4.425   3.974 -0.5941 -1.8855 -0.6941
 7809SOL    HW224869   2.062   4.301   4.053  0.5039  0.7709  3.2222
 7810SOL     OW24870   3.191   2.873   6.089  0.2427  0.9145 -0.2091
 7810SOL    HW124871   3.239   2.790   6.092  0.6441  1.1710  1.3066
 7810SOL    HW224872   3.169   2.884   5.996 -0.2378 -1.1121 -0.3864
 7811SOL     OW24873   1.377   0.643   3.717 -0.6572 -0.3493  0.0086
 7811SOL    HW124874   1.384   0.603   3.630  0.5560 -0.5747  0.1825
 7811SOL    HW224875   1.287   0.626   3.745 -0.7151 -1.3095 -0.7172
 7812SOL     OW24876   2.471   1.470   5.392  0.1001  0.0293 -0.5071
 7812SOL    HW124877   2.412   1.536   5.356  0.5936  0.5542 -0.3870
 7812SOL    HW224878   2.537   1.521   5.440  0.5592 -0.5462 -0.5105
 7813SOL     OW24879   2.124   2.232   5.255 -0.2157  0.5097 -0.0297
 7813SOL    HW124880   2.166   2.156   5.215 -0.8863  0.2438 -0.2357
 7813SOL    HW224881   2.092   2.284   5.182  2.3665  2.2888 -0.0314
 7814SOL     OW24882   3.139   2.134   7.291 -0.0517  0.2045 -0.0794
 7814SOL    HW124883   3.065   2.123   7.350 -0.4543 -0.2531 -0.6659
 7814SOL    HW224884   3.189   2.206   7.329 -0.5062  0.1601  0.6129
 7815SOL     OW24885   2.741   2.630   4.400 -0.0337  0.4012  0.2014
 7815SOL    HW124886   2.664   2.650   4.453 -0.2881  1.3248 -0.4938
 7815SOL    HW224887   2.806   2.600   4.463 -0.2427  1.7158  1.0822
 7816SOL     OW24888   0.404   2.688   3.919  0.1033  0.4794  0.2884
 7816SOL    HW124889   0.333   2.670   3.981  0.0854  0.7463  0.3456
 7816SOL    HW224890   0.445   2.602   3.905  0.3329  0.4750  0.9421
 7817SOL     OW24891   2.100   0.581   6.162 -0.0127  0.1726 -0.4274
 7817SOL    HW124892   2.066   0.646   6.100  0.4780 -0.3444 -1.2544
 7817SOL    HW224893   2.023   0.531   6.188 -0.3758  1.0068  0.1279
 7818SOL     OW24894   1.763   4.142   2.305 -0.4363  0.3450 -0.1111
 7818SOL    HW124895   1.762   4.198   2.383 -0.1432  0.5070 -0.2208
 7818SOL    HW224896   1.855   4.114   2.297 -0.9288 -1.9204  1.1817
 7819SOL     OW24897   1.901   0.100   4.685  0.4980 -0.2242  0.0554
 7819SOL    HW124898   1.831   0.165   4.684 -0.9852 -1.7661 -0.8111
 7819SOL    HW224899   1.859   0.020   4.715  2.0969 -1.0081  0.3241
 7820SOL     OW24900   1.476   3.597   2.765  0.6194 -0.1924 -0.5085
 7820SOL    HW124901   1.438   3.655   2.699 -2.5006 -0.5358  0.8034
 7820SOL    HW224902   1.469   3.509   2.727  1.2418 -0.1526 -0.7274
 7821SOL     OW24903   1.746   2.418   5.090 -0.6370 -0.2404  0.5053
 7821SOL    HW124904   1.819   2.445   5.145 -0.4332 -0.0156  0.1243
 7821SOL    HW224905   1.749   2.322   5.093 -0.6659 -0.2311  0.9337
 7822SOL     OW24906   2.631   3.084   5.091 -0.6170 -0.3215  0.1773
 7822SOL    HW124907   2.627   3.178   5.109 -0.1455 -0.3123  0.2555
 7822SOL    HW224908   2.685   3.049   5.162 -0.2257 -0.5477 -0.2267
 7823SOL     OW24909   2.573   3.505   4.859  0.1848  0.2016  0.4940
 7823SOL    HW124910   2.515   3.580   4.867  0.4283  0.3592  0.7929
 7823SOL    HW224911   2.608   3.511   4.770 -1.5603 -0.8522 -0.3216
 7824SOL     OW24912   2.909   3.890   4.576  0.1653  0.4858 -0.0466
 7824SOL    HW124913   2.845   3.849   4.518 -0.0929  0.1155  0.4911
 7824SOL    HW224914   2.892   3.851   4.662  0.6865  0.8631  0.2339
 7825SOL     OW24915   3.331   1.753   3.827  0.3283  0.5992  0.0331
 7825SOL    HW124916   3.303   1.797   3.908 -0.3599 -1.1685  0.8201
 7825SOL    HW224917   3.281   1.796   3.758 -1.0133  0.4863  0.8850
 7826SOL     OW24918   0.627   4.704   7.786  0.4477  0.6447  0.1789
 7826SOL    HW124919   0.616   4.624   7.838  0.1711  0.0386 -0.7797
 7826SOL    HW224920   0.685   4.759   7.838 -0.2415  0.2895  1.3751
 7827SOL     OW24921   1.128   3.060   5.076 -0.1151  0.1149  0.2561
 7827SOL    HW124922   1.087   3.084   5.159  1.6798  0.5949  1.0310
 7827SOL    HW224923   1.189   2.990   5.098  0.3295  0.1948 -0.6731
 7828SOL     OW24924   3.108   2.282   5.932 -0.4292 -0.0561  0.0105
 7828SOL    HW124925   3.038   2.346   5.941 -0.9796 -0.5692 -0.4626
 7828SOL    HW224926   3.161   2.315   5.859  0.0142  0.4968  0.5739
 7829SOL     OW24927   3.118   3.420   4.827 -0.2910  0.1257  0.3571
 7829SOL    HW124928   3.132   3.435   4.920  0.8185  0.0060  0.2159
 7829SOL    HW224929   3.118   3.508   4.788  0.1033  0.1223  0.3520
 7830SOL     OW24930   3.483   2.698   4.403 -0.3872 -0.1093  0.3116
 7830SOL    HW124931   3.560   2.684   4.348  0.0810  0.5625  0.7864
 7830SOL    HW224932   3.448   2.782   4.374  0.2747  0.6027  1.4924
 7831SOL     OW24933   2.723   2.091   4.015  0.2138  0.1916  0.0173
 7831SOL    HW124934   2.647   2.093   3.956 -0.2940  0.4720  0.6684
 7831SOL    HW224935   2.779   2.163   3.985 -0.5214  0.9812  0.4845
 7832SOL     OW24936   2.936   2.576   3.766  0.1057 -0.1074 -0.4029
 7832SOL    HW124937   2.944   2.653   3.823 -0.7284 -0.8323  0.7231
 7832SOL    HW224938   2.866   2.599   3.705 -1.0772 -0.4698  0.7833
 7833SOL     OW24939   3.713   3.770   4.609 -0.1597 -0.1748 -0.2055
 7833SOL    HW124940   3.769   3.763   4.532 -0.2593  0.0934 -0.3028
 7833SOL    HW224941   3.720   3.862   4.635  0.5128 -0.4335  0.5778
 7834SOL     OW24942   1.355   3.318   5.486  0.6342  0.0840  0.4446
 7834SOL    HW124943   1.347   3.265   5.565  1.5440  1.1180  1.2609
 7834SOL    HW224944   1.383   3.256   5.418  1.3165 -0.5560  1.2830
 7835SOL     OW24945   3.918   3.357   5.145  0.2165 -0.1356  0.0466
 7835SOL    HW124946   3.920   3.335   5.238 -1.1698  0.3316  0.2227
 7835SOL    HW224947   3.903   3.452   5.144 -1.5011 -0.3649 -0.6041
 7836SOL     OW24948   2.939   3.166   4.014 -0.4528 -0.4263 -0.4854
 7836SOL    HW124949   2.988   3.249   4.010  0.1322 -0.8081 -2.1553
 7836SOL    HW224950   2.933   3.138   3.923  0.0998 -2.6578  0.1065
 7837SOL     OW24951   3.886   3.880   4.905 -0.1166 -1.0128  0.3216
 7837SOL    HW124952   3.896   3.932   4.985  2.3816  0.4626 -0.8133
 7837SOL    HW224953   3.962   3.822   4.905  0.5086 -0.2534 -1.4458
 7838SOL     OW24954   1.570   2.877   6.009 -0.0587 -0.2448 -0.1480
 7838SOL    HW124955   1.633   2.887   5.938  1.1677  0.2262  0.9611
 7838SOL    HW224956   1.503   2.818   5.973 -0.3537  1.2473 -2.2214
 7839SOL     OW24957   2.943   3.390   4.496 -0.1406 -0.2997 -0.6508
 7839SOL    HW124958   2.993   3.454   4.548 -1.2086  0.6065 -0.7015
 7839SOL    HW224959   2.976   3.401   4.407  1.4123 -1.5743 -0.2681
 7840SOL     OW24960   3.038   1.906   4.853  0.2974  0.2016 -0.4417
 7840SOL    HW124961   3.037   2.002   4.848  1.2917  0.2412 -0.2052
 7840SOL    HW224962   3.094   1.887   4.929 -0.1721 -0.5651 -0.2798
 7841SOL     OW24963   1.915   1.954   5.085 -0.1419  0.2124  0.2513
 7841SOL    HW124964   1.999   1.912   5.069 -1.2315 -1.5890 -1.1777
 7841SOL    HW224965   1.899   1.942   5.178  0.0057 -1.8429  0.0597
 7842SOL     OW24966   0.729   2.530   4.922 -0.2316 -0.2590  0.5596
 7842SOL    HW124967   0.716   2.569   5.008 -0.8407 -0.5472  0.5966
 7842SOL    HW224968   0.686   2.590   4.861  0.0006 -0.1745  0.4756
 7843SOL     OW24969   1.045   4.395   4.482 -0.3444 -0.2412  0.1674
 7843SOL    HW124970   1.046   4.483   4.520  0.5778 -0.7813  1.4305
 7843SOL    HW224971   0.957   4.362   4.501 -0.1273 -0.2390  1.2204
 7844SOL     OW24972   1.949   2.747   3.191 -0.3233  0.1512 -0.0269
 7844SOL    HW124973   2.026   2.731   3.246 -0.9966  1.1652  1.2752
 7844SOL    HW224974   1.876   2.712   3.241 -0.9078  0.7213 -0.4595
 7845SOL     OW24975   3.142   1.850   5.463 -0.4400  0.0310  0.2138
 7845SOL    HW124976   3.102   1.868   5.548 -0.6248 -0.0575  0.1451
 7845SOL    HW224977   3.159   1.936   5.426 -0.0955  0.0741  0.4628
 7846SOL     OW24978   3.575   1.442   4.100 -0.3850 -1.1027 -0.4701
 7846SOL    HW124979   3.589   1.351   4.073  0.5202 -1.5334  1.3123
 7846SOL    HW224980   3.592   1.493   4.021  2.4857 -2.2749 -0.7456
 7847SOL     OW24981   3.340   3.601   4.542 -0.5222  0.1168  0.2164
 7847SOL    HW124982   3.373   3.529   4.596 -2.3815 -0.6563  0.3890
 7847SOL    HW224983   3.400   3.604   4.467  0.0228 -1.1171  0.5741
 7848SOL     OW24984   3.908   2.904   4.785  0.0284  0.4489  0.4678
 7848SOL    HW124985   3.951   2.911   4.699  1.7457  0.6115  1.2973
 7848SOL    HW224986   3.891   2.994   4.810  0.0947  0.4340  0.5659
 7849SOL     OW24987   1.900   4.188   6.158 -0.1449 -0.0856  0.0062
 7849SOL    HW124988   1.994   4.168   6.163 -0.3366 -0.7104  2.3024
 7849SOL    HW224989   1.896   4.273   6.113  1.5592  0.2215  0.3660
 7850SOL     OW24990   2.422   7.408   4.664 -0.7794  0.4758 -0.2235
 7850SOL    HW124991   2.375   7.469   4.719  0.6804  1.0036  0.4886
 7850SOL    HW224992   2.363   7.333   4.656 -1.8982  1.2708  0.2691
 7851SOL     OW24993   2.358   2.907   4.199 -0.3512 -0.2497 -0.2482
 7851SOL    HW124994   2.450   2.882   4.194 -0.3560 -0.1829 -0.7179
 7851SOL    HW224995   2.344   2.931   4.290 -0.1003 -1.0119 -0.0004
 7852SOL     OW24996   2.653   2.541   5.051 -0.3691  0.6417 -0.1533
 7852SOL    HW124997   2.678   2.587   4.971 -0.6279  0.1800 -0.5021
 7852SOL    HW224998   2.583   2.596   5.088 -0.3559  0.7752 -0.3235
 7853SOL     OW24999   2.079   0.623   6.914 -0.0574 -0.2899 -0.0348
 7853SOL    HW125000   2.019   0.554   6.886  1.5315 -1.9130  0.3573
 7853SOL    HW225001   2.026   0.682   6.966 -1.5884 -0.9374 -0.8065
 7854SOL     OW25002   3.222   1.923   5.038  0.0773  0.1883 -0.5612
 7854SOL    HW125003   3.316   1.915   5.025  0.3726  0.1113  1.3362
 7854SOL    HW225004   3.212   1.999   5.096 -0.7080 -1.7110  1.9698
 7855SOL     OW25005   4.085   2.105   3.807 -0.2577 -0.3894  0.3193
 7855SOL    HW125006   4.169   2.095   3.761  0.6284 -2.4050  2.1871
 7855SOL    HW225007   4.041   2.021   3.796 -3.5105  1.4496 -3.0404
 7856SOL     OW25008   2.598   1.794   4.450 -0.0035 -0.1161 -0.0917
 7856SOL    HW125009   2.586   1.885   4.421  0.6042  0.0325  0.1110
 7856SOL    HW225010   2.653   1.801   4.528  0.2047 -0.6738 -0.1867
 7857SOL     OW25011   2.545   1.484   4.994 -0.4499  0.1378 -0.1413
 7857SOL    HW125012   2.588   1.567   5.016 -0.9131  0.8784 -1.7967
 7857SOL    HW225013   2.585   1.459   4.910 -2.1071  0.0571 -0.9488
 7858SOL     OW25014   1.404   3.439   4.266 -0.0423 -0.0712  0.0598
 7858SOL    HW125015   1.474   3.484   4.217  0.6760 -0.7514  0.4356
 7858SOL    HW225016   1.334   3.428   4.202  0.0979  0.8226 -0.2710
 7859SOL     OW25017   3.426   3.064   4.968 -0.4871 -0.5531  0.0575
 7859SOL    HW125018   3.508   3.107   4.992 -1.2209  0.1032  1.5116
 7859SOL    HW225019   3.358   3.116   5.010 -1.5474 -2.0283  0.2703
 7860SOL     OW25020   2.851   0.892   5.577  0.0410 -0.6319 -0.4005
 7860SOL    HW125021   2.927   0.838   5.596 -0.4778 -0.5587  2.2463
 7860SOL    HW225022   2.886   0.968   5.530  1.1314 -1.9605 -1.8179
 7861SOL     OW25023   0.736   2.846   3.761 -1.1263 -0.5026  0.0795
 7861SOL    HW125024   0.777   2.821   3.844 -3.6745  0.6747  1.8022
 7861SOL    HW225025   0.740   2.942   3.761 -1.1990 -0.4831 -1.1801
 7862SOL     OW25026   1.926   1.068   5.545  0.6708  0.0999  0.6219
 7862SOL    HW125027   2.014   1.030   5.542 -0.4286 -2.6973 -1.0531
 7862SOL    HW225028   1.894   1.048   5.633  1.2236 -0.1399  0.7690
 7863SOL     OW25029   3.096   3.053   4.459 -0.0584 -0.5844  0.1834
 7863SOL    HW125030   3.075   2.989   4.527  0.8607  0.3982  1.4440
 7863SOL    HW225031   3.024   3.116   4.462  0.3080 -0.1696  0.7681
 7864SOL     OW25032   2.186   2.425   5.429 -0.1444 -0.0467  0.3023
 7864SOL    HW125033   2.172   2.357   5.364 -2.2207  1.5796 -1.0997
 7864SOL    HW225034   2.261   2.475   5.397 -1.6031  1.2025 -1.3853
 7865SOL     OW25035   5.363   3.085   5.264  0.4379  0.2946 -0.1739
 7865SOL    HW125036   5.403   3.003   5.293 -0.4107 -0.8581 -2.0525
 7865SOL    HW225037   5.332   3.126   5.345  2.2840 -0.4264  0.9799
 7866SOL     OW25038   2.212   1.903   5.671 -0.0816 -0.2988 -0.5511
 7866SOL    HW125039   2.165   1.918   5.589  1.1313 -1.5128 -1.5220
 7866SOL    HW225040   2.242   1.990   5.698 -0.3938  0.1133 -1.4787
 7867SOL     OW25041   1.977   1.484   4.814  0.7396  0.1295 -0.7359
 7867SOL    HW125042   1.950   1.450   4.899 -0.0045  1.6473 -0.3363
 7867SOL    HW225043   1.984   1.406   4.758 -0.3393 -0.7288  0.2789
 7868SOL     OW25044   3.100   1.500   3.297  0.3016  0.0251  0.2358
 7868SOL    HW125045   3.107   1.481   3.204 -0.3528 -1.2214  0.4116
 7868SOL    HW225046   3.150   1.431   3.340 -1.8893 -1.2559  0.9005
 7869SOL     OW25047   2.604   2.416   5.788  0.1911 -0.2980  0.3830
 7869SOL    HW125048   2.542   2.400   5.858 -1.3784  1.7631 -0.4297
 7869SOL    HW225049   2.585   2.349   5.723 -1.8001  0.7583 -0.2006
 7870SOL     OW25050   3.204   2.484   6.203  0.0602 -0.4838 -0.3703
 7870SOL    HW125051   3.139   2.497   6.272  0.6597  1.8675 -0.1548
 7870SOL    HW225052   3.281   2.450   6.249 -0.1868 -0.8716 -0.2332
 7871SOL     OW25053   1.857   3.273   7.740  0.0387 -0.3389 -0.7165
 7871SOL    HW125054   1.844   3.186   7.778 -1.5476  0.6879  1.3106
 7871SOL    HW225055   1.942   3.268   7.696  0.6563 -2.4774  0.5691
 7872SOL     OW25056   2.877   1.481   5.864  0.7011  0.2782 -0.1440
 7872SOL    HW125057   2.943   1.496   5.932  1.8203 -0.7386 -0.9698
 7872SOL    HW225058   2.817   1.417   5.902  0.6036  0.6490  0.3389
 7873SOL     OW25059   3.228   2.555   5.956  0.5378  0.2198  0.1566
 7873SOL    HW125060   3.324   2.553   5.952  0.5243  1.0868 -1.0047
 7873SOL    HW225061   3.208   2.528   6.046  1.8590 -0.0710  0.3918
 7874SOL     OW25062   1.740   2.619   5.319 -0.1100  0.1165 -0.0218
 7874SOL    HW125063   1.781   2.646   5.401 -0.2403 -0.5346  0.2705
 7874SOL    HW225064   1.731   2.524   5.327 -0.3060  0.0682 -0.7101
 7875SOL     OW25065   3.600   3.403   4.857 -0.2969  0.1459  0.0628
 7875SOL    HW125066   3.667   3.447   4.910 -0.7096  0.1922  0.5571
 7875SOL    HW225067   3.525   3.395   4.916  0.1156 -2.1874  0.3490
 7876SOL     OW25068   7.918   2.824   6.864  0.1612  0.2271  0.6374
 7876SOL    HW125069   7.885   2.744   6.905  1.0719 -0.0907  0.7904
 7876SOL    HW225070   7.983   2.856   6.926 -1.1473  1.8546  1.2306
 7877SOL     OW25071   3.002   2.981   4.177 -0.2924  0.1984  0.6223
 7877SOL    HW125072   2.978   3.049   4.114 -0.1282  0.4878  0.8674
 7877SOL    HW225073   2.926   2.974   4.235 -0.9600 -0.9460 -0.3305
 7878SOL     OW25074   1.687   1.514   5.638  0.1198  0.5609  0.0139
 7878SOL    HW125075   1.639   1.491   5.718  0.4364  0.5658  0.2072
 7878SOL    HW225076   1.774   1.477   5.651 -0.0446 -0.0617 -0.6464
 7879SOL     OW25077   3.328   2.696   4.625 -0.4803  0.7364 -0.2690
 7879SOL    HW125078   3.383   2.691   4.547 -0.1936  1.8498 -0.1504
 7879SOL    HW225079   3.365   2.768   4.676 -0.6704  0.0341  0.8974
 7880SOL     OW25080   1.094   3.938   5.352 -0.2757 -0.1237 -0.1805
 7880SOL    HW125081   1.099   4.005   5.283 -1.2159 -0.0502 -0.1898
 7880SOL    HW225082   1.163   3.875   5.329 -2.5166 -1.7849 -3.0446
 7881SOL     OW25083   2.070   3.029   6.703 -0.8480 -0.9741 -0.3032
 7881SOL    HW125084   2.129   3.063   6.637  0.1568 -0.4299  0.8378
 7881SOL    HW225085   2.013   2.968   6.656 -0.2957 -0.4445 -1.6839
 7882SOL     OW25086   2.798   3.469   3.834 -0.4377 -0.4594 -0.0188
 7882SOL    HW125087   2.886   3.455   3.870 -0.6019  0.0410  0.6021
 7882SOL    HW225088   2.773   3.556   3.866 -1.6611 -1.1047  0.8587
 7883SOL     OW25089   1.848   1.065   4.012 -0.7253  0.0829 -0.0621
 7883SOL    HW125090   1.909   1.115   3.957 -1.8976  1.5380 -0.0893
 7883SOL    HW225091   1.845   1.114   4.094 -1.4587 -0.2649  0.1200
 7884SOL     OW25092   2.791   0.840   6.476  0.2334  0.0321  0.0275
 7884SOL    HW125093   2.874   0.809   6.440 -0.7996 -1.0327 -1.5472
 7884SOL    HW225094   2.806   0.933   6.494  1.7885 -0.1671 -0.0715
 7885SOL     OW25095   3.622   2.390   4.306 -0.0144  0.1816  0.2046
 7885SOL    HW125096   3.624   2.313   4.362  0.5348  0.4091  0.5055
 7885SOL    HW225097   3.544   2.438   4.333  0.2266  0.2705  0.7559
 7886SOL     OW25098   3.661   1.939   4.813  0.5761  0.0199 -0.1887
 7886SOL    HW125099   3.688   1.870   4.753  1.2266  2.0958 -2.4286
 7886SOL    HW225100   3.743   1.978   4.844  0.2598  1.3548 -0.9321
 7887SOL     OW25101   3.929   4.308   4.028 -0.2483 -0.3085 -0.1020
 7887SOL    HW125102   3.964   4.360   4.101  1.1202  0.1253 -1.0388
 7887SOL    HW225103   3.912   4.372   3.959 -1.9525 -0.6628 -0.0322
 7888SOL     OW25104   3.152   3.167   4.777  0.0969 -0.0125 -0.4447
 7888SOL    HW125105   3.155   3.260   4.800  0.5169 -0.1236 -0.0178
 7888SOL    HW225106   3.154   3.165   4.682  0.4079  0.4088 -0.4491
 7889SOL     OW25107   1.567   3.616   4.162  0.2220 -0.6774  0.4270
 7889SOL    HW125108   1.660   3.600   4.147  0.2093  0.3099 -0.9136
 7889SOL    HW225109   1.562   3.708   4.185 -0.3990 -0.7816  0.7258
 7890SOL     OW25110   2.586   3.175   5.542 -0.1816 -0.0556  0.1510
 7890SOL    HW125111   2.601   3.082   5.561 -0.4431  0.0064  0.6766
 7890SOL    HW225112   2.672   3.215   5.551  0.2710 -0.5070 -1.7163
 7891SOL     OW25113   3.587   0.684   3.759  0.2627 -0.6564 -0.0032
 7891SOL    HW125114   3.636   0.612   3.798  0.9068 -0.0381  0.3644
 7891SOL    HW225115   3.554   0.733   3.834  0.0016 -0.4616 -0.2441
 7892SOL     OW25116   3.688   4.268   4.459 -0.1247  0.1155 -0.6440
 7892SOL    HW125117   3.707   4.360   4.478 -3.1263  0.9326 -1.0397
 7892SOL    HW225118   3.598   4.268   4.426 -0.4162 -3.0253 -0.2216
 7893SOL     OW25119   1.915   2.783   5.167  0.0512  0.3143 -0.2621
 7893SOL    HW125120   1.854   2.856   5.180  2.4208  2.0347  2.7296
 7893SOL    HW225121   1.875   2.709   5.213 -1.4267  0.2591 -1.5654
 7894SOL     OW25122   3.280   3.197   4.196 -0.0881  0.1465  0.4752
 7894SOL    HW125123   3.364   3.243   4.193 -0.0730  0.0688 -0.5427
 7894SOL    HW225124   3.216   3.264   4.172  0.0685 -0.6259 -2.4666
 7895SOL     OW25125   2.059   4.412   5.395 -0.1580 -0.7327 -0.1061
 7895SOL    HW125126   2.003   4.467   5.450 -0.1077 -1.2231  0.4425
 7895SOL    HW225127   2.000   4.346   5.358 -0.1355 -0.5921 -0.3987
 7896SOL     OW25128   0.133   1.864   3.254 -0.1083 -0.5874  0.1845
 7896SOL    HW125129   0.160   1.841   3.343 -0.8362 -1.4090  0.2037
 7896SOL    HW225130   0.065   1.930   3.265 -0.5588 -1.0598  0.2636
 7897SOL     OW25131   3.396   3.693   4.950  0.2968  0.2052  0.3498
 7897SOL    HW125132   3.450   3.757   4.904 -0.0022 -0.5687 -1.1227
 7897SOL    HW225133   3.306   3.722   4.936  0.2434  0.9480  1.9831
 7898SOL     OW25134   5.126   1.583   5.623  0.0743 -0.6347 -0.2280
 7898SOL    HW125135   5.150   1.577   5.716  0.6406  1.4152 -0.1955
 7898SOL    HW225136   5.207   1.603   5.578 -0.1763 -1.7593 -1.2120
 7899SOL     OW25137   1.220   4.166   6.221 -0.4254 -0.6264  0.3512
 7899SOL    HW125138   1.255   4.081   6.193 -0.4809 -0.8297  0.8881
 7899SOL    HW225139   1.262   4.229   6.163 -1.7624 -1.1707 -1.3038
 7900SOL     OW25140   2.650   2.371   4.775 -0.1005  0.0248  0.2749
 7900SOL    HW125141   2.729   2.390   4.725 -0.6344 -0.0598 -0.6193
 7900SOL    HW225142   2.623   2.456   4.810  1.4290 -0.2003  2.2336
 7901SOL     OW25143   2.352   2.622   4.810  0.2345  0.2650 -0.1441
 7901SOL    HW125144   2.346   2.710   4.772 -1.9966  0.6383  0.8854
 7901SOL    HW225145   2.321   2.565   4.740  1.9793  0.2184 -0.9223
 7902SOL     OW25146   1.502   3.795   5.225 -0.3655  0.0862  0.3666
 7902SOL    HW125147   1.558   3.719   5.240 -0.1319  0.4212  1.2417
 7902SOL    HW225148   1.544   3.842   5.154 -0.5328 -0.6135 -0.2149
 7903SOL     OW25149   2.905   4.605   5.732 -0.4450  0.0745  0.4377
 7903SOL    HW125150   2.878   4.532   5.789 -0.6054  0.1498  0.4570
 7903SOL    HW225151   2.902   4.682   5.789  1.1116 -0.1107  0.8146
 7904SOL     OW25152   3.195   2.110   5.415 -0.3546  0.4271 -0.7528
 7904SOL    HW125153   3.202   2.158   5.333 -1.9258  0.4466 -0.9055
 7904SOL    HW225154   3.116   2.144   5.456  1.0211  1.2797  1.3683
 7905SOL     OW25155   2.859   3.216   5.598 -0.0536 -0.0160 -0.4494
 7905SOL    HW125156   2.906   3.299   5.589  0.0563  0.0152  0.3800
 7905SOL    HW225157   2.927   3.149   5.590  0.0991  0.0216  0.4571
 7906SOL     OW25158   3.411   1.773   5.297  0.3446 -0.2640  0.5422
 7906SOL    HW125159   3.491   1.749   5.250  1.2024 -0.0702  1.8530
 7906SOL    HW225160   3.433   1.856   5.341 -0.0105 -0.9873  2.1742
 7907SOL     OW25161   1.290   2.415   5.026  0.1140 -0.6450 -0.5842
 7907SOL    HW125162   1.356   2.464   4.977  1.5692  1.4032  3.0074
 7907SOL    HW225163   1.208   2.462   5.009  0.9019  1.1158  0.2162
 7908SOL     OW25164   2.422   1.748   6.005  0.6524  0.9846  0.4697
 7908SOL    HW125165   2.496   1.746   6.065 -0.1172  0.7322  1.4236
 7908SOL    HW225166   2.430   1.667   5.954  0.8364  0.7819  0.8159
 7909SOL     OW25167   2.220   2.675   6.477 -0.2683  0.0312  0.1784
 7909SOL    HW125168   2.288   2.630   6.527 -0.4037 -0.8717 -0.4031
 7909SOL    HW225169   2.268   2.733   6.418  0.0440 -0.8768 -0.4941
 7910SOL     OW25170   2.041   1.921   3.409  0.3407  0.7229  0.3163
 7910SOL    HW125171   2.128   1.888   3.387  0.7782  1.9308  0.1647
 7910SOL    HW225172   1.987   1.899   3.333  0.5669  0.1870  0.3074
 7911SOL     OW25173   1.910   2.164   5.681 -0.1897  0.7256 -0.4198
 7911SOL    HW125174   1.817   2.186   5.680 -0.4856 -0.3154  1.2467
 7911SOL    HW225175   1.951   2.231   5.735 -0.1289  0.5944 -0.3026
 7912SOL     OW25176   2.079   1.291   5.142 -0.2316 -0.4059 -0.2350
 7912SOL    HW125177   2.113   1.260   5.226 -1.4321  1.4167  1.0108
 7912SOL    HW225178   2.153   1.334   5.100  0.4783 -1.6515 -0.2957
 7913SOL     OW25179   2.746   3.741   3.053 -0.2887 -0.3475  0.1605
 7913SOL    HW125180   2.666   3.692   3.035 -0.6609  0.4866 -0.5524
 7913SOL    HW225181   2.811   3.702   2.994 -0.4325 -0.3749  0.0189
 7914SOL     OW25182   1.406   3.814   5.655 -0.3237  0.3158  0.3201
 7914SOL    HW125183   1.334   3.806   5.718  0.4935  0.1998  1.2594
 7914SOL    HW225184   1.374   3.770   5.576 -0.6368 -1.2531  1.2901
 7915SOL     OW25185   2.626   3.777   5.106 -0.3014  0.0616 -0.5331
 7915SOL    HW125186   2.629   3.696   5.158 -0.2433 -0.8572 -1.9242
 7915SOL    HW225187   2.533   3.801   5.105 -0.7380 -1.4745 -2.2607
 7916SOL     OW25188   2.528   2.059   5.515 -0.1202  0.1715  0.0756
 7916SOL    HW125189   2.451   2.110   5.542 -0.7307 -0.5487 -0.2676
 7916SOL    HW225190   2.533   1.988   5.579  0.0143 -0.0141 -0.1396
 7917SOL     OW25191   4.105   1.684   4.095 -0.4512 -0.1851  0.1604
 7917SOL    HW125192   4.172   1.713   4.157 -0.7197 -2.7954  1.8391
 7917SOL    HW225193   4.122   1.590   4.084 -2.0621 -0.3200 -1.7044
 7918SOL     OW25194   2.904   3.260   4.984  0.1373  0.3647  0.5140
 7918SOL    HW125195   2.845   3.315   5.036 -2.7111  0.0923 -2.1180
 7918SOL    HW225196   2.926   3.314   4.908 -0.6154 -1.1752 -0.8540
 7919SOL     OW25197   3.934   2.290   5.320  0.2384  0.2843  0.4335
 7919SOL    HW125198   3.987   2.216   5.351  0.3346 -0.0078 -0.4086
 7919SOL    HW225199   3.931   2.350   5.395 -0.8916 -1.1193  1.5657
 7920SOL     OW25200   2.617   1.761   6.196  0.1638 -0.0727  0.3128
 7920SOL    HW125201   2.710   1.781   6.195 -0.2059  2.0242  1.3966
 7920SOL    HW225202   2.580   1.822   6.260 -2.0256 -0.5003 -0.4504
 7921SOL     OW25203   2.513   2.067   3.331 -0.0853  0.0781  0.4899
 7921SOL    HW125204   2.568   2.104   3.401  0.0920 -2.1366  1.6160
 7921SOL    HW225205   2.461   1.999   3.375 -0.1395 -1.2326 -1.4775
 7922SOL     OW25206   2.629   0.733   5.613 -0.0913 -0.3293  0.0302
 7922SOL    HW125207   2.707   0.789   5.618 -0.6655  0.5233 -0.3404
 7922SOL    HW225208   2.657   0.657   5.563 -0.1618  1.1703 -2.4208
 7923SOL     OW25209   3.311   1.077   4.859 -0.5272  0.0856 -0.2500
 7923SOL    HW125210   3.245   1.074   4.928  0.8529 -0.1876  1.1069
 7923SOL    HW225211   3.320   1.171   4.839 -0.4373  0.2409  0.4745
 7924SOL     OW25212   1.919   3.769   3.836 -0.0512  0.4567  0.1001
 7924SOL    HW125213   1.839   3.719   3.822  0.4121 -0.2139 -0.1973
 7924SOL    HW225214   1.974   3.711   3.890  0.4433  0.6955 -0.1454
 7925SOL     OW25215   2.768   3.028   4.329  0.1455  0.3291  0.8627
 7925SOL    HW125216   2.708   3.093   4.293 -0.2187  1.4623  3.3187
 7925SOL    HW225217   2.784   3.057   4.419  2.3326 -1.3829  1.1074
 7926SOL     OW25218   2.841   2.131   6.908  0.2447 -0.1685  0.2251
 7926SOL    HW125219   2.889   2.169   6.834  0.6501  0.0471  0.6010
 7926SOL    HW225220   2.799   2.206   6.951  0.4371 -0.2339  0.5258
 7927SOL     OW25221   3.364   2.167   2.918 -0.4591  0.0301  0.5559
 7927SOL    HW125222   3.338   2.259   2.912  0.0885  0.1894  0.5655
 7927SOL    HW225223   3.296   2.120   2.871 -1.1122  0.3708  1.1379
 7928SOL     OW25224   3.498   3.135   4.616  0.2308 -0.2811 -0.5163
 7928SOL    HW125225   3.540   3.215   4.583 -3.1867  1.0927 -2.0405
 7928SOL    HW225226   3.470   3.157   4.705 -0.4228  0.1525 -0.8200
 7929SOL     OW25227   0.865   4.498   6.397  0.1196 -0.3208 -0.3577
 7929SOL    HW125228   0.861   4.568   6.462  1.6609 -1.5358  1.1636
 7929SOL    HW225229   0.912   4.536   6.323  0.0732  0.5442  0.0474
 7930SOL     OW25230   1.308   1.540   7.158  0.3377  0.2354 -0.4787
 7930SOL    HW125231   1.256   1.616   7.182  0.3644  0.3842 -0.8917
 7930SOL    HW225232   1.387   1.576   7.117  0.8438  0.0191  0.2736
 7931SOL     OW25233   3.368   3.073   6.201 -0.2573  0.5189  0.0929
 7931SOL    HW125234   3.408   2.997   6.243 -0.5703  0.9417  1.2049
 7931SOL    HW225235   3.345   3.043   6.113  1.5659 -0.0165 -0.2378
 7932SOL     OW25236   3.177   2.420   5.704  0.2072 -0.3614  0.2740
 7932SOL    HW125237   3.241   2.369   5.656  0.6725  0.3898  0.0801
 7932SOL    HW225238   3.216   2.507   5.712 -0.1756 -0.2647  1.3732
 7933SOL     OW25239   1.752   2.413   3.159  0.1174  0.4888 -0.1054
 7933SOL    HW125240   1.741   2.374   3.245 -1.4285 -0.2884 -0.6185
 7933SOL    HW225241   1.682   2.479   3.153 -0.8336 -0.5605 -1.3195
 7934SOL     OW25242   4.830   4.446   5.471 -0.1290  0.3834  0.3116
 7934SOL    HW125243   4.751   4.400   5.498  1.0095 -1.5290  0.5709
 7934SOL    HW225244   4.844   4.417   5.380  1.0367 -0.4616  0.7377
 7935SOL     OW25245   2.790   1.703   5.472  0.2632 -0.1662  0.2376
 7935SOL    HW125246   2.793   1.709   5.376  3.6833  2.2750  0.3142
 7935SOL    HW225247   2.743   1.781   5.499 -0.8946 -0.9696  0.5888
 7936SOL     OW25248   2.911   1.287   4.954 -0.2432 -0.5504  0.2236
 7936SOL    HW125249   2.842   1.296   4.888 -0.1431  1.4813  0.3219
 7936SOL    HW225250   2.864   1.262   5.034 -0.4256 -2.5192 -0.4687
 7937SOL     OW25251   3.108   2.095   3.857 -0.1224  0.0264  0.4317
 7937SOL    HW125252   3.197   2.090   3.821 -0.3090 -0.4974  0.0338
 7937SOL    HW225253   3.095   2.188   3.875 -0.3812  0.4826 -1.8036
 7938SOL     OW25254   2.854   2.799   5.062 -0.1193  0.7111  0.0653
 7938SOL    HW125255   2.914   2.844   5.003 -1.4255  0.3248 -1.6267
 7938SOL    HW225256   2.787   2.762   5.005 -0.8208 -0.6804  1.6953
 7939SOL     OW25257   1.736   1.906   3.933 -0.6273  0.3751 -0.2310
 7939SOL    HW125258   1.802   1.971   3.957  0.0241 -0.5954  0.7040
 7939SOL    HW225259   1.652   1.950   3.946 -0.2067  0.8980  0.8237
 7940SOL     OW25260   2.602   3.500   4.511  0.0391 -0.0987  0.2972
 7940SOL    HW125261   2.654   3.473   4.436  1.4267  0.6987  0.9349
 7940SOL    HW225262   2.666   3.533   4.574 -1.2719  1.6044  0.8286
 7941SOL     OW25263   3.378   2.883   3.208 -0.6483  0.0789  0.4880
 7941SOL    HW125264   3.456   2.923   3.169  0.3131 -1.4441  0.7923
 7941SOL    HW225265   3.317   2.874   3.135  0.2964 -0.7170 -0.2268
 7942SOL     OW25266   1.439   3.231   4.451 -0.1104  0.4533  0.1232
 7942SOL    HW125267   1.428   3.311   4.399 -0.5380  0.5818  0.4089
 7942SOL    HW225268   1.365   3.176   4.426  1.9012 -1.3129 -2.6262
 7943SOL     OW25269   2.953   2.638   4.195  0.2334  0.3463  0.0481
 7943SOL    HW125270   3.020   2.687   4.242  0.6550  0.6798 -0.8768
 7943SOL    HW225271   2.874   2.649   4.247  0.2338  2.2711 -0.2834
 7944SOL     OW25272   1.539   1.545   2.648  0.0911  0.1454 -0.0493
 7944SOL    HW125273   1.628   1.510   2.654  0.0315 -0.3248 -1.5150
 7944SOL    HW225274   1.506   1.543   2.737  2.0577  1.6783  0.7833
 7945SOL     OW25275   2.711   3.673   3.964  0.9934  0.1422 -1.0976
 7945SOL    HW125276   2.758   3.757   3.956  0.0901  0.4660 -4.6317
 7945SOL    HW225277   2.622   3.698   3.986  1.1049 -0.0478 -0.4105
 7946SOL     OW25278   2.062   3.550   6.876 -0.2729 -0.4295  0.0827
 7946SOL    HW125279   2.076   3.630   6.825 -1.1575  0.3945  1.0622
 7946SOL    HW225280   2.070   3.479   6.813  0.2879  0.4506 -0.8645
 7947SOL     OW25281   1.239   1.359   7.666  0.1857  0.0424 -0.1590
 7947SOL    HW125282   1.223   1.450   7.642  1.3964  0.2979 -0.0398
 7947SOL    HW225283   1.168   1.337   7.727  0.3410  1.1585  0.4366
 7948SOL     OW25284   2.944   1.511   6.533 -0.3861 -0.5151 -0.0543
 7948SOL    HW125285   2.920   1.597   6.500  0.5990  0.1030  0.7583
 7948SOL    HW225286   2.865   1.478   6.575 -0.5839  0.2983  0.2331
 7949SOL     OW25287   3.061   3.208   8.576 -0.0262 -0.2660 -0.4781
 7949SOL    HW125288   2.996   3.182   8.642 -0.6084 -0.6322 -1.1847
 7949SOL    HW225289   3.011   3.217   8.495  1.1955 -3.7631 -1.8321
 7950SOL     OW25290   2.315   1.582   6.250  0.3098  0.0857  0.1175
 7950SOL    HW125291   2.227   1.609   6.279 -0.4543 -0.8607 -1.2140
 7950SOL    HW225292   2.346   1.657   6.199 -0.8079 -0.5229 -1.5385
 7951SOL     OW25293   3.175   1.752   6.838 -0.2413 -0.1266 -0.3901
 7951SOL    HW125294   3.166   1.706   6.922  0.4376  0.9498  0.2892
 7951SOL    HW225295   3.268   1.747   6.817 -0.5162 -1.0753 -1.5060
 7952SOL     OW25296   2.626   3.532   8.591  0.2705  0.0149  0.3425
 7952SOL    HW125297   2.580   3.448   8.590 -0.4148  0.3581 -1.1930
 7952SOL    HW225298   2.701   3.518   8.649  0.6300 -1.9102 -0.4970
 7953SOL     OW25299   1.262   1.352   7.369 -0.1239 -0.7829 -0.0745
 7953SOL    HW125300   1.261   1.417   7.300  3.1986 -1.3202 -0.8027
 7953SOL    HW225301   1.272   1.402   7.450 -2.1609 -0.2596 -0.0846
 7954SOL     OW25302   3.059   7.596   7.929  0.4572  0.3196 -0.0957
 7954SOL    HW125303   3.094   7.684   7.938 -0.1511  0.6993 -1.2631
 7954SOL    HW225304   3.107   7.544   7.994  1.6664  1.2552 -0.2142
 7955SOL     OW25305   1.799   2.750   8.054 -0.2263 -0.6240 -0.2297
 7955SOL    HW125306   1.746   2.809   8.107 -1.1965 -1.4896 -0.1946
 7955SOL    HW225307   1.801   2.669   8.104  1.2532 -0.5710 -0.1782
 7956SOL     OW25308   2.769   4.141   7.277  0.4111 -0.1956  1.0528
 7956SOL    HW125309   2.746   4.198   7.204  2.8148 -0.9946 -0.4746
 7956SOL    HW225310   2.864   4.148   7.283  0.3360 -0.5191  3.8655
 7957SOL     OW25311   1.867   2.939   7.349 -0.7827 -0.0586 -0.0634
 7957SOL    HW125312   1.772   2.935   7.358 -0.8682  1.9502  0.4364
 7957SOL    HW225313   1.883   2.924   7.256 -1.8770  2.3087 -0.7209
 7958SOL     OW25314   4.327   1.926   7.084 -0.1172 -0.7436  0.2650
 7958SOL    HW125315   4.266   1.957   7.017 -3.0697 -2.2738  2.0941
 7958SOL    HW225316   4.297   1.966   7.165  1.6429 -1.2167  1.2098
 7959SOL     OW25317   3.202   3.597   6.060  0.3183  0.1353 -0.5713
 7959SOL    HW125318   3.200   3.557   6.147  2.7344 -1.4966 -1.1462
 7959SOL    HW225319   3.271   3.663   6.066  1.2401 -0.6997 -1.4489
 7960SOL     OW25320   4.543   1.247   9.378  0.2672  0.5818 -0.4158
 7960SOL    HW125321   4.473   1.300   9.415 -0.5425 -1.3786  1.0557
 7960SOL    HW225322   4.580   1.301   9.309  0.8956  3.9279  2.2525
 7961SOL     OW25323   2.943   3.196   6.848 -0.0743  0.0021 -0.1068
 7961SOL    HW125324   2.897   3.275   6.875  0.6459  0.0689  1.0033
 7961SOL    HW225325   3.032   3.207   6.880  0.1796 -1.0208 -0.4024
 7962SOL     OW25326   2.390   3.583   7.055 -0.2454 -1.0810 -0.0468
 7962SOL    HW125327   2.322   3.583   7.122  0.1142 -0.3521  0.3250
 7962SOL    HW225328   2.364   3.652   6.995  0.8116  0.0644  0.7756
 7963SOL     OW25329   3.334   2.111   6.045 -0.3701 -0.3662 -0.1304
 7963SOL    HW125330   3.262   2.168   6.019  0.2156 -0.6224 -2.5382
 7963SOL    HW225331   3.404   2.131   5.983  1.2464 -0.9486  1.4101
 7964SOL     OW25332   3.830   0.077   6.565  0.2259 -0.2387  0.4987
 7964SOL    HW125333   3.798   0.073   6.655 -0.2475 -1.1938  0.2951
 7964SOL    HW225334   3.791   0.002   6.521  0.7267  0.0138 -0.4243
 7965SOL     OW25335   1.652   3.832   6.732 -0.3618  0.6186 -0.4271
 7965SOL    HW125336   1.693   3.768   6.673  3.0355  1.9879  0.1657
 7965SOL    HW225337   1.684   3.807   6.819 -2.0998  0.9340  0.3409
 7966SOL     OW25338   1.335   4.388   6.097  0.1774 -0.2723  0.2628
 7966SOL    HW125339   1.302   4.477   6.113 -1.6761 -1.0051  0.8127
 7966SOL    HW225340   1.428   4.393   6.118 -0.2297  1.1416  2.0133
 7967SOL     OW25341   3.303   2.781   5.369 -0.4845  0.0488 -0.1987
 7967SOL    HW125342   3.292   2.872   5.393  1.6869  0.6570 -1.2034
 7967SOL    HW225343   3.215   2.749   5.351 -1.1819  2.2588 -0.9202
 7968SOL     OW25344   4.820   2.263   5.787 -0.4890  0.5609  0.4062
 7968SOL    HW125345   4.842   2.343   5.835 -0.6984  0.9787 -0.1845
 7968SOL    HW225346   4.796   2.200   5.856  1.4201  0.4134  1.0012
 7969SOL     OW25347   1.210   3.015   7.243  0.3465 -0.2190 -0.1759
 7969SOL    HW125348   1.134   2.985   7.294 -1.0017  1.6755 -0.9592
 7969SOL    HW225349   1.173   3.076   7.179  2.2889 -0.8469 -1.9777
 7970SOL     OW25350   2.332   2.805   5.401  0.0603  0.3836 -0.3821
 7970SOL    HW125351   2.286   2.771   5.324 -0.8330 -0.8511  0.6511
 7970SOL    HW225352   2.358   2.894   5.376 -0.6572  0.1948 -1.9165
 7971SOL     OW25353   3.730   3.655   6.967 -0.2391 -0.1222  0.4165
 7971SOL    HW125354   3.779   3.652   6.885  0.2708  0.8957  0.6692
 7971SOL    HW225355   3.643   3.686   6.942 -0.4970 -1.0935  0.0849
 7972SOL     OW25356   3.149   1.234   7.035 -0.3093  0.9363  0.2270
 7972SOL    HW125357   3.102   1.223   7.118  0.9417  0.5545  0.9139
 7972SOL    HW225358   3.182   1.146   7.015 -2.3234  0.5479 -1.7847
 7973SOL     OW25359   2.425   3.830   7.358 -0.4586 -0.0567 -0.0842
 7973SOL    HW125360   2.476   3.864   7.432  1.2319 -0.8700 -0.8190
 7973SOL    HW225361   2.426   3.901   7.294  1.0132 -0.5681 -0.6608
 7974SOL     OW25362   3.048   2.436   5.041  0.1179 -0.0516 -0.3622
 7974SOL    HW125363   3.028   2.510   5.098  0.8528 -0.6098  0.6429
 7974SOL    HW225364   3.088   2.476   4.964 -1.6492  0.7874 -0.9067
 7975SOL     OW25365   2.313   1.666   5.202  0.2987  0.1511 -0.2925
 7975SOL    HW125366   2.222   1.675   5.174  0.5457  1.2703 -0.7861
 7975SOL    HW225367   2.354   1.750   5.179  1.3502 -0.1735  0.3166
 7976SOL     OW25368   2.839   0.575   7.614 -0.7382  0.5099  0.0327
 7976SOL    HW125369   2.827   0.495   7.666  0.6480 -0.4990 -1.1087
 7976SOL    HW225370   2.750   0.607   7.598 -1.2688  1.3176  3.5669
 7977SOL     OW25371   2.672   2.883   5.577 -0.4436 -0.2315 -0.7419
 7977SOL    HW125372   2.668   2.827   5.654  1.4194  0.6594  0.0628
 7977SOL    HW225373   2.764   2.910   5.571 -1.0269  1.7227 -1.8265
 7978SOL     OW25374   1.143   0.884   8.583  0.2039  0.6290 -0.2626
 7978SOL    HW125375   1.121   0.898   8.491 -0.0701 -0.6200 -0.4139
 7978SOL    HW225376   1.181   0.967   8.612 -2.1019  1.9605 -0.7692
 7979SOL     OW25377   2.354   1.619   6.558 -0.3831 -0.0896  0.0673
 7979SOL    HW125378   2.293   1.630   6.631 -1.5472  1.6031 -1.0931
 7979SOL    HW225379   2.410   1.696   6.561 -0.3454 -0.0764 -0.7441
 7980SOL     OW25380   3.347   4.626   6.897  0.3362 -0.5553 -0.0166
 7980SOL    HW125381   3.410   4.675   6.951 -0.1160 -0.6697  0.6341
 7980SOL    HW225382   3.398   4.594   6.823  1.6712 -2.7612  1.7200
 7981SOL     OW25383   3.143   3.199   6.309  0.0233 -0.8887  0.1590
 7981SOL    HW125384   3.125   3.184   6.402  0.9376  0.0633  0.5059
 7981SOL    HW225385   3.229   3.158   6.294  0.5531  0.2218  0.0951
 7982SOL     OW25386   2.625   3.365   6.825 -0.0807  0.3667  0.2696
 7982SOL    HW125387   2.596   3.386   6.736 -2.7842 -1.1894  0.6437
 7982SOL    HW225388   2.697   3.425   6.842  0.5563  0.7120 -2.9607
 7983SOL     OW25389   1.046   3.736   8.717  0.4940 -0.9459 -0.1413
 7983SOL    HW125390   1.053   3.653   8.765  0.1469 -0.7783  0.2050
 7983SOL    HW225391   1.090   3.799   8.773 -1.3450 -0.4109  0.7783
 7984SOL     OW25392   3.695   2.747   7.615 -0.1282 -0.6785 -0.2452
 7984SOL    HW125393   3.625   2.698   7.660  0.4556 -1.2001  0.1074
 7984SOL    HW225394   3.655   2.831   7.594 -0.6424 -0.6967  0.6028
 7985SOL     OW25395   3.991   2.021   6.356  0.3833  0.7644 -0.0126
 7985SOL    HW125396   4.011   2.027   6.450  0.0209  1.2130  0.0443
 7985SOL    HW225397   4.076   2.022   6.313  0.6022 -0.4286  0.3506
 7986SOL     OW25398   2.472   2.199   6.396  0.7697 -0.4860  0.0111
 7986SOL    HW125399   2.418   2.238   6.465  3.3479  0.2462  1.7276
 7986SOL    HW225400   2.439   2.238   6.315 -1.6710 -0.6090  0.8597
 7987SOL     OW25401   3.319   1.841   6.369  0.4345  0.8984 -0.0544
 7987SOL    HW125402   3.307   1.818   6.461 -1.7837  0.9975 -0.2770
 7987SOL    HW225403   3.304   1.759   6.321 -0.1048  1.2016 -0.4132
 7988SOL     OW25404   2.963   2.938   4.865  0.4474 -0.1358 -0.5620
 7988SOL    HW125405   2.875   2.966   4.838 -0.3622 -1.8059  0.2456
 7988SOL    HW225406   3.012   2.932   4.783 -0.3931  0.0930 -1.0973
 7989SOL     OW25407   2.170   4.111   6.184  1.0006 -0.1458 -0.0485
 7989SOL    HW125408   2.201   4.021   6.173  0.9169 -0.3876  1.5380
 7989SOL    HW225409   2.205   4.138   6.268  0.4807  1.0926 -0.2180
 7990SOL     OW25410   3.064   2.828   4.625 -0.3225 -0.4725  0.8506
 7990SOL    HW125411   3.154   2.799   4.639  0.1945 -0.0231 -1.2875
 7990SOL    HW225412   3.011   2.754   4.654  0.7276 -0.8762  1.8246
 7991SOL     OW25413   2.531   4.532   8.008 -0.4535 -0.3559  0.3678
 7991SOL    HW125414   2.460   4.535   7.943 -0.0004 -0.3941 -0.1325
 7991SOL    HW225415   2.611   4.522   7.956 -0.0140  0.3498  0.8895
 7992SOL     OW25416   2.843   2.412   5.900  0.2819 -0.2557  0.4721
 7992SOL    HW125417   2.815   2.381   5.986  0.9929 -1.6269  0.2420
 7992SOL    HW225418   2.762   2.418   5.849  0.1132 -1.8552  0.5143
 7993SOL     OW25419   3.545   2.269   5.881  0.0318 -0.1956  0.3796
 7993SOL    HW125420   3.595   2.188   5.890  0.9858  0.1850 -1.0662
 7993SOL    HW225421   3.484   2.251   5.810 -1.8263 -0.5869  1.9917
 7994SOL     OW25422   1.593   2.876   9.702  0.0310 -0.1255  0.0783
 7994SOL    HW125423   1.581   2.935   9.777 -0.9500 -0.3023  0.0686
 7994SOL    HW225424   1.596   2.934   9.626  0.2093 -0.0035  0.1782
 7995SOL     OW25425   3.322   3.276   5.986 -0.4037  0.1625 -0.0977
 7995SOL    HW125426   3.266   3.257   5.911 -0.4271  0.5769 -0.1916
 7995SOL    HW225427   3.267   3.327   6.045 -0.1135  0.6230 -0.2153
 7996SOL     OW25428   2.079   3.352   6.680 -0.1197 -0.0196 -0.4810
 7996SOL    HW125429   2.091   3.334   6.587 -2.6030  0.0512 -0.8641
 7996SOL    HW225430   1.985   3.366   6.690  0.2307  1.0143  1.8694
 7997SOL     OW25431   2.003   3.132   2.978  0.0246  0.2737  0.3332
 7997SOL    HW125432   2.063   3.206   2.993 -0.6169  0.9786 -0.4330
 7997SOL    HW225433   1.917   3.173   2.967 -0.0477 -0.3800 -2.1052
 7998SOL     OW25434   1.649   2.819   4.693  0.7375  0.0129  0.0170
 7998SOL    HW125435   1.728   2.788   4.649  0.0016 -2.1263  0.1229
 7998SOL    HW225436   1.645   2.770   4.774 -0.5598  0.2945  0.1528
 7999SOL     OW25437   2.795   3.797   6.325 -0.8847 -0.4453 -0.6265
 7999SOL    HW125438   2.864   3.817   6.387 -1.0105  0.1272 -0.6623
 7999SOL    HW225439   2.750   3.880   6.311  0.6426  0.0290 -3.3390
 8000SOL     OW25440   4.391   2.025   5.721 -0.0472  0.0745 -0.3808
 8000SOL    HW125441   4.460   1.967   5.753 -1.0620 -2.4882 -2.4286
 8000SOL    HW225442   4.339   2.046   5.799  0.8679 -1.0584  0.5704
 8001SOL     OW25443   3.139   0.722   6.699  0.3279 -0.4855  0.6435
 8001SOL    HW125444   3.228   0.744   6.725  0.6052 -2.0034  1.0626
 8001SOL    HW225445   3.134   0.627   6.707 -1.5556 -0.3738  1.3246
 8002SOL     OW25446   2.823   2.380   7.451 -0.3923 -0.1979 -0.1477
 8002SOL    HW125447   2.842   2.473   7.438  1.3792 -0.1353  2.1626
 8002SOL    HW225448   2.744   2.378   7.505 -0.7151 -0.0620 -0.6132
 8003SOL     OW25449   1.207   1.356   5.004 -0.6162  0.2890  0.1307
 8003SOL    HW125450   1.112   1.353   5.016 -0.9256  3.2255 -1.0286
 8003SOL    HW225451   1.239   1.408   5.078  0.2425 -1.2657  0.9119
 8004SOL     OW25452   2.666   4.298   7.477  0.2101 -0.0203  0.1574
 8004SOL    HW125453   2.737   4.286   7.540  0.3043  1.3931  0.3718
 8004SOL    HW225454   2.679   4.230   7.411  1.4449 -0.1278  0.4935
 8005SOL     OW25455   2.867   3.464   6.957  0.2010  0.5641  0.0503
 8005SOL    HW125456   2.952   3.451   6.999 -0.2631  1.0907  1.2040
 8005SOL    HW225457   2.868   3.555   6.927 -0.7894  1.3659  2.1925
 8006SOL     OW25458   2.825   2.738   8.107  0.7577  0.3237 -0.1361
 8006SOL    HW125459   2.877   2.671   8.062  0.8918 -0.4904  1.1892
 8006SOL    HW225460   2.764   2.688   8.162 -1.0572  1.2578 -1.1914
 8007SOL     OW25461   2.437   1.667   7.171  0.3528 -0.0714  0.0718
 8007SOL    HW125462   2.462   1.622   7.252  0.8816  0.8756  0.4600
 8007SOL    HW225463   2.468   1.757   7.184  1.1152 -0.0851 -1.4863
 8008SOL     OW25464   2.313   0.744   7.185  0.6867 -0.1573  0.0022
 8008SOL    HW125465   2.324   0.673   7.122 -2.9846  0.6232 -1.7977
 8008SOL    HW225466   2.228   0.727   7.226 -0.0074  2.7359  0.0023
 8009SOL     OW25467   2.911   2.429   6.846  0.2069 -0.1056  0.5165
 8009SOL    HW125468   3.003   2.455   6.842  0.0755  0.4823  1.1655
 8009SOL    HW225469   2.883   2.425   6.755  0.6637  0.4710  0.3461
 8010SOL     OW25470   2.282   1.256   5.426  1.2047  0.2181 -0.0075
 8010SOL    HW125471   2.333   1.178   5.404  1.3326  0.2621  0.1309
 8010SOL    HW225472   2.347   1.326   5.430  1.0209  0.4344 -0.6560
 8011SOL     OW25473   2.163   1.057   7.021  0.3088 -0.1066 -0.1964
 8011SOL    HW125474   2.183   0.979   6.969 -1.0712 -0.8475  0.3470
 8011SOL    HW225475   2.242   1.072   7.073  1.1169 -0.2861 -1.3416
 8012SOL     OW25476   1.766   2.603   7.175  0.0121  0.4412  0.3863
 8012SOL    HW125477   1.701   2.664   7.209  0.2988  0.3948  1.0284
 8012SOL    HW225478   1.832   2.659   7.133 -0.0028  0.5380  0.4929
 8013SOL     OW25479   2.615   2.686   5.763 -0.0871 -0.1493  0.2280
 8013SOL    HW125480   2.666   2.689   5.844 -1.1199  0.3526  0.8751
 8013SOL    HW225481   2.623   2.596   5.733  1.4836 -0.0013  0.1034
 8014SOL     OW25482   3.607   3.215   6.308  0.5223  0.0403 -0.5179
 8014SOL    HW125483   3.638   3.304   6.327  1.2237 -0.0972 -0.9719
 8014SOL    HW225484   3.586   3.217   6.215  0.4862 -0.2550 -0.5158
 8015SOL     OW25485   2.951   2.728   8.436 -0.5846  0.0033 -0.6094
 8015SOL    HW125486   2.916   2.749   8.522 -0.2335  0.3097 -0.5383
 8015SOL    HW225487   2.917   2.641   8.416  1.1900 -1.0859  0.8333
 8016SOL     OW25488   2.174   0.621   7.494  0.0801 -0.5052 -0.0558
 8016SOL    HW125489   2.221   0.603   7.575  0.4006 -3.2508 -0.7567
 8016SOL    HW225490   2.117   0.695   7.516  0.7550 -0.6113  2.4045
 8017SOL     OW25491   2.891   1.435   6.273  0.0012 -0.2459  0.1269
 8017SOL    HW125492   2.896   1.440   6.368  0.1290  2.0927  0.0392
 8017SOL    HW225493   2.981   1.423   6.245 -0.0821 -1.3572  0.2926
 8018SOL     OW25494   3.022   1.569   7.358 -0.1357  0.2984 -0.0809
 8018SOL    HW125495   3.069   1.636   7.308  1.5393 -0.6848  0.1190
 8018SOL    HW225496   2.939   1.611   7.381  0.5695  2.0531 -0.5432
 8019SOL     OW25497   2.529   3.049   6.648 -0.1028 -0.1933  0.5480
 8019SOL    HW125498   2.581   3.122   6.682  0.5552 -0.3528 -0.0930
 8019SOL    HW225499   2.480   3.017   6.724  0.5642  0.1035  1.1145
 8020SOL     OW25500   0.879   1.472   5.446 -0.3526 -0.2071 -0.0076
 8020SOL    HW125501   0.960   1.421   5.439 -0.4768 -0.3080 -0.8364
 8020SOL    HW225502   0.875   1.498   5.538  0.0427 -1.1481  0.2881
 8021SOL     OW25503   3.568   1.872   6.213 -0.1452 -0.9489  0.2217
 8021SOL    HW125504   3.480   1.884   6.251  0.3405  0.1074  1.0631
 8021SOL    HW225505   3.551   1.833   6.127 -1.6606  1.7048 -0.8159
 8022SOL     OW25506   1.880   3.254   6.459  0.3874 -0.5201  0.4013
 8022SOL    HW125507   1.812   3.221   6.517  0.4012 -3.5392 -1.0860
 8022SOL    HW225508   1.837   3.323   6.408 -0.3949  0.2583  2.0460
 8023SOL     OW25509   4.312   3.112   6.526  0.1589 -0.1974 -0.0143
 8023SOL    HW125510   4.270   3.084   6.445 -0.8872  0.3181  0.3264
 8023SOL    HW225511   4.242   3.111   6.591  1.1319 -1.2694  1.0585
 8024SOL     OW25512   1.032   1.978   4.254  0.6730 -0.2733 -0.1151
 8024SOL    HW125513   1.060   1.911   4.317  1.1592 -0.2479 -0.3019
 8024SOL    HW225514   1.042   1.935   4.168  1.0034  0.0470 -0.2367
 8025SOL     OW25515   4.102   2.339   6.540 -0.1041 -0.3594  0.5641
 8025SOL    HW125516   4.090   2.399   6.614  0.7785  0.5838 -0.0289
 8025SOL    HW225517   4.122   2.255   6.581  1.8290  0.4617  1.4335
 8026SOL     OW25518   3.358   3.459   7.163  0.7579 -0.4545 -0.2600
 8026SOL    HW125519   3.442   3.505   7.167 -0.0156  1.1968 -1.4963
 8026SOL    HW225520   3.346   3.441   7.069 -0.5496 -0.0905 -0.1702
 8027SOL     OW25521   2.033   5.333   8.446  0.2617 -0.5328 -0.0461
 8027SOL    HW125522   2.127   5.327   8.462  0.5792 -0.3488 -1.6587
 8027SOL    HW225523   2.021   5.416   8.401 -0.8615 -0.0047  1.1487
 8028SOL     OW25524   2.795   2.796   6.289  0.6604  0.8191 -0.2025
 8028SOL    HW125525   2.781   2.819   6.197 -1.4677  2.3676  0.4470
 8028SOL    HW225526   2.737   2.722   6.304  0.3755  1.1055  0.1096
 8029SOL     OW25527   2.339   0.168   7.350 -0.7639 -0.4149 -0.2952
 8029SOL    HW125528   2.274   0.130   7.290 -1.8155 -0.3238  0.7544
 8029SOL    HW225529   2.313   0.260   7.358 -0.2993 -0.2992 -0.1230
 8030SOL     OW25530   2.815   2.089   7.247  0.6576 -0.3643  0.5346
 8030SOL    HW125531   2.755   2.163   7.235  0.3757 -0.8556 -1.5457
 8030SOL    HW225532   2.877   2.119   7.313 -1.0895  0.6531  1.8231
 8031SOL     OW25533   3.318   2.316   6.554 -0.5907  0.4804 -0.0855
 8031SOL    HW125534   3.303   2.249   6.622 -0.7991  0.2803 -0.3281
 8031SOL    HW225535   3.372   2.382   6.598 -0.8312  0.4158  0.3164
 8032SOL     OW25536   3.055   3.169   6.562 -0.5072 -0.4893  0.0622
 8032SOL    HW125537   3.056   3.083   6.605 -3.7420 -0.2500  0.8811
 8032SOL    HW225538   3.076   3.231   6.632  0.6212 -0.5121 -0.2466
 8033SOL     OW25539   2.548   1.869   5.722  0.1981  0.4872 -1.0408
 8033SOL    HW125540   2.592   1.786   5.736  0.9785  1.1268  0.4604
 8033SOL    HW225541   2.473   1.868   5.782  0.2449  0.8927 -0.9700
 8034SOL     OW25542   2.736   3.511   5.830 -0.5099  0.3732 -0.2181
 8034SOL    HW125543   2.826   3.492   5.857 -0.8574 -0.2796  0.5414
 8034SOL    HW225544   2.694   3.545   5.910 -1.3872 -0.9640 -0.0746
 8035SOL     OW25545   1.184   2.964   4.833  0.4505 -0.0290 -0.2583
 8035SOL    HW125546   1.107   2.956   4.777  1.3197 -0.1162 -1.4945
 8035SOL    HW225547   1.150   2.994   4.917 -0.7755  1.3100 -1.1817
 8036SOL     OW25548   2.057   1.402   6.813 -0.4772 -0.3577  0.1284
 8036SOL    HW125549   2.021   1.369   6.895  0.5453  0.9111  1.1255
 8036SOL    HW225550   2.107   1.328   6.777 -1.3940 -1.0937  0.3545
 8037SOL     OW25551   3.645   2.302   4.854  0.1627 -0.1609 -0.3267
 8037SOL    HW125552   3.578   2.261   4.908  0.8511 -0.1332  0.5775
 8037SOL    HW225553   3.608   2.386   4.828  0.0662  0.1189  0.6662
 8038SOL     OW25554   3.433   1.185   7.619  0.4786 -0.4302 -0.2027
 8038SOL    HW125555   3.461   1.094   7.635  0.0381 -0.6277 -0.5341
 8038SOL    HW225556   3.386   1.210   7.699  1.9172  0.0468  0.5355
 8039SOL     OW25557   3.157   3.904   7.520 -0.2757  0.3588 -0.6856
 8039SOL    HW125558   3.067   3.872   7.524  0.1849 -0.8480  0.8677
 8039SOL    HW225559   3.149   3.999   7.528 -1.4254  0.3041 -0.9745
 8040SOL     OW25560   1.453   1.275   8.063 -0.1004  0.0994  0.1439
 8040SOL    HW125561   1.449   1.227   8.146  0.1309 -1.8303 -0.9062
 8040SOL    HW225562   1.369   1.320   8.057 -0.9003 -1.2891  0.5502
 8041SOL     OW25563   4.248   2.749   8.467 -0.2483 -0.2004  0.4026
 8041SOL    HW125564   4.199   2.820   8.510  2.5864  0.6424  2.5101
 8041SOL    HW225565   4.301   2.794   8.401 -1.5406 -0.9996 -1.2619
 8042SOL     OW25566   1.598   1.729   7.685 -0.1131 -0.2432 -0.1466
 8042SOL    HW125567   1.599   1.638   7.655  1.3069 -0.8547  1.5783
 8042SOL    HW225568   1.595   1.723   7.780  1.9389  1.4489  0.0940
 8043SOL     OW25569   3.738   1.749   7.015 -0.2739  0.5084  0.2508
 8043SOL    HW125570   3.796   1.797   7.074 -1.6691  1.0840  1.2151
 8043SOL    HW225571   3.650   1.768   7.048 -0.9979 -0.5793 -0.9774
 8044SOL     OW25572   2.201   2.561   8.649  0.0026 -0.2044  0.3113
 8044SOL    HW125573   2.271   2.622   8.628  0.4412 -1.2403 -1.4167
 8044SOL    HW225574   2.234   2.475   8.623 -1.5415 -0.8629  0.3543
 8045SOL     OW25575   2.488   1.843   6.572 -0.1288 -0.1683  0.0453
 8045SOL    HW125576   2.537   1.890   6.504 -0.2879 -0.9996 -0.6602
 8045SOL    HW225577   2.409   1.895   6.585 -0.4338 -0.3519 -0.9233
 8046SOL     OW25578   1.715   0.635   6.849 -0.2598 -1.1034 -0.8829
 8046SOL    HW125579   1.686   0.692   6.920 -1.0245  0.6332 -2.5076
 8046SOL    HW225580   1.760   0.563   6.893 -0.3908  0.0799  1.3246
 8047SOL     OW25581   2.169   4.283   6.632 -0.3610 -0.8761  0.5393
 8047SOL    HW125582   2.245   4.329   6.594 -2.3362  0.8102 -1.6968
 8047SOL    HW225583   2.193   4.269   6.724  2.3062  0.2921  0.1267
 8048SOL     OW25584   3.948   2.207   6.782 -0.1113  0.8539  0.5279
 8048SOL    HW125585   3.968   2.115   6.762  1.1954  1.2225  0.0498
 8048SOL    HW225586   3.854   2.206   6.803 -0.2068 -0.5322  0.1968
 8049SOL     OW25587   3.172   3.048   7.038 -0.0221  0.2966 -0.0348
 8049SOL    HW125588   3.208   3.133   7.015 -1.4916  0.7711 -0.7125
 8049SOL    HW225589   3.141   3.011   6.955  1.9732 -1.6102  0.0018
 8050SOL     OW25590   2.126   0.950   6.109  0.2397 -0.7017 -0.5556
 8050SOL    HW125591   2.122   0.878   6.046  2.4454 -1.4246  0.0416
 8050SOL    HW225592   2.129   1.029   6.055 -2.0411 -0.9830 -1.2261
 8051SOL     OW25593   2.847   1.748   6.975  0.3320  0.5325  0.2217
 8051SOL    HW125594   2.837   1.759   6.880 -2.4349  1.2434  0.5202
 8051SOL    HW225595   2.918   1.807   6.999 -0.5938  2.2868 -1.1048
 8052SOL     OW25596   2.495   4.077   6.382 -0.2273  0.1488 -0.3963
 8052SOL    HW125597   2.569   4.116   6.430 -1.1004  0.0036  1.1157
 8052SOL    HW225598   2.533   4.050   6.299  1.3944  0.2212  0.2790
 8053SOL     OW25599   2.123   3.672   6.614  0.0286 -0.0481  1.1621
 8053SOL    HW125600   2.216   3.662   6.597 -0.2200  0.9361 -1.1063
 8053SOL    HW225601   2.080   3.645   6.533 -1.6669 -0.3317  2.1018
 8054SOL     OW25602   2.569   1.370   6.895  0.1537  0.4601 -0.1515
 8054SOL    HW125603   2.493   1.405   6.942  0.5633 -0.1221  0.9982
 8054SOL    HW225604   2.547   1.278   6.880  0.9168  0.0996  0.8445
 8055SOL     OW25605   3.277   1.750   5.824 -0.3794 -0.4035 -0.1556
 8055SOL    HW125606   3.191   1.708   5.823 -0.2656 -0.7417 -2.6037
 8055SOL    HW225607   3.260   1.838   5.790  0.2122 -0.4753 -0.6583
 8056SOL     OW25608   4.390   2.090   5.012  0.7529 -0.3400  0.0601
 8056SOL    HW125609   4.429   2.106   4.927  0.5151  0.7585  0.1464
 8056SOL    HW225610   4.461   2.051   5.064  1.6239  1.1939  0.0765
 8057SOL     OW25611   3.847   2.541   6.365  0.1922 -0.0440 -0.0784
 8057SOL    HW125612   3.856   2.513   6.456 -3.1003 -1.8570 -0.1586
 8057SOL    HW225613   3.765   2.501   6.336  0.9611  0.7505 -3.7737
 8058SOL     OW25614   3.231   2.173   6.780  0.0729  0.6996 -0.6702
 8058SOL    HW125615   3.197   2.190   6.868  0.6784  0.5783 -0.4106
 8058SOL    HW225616   3.157   2.136   6.733 -0.3515  1.0707 -0.3060
 8059SOL     OW25617   1.952   2.388   8.068 -0.7326  0.2184 -0.2537
 8059SOL    HW125618   1.883   2.454   8.069 -0.8119  0.1792 -1.4670
 8059SOL    HW225619   1.923   2.323   8.132 -2.0772 -0.0240 -1.0573
 8060SOL     OW25620   2.554   2.624   6.025  0.5396 -0.0958  0.3889
 8060SOL    HW125621   2.519   2.543   5.988 -0.3807  0.8168 -0.8025
 8060SOL    HW225622   2.604   2.596   6.101 -0.0856 -1.7480  0.2212
 8061SOL     OW25623   1.891   1.457   7.516  0.3472  0.4380  0.2960
 8061SOL    HW125624   1.906   1.363   7.523 -0.0422  0.3370 -0.1789
 8061SOL    HW225625   1.972   1.491   7.477 -0.2986  0.0042 -1.5103
 8062SOL     OW25626   1.320   3.157   6.466 -0.2948  0.1122 -0.1528
 8062SOL    HW125627   1.406   3.154   6.509 -0.0080 -0.9191 -0.7531
 8062SOL    HW225628   1.267   3.093   6.513 -0.6701  0.5773  0.0652
 8063SOL     OW25629   2.673   3.777   6.577  0.3123 -0.8472 -0.1668
 8063SOL    HW125630   2.759   3.808   6.605  0.1216 -0.0514 -0.4153
 8063SOL    HW225631   2.685   3.750   6.486  0.1947 -0.2665 -0.3580
 8064SOL     OW25632   2.162   3.834   6.138 -0.6482 -0.2571  0.6732
 8064SOL    HW125633   2.168   3.789   6.222 -1.1337  0.4700  1.1055
 8064SOL    HW225634   2.072   3.866   6.134  0.2527  2.5734  1.3801
 8065SOL     OW25635   3.144   3.252   7.559 -0.2641  0.6496 -0.2413
 8065SOL    HW125636   3.140   3.271   7.653 -0.4237 -0.4942 -0.0000
 8065SOL    HW225637   3.216   3.306   7.527  1.0663 -0.3457  0.9267
 8066SOL     OW25638   1.810   3.845   7.678 -0.2566  0.0910  0.4816
 8066SOL    HW125639   1.754   3.922   7.686 -1.2226 -0.8116  3.9475
 8066SOL    HW225640   1.893   3.871   7.718 -0.3748 -0.4642  1.1034
 8067SOL     OW25641   1.318   3.390   7.647  0.1862 -0.0288  0.3561
 8067SOL    HW125642   1.406   3.426   7.650 -0.1809  0.9124  0.3207
 8067SOL    HW225643   1.330   3.297   7.629  1.1486  0.1793 -0.1283
 8068SOL     OW25644   2.411   2.402   7.209 -0.0012  0.6362  0.0876
 8068SOL    HW125645   2.502   2.374   7.219 -0.4224 -0.0794  2.2786
 8068SOL    HW225646   2.360   2.321   7.212 -0.7350  0.9883 -1.4895
 8069SOL     OW25647   1.923   2.782   5.514 -0.6620  0.7336 -0.3467
 8069SOL    HW125648   1.977   2.849   5.471 -1.4787  2.0095  0.5571
 8069SOL    HW225649   1.984   2.737   5.572 -0.2708  1.2704 -0.3239
 8070SOL     OW25650   3.723   1.215   5.785 -0.4217 -0.1770 -0.4274
 8070SOL    HW125651   3.781   1.266   5.841  1.2006 -1.2608 -1.0397
 8070SOL    HW225652   3.719   1.264   5.703  0.7056 -0.7225 -0.8296
 8071SOL     OW25653   3.105   2.837   6.356  0.5958  0.4133 -0.2781
 8071SOL    HW125654   3.012   2.861   6.363  0.4698  0.4513 -1.7636
 8071SOL    HW225655   3.125   2.845   6.262  2.4324  1.6025  0.1553
 8072SOL     OW25656   3.210   2.781   8.340  0.0248  0.3506  0.1998
 8072SOL    HW125657   3.134   2.784   8.398  0.1172  0.3411  0.3239
 8072SOL    HW225658   3.203   2.861   8.287 -0.4909 -0.0443 -0.3318
 8073SOL     OW25659   7.857   4.588   9.098 -0.4672 -0.1187 -0.4744
 8073SOL    HW125660   7.899   4.646   9.035 -0.2221 -0.5432 -0.6981
 8073SOL    HW225661   7.875   4.500   9.067  1.2143 -0.4090  1.1545
 8074SOL     OW25662   1.085   3.085   5.377  0.0845  0.7591  0.0792
 8074SOL    HW125663   0.997   3.078   5.339 -0.0533 -1.0530  0.6113
 8074SOL    HW225664   1.073   3.062   5.469  1.4494 -2.2882 -0.3939
 8075SOL     OW25665   1.645   2.435   7.434  0.1656  0.3486  0.1576
 8075SOL    HW125666   1.619   2.343   7.436 -0.7191  0.5591  3.0000
 8075SOL    HW225667   1.563   2.483   7.425  0.6561  0.9217 -1.6943
 8076SOL     OW25668   3.240   1.569   6.507  0.5408 -0.7955  0.0952
 8076SOL    HW125669   3.238   1.482   6.468  0.0883 -1.0126  0.5955
 8076SOL    HW225670   3.149   1.588   6.531  0.4851  0.1921 -0.8208
 8077SOL     OW25671   2.544   3.951   6.761 -0.7318 -0.3359 -0.4324
 8077SOL    HW125672   2.569   3.892   6.689 -1.0748 -1.0132 -0.0114
 8077SOL    HW225673   2.627   3.972   6.804 -0.7261 -1.5642  0.1962
 8078SOL     OW25674   2.244   3.378   8.036  0.1490 -0.7357  0.2475
 8078SOL    HW125675   2.202   3.379   7.951  0.8260  0.3108 -0.0906
 8078SOL    HW225676   2.274   3.288   8.047  1.9171 -0.4304 -1.5778
 8079SOL     OW25677   2.244   2.960   8.607 -0.4339  0.0585 -0.3112
 8079SOL    HW125678   2.254   3.009   8.526  0.3631 -1.2182 -1.0195
 8079SOL    HW225679   2.149   2.945   8.614 -0.4538 -0.4186 -1.3919
 8080SOL     OW25680   2.462   7.928   7.962 -0.2811  0.3568  0.0635
 8080SOL    HW125681   2.461   8.022   7.980 -2.3783  0.0276  2.2159
 8080SOL    HW225682   2.531   7.894   8.020  0.0470  0.4872 -0.2477
 8081SOL     OW25683   3.050   2.710   5.210 -0.2925  0.0459 -0.6578
 8081SOL    HW125684   2.971   2.744   5.166 -0.7510  0.3399  0.3633
 8081SOL    HW225685   3.017   2.649   5.275  0.4214 -0.8137 -1.0811
 8082SOL     OW25686   1.581   4.569   6.833  0.4473  0.0002 -0.0046
 8082SOL    HW125687   1.590   4.565   6.738  1.1601  1.1966 -0.0122
 8082SOL    HW225688   1.584   4.478   6.861 -0.9769 -0.4571 -1.2093
 8083SOL     OW25689   2.959   3.113   5.263 -0.3164 -0.1673 -0.7298
 8083SOL    HW125690   2.902   3.179   5.225 -0.5914 -1.0942 -2.0052
 8083SOL    HW225691   2.900   3.055   5.311 -0.0568  0.5661  0.5374
 8084SOL     OW25692   4.940   1.221   6.561  0.2851  0.3804 -0.1339
 8084SOL    HW125693   5.034   1.235   6.553  0.8257 -2.1747  0.7594
 8084SOL    HW225694   4.912   1.200   6.472  0.0884  3.0715 -0.8010
 8085SOL     OW25695   4.662   1.585   5.767  0.0278  0.1849 -0.2437
 8085SOL    HW125696   4.729   1.523   5.793  0.2603  0.5935  0.1453
 8085SOL    HW225697   4.710   1.655   5.723  0.1475  1.5526  1.9314
 8086SOL     OW25698   1.409   1.776   7.002  0.0898  0.2721  0.0840
 8086SOL    HW125699   1.472   1.834   6.960 -0.3421  1.1430  0.6270
 8086SOL    HW225700   1.327   1.790   6.954 -0.0058  0.0804  0.1886
 8087SOL     OW25701   2.721   3.566   5.348  0.6221 -0.1573  0.4910
 8087SOL    HW125702   2.709   3.627   5.422  0.0658 -1.2432  1.3323
 8087SOL    HW225703   2.657   3.497   5.364  1.8584 -1.4421  0.0625
 8088SOL     OW25704   2.397   1.920   7.886  0.5371 -0.3741  0.5033
 8088SOL    HW125705   2.483   1.933   7.926  1.1417  0.4350 -0.9736
 8088SOL    HW225706   2.415   1.882   7.800 -0.5604 -0.0371  0.0966
 8089SOL     OW25707   3.367   1.436   5.324 -0.3073  0.0074  0.2675
 8089SOL    HW125708   3.451   1.421   5.367 -0.5603  1.1113  1.2107
 8089SOL    HW225709   3.348   1.354   5.279  0.6204 -0.7233  1.1648
 8090SOL     OW25710   2.920   5.368   6.971 -0.2180 -0.1831  1.0473
 8090SOL    HW125711   2.996   5.372   6.914  0.1619 -2.8805  1.2394
 8090SOL    HW225712   2.873   5.289   6.944 -2.4178  0.8445  1.6200
 8091SOL     OW25713   2.789   3.509   5.043 -0.1627  0.0135  0.2774
 8091SOL    HW125714   2.839   3.589   5.058  0.4062 -0.3519  0.3810
 8091SOL    HW225715   2.727   3.531   4.973 -1.2856  1.0761  1.5605
 8092SOL     OW25716   2.848   2.714   6.703  0.1917  0.0916  0.1984
 8092SOL    HW125717   2.818   2.774   6.635  0.5967  0.5497  0.4187
 8092SOL    HW225718   2.829   2.627   6.668  1.2050  0.2848 -0.9045
 8093SOL     OW25719   2.141   2.463   7.611 -0.2797  0.5223  0.3495
 8093SOL    HW125720   2.237   2.463   7.616 -0.1458  0.7867 -1.4660
 8093SOL    HW225721   2.114   2.404   7.681  1.3803 -1.9101 -0.8706
 8094SOL     OW25722   3.618   1.409   7.680 -0.2982 -0.5316 -0.1960
 8094SOL    HW125723   3.622   1.314   7.668  2.6725 -0.4646 -0.4767
 8094SOL    HW225724   3.562   1.421   7.758 -0.9250 -2.4605 -0.3005
 8095SOL     OW25725   3.531   2.848   6.236 -0.0207  0.3530 -0.7004
 8095SOL    HW125726   3.571   2.761   6.237  1.7529  1.1303 -0.3348
 8095SOL    HW225727   3.570   2.893   6.312 -1.8791  1.0645 -0.1101
 8096SOL     OW25728   2.571   4.750   7.377 -0.5330 -0.0628 -0.3071
 8096SOL    HW125729   2.477   4.734   7.378 -0.6531  0.3003  2.2374
 8096SOL    HW225730   2.608   4.674   7.333 -1.9078 -1.2210  0.4475
 8097SOL     OW25731   3.995   1.159   6.286  0.6477  0.0448  0.4163
 8097SOL    HW125732   4.060   1.217   6.327 -0.1335  1.4079 -0.2367
 8097SOL    HW225733   4.000   1.179   6.193 -1.1448  0.6418  0.4199
 8098SOL     OW25734   0.532   7.868   5.909  0.2529  0.1442 -0.1754
 8098SOL    HW125735   0.446   7.885   5.869  0.3118  1.8611  0.3429
 8098SOL    HW225736   0.593   7.918   5.855  0.5832  0.8975  0.8679
 8099SOL     OW25737   3.512   1.787   5.973 -0.2025  0.1421 -0.1687
 8099SOL    HW125738   3.560   1.707   5.951  1.4016  0.9105  0.3773
 8099SOL    HW225739   3.458   1.805   5.896 -0.4208 -1.3240 -0.3797
 8100SOL     OW25740   1.582   2.831   6.536  0.0552  0.2761 -0.0108
 8100SOL    HW125741   1.594   2.916   6.579  2.3966  0.2675 -0.4737
 8100SOL    HW225742   1.604   2.848   6.444  2.1079 -1.0748  0.1670
 8101SOL     OW25743   3.053   3.012   5.603  0.1866  0.1323  0.7942
 8101SOL    HW125744   3.123   3.003   5.538  0.1492  1.5041  0.5180
 8101SOL    HW225745   3.029   2.922   5.626 -0.9796 -0.5243 -2.3649
 8102SOL     OW25746   2.177   1.483   5.927  0.4825  0.1430 -0.2997
 8102SOL    HW125747   2.147   1.565   5.889  1.5593  0.2191 -1.0321
 8102SOL    HW225748   2.271   1.496   5.940  0.7954 -1.1887 -1.0368
 8103SOL     OW25749   3.305   1.060   5.764 -0.0759  0.2912  0.2506
 8103SOL    HW125750   3.324   1.140   5.715  0.5683 -1.4390 -2.6413
 8103SOL    HW225751   3.391   1.024   5.785 -0.2935 -0.6835 -0.4467
 8104SOL     OW25752   2.086   2.428   7.216  0.2213 -0.4605 -0.5899
 8104SOL    HW125753   2.126   2.396   7.135  0.8960  2.0631 -1.3400
 8104SOL    HW225754   2.147   2.492   7.250 -1.8694  1.5040 -0.2666
 8105SOL     OW25755   1.069   3.804   7.405  0.1276 -0.0662  0.0979
 8105SOL    HW125756   1.063   3.763   7.319 -1.5160  0.4794 -0.0939
 8105SOL    HW225757   0.979   3.803   7.438  0.9296 -1.5675  2.4646
 8106SOL     OW25758   4.059   1.826   5.416 -0.4321 -0.1950  0.5163
 8106SOL    HW125759   3.982   1.884   5.419 -1.2672 -1.2851  1.4229
 8106SOL    HW225760   4.037   1.761   5.349  1.0497  1.1993 -1.4235
 8107SOL     OW25761   3.862   2.803   6.022  0.0760  0.1188 -0.6284
 8107SOL    HW125762   3.822   2.794   5.935 -0.2049  2.4136 -0.7743
 8107SOL    HW225763   3.822   2.881   6.059  0.6624 -0.4691  1.3405
 8108SOL     OW25764   2.019   1.874   6.917 -0.1212 -0.8013  0.2899
 8108SOL    HW125765   1.991   1.897   7.006 -0.8539 -1.5297  0.2576
 8108SOL    HW225766   2.111   1.902   6.913 -0.8991  2.0972  0.2458
 8109SOL     OW25767   3.342   2.529   7.537  0.1693  0.4298  0.2950
 8109SOL    HW125768   3.356   2.610   7.489 -0.5489  1.0692  1.1423
 8109SOL    HW225769   3.392   2.540   7.619  0.6909 -0.2984  0.0928
 8110SOL     OW25770   4.200   3.531   7.819 -0.2584 -0.0423 -0.5859
 8110SOL    HW125771   4.223   3.622   7.837  0.8494  0.0933 -2.4919
 8110SOL    HW225772   4.188   3.528   7.724 -1.7340 -1.5820 -0.3891
 8111SOL     OW25773   2.734   1.075   5.814 -0.0564  0.1445  0.1742
 8111SOL    HW125774   2.690   1.014   5.755 -1.0846  1.4072 -0.4155
 8111SOL    HW225775   2.827   1.057   5.803 -0.2742 -0.2545 -1.1507
 8112SOL     OW25776   2.641   4.040   6.166 -0.4354  0.3768 -0.0505
 8112SOL    HW125777   2.641   3.975   6.095  3.5728 -0.4582  0.4765
 8112SOL    HW225778   2.689   4.114   6.131  0.7509  0.3493  1.4451
 8113SOL     OW25779   4.768   2.136   6.545 -0.3792 -0.1993 -0.7440
 8113SOL    HW125780   4.703   2.190   6.500 -0.6099  0.9644  0.8794
 8113SOL    HW225781   4.783   2.062   6.486 -2.8973 -0.3256 -1.3567
 8114SOL     OW25782   2.841   2.431   6.570  0.1598  0.0852  0.0721
 8114SOL    HW125783   2.778   2.482   6.518 -0.0555  0.4453  0.6775
 8114SOL    HW225784   2.924   2.443   6.524 -0.4429 -1.5877 -1.5848
 8115SOL     OW25785   2.609   3.207   8.045 -0.0530  0.4881  0.1721
 8115SOL    HW125786   2.691   3.233   8.087  0.5325  1.7478 -1.6297
 8115SOL    HW225787   2.629   3.206   7.952 -1.8183 -0.2754 -0.2423
 8116SOL     OW25788   2.638   3.412   7.138  0.5855 -0.2239  0.1434
 8116SOL    HW125789   2.721   3.409   7.090  1.0973 -1.2197  1.0363
 8116SOL    HW225790   2.642   3.493   7.189  1.3456 -0.6093  0.7207
 8117SOL     OW25791   2.782   4.289   7.807  0.1572 -0.0645  0.1553
 8117SOL    HW125792   2.872   4.295   7.773  0.8292 -1.2723  1.5794
 8117SOL    HW225793   2.756   4.199   7.789 -0.9535  0.4052 -0.6334
 8118SOL     OW25794   2.764   1.292   5.613 -0.1456  0.4149 -0.0494
 8118SOL    HW125795   2.750   1.223   5.678  0.0234 -0.9005 -1.3448
 8118SOL    HW225796   2.765   1.373   5.663 -0.7028 -0.4907  1.4910
 8119SOL     OW25797   1.879   2.222   6.668 -0.0105  0.5179  0.2269
 8119SOL    HW125798   1.953   2.203   6.726  0.3488 -0.6258 -0.5877
 8119SOL    HW225799   1.902   2.181   6.585 -0.5586  2.0418 -0.7251
 8120SOL     OW25800   2.686   1.717   6.727 -0.2470  0.3914  0.1185
 8120SOL    HW125801   2.673   1.622   6.725  2.1403 -0.0024 -1.5868
 8120SOL    HW225802   2.626   1.750   6.660 -0.3590 -0.0254  0.0054
 8121SOL     OW25803   3.487   2.598   6.014  0.0270  0.2604 -0.1163
 8121SOL    HW125804   3.505   2.589   6.107  0.1785  0.9865 -0.0662
 8121SOL    HW225805   3.565   2.564   5.970 -0.7562 -1.7637 -0.0396
 8122SOL     OW25806   3.018   2.110   6.613  0.0484 -0.0598 -0.3136
 8122SOL    HW125807   2.925   2.110   6.594 -0.1044  1.3239  0.2632
 8122SOL    HW225808   3.060   2.112   6.527 -0.5135  1.2242 -0.5838
 8123SOL     OW25809   2.446   1.932   5.219 -0.1114  0.1425  0.1722
 8123SOL    HW125810   2.402   1.995   5.275 -0.1211  1.4732 -1.2355
 8123SOL    HW225811   2.398   1.936   5.136  0.3475 -1.1890 -0.1848
 8124SOL     OW25812   1.311   1.246   6.572 -0.0878  0.8776  0.3257
 8124SOL    HW125813   1.373   1.310   6.536  0.3766  0.2058 -0.0987
 8124SOL    HW225814   1.304   1.268   6.665  0.9371  0.8397  0.4156
 8125SOL     OW25815   3.223   4.350   6.922  0.0733  0.4407  0.3086
 8125SOL    HW125816   3.265   4.436   6.917  0.2205  0.2832 -3.0964
 8125SOL    HW225817   3.223   4.318   6.832 -4.8360 -0.8082  0.4848
 8126SOL     OW25818   2.661   1.352   8.075  0.4682 -0.0158  0.1554
 8126SOL    HW125819   2.632   1.261   8.081  0.2681 -0.2093 -2.5691
 8126SOL    HW225820   2.757   1.348   8.080  0.4971 -0.4747 -0.6798
 8127SOL     OW25821   3.409   1.948   5.580 -0.6676 -0.2960  0.7346
 8127SOL    HW125822   3.465   1.982   5.510  0.1882 -2.4133  0.3382
 8127SOL    HW225823   3.325   1.931   5.537 -1.6445  2.6267  1.2720
 8128SOL     OW25824   3.291   1.045   6.557  0.6705 -0.1557 -0.7282
 8128SOL    HW125825   3.349   1.010   6.624 -0.9512 -1.2185  0.1997
 8128SOL    HW225826   3.315   0.997   6.478  0.0851 -1.7154 -0.0079
 8129SOL     OW25827   1.502   2.708   5.726  0.3925 -0.4966  0.0712
 8129SOL    HW125828   1.450   2.634   5.758  1.8310 -0.9467  1.5114
 8129SOL    HW225829   1.585   2.669   5.699  0.2555  0.2946 -1.5460
 8130SOL     OW25830   3.361   2.905   4.764  0.0290 -0.6792 -0.4058
 8130SOL    HW125831   3.361   2.990   4.721 -0.2943 -0.2621  0.4159
 8130SOL    HW225832   3.375   2.924   4.856  0.1904 -1.5348 -0.2440
 8131SOL     OW25833   2.611   2.276   8.610 -0.6783  0.6030  0.1600
 8131SOL    HW125834   2.651   2.190   8.620 -1.6730  0.1695  0.5119
 8131SOL    HW225835   2.535   2.260   8.554 -1.9142  0.9117  1.6876
 8132SOL     OW25836   3.181   3.146   8.902 -0.2310  0.1476 -0.3045
 8132SOL    HW125837   3.140   3.227   8.872 -1.4164  0.1074  1.0782
 8132SOL    HW225838   3.271   3.151   8.870 -0.4334  1.7454 -0.7163
 8133SOL     OW25839   3.562   2.696   8.304 -0.1790 -0.6969  0.8081
 8133SOL    HW125840   3.548   2.780   8.261  2.1378 -0.7408 -0.1124
 8133SOL    HW225841   3.518   2.706   8.389 -2.5804  0.2984 -0.4486
 8134SOL     OW25842   2.521   3.339   8.838  0.3529 -0.0260 -0.4828
 8134SOL    HW125843   2.518   3.408   8.904  0.2894 -1.0083  0.5753
 8134SOL    HW225844   2.434   3.300   8.841  0.6611 -0.7310 -0.4113
 8135SOL     OW25845   2.945   2.896   7.793  0.2795  0.1783 -0.6290
 8135SOL    HW125846   3.012   2.852   7.741  0.7095  0.3890 -0.2523
 8135SOL    HW225847   2.892   2.942   7.728 -0.2497 -0.9630 -1.0448
 8136SOL     OW25848   3.759   3.249   7.427 -0.2434  0.4456  0.0696
 8136SOL    HW125849   3.720   3.234   7.341 -1.4313 -2.5962  1.0018
 8136SOL    HW225850   3.846   3.283   7.408 -1.6516  3.1750 -2.1780
 8137SOL     OW25851   1.688   1.626   9.507  0.3443  0.5952  0.0380
 8137SOL    HW125852   1.644   1.586   9.583 -1.8697  0.6028 -1.1571
 8137SOL    HW225853   1.639   1.708   9.492  2.3691  1.8864  0.1000
 8138SOL     OW25854   2.615   1.944   9.165  0.0773  0.2807  0.6529
 8138SOL    HW125855   2.574   2.016   9.213 -1.7383 -0.6849  0.6100
 8138SOL    HW225856   2.672   1.988   9.101 -0.1877  1.6482  1.3179
 8139SOL     OW25857   3.636   2.496   9.408  0.7639 -0.0546 -0.4725
 8139SOL    HW125858   3.581   2.555   9.460  2.7567  0.8904  0.7254
 8139SOL    HW225859   3.647   2.419   9.463  0.1063 -0.5252 -0.9955
 8140SOL     OW25860   2.076   2.987   7.543  0.1022  0.1787 -0.4654
 8140SOL    HW125861   1.995   2.997   7.493 -0.2407  2.1906  0.3877
 8140SOL    HW225862   2.066   2.904   7.589 -1.3268  0.2345 -0.6443
 8141SOL     OW25863   2.502   3.999   8.598 -0.2846  0.0133  0.1977
 8141SOL    HW125864   2.455   3.998   8.682 -1.5689 -0.1010 -0.4928
 8141SOL    HW225865   2.583   3.952   8.615 -0.7691 -0.4688  1.2487
 8142SOL     OW25866   2.636   2.657   8.549  0.3427 -0.0155 -0.0034
 8142SOL    HW125867   2.646   2.647   8.454 -2.1287 -4.9613 -0.0300
 8142SOL    HW225868   2.718   2.624   8.585  0.7330  0.5422 -0.3563
 8143SOL     OW25869   3.429   1.487   6.731 -0.4242 -0.4117  0.6477
 8143SOL    HW125870   3.378   1.486   6.650  1.5883 -1.9259 -0.7063
 8143SOL    HW225871   3.491   1.559   6.719  0.9442 -1.6279  0.0434
 8144SOL     OW25872   2.501   3.045   7.714  0.1874  0.3671 -0.1913
 8144SOL    HW125873   2.499   2.979   7.645 -1.1929  0.2274 -0.0284
 8144SOL    HW225874   2.441   3.113   7.684  0.8762  1.1206  0.0876
 8145SOL     OW25875   4.185   2.159   8.306 -0.1524 -0.1129 -0.4516
 8145SOL    HW125876   4.165   2.079   8.355  2.6957  0.0788  1.2345
 8145SOL    HW225877   4.164   2.230   8.366  0.3852  0.2631 -0.7031
 8146SOL     OW25878   1.197   4.791   7.829 -0.9398  0.7347  0.5670
 8146SOL    HW125879   1.163   4.850   7.897 -0.8099  1.3325  0.1229
 8146SOL    HW225880   1.238   4.849   7.765  1.6150  0.0255  1.4494
 8147SOL     OW25881   1.316   2.382   6.911  0.3668  0.1947  0.4976
 8147SOL    HW125882   1.364   2.338   6.840  0.6210 -0.1224  0.8603
 8147SOL    HW225883   1.256   2.442   6.866 -0.1004 -0.6359 -0.0267
 8148SOL     OW25884   2.651   3.635   7.289  0.1713  0.0739 -0.2471
 8148SOL    HW125885   2.715   3.696   7.253  1.6374 -0.0433  1.9751
 8148SOL    HW225886   2.582   3.692   7.324  1.0225  0.4672  0.8716
 8149SOL     OW25887   3.174   2.784   7.144  0.2046  0.0129 -0.0916
 8149SOL    HW125888   3.191   2.877   7.129 -0.0497 -0.3485 -3.3385
 8149SOL    HW225889   3.097   2.765   7.090  0.7579 -2.2515 -0.1705
 8150SOL     OW25890   3.582   1.606   9.234 -0.3259  0.9536  0.2207
 8150SOL    HW125891   3.671   1.631   9.212 -0.5484  0.4464 -1.4290
 8150SOL    HW225892   3.585   1.511   9.245 -0.0927  1.2452  3.2933
 8151SOL     OW25893   4.188   1.414   7.845 -0.1988  0.4623  0.0888
 8151SOL    HW125894   4.165   1.354   7.916  0.4953  0.1323  0.0443
 8151SOL    HW225895   4.162   1.500   7.878 -0.4624  0.2377  0.4847
 8152SOL     OW25896   3.591   3.489   7.573 -0.9657 -0.5036 -0.1897
 8152SOL    HW125897   3.618   3.441   7.495 -0.4755 -0.1576 -0.2404
 8152SOL    HW225898   3.591   3.424   7.643 -1.2086 -0.7727 -0.4384
 8153SOL     OW25899   1.902   3.942   8.116  0.6779 -0.1758 -0.3044
 8153SOL    HW125900   1.974   3.960   8.056  0.1043 -0.0254 -0.9605
 8153SOL    HW225901   1.841   3.889   8.065 -0.5328  1.2097 -0.3779
 8154SOL     OW25902   3.497   2.805   7.895  0.2193  0.4946 -0.4959
 8154SOL    HW125903   3.520   2.818   7.987  2.2120 -0.1363 -0.8589
 8154SOL    HW225904   3.543   2.875   7.850  1.3492 -0.7071 -1.2545
 8155SOL     OW25905   3.101   2.522   6.489  0.2173 -0.5342 -0.4823
 8155SOL    HW125906   3.155   2.482   6.557 -1.4379  1.2058  2.0463
 8155SOL    HW225907   3.123   2.615   6.493 -2.3782  0.1332  0.2057
 8156SOL     OW25908   1.539   0.744   8.623  0.3355  0.3050 -0.6518
 8156SOL    HW125909   1.543   0.744   8.527 -0.1656 -0.3042 -0.6832
 8156SOL    HW225910   1.626   0.716   8.651  0.8705  1.6771 -0.8933
 8157SOL     OW25911   2.289   2.765   6.761  0.0508  0.4297  0.2178
 8157SOL    HW125912   2.356   2.744   6.696 -0.5924  0.5571 -0.5188
 8157SOL    HW225913   2.334   2.819   6.826  0.6125  0.6960 -0.3769
 8158SOL     OW25914   2.213   2.483   9.908 -0.3467  0.4093  0.0680
 8158SOL    HW125915   2.299   2.462   9.944 -0.4455  0.1034  0.1300
 8158SOL    HW225916   2.161   2.508   9.984 -0.8254 -1.1403  0.2810
 8159SOL     OW25917   3.762   2.775   7.045  0.6367 -0.0692  0.3733
 8159SOL    HW125918   3.779   2.845   7.108 -0.3009 -1.4825  2.2786
 8159SOL    HW225919   3.735   2.701   7.098 -0.0124 -1.3996 -1.7101
 8160SOL     OW25920   3.505   1.937  10.195 -0.1410  0.4095  0.4346
 8160SOL    HW125921   3.525   2.023  10.157 -0.7957 -0.1544 -1.2676
 8160SOL    HW225922   3.444   1.897  10.133  2.1243 -2.3386 -0.2295
 8161SOL     OW25923   3.483   0.670   7.633 -0.2559 -0.5514  0.5316
 8161SOL    HW125924   3.545   0.599   7.614 -1.2605 -1.3969  0.3478
 8161SOL    HW225925   3.415   0.629   7.686 -0.8817  0.2594  0.3715
 8162SOL     OW25926   2.338   2.154   8.724  0.0244 -0.9883 -0.3031
 8162SOL    HW125927   2.344   2.065   8.690  0.9656 -1.1793  0.2969
 8162SOL    HW225928   2.348   2.143   8.819  0.6749 -0.2084 -0.2746
 8163SOL     OW25929   3.071   0.934   6.897  0.0049 -0.3089 -0.1950
 8163SOL    HW125930   3.039   1.014   6.855  0.9433  0.1067 -0.1338
 8163SOL    HW225931   3.073   0.869   6.827  2.3032  0.5816 -1.0372
 8164SOL     OW25932   2.308   2.306   8.066 -0.1894 -0.9270 -0.0093
 8164SOL    HW125933   2.332   2.267   8.150 -1.3645 -0.4160  0.5759
 8164SOL    HW225934   2.268   2.389   8.089 -2.1254 -1.5454 -0.9529
 8165SOL     OW25935   3.590   3.909   7.750 -0.0143  0.2490  0.4138
 8165SOL    HW125936   3.540   3.973   7.699  0.1581  0.6902  0.7890
 8165SOL    HW225937   3.673   3.953   7.769  0.5049 -0.4601 -0.1658
 8166SOL     OW25938   3.153   2.212   9.105 -0.3268 -0.3964 -0.0047
 8166SOL    HW125939   3.187   2.243   9.021  0.7271 -0.9493  0.1902
 8166SOL    HW225940   3.228   2.218   9.164 -0.6681 -1.3387  0.5374
 8167SOL     OW25941   3.329   2.330   7.320  0.3633  0.2423 -0.1558
 8167SOL    HW125942   3.405   2.272   7.316 -1.1242 -1.8408  0.1210
 8167SOL    HW225943   3.360   2.407   7.368  2.4022 -0.3415 -0.4542
 8168SOL     OW25944   2.595   2.353   7.674 -1.0723  0.0214  0.1166
 8168SOL    HW125945   2.565   2.438   7.643 -0.5763 -0.7375 -2.6677
 8168SOL    HW225946   2.519   2.317   7.721 -1.8251  1.3320 -0.0510
 8169SOL     OW25947   3.103   1.637   7.698 -0.2139  0.6299  0.1840
 8169SOL    HW125948   3.026   1.584   7.677  0.2439  0.0620 -0.0689
 8169SOL    HW225949   3.091   1.718   7.648 -0.6759  0.5708  0.1960
 8170SOL     OW25950   3.108   1.391   8.229 -0.2879 -0.1503 -0.6839
 8170SOL    HW125951   3.163   1.465   8.207  0.1563 -0.1566  0.3146
 8170SOL    HW225952   3.150   1.352   8.306  0.2609 -2.2496 -1.9575
 8171SOL     OW25953   3.223   7.252   7.846  0.3792  0.0677  0.3375
 8171SOL    HW125954   3.156   7.258   7.914 -0.0944  1.7629 -0.2386
 8171SOL    HW225955   3.206   7.168   7.802  0.8731 -1.2218  2.4369
 8172SOL     OW25956   1.866   4.544  10.486 -0.8635  0.2196  0.4164
 8172SOL    HW125957   1.880   4.595  10.565 -0.8602  1.2294 -0.2180
 8172SOL    HW225958   1.850   4.609  10.417  0.1201 -0.5854 -0.6163
 8173SOL     OW25959   3.387   2.640   6.991  0.4127  0.2697  0.1580
 8173SOL    HW125960   3.482   2.646   7.001  0.5191 -0.6852 -0.1964
 8173SOL    HW225961   3.353   2.664   7.076  1.0131 -0.1738  0.5352
 8174SOL     OW25962   4.178   2.130   9.864  0.4958  0.5503 -0.2317
 8174SOL    HW125963   4.248   2.156   9.805  0.9919  1.2015  0.6263
 8174SOL    HW225964   4.107   2.191   9.847  0.1531 -0.0511 -1.0338
 8175SOL     OW25965   4.098   2.532   7.509 -0.7335 -0.0598  0.1235
 8175SOL    HW125966   4.031   2.563   7.571 -0.1006 -1.3362  1.5271
 8175SOL    HW225967   4.174   2.588   7.526 -0.0424 -1.3562  1.6989
 8176SOL     OW25968   3.136   1.564   7.012  0.4439  0.4625 -0.2075
 8176SOL    HW125969   3.041   1.557   7.024  0.5877 -0.5441  0.4773
 8176SOL    HW225970   3.168   1.594   7.097  0.6427  1.8498 -0.7607
 8177SOL     OW25971   4.462   2.261   7.417 -0.1463 -0.0629 -0.1718
 8177SOL    HW125972   4.439   2.322   7.346  2.0468  0.7495 -0.2708
 8177SOL    HW225973   4.494   2.318   7.488  0.5477 -1.0148  0.3003
 8178SOL     OW25974   2.411   3.836   8.154 -0.3989  0.1557 -0.1008
 8178SOL    HW125975   2.466   3.778   8.101  0.4376 -1.0566  1.9645
 8178SOL    HW225976   2.334   3.852   8.099  0.0931 -1.6001 -1.4048
 8179SOL     OW25977   2.766   1.866   7.577  0.1460 -0.4090  0.3952
 8179SOL    HW125978   2.686   1.914   7.554 -1.1808 -2.8171 -0.3375
 8179SOL    HW225979   2.793   1.823   7.496  2.4565  0.5879  0.5376
 8180SOL     OW25980   2.263   3.084   6.513 -0.0247 -0.1255  0.2730
 8180SOL    HW125981   2.350   3.060   6.546  0.6754  1.1524 -0.5393
 8180SOL    HW225982   2.255   3.037   6.430  0.9392  1.5551 -0.8372
 8181SOL     OW25983   1.686   2.677   9.025 -0.1901  0.1052 -0.1180
 8181SOL    HW125984   1.630   2.751   9.000  0.7627  2.3213  3.4904
 8181SOL    HW225985   1.625   2.608   9.050 -1.1966  0.6980 -0.8845
 8182SOL     OW25986   2.400   2.239   7.821 -0.6811 -0.3855 -0.3279
 8182SOL    HW125987   2.406   2.240   7.917  1.1627 -1.8076 -0.3664
 8182SOL    HW225988   2.375   2.149   7.800  1.3525 -0.7911 -1.2311
 8183SOL     OW25989   2.531   2.880   6.901  0.0213 -0.3120 -0.0390
 8183SOL    HW125990   2.605   2.914   6.851  0.2158 -3.4201 -2.1639
 8183SOL    HW225991   2.567   2.810   6.955 -1.1008 -0.8297  0.0763
 8184SOL     OW25992   0.726   0.879  11.488  0.1683  0.0568  0.5093
 8184SOL    HW125993   0.672   0.936  11.543 -0.6744 -0.7591  0.5544
 8184SOL    HW225994   0.800   0.934  11.463 -1.5428  1.8358 -1.0510
 8185SOL     OW25995   3.891   3.578   8.244  0.2384 -0.6746 -0.4150
 8185SOL    HW125996   3.864   3.575   8.152  0.1442 -0.9528 -0.3779
 8185SOL    HW225997   3.833   3.644   8.283 -1.2855 -2.1391 -0.0560
 8186SOL     OW25998   3.311   3.435   7.448  0.6979 -0.2219  0.2612
 8186SOL    HW125999   3.308   3.455   7.354 -0.8503  1.8580  0.6867
 8186SOL    HW226000   3.389   3.479   7.480  2.1747 -2.3026 -0.2530
 8187SOL     OW26001   3.777   1.281   9.294  0.8419 -0.3802 -0.4577
 8187SOL    HW126002   3.710   1.300   9.228  0.4995 -0.1597 -0.0512
 8187SOL    HW226003   3.801   1.367   9.330  0.2110 -0.5921  0.4919
 8188SOL     OW26004   1.851   3.045   8.147 -0.0658  0.6639  0.0634
 8188SOL    HW126005   1.854   2.982   8.219 -0.7061  1.0555  0.4454
 8188SOL    HW226006   1.915   3.112   8.170  0.0588  0.5495  0.0449
 8189SOL     OW26007   1.689   1.937   7.541 -0.1731 -0.0099 -0.5995
 8189SOL    HW126008   1.646   1.882   7.607 -1.6301  0.0827 -1.4236
 8189SOL    HW226009   1.645   2.021   7.547 -0.1632  0.0725 -1.5133
 8190SOL     OW26010   2.043   1.915   7.700 -0.0154 -0.3019  0.3851
 8190SOL    HW126011   1.992   1.862   7.639  0.5477 -0.8411  0.3797
 8190SOL    HW226012   1.986   1.990   7.720 -0.6686 -0.7203  0.1161
 8191SOL     OW26013   1.585   1.583   7.076  0.5190  0.3510  0.0032
 8191SOL    HW126014   1.608   1.539   6.994 -0.3805 -0.1414  0.0067
 8191SOL    HW226015   1.540   1.663   7.049  0.8839  0.5611  0.0121
 8192SOL     OW26016   1.858   1.852   9.330 -0.2447  0.3497  0.4548
 8192SOL    HW126017   1.936   1.848   9.386  1.9929 -0.3147 -2.4126
 8192SOL    HW226018   1.803   1.779   9.358  1.2596 -0.5497  1.1834
 8193SOL     OW26019   3.381   4.688   8.165 -0.1854  0.2658 -0.1300
 8193SOL    HW126020   3.318   4.692   8.237 -2.0587  1.4144 -1.7402
 8193SOL    HW226021   3.330   4.662   8.089  1.4697  0.3745 -1.3450
 8194SOL     OW26022   2.153   0.383   8.760  0.7192  0.0307  0.4564
 8194SOL    HW126023   2.211   0.383   8.836 -0.9852 -0.6987  1.8320
 8194SOL    HW226024   2.148   0.291   8.734  1.2577  0.2724 -0.5366
 8195SOL     OW26025   2.893   3.041   7.513  0.0150  0.0653 -0.2697
 8195SOL    HW126026   2.878   3.091   7.432  0.2039  0.8734  0.1764
 8195SOL    HW226027   2.960   3.092   7.559  0.5511 -0.8677 -0.0090
 8196SOL     OW26028   3.219   1.451   7.511 -0.0205  0.7081  0.6266
 8196SOL    HW126029   3.162   1.476   7.438  2.2248  1.1381 -1.0971
 8196SOL    HW226030   3.192   1.507   7.583 -1.1335  1.5691 -0.4183
 8197SOL     OW26031   4.034   2.042   7.457  0.4076  0.3530  0.2008
 8197SOL    HW126032   3.992   2.128   7.465 -1.5229 -0.4732 -0.5544
 8197SOL    HW226033   4.067   2.023   7.545  1.4021  2.0858  0.2515
 8198SOL     OW26034   3.964   2.646   8.672 -0.6548  0.5023 -0.5824
 8198SOL    HW126035   3.919   2.682   8.595 -1.8993  0.8356  0.2698
 8198SOL    HW226036   3.951   2.711   8.740 -1.1250 -0.5937  0.4106
 8199SOL     OW26037   3.063   1.848   8.286  0.4032 -0.2872  0.2874
 8199SOL    HW126038   3.046   1.812   8.199 -0.7467 -0.2033  0.4577
 8199SOL    HW226039   3.157   1.838   8.298  0.3619 -1.7113 -0.3329
 8200SOL     OW26040   2.661   1.877   8.077 -0.0380 -0.0131  0.2195
 8200SOL    HW126041   2.683   1.784   8.072  1.6370  0.2746  1.3629
 8200SOL    HW226042   2.715   1.918   8.010 -1.7252  0.0138 -1.1618
 8201SOL     OW26043   1.712   2.925   8.890  0.5624 -0.4364 -0.0547
 8201SOL    HW126044   1.740   2.981   8.962 -0.6678 -1.5126  1.3337
 8201SOL    HW226045   1.778   2.938   8.822  2.3906 -0.1763  1.6707
 8202SOL     OW26046   2.566   3.188   7.371  0.1803 -0.9032 -0.2938
 8202SOL    HW126047   2.613   3.251   7.426 -1.2753 -1.7999  2.1175
 8202SOL    HW226048   2.630   3.162   7.305  1.8132  0.7175  0.5505
 8203SOL     OW26049   3.872   1.495   7.714  0.7918  0.3065  0.1219
 8203SOL    HW126050   3.878   1.503   7.810  0.2876  0.5251  0.1378
 8203SOL    HW226051   3.782   1.469   7.698  0.8295  0.4379 -0.3080
 8204SOL     OW26052   2.020   2.750   7.677  0.0467  0.1000 -0.2396
 8204SOL    HW126053   2.037   2.780   7.766 -1.2989  1.3665 -0.3915
 8204SOL    HW226054   2.032   2.655   7.682 -1.2806 -0.0230  1.6011
 8205SOL     OW26055   3.009   0.812   7.732 -0.0156 -0.1794  0.2139
 8205SOL    HW126056   2.938   0.874   7.713 -0.4845 -0.0658  2.1569
 8205SOL    HW226057   2.989   0.737   7.677 -0.4487  0.6792 -0.8452
 8206SOL     OW26058   1.890   0.450   7.341  0.0773  0.4237  0.0302
 8206SOL    HW126059   1.959   0.495   7.293 -0.3528 -0.8474 -1.9288
 8206SOL    HW226060   1.814   0.506   7.332  0.5003  1.1626  0.9927
 8207SOL     OW26061   1.904   2.062   8.333  0.0344  0.2617 -0.0087
 8207SOL    HW126062   1.993   2.065   8.300  0.0852 -0.5858  0.0242
 8207SOL    HW226063   1.914   2.046   8.427 -0.1264  1.8445  0.3071
 8208SOL     OW26064   3.370   2.013   7.169 -0.2260  0.2944  0.7392
 8208SOL    HW126065   3.433   2.068   7.215 -0.4128 -1.7847  3.7309
 8208SOL    HW226066   3.285   2.048   7.195 -0.3337 -0.9429  2.1712
 8209SOL     OW26067   4.023   2.095   8.666  0.0362 -0.1520  0.4508
 8209SOL    HW126068   4.069   2.173   8.635  0.8716 -0.8137 -0.0224
 8209SOL    HW226069   4.072   2.022   8.628 -1.2827 -0.8910  0.1273
 8210SOL     OW26070   5.369   1.779   5.478 -0.5121  0.4625  0.2604
 8210SOL    HW126071   5.363   1.832   5.557  2.4897 -0.1661  1.0322
 8210SOL    HW226072   5.379   1.689   5.510 -2.9322 -0.3344 -0.9728
 8211SOL     OW26073   1.900   3.839   7.164  0.4548 -0.4837 -0.3035
 8211SOL    HW126074   1.981   3.874   7.127 -0.1136 -0.6143 -1.7587
 8211SOL    HW226075   1.863   3.912   7.212  0.4913  0.2028 -1.2750
 8212SOL     OW26076   1.806   2.694   6.824 -0.4641 -0.4722 -0.1476
 8212SOL    HW126077   1.869   2.710   6.754  0.6339 -1.7852  0.4797
 8212SOL    HW226078   1.812   2.771   6.880  0.1292 -0.3156 -0.4204
 8213SOL     OW26079   0.590   7.652   6.108 -0.0580  0.6943 -0.4625
 8213SOL    HW126080   0.568   7.719   6.043  0.3665  0.9206 -0.3826
 8213SOL    HW226081   0.621   7.578   6.056  0.0389  0.7822 -0.5316
 8214SOL     OW26082   2.558   1.813   8.895  0.6184 -0.6337  0.4928
 8214SOL    HW126083   2.610   1.790   8.972  0.2646 -0.6772  0.7212
 8214SOL    HW226084   2.614   1.791   8.821  1.4834  0.6468  0.7410
 8215SOL     OW26085   2.963   4.121   8.301  0.8997  0.0516 -0.4307
 8215SOL    HW126086   3.055   4.121   8.326  1.3241 -0.2506 -1.9151
 8215SOL    HW226087   2.941   4.213   8.289  0.3804  0.3158  1.9569
 8216SOL     OW26088   2.572   2.511   7.973 -1.4463  0.2211  0.0058
 8216SOL    HW126089   2.588   2.483   7.882 -0.1563 -0.2725  0.3579
 8216SOL    HW226090   2.577   2.430   8.024 -0.2680  0.7148  0.7258
 8217SOL     OW26091   2.672   2.347   7.226  0.1179 -0.0550  0.3381
 8217SOL    HW126092   2.676   2.359   7.131  1.3218 -1.1860  0.2174
 8217SOL    HW226093   2.757   2.379   7.258  0.2964 -1.0079  0.8503
 8218SOL     OW26094   5.311   3.179   8.157 -0.1625 -0.3227 -0.5540
 8218SOL    HW126095   5.348   3.143   8.237  0.3375  0.8638 -0.2382
 8218SOL    HW226096   5.250   3.246   8.186 -0.0436  0.0589 -1.1547
 8219SOL     OW26097   2.634   1.973   8.319 -0.4317  0.1142  0.3868
 8219SOL    HW126098   2.651   1.966   8.225  0.4731  1.6199  0.4130
 8219SOL    HW226099   2.718   1.952   8.361 -1.2780 -2.3924  0.9844
 8220SOL     OW26100   3.037   1.905   7.611  0.3358  0.1048  0.3239
 8220SOL    HW126101   2.947   1.910   7.579  0.7447 -1.0146 -1.1440
 8220SOL    HW226102   3.059   1.994   7.638 -1.9129  0.0123  2.8753
 8221SOL     OW26103   3.171   3.056   7.344 -0.1205  0.2102 -0.3683
 8221SOL    HW126104   3.205   3.123   7.284 -0.2529 -0.2648 -0.9828
 8221SOL    HW226105   3.147   3.104   7.423  1.3858  0.6527 -0.1522
 8222SOL     OW26106   3.627   2.523   7.145  0.1838 -0.1434  0.3404
 8222SOL    HW126107   3.549   2.540   7.197  0.2736 -2.4814  1.3710
 8222SOL    HW226108   3.698   2.518   7.209  0.5461 -1.6372 -0.1454
 8223SOL     OW26109   3.831   0.836   8.226  0.4284 -0.0405  0.5181
 8223SOL    HW126110   3.829   0.929   8.202 -0.6562 -0.1329  0.1598
 8223SOL    HW226111   3.907   0.802   8.180 -0.1298  0.3401 -0.7742
 8224SOL     OW26112   4.665   1.720   9.626  0.7503  0.8760  0.8199
 8224SOL    HW126113   4.736   1.733   9.688  0.6124  0.7176  1.0127
 8224SOL    HW226114   4.607   1.657   9.668  1.6808 -0.8097 -0.3262
 8225SOL     OW26115   2.478   3.461   8.218 -0.4439  0.2722  0.3347
 8225SOL    HW126116   2.499   3.514   8.141  1.1956  0.9523  1.1982
 8225SOL    HW226117   2.534   3.384   8.211 -0.8875 -0.0664  0.4446
 8226SOL     OW26118   1.846   3.006   7.870  0.6493  0.1980 -0.4995
 8226SOL    HW126119   1.824   3.015   7.962  0.9954  2.4581 -0.5891
 8226SOL    HW226120   1.940   2.985   7.869  0.3191 -1.4096 -0.3356
 8227SOL     OW26121   1.294   5.500   8.383  0.0319  1.2027  0.2572
 8227SOL    HW126122   1.306   5.515   8.290 -0.1256 -0.8335 -0.1349
 8227SOL    HW226123   1.377   5.526   8.423  0.9840 -0.1092 -0.7683
 8228SOL     OW26124   2.431   2.527   6.971  0.2891  0.1060 -0.5907
 8228SOL    HW126125   2.409   2.471   7.045 -0.0510 -0.1195 -0.8572
 8228SOL    HW226126   2.498   2.586   7.004  0.1359  0.0081 -0.1026
 8229SOL     OW26127   3.147   1.363   6.182  0.0949 -0.5880 -0.0940
 8229SOL    HW126128   3.203   1.347   6.258  0.6432 -1.0365 -0.5850
 8229SOL    HW226129   3.172   1.450   6.151 -0.5228 -0.1701  0.5684
 8230SOL     OW26130   1.946   2.891   8.373  0.2790  0.0695 -0.2535
 8230SOL    HW126131   2.026   2.846   8.347  0.2070  0.3887 -1.0583
 8230SOL    HW226132   1.879   2.822   8.376  0.4110 -0.0651 -0.3792
 8231SOL     OW26133   2.916   3.224  10.009  0.1257  0.2102  0.0969
 8231SOL    HW126134   2.908   3.189   9.921  1.1120 -1.2389  0.5417
 8231SOL    HW226135   2.996   3.275  10.008 -1.2991  2.5752 -0.5441
 8232SOL     OW26136   4.356   3.181  10.060  0.1566 -0.3434 -0.8105
 8232SOL    HW126137   4.384   3.209   9.973  2.3125 -1.5253 -0.5842
 8232SOL    HW226138   4.396   3.095  10.072 -0.9416 -0.6711  0.9609
 8233SOL     OW26139   2.531   1.090  11.385 -0.3938 -0.3431 -0.0071
 8233SOL    HW126140   2.512   1.166  11.440  0.3939  0.4775 -0.8128
 8233SOL    HW226141   2.598   1.041  11.433 -0.5644 -0.2732  0.2999
 8234SOL     OW26142   0.628   0.788   9.571 -0.6372 -0.1933  0.0279
 8234SOL    HW126143   0.560   0.735   9.530 -1.3135 -1.3723  2.4700
 8234SOL    HW226144   0.705   0.732   9.572 -0.8778 -0.5141  1.1283
 8235SOL     OW26145   3.258   2.050   9.931 -0.3461 -0.4108 -0.0913
 8235SOL    HW126146   3.189   2.101   9.889 -0.8411 -0.6792  0.3866
 8235SOL    HW226147   3.325   2.114   9.955 -0.7784 -0.0414  0.1389
 8236SOL     OW26148   1.520   3.063   8.731  0.3012 -0.4429  0.4822
 8236SOL    HW126149   1.593   3.078   8.671  1.2740 -2.8589  0.9329
 8236SOL    HW226150   1.473   2.988   8.694  0.8139 -1.8870  2.5269
 8237SOL     OW26151   2.550   1.932   6.891  0.0879  0.3872 -0.4680
 8237SOL    HW126152   2.616   1.979   6.839 -0.9365  0.2057 -2.0233
 8237SOL    HW226153   2.570   1.839   6.875 -1.2179  0.3210 -1.9328
 8238SOL     OW26154   2.143   1.652   7.543 -0.2831 -0.6060 -0.0582
 8238SOL    HW126155   2.096   1.611   7.615 -1.0455  1.5767  0.7988
 8238SOL    HW226156   2.075   1.703   7.497  0.8076  0.8600 -0.1297
 8239SOL     OW26157   2.844   3.735   8.153 -0.5416  0.1857 -0.2502
 8239SOL    HW126158   2.929   3.716   8.114  0.0761  0.6245  0.8326
 8239SOL    HW226159   2.832   3.667   8.219 -1.0926  0.0553 -0.4821
 8240SOL     OW26160   1.477   3.713   7.366  0.1476  0.6063 -0.6834
 8240SOL    HW126161   1.560   3.722   7.412  0.4652  1.0293 -1.3165
 8240SOL    HW226162   1.411   3.738   7.430  0.3087 -1.6642  0.4772
 8241SOL     OW26163   4.287   2.520   9.225  0.2061 -0.1951 -0.1506
 8241SOL    HW126164   4.315   2.589   9.164 -1.4805  1.2960  0.6882
 8241SOL    HW226165   4.196   2.503   9.203  0.8826 -3.1781 -1.1881
 8242SOL     OW26166   2.610   1.888   7.193  0.1477 -0.0876  0.3689
 8242SOL    HW126167   2.704   1.907   7.200 -0.2366  1.8281  0.8589
 8242SOL    HW226168   2.580   1.942   7.120 -0.4752 -1.2265 -0.2470
 8243SOL     OW26169   2.715   1.706   8.421  0.0530  0.1631 -0.1779
 8243SOL    HW126170   2.640   1.669   8.376 -0.5860 -0.1250  1.0953
 8243SOL    HW226171   2.782   1.638   8.417  0.7279  0.8714 -2.3885
 8244SOL     OW26172   2.567   4.660   8.920 -0.2904 -0.6192  0.1852
 8244SOL    HW126173   2.575   4.702   8.834  2.5880 -0.0229  0.6500
 8244SOL    HW226174   2.634   4.592   8.920  1.5723  1.0194  2.7530
 8245SOL     OW26175   4.019   2.285   9.319  0.3543  0.0031 -0.0141
 8245SOL    HW126176   4.019   2.190   9.306 -0.6544  0.0581 -0.4378
 8245SOL    HW226177   4.010   2.321   9.231 -2.0197  0.4382  0.3434
 8246SOL     OW26178   4.820   2.770   6.595  0.0239  0.6461  0.2517
 8246SOL    HW126179   4.840   2.847   6.541  0.2369 -0.1903 -0.8932
 8246SOL    HW226180   4.888   2.768   6.662  0.3875  1.0868 -0.1038
 8247SOL     OW26181   2.214   2.195   7.068  0.2452  0.0571  0.4229
 8247SOL    HW126182   2.243   2.118   7.018 -0.3942  0.4745 -0.6289
 8247SOL    HW226183   2.143   2.232   7.015  1.1477  1.9048  0.4415
 8248SOL     OW26184   2.115   2.604   9.123 -0.4824 -0.2404  0.1431
 8248SOL    HW126185   2.041   2.640   9.171 -0.4988  0.8783 -0.6679
 8248SOL    HW226186   2.087   2.517   9.095 -0.7218 -0.6369  1.5393
 8249SOL     OW26187   3.886   2.759   8.117 -0.5214 -0.2018  0.5825
 8249SOL    HW126188   3.839   2.840   8.095 -1.4496 -1.1280 -1.1122
 8249SOL    HW226189   3.977   2.785   8.125 -0.7173  0.9258 -0.5494
 8250SOL     OW26190   3.334   1.929   7.807  0.5235 -0.1181 -0.2142
 8250SOL    HW126191   3.243   1.937   7.834  0.6871 -1.9940  1.0757
 8250SOL    HW226192   3.373   2.013   7.830 -0.2931 -0.2335  1.8216
 8251SOL     OW26193   2.698   3.296  10.184 -1.0140 -0.1678  0.0993
 8251SOL    HW126194   2.768   3.279  10.122 -1.2271  0.1174 -0.2201
 8251SOL    HW226195   2.685   3.213  10.229 -0.1543 -0.1044  0.4857
 8252SOL     OW26196   3.630   2.234   9.050  0.2507 -0.0973  0.2752
 8252SOL    HW126197   3.653   2.317   9.091  0.5875 -0.3515  0.6013
 8252SOL    HW226198   3.572   2.259   8.978 -0.5123  0.3398  1.0202
 8253SOL     OW26199   2.783   4.870   8.082  0.8594  0.6273  0.0278
 8253SOL    HW126200   2.830   4.930   8.140  0.9318  0.9033 -0.3168
 8253SOL    HW226201   2.852   4.830   8.028  0.7104  0.9691 -0.4197
 8254SOL     OW26202   1.814   5.512   8.010  0.2596 -0.1724 -0.1888
 8254SOL    HW126203   1.764   5.564   8.073  0.4992  0.7326 -0.7184
 8254SOL    HW226204   1.783   5.543   7.925  1.1467 -0.1664 -0.5176
 8255SOL     OW26205   2.251   2.018   6.631  0.1237 -0.4242 -0.2432
 8255SOL    HW126206   2.175   2.011   6.573  0.3085 -1.0967 -0.4065
 8255SOL    HW226207   2.280   2.109   6.622 -1.2178  0.0997  0.5374
 8256SOL     OW26208   2.609   0.971   8.775 -0.7051  0.3771  0.6277
 8256SOL    HW126209   2.696   0.997   8.744 -0.2621  0.0434  1.5720
 8256SOL    HW226210   2.553   0.979   8.697  0.8273 -2.7405 -0.9809
 8257SOL     OW26211   2.861   3.156   8.744 -0.5257 -0.1589 -0.1009
 8257SOL    HW126212   2.776   3.182   8.708 -0.6187  0.2387  0.3881
 8257SOL    HW226213   2.857   3.184   8.835  0.6002  1.0113 -0.3777
 8258SOL     OW26214   3.616   1.827   7.677 -0.1499 -0.1138 -0.1400
 8258SOL    HW126215   3.571   1.753   7.717  0.9467 -0.8377 -0.2194
 8258SOL    HW226216   3.655   1.874   7.751  1.0030 -0.8680 -0.2493
 8259SOL     OW26217   3.382   1.830   8.686  0.0565  0.2124  0.4963
 8259SOL    HW126218   3.361   1.873   8.769 -1.3412 -0.7764  0.7039
 8259SOL    HW226219   3.359   1.738   8.701 -0.4135  0.0514 -1.0377
 8260SOL     OW26220   3.149   2.556   6.820  0.2017 -0.4781 -0.3864
 8260SOL    HW126221   3.226   2.545   6.877 -0.3285  1.0891  0.6996
 8260SOL    HW226222   3.099   2.625   6.862 -0.4678  0.4063 -2.5558
 8261SOL     OW26223   3.501   1.721   8.051 -0.2212 -0.8607 -0.0154
 8261SOL    HW126224   3.480   1.693   7.962 -1.2465 -1.4012  0.3772
 8261SOL    HW226225   3.596   1.707   8.059 -0.0152 -0.2769 -1.1867
 8262SOL     OW26226   2.668   3.876   8.300 -0.2197 -0.1277 -0.2451
 8262SOL    HW126227   2.719   3.814   8.248  0.5401  1.7141 -1.7957
 8262SOL    HW226228   2.727   3.904   8.369 -0.6730 -1.3100  0.6623
 8263SOL     OW26229   3.953   1.989   7.735  0.1912  0.4877  0.6196
 8263SOL    HW126230   3.876   1.956   7.689 -0.4439 -0.4208  2.2346
 8263SOL    HW226231   3.918   2.037   7.810  1.1952 -0.0083  1.4303
 8264SOL     OW26232   3.311   3.558   8.904 -0.1604  0.4564  0.3384
 8264SOL    HW126233   3.379   3.625   8.892 -0.6831  0.8557 -0.4846
 8264SOL    HW226234   3.275   3.544   8.816 -0.5312 -0.4089  0.6166
 8265SOL     OW26235   3.162   1.756   7.208 -0.1102  0.8077 -0.4641
 8265SOL    HW126236   3.108   1.822   7.164 -2.0268 -0.8535 -0.7510
 8265SOL    HW226237   3.223   1.807   7.262 -1.5563  2.7990 -0.5869
 8266SOL     OW26238   2.874   2.494  10.206  0.3751 -0.0296  0.1404
 8266SOL    HW126239   2.822   2.454  10.276 -0.0152 -1.6231 -1.0278
 8266SOL    HW226240   2.817   2.563  10.171 -0.0190 -0.2070  0.4178
 8267SOL     OW26241   2.917   3.048   8.378 -0.2210 -0.3731 -0.5977
 8267SOL    HW126242   2.868   2.968   8.392 -1.0045  0.1350 -0.3569
 8267SOL    HW226243   2.921   3.058   8.283  0.1261 -0.8351 -0.6361
 8268SOL     OW26244   2.994   2.609   7.428 -0.2470  0.1639 -0.2053
 8268SOL    HW126245   3.050   2.564   7.365 -0.7974 -0.3649 -0.3386
 8268SOL    HW226246   3.044   2.685   7.457  1.3934 -1.3619  1.2174
 8269SOL     OW26247   2.943   3.762   9.140 -0.2354 -0.2654  0.2105
 8269SOL    HW126248   2.996   3.685   9.120 -0.4638 -0.4792  0.4115
 8269SOL    HW226249   2.945   3.815   9.060 -0.9661 -1.0065 -0.3186
 8270SOL     OW26250   1.688   3.643   9.192  0.3188  0.4606 -0.0645
 8270SOL    HW126251   1.639   3.638   9.274 -0.4443 -0.0959 -0.5358
 8270SOL    HW226252   1.666   3.729   9.157 -0.3616  0.2039 -0.2849
 8271SOL     OW26253   1.166   4.265   9.026 -0.3833  0.1274 -0.2191
 8271SOL    HW126254   1.256   4.289   9.007 -0.6862  0.6976 -1.0112
 8271SOL    HW226255   1.146   4.307   9.109  0.0975 -0.0559 -0.0078
 8272SOL     OW26256   4.053   1.637   7.297 -0.0565  0.1621 -0.0663
 8272SOL    HW126257   4.021   1.707   7.240 -0.2439 -0.9649 -1.3705
 8272SOL    HW226258   4.148   1.645   7.292 -0.0441  1.5111  1.3322
 8273SOL     OW26259   4.343   2.240   6.289 -0.1909 -0.3182  0.0291
 8273SOL    HW126260   4.362   2.246   6.382  0.1967  0.1145 -0.0743
 8273SOL    HW226261   4.317   2.149   6.276  0.7814 -0.6624  0.3775
 8274SOL     OW26262   1.756   2.101   9.286 -0.4639 -0.3061  0.0587
 8274SOL    HW126263   1.687   2.104   9.353 -0.0593 -1.1842  0.5318
 8274SOL    HW226264   1.800   2.017   9.301 -0.1634 -0.3721 -1.1111
 8275SOL     OW26265   3.623   2.294   7.711  0.6250 -0.6536 -0.7517
 8275SOL    HW126266   3.634   2.257   7.623  0.4818 -0.6459 -0.7736
 8275SOL    HW226267   3.712   2.302   7.745  0.7005 -0.4089 -0.9985
 8276SOL     OW26268   2.368   2.766   6.248  0.0447 -0.1301 -0.3669
 8276SOL    HW126269   2.381   2.743   6.156 -0.3346 -0.7318 -0.2676
 8276SOL    HW226270   2.444   2.730   6.293 -0.6722 -1.4404 -0.1729
 8277SOL     OW26271   0.936   1.758   6.967  0.0037  0.6262  0.2650
 8277SOL    HW126272   0.885   1.807   7.032 -0.1699 -0.0581  0.6541
 8277SOL    HW226273   0.875   1.690   6.937  0.7103 -0.2642  0.8053
 8278SOL     OW26274   4.569   1.442   6.659  0.1340 -0.3291 -0.1470
 8278SOL    HW126275   4.478   1.468   6.675  0.0959 -0.9025  0.6353
 8278SOL    HW226276   4.601   1.505   6.596 -0.4955  0.5159  0.3593
 8279SOL     OW26277   1.991   2.280   7.469  0.1875  0.4181  0.2588
 8279SOL    HW126278   2.050   2.342   7.513  0.6658  1.6160 -1.9169
 8279SOL    HW226279   2.050   2.213   7.433  0.0959  0.7675 -0.5764
 8280SOL     OW26280   3.441   4.126   7.599 -0.8545 -0.2022  0.0963
 8280SOL    HW126281   3.352   4.125   7.565 -0.0128  0.9421 -2.4278
 8280SOL    HW226282   3.497   4.128   7.521  1.3464  0.4620  1.5693
 8281SOL     OW26283   3.061   4.272   6.660  0.0273 -0.0293  0.3410
 8281SOL    HW126284   3.074   4.307   6.572 -0.1848  1.6284  0.9392
 8281SOL    HW226285   3.077   4.178   6.651  0.2491  0.1467 -1.4070
 8282SOL     OW26286   3.015   1.334   7.797  0.3259 -0.2643 -0.0709
 8282SOL    HW126287   3.009   1.269   7.727  0.7378  0.1106 -0.4617
 8282SOL    HW226288   2.972   1.412   7.761  1.0607  0.1163 -0.1329
 8283SOL     OW26289   3.590   4.588   7.132  0.2885  0.5074 -0.6253
 8283SOL    HW126290   3.613   4.496   7.145  0.8110  0.4439 -1.9157
 8283SOL    HW226291   3.523   4.605   7.198 -0.7342 -1.1459 -1.1902
 8284SOL     OW26292   3.021   4.937   6.971 -0.1613 -0.3518  0.2453
 8284SOL    HW126293   3.082   5.010   6.983  1.0486 -0.9178 -1.8342
 8284SOL    HW226294   3.066   4.861   7.008 -0.8613 -0.3008  1.2407
 8285SOL     OW26295   3.532   2.300   8.803 -0.2926  0.1299  0.2402
 8285SOL    HW126296   3.567   2.381   8.766  1.1499 -1.1905 -1.4848
 8285SOL    HW226297   3.585   2.230   8.763 -1.4818 -1.6785  1.6363
 8286SOL     OW26298   2.557   4.773   8.602  0.0167 -0.0216  0.5287
 8286SOL    HW126299   2.551   4.856   8.649  0.0125  0.2313  0.0816
 8286SOL    HW226300   2.497   4.783   8.528  2.7266  1.0113 -1.7183
 8287SOL     OW26301   3.812   0.183   9.218  0.3497 -0.0836 -0.2710
 8287SOL    HW126302   3.738   0.241   9.234 -0.4790 -1.6324  1.8972
 8287SOL    HW226303   3.773   0.100   9.190  1.3410 -0.5171 -0.4324
 8288SOL     OW26304   2.967   3.724   8.533 -0.3662  0.3558 -0.2225
 8288SOL    HW126305   2.956   3.629   8.543  0.1540  0.4774  2.0322
 8288SOL    HW226306   2.974   3.738   8.438 -1.4614 -1.7218 -0.6679
 8289SOL     OW26307   4.347   3.393   9.851  0.3677  0.2333 -0.2355
 8289SOL    HW126308   4.404   3.468   9.871 -0.1179  0.0131  2.2247
 8289SOL    HW226309   4.259   3.430   9.852  0.2273 -0.0817 -0.6683
 8290SOL     OW26310   3.150   3.601   5.787 -0.4704 -0.4620 -0.0217
 8290SOL    HW126311   3.186   3.583   5.874 -2.7966  1.3729  1.4594
 8290SOL    HW226312   3.222   3.641   5.739  0.8412 -1.4290  1.0601
 8291SOL     OW26313   3.656   2.243   6.778  0.6277 -0.5090 -0.4686
 8291SOL    HW126314   3.636   2.240   6.871 -1.4085  1.8848 -0.7255
 8291SOL    HW226315   3.697   2.328   6.764  0.4537 -0.6225 -1.8222
 8292SOL     OW26316   3.095   2.132   7.744  0.5300  0.5224  0.0049
 8292SOL    HW126317   3.101   2.127   7.840  0.8311 -0.0980 -0.0401
 8292SOL    HW226318   3.133   2.217   7.721  2.3109 -0.1591  0.2907
 8293SOL     OW26319   3.842   0.394   8.151  0.7657 -0.4790  0.1266
 8293SOL    HW126320   3.773   0.388   8.084  0.9459  2.0450 -0.4033
 8293SOL    HW226321   3.847   0.487   8.171  1.3765 -1.0504  3.0439
 8294SOL     OW26322   2.341   3.137   8.824 -0.1255 -0.0947 -0.1338
 8294SOL    HW126323   2.378   3.093   8.900 -0.1793  0.0518 -0.0210
 8294SOL    HW226324   2.298   3.068   8.774  1.7340 -0.5924 -1.1650
 8295SOL     OW26325   1.490   3.979   8.335  0.0812 -0.1837 -0.3960
 8295SOL    HW126326   1.490   4.056   8.279  2.4434 -0.5567 -1.0366
 8295SOL    HW226327   1.492   3.905   8.275 -0.2028 -0.6865  0.1938
 8296SOL     OW26328   3.566   3.840   7.378 -0.4285  0.2399 -0.0268
 8296SOL    HW126329   3.635   3.820   7.314  0.0801  0.6704  0.3736
 8296SOL    HW226330   3.548   3.933   7.365 -2.0915 -0.1985 -1.2223
 8297SOL     OW26331   1.756   3.297   8.344 -0.4051  0.0026 -0.3293
 8297SOL    HW126332   1.706   3.338   8.274 -1.1424 -1.5023 -0.7099
 8297SOL    HW226333   1.837   3.348   8.348 -2.1506  2.9731  0.7838
 8298SOL     OW26334   2.285   3.090   8.382  0.0309  0.3150 -0.3446
 8298SOL    HW126335   2.349   3.074   8.313 -0.8713  1.9804 -1.6379
 8298SOL    HW226336   2.300   3.180   8.409  0.2800 -0.2585  1.5920
 8299SOL     OW26337   3.326   4.289  10.744  0.3303  0.9118  0.3895
 8299SOL    HW126338   3.325   4.195  10.763 -1.9472  0.5600 -1.1229
 8299SOL    HW226339   3.333   4.295  10.649  0.7317  2.3218  0.4701
 8300SOL     OW26340   3.345   3.038   9.960  0.1700 -1.3546 -0.1252
 8300SOL    HW126341   3.343   3.031  10.056 -0.8800 -2.7591 -0.2129
 8300SOL    HW226342   3.387   3.123   9.943  2.3265 -2.0065  1.5103
 8301SOL     OW26343   5.763   2.431   7.105 -0.9385  0.2345  0.0334
 8301SOL    HW126344   5.715   2.491   7.162  0.1983  0.5405  0.7001
 8301SOL    HW226345   5.761   2.472   7.019 -1.6366  0.3650  0.1066
 8302SOL     OW26346   4.919   1.668   6.818 -0.1575 -0.8165 -0.2692
 8302SOL    HW126347   4.962   1.687   6.901 -0.4571 -0.4470 -0.1966
 8302SOL    HW226348   4.961   1.587   6.787 -1.1798 -1.9147  1.0635
 8303SOL     OW26349   3.801   2.260   7.350  0.0943 -0.2579 -0.7478
 8303SOL    HW126350   3.866   2.270   7.280  1.2879 -3.3105 -0.2514
 8303SOL    HW226351   3.849   2.282   7.430  1.3360 -4.1957 -0.1693
 8304SOL     OW26352   3.676   2.297   7.031 -0.1667 -0.2279 -0.3215
 8304SOL    HW126353   3.637   2.243   7.100  0.5878 -0.2829  0.0724
 8304SOL    HW226354   3.664   2.387   7.061  0.0096 -0.2448 -0.2003
 8305SOL     OW26355   2.283   2.320   8.524  0.1106  0.3782  0.1397
 8305SOL    HW126356   2.324   2.290   8.443 -0.0374  0.7057 -0.0615
 8305SOL    HW226357   2.322   2.266   8.592  1.5523  1.2838  0.0725
 8306SOL     OW26358   3.482   2.046   6.714 -0.0256 -0.2839 -0.3880
 8306SOL    HW126359   3.550   2.112   6.728  0.6630 -0.4463 -2.5889
 8306SOL    HW226360   3.401   2.088   6.743  0.6275  0.9697 -0.3211
 8307SOL     OW26361   3.077   3.563   7.560  0.1661  0.2758 -0.5245
 8307SOL    HW126362   3.098   3.584   7.651  0.9114 -1.3005 -0.2896
 8307SOL    HW226363   3.162   3.550   7.518 -0.1911  0.0316 -1.1869
 8308SOL     OW26364   3.424   1.645   7.808 -0.3665 -0.3017 -0.1384
 8308SOL    HW126365   3.363   1.594   7.860  0.1741  1.2007  2.1342
 8308SOL    HW226366   3.377   1.727   7.790  0.5053  0.3632  0.5482
 8309SOL     OW26367   3.493   2.562   6.563 -0.4329  0.5873 -0.0891
 8309SOL    HW126368   3.544   2.629   6.609  1.2318 -0.2195 -0.7018
 8309SOL    HW226369   3.407   2.602   6.551 -1.4273  0.4915  4.6418
 8310SOL     OW26370   1.432   3.217   8.922 -0.0084  0.8065 -0.5121
 8310SOL    HW126371   1.377   3.160   8.975  0.1105  0.8082 -0.3864
 8310SOL    HW226372   1.461   3.162   8.849  1.7818  0.0679  0.6711
 8311SOL     OW26373   2.811   3.830   7.110  0.6827 -0.0654 -0.2256
 8311SOL    HW126374   2.832   3.799   7.021  0.8128 -0.3374 -0.1018
 8311SOL    HW226375   2.792   3.923   7.099 -0.3023 -0.3107 -0.6996
 8312SOL     OW26376   2.600   3.180   8.630 -0.5651  0.2577  0.8008
 8312SOL    HW126377   2.561   3.253   8.679 -0.3704  0.0563  1.2664
 8312SOL    HW226378   2.528   3.142   8.581 -0.4508  1.4508 -0.3146
 8313SOL     OW26379   4.787   1.619   9.266 -0.3384 -0.5689 -0.4382
 8313SOL    HW126380   4.731   1.543   9.247 -0.0399 -0.6227 -1.1791
 8313SOL    HW226381   4.727   1.688   9.293 -0.5983 -1.1265  0.4210
 8314SOL     OW26382   2.751   3.041   9.835 -0.0669 -0.7593  0.0008
 8314SOL    HW126383   2.768   2.994   9.917 -0.8319 -2.0156 -0.5372
 8314SOL    HW226384   2.788   2.986   9.767 -0.5970 -0.3792 -0.6121
 8315SOL     OW26385   2.526   0.230   8.026  0.0270  0.2857 -0.1565
 8315SOL    HW126386   2.470   0.245   8.101 -0.1621 -0.7979 -0.0590
 8315SOL    HW226387   2.540   0.316   7.988 -1.1145  0.6559  0.2346
 8316SOL     OW26388   3.182   3.366   7.826 -0.0535  0.1057 -0.7531
 8316SOL    HW126389   3.244   3.438   7.839  1.4268 -0.9122 -1.8491
 8316SOL    HW226390   3.211   3.298   7.887 -0.4651 -0.1750 -0.8685
 8317SOL     OW26391   3.272   3.059   7.859  0.2018 -0.1410 -0.1119
 8317SOL    HW126392   3.338   3.035   7.794 -0.3553  1.9215 -1.5509
 8317SOL    HW226393   3.322   3.084   7.937  0.9776 -0.9367 -0.3405
 8318SOL     OW26394   3.722   7.004   9.985  0.5055 -0.4962 -0.4832
 8318SOL    HW126395   3.649   6.991  10.044  0.7372  1.1186  0.2149
 8318SOL    HW226396   3.691   7.070   9.923  1.2506 -0.0475 -0.3857
 8319SOL     OW26397   1.971   2.731   6.584  0.1416 -0.2059 -0.9033
 8319SOL    HW126398   2.047   2.688   6.546  0.2189  0.8385 -1.9859
 8319SOL    HW226399   1.933   2.782   6.512 -0.4115  0.8736  0.1074
 8320SOL     OW26400   1.928   4.294   7.047  0.2081 -0.0800 -0.1772
 8320SOL    HW126401   1.873   4.254   6.980  0.8302  0.8712 -1.3062
 8320SOL    HW226402   2.017   4.287   7.012  0.6590 -0.3765  0.9851
 8321SOL     OW26403   4.346   0.869   7.408 -0.2985  0.0208 -0.6598
 8321SOL    HW126404   4.422   0.822   7.443 -1.2916 -0.2037  1.3520
 8321SOL    HW226405   4.366   0.882   7.315  1.6901 -0.9993 -0.4233
 8322SOL     OW26406   3.748   2.110   8.812 -0.2487 -0.1151  0.1755
 8322SOL    HW126407   3.726   2.149   8.897 -0.0269  0.0440  0.1591
 8322SOL    HW226408   3.844   2.111   8.809 -0.2504  1.9863 -1.0619
 8323SOL     OW26409   3.901   1.342   8.641  0.5735 -0.5351  0.0155
 8323SOL    HW126410   3.919   1.360   8.548  3.0218  0.3867  0.6057
 8323SOL    HW226411   3.908   1.428   8.683  0.0965 -1.0486  1.1649
 8324SOL     OW26412   2.098   3.839   7.526 -0.1778  0.2311  0.6741
 8324SOL    HW126413   2.046   3.837   7.446  0.5784 -0.7021  0.1755
 8324SOL    HW226414   2.161   3.768   7.515  1.1254  1.2343  1.2961
 8325SOL     OW26415   3.515   3.684   7.908 -0.4473  0.0518 -0.0539
 8325SOL    HW126416   3.541   3.766   7.864  0.3352  0.4110  1.0443
 8325SOL    HW226417   3.421   3.677   7.891 -0.1100 -0.1116 -2.2242
 8326SOL     OW26418   1.141   3.542   7.764 -0.1977  0.4993  0.2229
 8326SOL    HW126419   1.194   3.490   7.703  1.1403  1.5714  0.3944
 8326SOL    HW226420   1.176   3.520   7.850 -2.3754 -1.3404  0.7292
 8327SOL     OW26421   1.560   1.731   9.164 -0.4437 -0.0319  0.1813
 8327SOL    HW126422   1.597   1.759   9.248 -1.4230 -0.5958  0.8171
 8327SOL    HW226423   1.636   1.708   9.111  0.2849  1.7756  0.3644
 8328SOL     OW26424   1.666   2.130   9.738 -0.7017 -0.7620 -0.0261
 8328SOL    HW126425   1.667   2.035   9.752 -0.0366 -0.5184  2.0112
 8328SOL    HW226426   1.753   2.159   9.767 -0.9746  0.4920 -0.4112
 8329SOL     OW26427   4.153   7.289   8.493  0.6624 -0.2123  0.2129
 8329SOL    HW126428   4.197   7.361   8.538 -0.2671 -0.5324  1.7276
 8329SOL    HW226429   4.171   7.212   8.548 -0.9331 -0.5200  0.3730
 8330SOL     OW26430   4.486   2.097  12.439 -0.0222 -0.2027 -0.1700
 8330SOL    HW126431   4.503   2.011  12.400 -0.5785 -0.1350 -0.5807
 8330SOL    HW226432   4.572   2.139  12.444  0.1338 -0.4369 -0.8079
 8331SOL     OW26433   3.103   2.627   9.249 -0.1625 -0.0607 -0.1299
 8331SOL    HW126434   3.059   2.553   9.291 -2.4962  1.0408 -0.4734
 8331SOL    HW226435   3.113   2.692   9.319  1.1551 -0.3618 -0.0114
 8332SOL     OW26436   2.272   1.265  10.095 -0.1899 -1.0008  0.0226
 8332SOL    HW126437   2.357   1.286  10.133  2.3403 -3.1495 -3.7939
 8332SOL    HW226438   2.238   1.193  10.149  1.5780 -1.6781  0.2776
 8333SOL     OW26439   1.306   1.600   9.203 -0.0364  0.5198 -0.1274
 8333SOL    HW126440   1.313   1.574   9.295 -0.7821  0.6046 -0.0399
 8333SOL    HW226441   1.388   1.646   9.185  1.0523 -1.3462 -0.1157
 8334SOL     OW26442   2.992   4.047  10.878  0.4978 -0.3517 -0.3042
 8334SOL    HW126443   2.901   4.068  10.856  0.9569  1.5383 -0.5647
 8334SOL    HW226444   2.994   3.952  10.882 -1.7610 -0.4156  0.8863
 8335SOL     OW26445   3.182   3.319  10.495 -0.0667 -0.4953 -0.1255
 8335SOL    HW126446   3.097   3.293  10.462  0.5592 -1.6377 -0.9132
 8335SOL    HW226447   3.211   3.388  10.435 -0.9979  0.8925  0.9592
 8336SOL     OW26448   3.114   2.204   9.757  0.3960 -0.1886  0.2834
 8336SOL    HW126449   3.151   2.291   9.745  1.6496 -0.5873  1.0789
 8336SOL    HW226450   3.081   2.180   9.670  1.0016  0.6427 -0.1905
 8337SOL     OW26451   3.397   2.268   9.672 -0.1331 -0.4591  0.2466
 8337SOL    HW126452   3.330   2.202   9.690 -0.7813 -0.1870 -1.0293
 8337SOL    HW226453   3.347   2.347   9.650  0.6299  0.5171  1.8776
 8338SOL     OW26454   1.588   3.091   9.907  0.3375 -0.4863 -0.3960
 8338SOL    HW126455   1.545   3.176   9.906 -0.1117 -0.6565 -3.1268
 8338SOL    HW226456   1.682   3.112   9.912  0.1551  0.0537  1.0571
 8339SOL     OW26457   3.611   4.207  10.596  0.1292  0.1088 -0.7140
 8339SOL    HW126458   3.668   4.236  10.525 -0.2178  2.6457 -0.0579
 8339SOL    HW226459   3.523   4.232  10.567 -0.0531  0.8272  0.3992
 8340SOL     OW26460   2.502   2.958   9.383 -0.0720  0.5269 -0.2081
 8340SOL    HW126461   2.488   3.006   9.465 -0.7679  0.7352 -0.4409
 8340SOL    HW226462   2.415   2.924   9.361  0.4919 -1.3042  0.2378
 8341SOL     OW26463   0.081   3.462  10.865 -0.0398  0.8488  0.2476
 8341SOL    HW126464   0.108   3.442  10.955  0.7740  0.1535 -0.1387
 8341SOL    HW226465   0.134   3.404  10.810 -2.5632 -0.8649 -0.5590
 8342SOL     OW26466   1.289   3.642  11.354  0.2196  0.0971 -0.5455
 8342SOL    HW126467   1.311   3.733  11.337 -0.6269  0.5229  0.5186
 8342SOL    HW226468   1.206   3.627  11.309 -0.6842  0.4713  0.9217
 8343SOL     OW26469   0.917   1.814   9.992 -0.9082  0.0899 -0.1770
 8343SOL    HW126470   0.962   1.874   9.934 -0.9485  1.0670  0.7569
 8343SOL    HW226471   0.840   1.863  10.022 -0.4974 -0.0970  1.2551
 8344SOL     OW26472   2.871   2.723   0.611 -0.0742  0.3166  0.2365
 8344SOL    HW126473   2.908   2.809   0.590 -1.8985  1.1320  0.2050
 8344SOL    HW226474   2.777   2.738   0.621 -0.4304 -1.6526  0.3897
 8345SOL     OW26475   2.742   2.974   9.039 -0.1673 -0.0263  0.4115
 8345SOL    HW126476   2.774   3.027   8.967 -1.0327  1.0959  0.8371
 8345SOL    HW226477   2.812   2.909   9.053  1.0269  1.1279  0.0420
 8346SOL     OW26478   2.125   3.826   9.940  0.1161 -0.1546  0.4043
 8346SOL    HW126479   2.140   3.850  10.032 -0.3411  0.6986  0.2694
 8346SOL    HW226480   2.069   3.896   9.906  0.8194 -0.1018 -0.7094
 8347SOL     OW26481   2.589   2.449   9.688  0.1408  0.3452  0.6935
 8347SOL    HW126482   2.655   2.380   9.686 -0.9761 -0.7658 -1.7050
 8347SOL    HW226483   2.633   2.527   9.657  0.2290 -0.5465 -1.5573
 8348SOL     OW26484   2.677   3.240   7.801  0.1847 -0.0069 -0.2683
 8348SOL    HW126485   2.649   3.165   7.749 -1.5391  1.1816 -1.1787
 8348SOL    HW226486   2.739   3.286   7.745  2.0542 -1.2511  0.7045
 8349SOL     OW26487   2.783   2.585  10.744 -0.0865  0.0369  0.3893
 8349SOL    HW126488   2.795   2.505  10.692 -0.0881 -0.3011  0.8994
 8349SOL    HW226489   2.851   2.580  10.811 -0.0434  0.5019  0.3801
 8350SOL     OW26490   1.448   3.863  10.349  0.0768 -0.7146 -0.2599
 8350SOL    HW126491   1.509   3.931  10.320  0.3492 -0.8397  0.0129
 8350SOL    HW226492   1.368   3.911  10.372  0.2680 -0.4851 -0.0661
 8351SOL     OW26493   2.886   2.030  10.326  0.1199  0.0125  0.0285
 8351SOL    HW126494   2.873   2.057  10.235 -1.5734  2.3134  0.8312
 8351SOL    HW226495   2.963   2.079  10.354  0.1728 -0.0763  0.0358
 8352SOL     OW26496   1.289   0.688   8.677 -0.1329  0.4676 -0.3349
 8352SOL    HW126497   1.376   0.728   8.674  0.5123 -0.8904 -0.3520
 8352SOL    HW226498   1.234   0.747   8.626  1.0839  0.6407 -1.4942
 8353SOL     OW26499   2.824   2.184   8.859 -0.2497  0.0622  0.3427
 8353SOL    HW126500   2.735   2.182   8.892 -0.3670  1.1032  0.1262
 8353SOL    HW226501   2.819   2.148   8.771 -0.7096  1.3787 -0.1906
 8354SOL     OW26502   3.715   3.216   8.947  0.1417  0.2171 -0.2051
 8354SOL    HW126503   3.768   3.173   8.880 -0.4413  1.4958 -1.5717
 8354SOL    HW226504   3.778   3.257   9.006  0.6698 -1.1687  0.2270
 8355SOL     OW26505   1.762   3.278  11.395  0.0150 -0.1130  0.1364
 8355SOL    HW126506   1.690   3.273  11.332 -1.9580  0.2937  2.1987
 8355SOL    HW226507   1.720   3.309  11.476  2.4053 -0.5861  1.6522
 8356SOL     OW26508   2.830   2.065  11.375 -0.0491 -0.6407  0.5057
 8356SOL    HW126509   2.897   2.020  11.427  0.2968  2.0971  2.6806
 8356SOL    HW226510   2.754   2.069  11.432 -0.4845  0.3376 -0.1181
 8357SOL     OW26511   3.828   4.043   9.368  0.1543 -0.3868 -0.0323
 8357SOL    HW126512   3.829   3.948   9.365  0.0380 -0.3820 -3.2532
 8357SOL    HW226513   3.738   4.066   9.391  0.2324 -1.0064  0.9551
 8358SOL     OW26514   5.038   1.916  10.373  0.5490  0.2264 -0.1357
 8358SOL    HW126515   5.063   1.879  10.458 -0.4076 -0.3697 -0.1059
 8358SOL    HW226516   4.959   1.869  10.348  0.7231  0.5109 -1.2901
 8359SOL     OW26517   3.371   2.803   9.235  0.3406 -0.7055 -0.2451
 8359SOL    HW126518   3.303   2.776   9.297 -0.9369  1.2306 -0.7166
 8359SOL    HW226519   3.349   2.758   9.154  0.4602 -1.1784 -0.0193
 8360SOL     OW26520   2.926   1.331   9.233 -0.0797 -0.3620  0.4825
 8360SOL    HW126521   2.987   1.262   9.207 -0.0165 -0.2257  0.2694
 8360SOL    HW226522   2.933   1.335   9.328 -0.2569 -0.8113  0.5181
 8361SOL     OW26523   3.227   2.288  11.421  0.2762 -0.5596 -0.2212
 8361SOL    HW126524   3.144   2.270  11.466  0.7587 -1.3959  0.3616
 8361SOL    HW226525   3.284   2.321  11.490  0.0217  1.3729 -0.8892
 8362SOL     OW26526   3.234   2.887  10.999 -0.0488  0.5722 -0.1391
 8362SOL    HW126527   3.211   2.942  10.924 -1.2147  1.5698  0.8848
 8362SOL    HW226528   3.249   2.800  10.963 -0.3275  1.0866 -1.5395
 8363SOL     OW26529   2.421   2.710   9.822 -0.1629 -0.1373  0.3010
 8363SOL    HW126530   2.507   2.735   9.788 -0.3196 -0.5569 -0.4182
 8363SOL    HW226531   2.438   2.686   9.913  0.2458  1.1208  0.5719
 8364SOL     OW26532   1.711   1.427  11.055 -0.1100 -0.4605 -0.4096
 8364SOL    HW126533   1.650   1.402  11.124  0.2745  0.1980  0.1904
 8364SOL    HW226534   1.722   1.348  11.002 -0.9667 -0.7664 -0.1451
 8365SOL     OW26535   2.602   2.787  10.742 -0.5191  0.6161  0.1432
 8365SOL    HW126536   2.658   2.712  10.724 -0.2860  0.4614  1.4685
 8365SOL    HW226537   2.592   2.788  10.837 -1.1011  1.8437  0.0877
 8366SOL     OW26538   1.241   2.911   9.758  0.5699  0.3395 -0.4551
 8366SOL    HW126539   1.303   2.923   9.831 -1.7759 -1.4117  2.0418
 8366SOL    HW226540   1.165   2.963   9.782 -0.4548 -0.6562 -1.3883
 8367SOL     OW26541   1.777   1.298   8.677 -0.7861 -0.2152  0.0589
 8367SOL    HW126542   1.707   1.340   8.627 -0.3940  1.2979  0.7307
 8367SOL    HW226543   1.738   1.215   8.707 -1.4705 -0.5132 -1.5511
 8368SOL     OW26544   4.317   1.504  11.074 -0.0214  0.2948 -0.1509
 8368SOL    HW126545   4.337   1.514  10.981  1.4559  1.6700  0.2537
 8368SOL    HW226546   4.360   1.423  11.100  0.6244  0.5464 -0.4200
 8369SOL     OW26547   3.341   3.161  10.609  0.6807 -0.3893 -0.1430
 8369SOL    HW126548   3.424   3.164  10.561 -0.3262  0.3196 -1.9336
 8369SOL    HW226549   3.285   3.223  10.564 -1.2327 -1.7548  0.2298
 8370SOL     OW26550   1.206   0.781  11.982 -0.0313 -0.4944 -0.4120
 8370SOL    HW126551   1.246   0.830  11.910  1.0924  1.2256  1.3048
 8370SOL    HW226552   1.250   0.696  11.981  1.8948  0.4537 -0.1708
 8371SOL     OW26553   2.946   3.388   7.955  0.7254  0.2729  0.0251
 8371SOL    HW126554   3.028   3.370   7.909  0.3753 -0.4419 -0.3292
 8371SOL    HW226555   2.945   3.484   7.964  1.7384  0.2754  0.3065
 8372SOL     OW26556   0.643   4.364  10.931  0.0190  0.4157 -0.0144
 8372SOL    HW126557   0.719   4.387  10.986  0.3177 -0.0069 -0.2459
 8372SOL    HW226558   0.582   4.322  10.991 -0.0104  0.7073  0.1630
 8373SOL     OW26559   3.511   3.259  10.211 -0.1468  0.1346 -0.2357
 8373SOL    HW126560   3.604   3.279  10.223  0.5803 -2.5757 -0.6946
 8373SOL    HW226561   3.496   3.269  10.117 -0.8528  2.2814  0.0372
 8374SOL     OW26562   2.640   2.931  10.505 -0.6043 -0.0763  0.5960
 8374SOL    HW126563   2.627   2.931  10.600 -0.3909  0.3856  0.6285
 8374SOL    HW226564   2.667   2.842  10.485 -1.9100 -0.5473  0.7885
 8375SOL     OW26565   0.693   2.117   9.562 -0.0026  0.1039  0.0979
 8375SOL    HW126566   0.688   2.091   9.470 -2.3306 -0.5260  0.3350
 8375SOL    HW226567   0.631   2.189   9.569  2.2958  2.1353  0.6267
 8376SOL     OW26568   3.991   1.341  10.245  0.0212  0.1067  0.2444
 8376SOL    HW126569   3.904   1.301  10.239 -0.3864  0.9691  0.2773
 8376SOL    HW226570   3.974   1.431  10.272  0.9009  0.4105 -0.1884
 8377SOL     OW26571   1.761   3.636  12.486 -0.8183 -0.4570  0.5305
 8377SOL    HW126572   1.732   3.727  12.487 -2.9008 -1.0470 -0.5165
 8377SOL    HW226573   1.709   3.593  12.553  0.8817 -0.7211  1.7365
 8378SOL     OW26574   2.691   4.716   9.222 -0.0055 -0.2832  0.9857
 8378SOL    HW126575   2.657   4.675   9.301 -2.0712 -0.8239 -0.1079
 8378SOL    HW226576   2.667   4.655   9.151 -1.2296  1.7368 -0.4318
 8379SOL     OW26577   1.918   2.393  10.949  0.7107  0.0378 -0.6277
 8379SOL    HW126578   1.908   2.397  10.854  0.9219  0.6329 -0.6305
 8379SOL    HW226579   1.981   2.323  10.964 -1.2840 -1.9059 -0.7619
 8380SOL     OW26580   1.851   3.099   9.910  0.2284 -0.2166  0.4369
 8380SOL    HW126581   1.845   3.033   9.841 -0.1498  0.7470 -0.4853
 8380SOL    HW226582   1.938   3.138   9.899  0.2985 -0.2928  0.7225
 8381SOL     OW26583   2.739   0.813  10.166  0.3394 -0.3538  0.1154
 8381SOL    HW126584   2.801   0.746  10.138  0.7467 -0.4017  1.0875
 8381SOL    HW226585   2.791   0.873  10.219 -0.1392  0.4327 -0.2856
 8382SOL     OW26586   1.267   3.230  10.030 -0.5072  0.1612 -0.5479
 8382SOL    HW126587   1.280   3.153  10.086 -1.4659  0.5779  0.2828
 8382SOL    HW226588   1.355   3.252   9.999  0.4317  1.0868  2.4160
 8383SOL     OW26589   4.033   3.528  10.804  0.2421 -0.3129 -0.1679
 8383SOL    HW126590   4.106   3.511  10.864  0.4940 -1.1686 -0.6924
 8383SOL    HW226591   4.070   3.513  10.717 -0.3567  0.0107 -0.4814
 8384SOL     OW26592   6.015   1.601   0.234  0.0347 -0.5124 -0.1021
 8384SOL    HW126593   5.974   1.522   0.200 -2.0703  0.3544  0.2611
 8384SOL    HW226594   6.105   1.596   0.204  0.5192 -3.9263  1.4211
 8385SOL     OW26595   0.902   1.680   8.732 -0.1447  0.0152  0.7873
 8385SOL    HW126596   0.994   1.683   8.707 -0.1705 -0.7789  0.5710
 8385SOL    HW226597   0.893   1.747   8.800  0.2382  1.2122 -0.3082
 8386SOL     OW26598   2.540   1.466  11.985 -0.1894  0.6986 -0.0019
 8386SOL    HW126599   2.491   1.385  11.999  2.0385 -0.7752 -0.1476
 8386SOL    HW226600   2.531   1.515  12.067 -1.0823  0.0258  0.3093
 8387SOL     OW26601   2.089   2.129  10.602  0.1459 -0.1176 -0.6372
 8387SOL    HW126602   2.095   2.033  10.606  0.4702 -0.2073 -2.4794
 8387SOL    HW226603   2.023   2.146  10.535  1.0168  0.9415 -1.2511
 8388SOL     OW26604   1.562   2.382  10.234  0.4690  0.1439 -0.1430
 8388SOL    HW126605   1.482   2.431  10.213  0.7430  0.0387 -1.4604
 8388SOL    HW226606   1.628   2.449  10.252  0.1810  0.2307  0.6497
 8389SOL     OW26607   3.603   1.288   8.777 -0.7884  0.3826 -0.6095
 8389SOL    HW126608   3.594   1.289   8.872  0.8546  1.1560 -0.4200
 8389SOL    HW226609   3.613   1.381   8.753  1.0135  0.0678 -1.2427
 8390SOL     OW26610   1.652   1.448   9.299 -0.3347  0.0039  0.2821
 8390SOL    HW126611   1.738   1.405   9.298 -0.5575 -0.4492 -0.0877
 8390SOL    HW226612   1.662   1.521   9.359  0.3869  0.1106  0.0423
 8391SOL     OW26613   0.862   2.453   8.205 -0.1223 -0.0864 -0.1324
 8391SOL    HW126614   0.840   2.498   8.123  0.4183  0.7167  0.1517
 8391SOL    HW226615   0.782   2.458   8.257  0.0733  0.9762  0.0830
 8392SOL     OW26616   3.258   2.514   8.293  0.1197  0.2440  0.7903
 8392SOL    HW126617   3.335   2.485   8.343  0.8384 -0.1683 -0.5173
 8392SOL    HW226618   3.256   2.609   8.307  0.0759  0.1013  1.8849
 8393SOL     OW26619   2.359   3.190   9.155 -0.1044 -0.1484 -0.1750
 8393SOL    HW126620   2.443   3.236   9.151 -0.6418  0.8691 -0.0622
 8393SOL    HW226621   2.300   3.252   9.197 -0.4578 -1.5759  1.5308
 8394SOL     OW26622   2.969   2.427   8.897 -0.0867 -0.0808  0.0197
 8394SOL    HW126623   2.926   2.341   8.898 -1.3871  0.5293 -0.7428
 8394SOL    HW226624   3.057   2.409   8.864 -1.3349 -0.7583 -3.3744
 8395SOL     OW26625   3.071   3.251   9.261  0.5695 -0.5496  0.1096
 8395SOL    HW126626   3.070   3.162   9.224  0.1681 -0.5344  0.0806
 8395SOL    HW226627   2.980   3.268   9.285  0.3196  0.4624 -1.3754
 8396SOL     OW26628   3.436   0.568   9.904 -0.2293 -0.5000 -0.0133
 8396SOL    HW126629   3.385   0.490   9.924  0.9710 -1.2433  0.2600
 8396SOL    HW226630   3.487   0.545   9.826 -0.9151  0.5221 -0.7984
 8397SOL     OW26631   1.339   3.569   9.415 -0.3592  0.3528 -0.2972
 8397SOL    HW126632   1.431   3.595   9.410 -0.4993  1.9415  2.9352
 8397SOL    HW226633   1.290   3.652   9.416 -1.6342 -0.3647  0.3321
 8398SOL     OW26634   1.489   4.752  10.931 -0.1443  0.2376 -0.1692
 8398SOL    HW126635   1.434   4.743  11.009 -4.5282 -2.3529 -3.1059
 8398SOL    HW226636   1.553   4.682  10.938  1.0012  1.4031  1.9628
 8399SOL     OW26637   1.385   1.405   8.950 -0.4363  0.2055  0.4001
 8399SOL    HW126638   1.477   1.402   8.977  0.1053  0.4012 -1.2816
 8399SOL    HW226639   1.366   1.498   8.939 -0.3824  0.1027 -0.6442
 8400SOL     OW26640   2.953   2.850  10.408  0.5322  0.2622 -0.4674
 8400SOL    HW126641   2.866   2.809  10.409  1.0090 -0.9578 -2.7664
 8400SOL    HW226642   2.995   2.818  10.488 -1.0301  0.7349  0.5929
 8401SOL     OW26643   4.519   1.931   9.816 -0.5496 -0.2442 -0.0080
 8401SOL    HW126644   4.596   1.952   9.764 -0.4449  1.6520  0.8192
 8401SOL    HW226645   4.492   1.844   9.786 -0.3923  0.6544 -3.0365
 8402SOL     OW26646   1.511   3.374   9.952 -0.2329  0.2963 -0.1743
 8402SOL    HW126647   1.520   3.444  10.017  1.9894  0.2761 -0.3669
 8402SOL    HW226648   1.521   3.418   9.867  0.8430 -0.1694 -0.3099
 8403SOL     OW26649   3.771   3.153   9.241  0.1837 -0.4518 -0.5417
 8403SOL    HW126650   3.681   3.132   9.216 -0.4054 -0.2575  1.2803
 8403SOL    HW226651   3.772   3.249   9.247  0.3422 -0.4841  0.0051
 8404SOL     OW26652   2.043   2.426   9.501 -0.3162 -0.1406 -0.2066
 8404SOL    HW126653   2.095   2.388   9.430  0.4112  0.6316 -0.1052
 8404SOL    HW226654   2.000   2.502   9.460 -0.5838 -0.2022 -0.0392
 8405SOL     OW26655   4.096   2.843   9.867 -0.3956 -0.3796 -0.0330
 8405SOL    HW126656   4.083   2.850   9.772  0.2261 -0.2594 -0.1148
 8405SOL    HW226657   4.073   2.929   9.901 -0.2773 -0.3153 -0.1157
 8406SOL     OW26658   4.788   0.877   9.756 -0.3372  0.2135 -0.3724
 8406SOL    HW126659   4.879   0.894   9.729 -0.6434  0.6879 -1.1341
 8406SOL    HW226660   4.744   0.961   9.746 -0.3760  0.5664  2.1348
 8407SOL     OW26661   4.295   1.929   9.139 -0.0687 -0.0483 -0.1706
 8407SOL    HW126662   4.327   1.894   9.056 -0.4432 -0.2867 -0.2171
 8407SOL    HW226663   4.257   1.853   9.184  1.9563 -0.3688  1.1214
 8408SOL     OW26664   3.376   1.975   8.919 -0.3857  0.1744 -0.0581
 8408SOL    HW126665   3.444   1.941   8.978 -1.6961 -2.3621  0.1462
 8408SOL    HW226666   3.297   1.977   8.973 -1.0046  0.6266 -0.9588
 8409SOL     OW26667   2.764   3.261   8.977  0.5470  0.5812  0.3425
 8409SOL    HW126668   2.693   3.280   8.916  0.1383 -1.1418  0.2286
 8409SOL    HW226669   2.721   3.260   9.063  0.6901  0.8618  0.4156
 8410SOL     OW26670   2.033   3.883  11.032 -0.3594 -0.2570  0.0381
 8410SOL    HW126671   1.975   3.884  11.107  0.8413  0.9015  0.9950
 8410SOL    HW226672   2.070   3.971  11.028 -0.1429 -0.3836 -1.7177
 8411SOL     OW26673   2.382   3.100  10.592 -0.0040 -0.7430  0.3768
 8411SOL    HW126674   2.358   3.145  10.511 -2.0845  0.5768  1.6494
 8411SOL    HW226675   2.462   3.146  10.621 -1.0523  0.9814  0.6906
 8412SOL     OW26676   2.982   3.960   9.852 -0.0806 -0.6216 -0.3344
 8412SOL    HW126677   3.026   4.045   9.860  0.1550 -0.8453  1.2010
 8412SOL    HW226678   3.039   3.909   9.795  0.2115 -0.0066 -0.6032
 8413SOL     OW26679   3.027   3.465  10.664  0.6969  0.2754  0.2050
 8413SOL    HW126680   3.075   3.421  10.594 -1.9700  1.3182 -2.4681
 8413SOL    HW226681   3.084   3.536  10.692  1.3166  0.6656 -1.9048
 8414SOL     OW26682   3.392   1.918  10.455 -0.0310  0.0343 -0.0672
 8414SOL    HW126683   3.439   1.940  10.374 -0.1171  1.7808  0.3177
 8414SOL    HW226684   3.422   1.982  10.519  0.2616 -1.5073  1.4083
 8415SOL     OW26685   1.867   2.470   9.879 -0.1103 -0.0557  0.7268
 8415SOL    HW126686   1.841   2.540   9.938  0.5190  0.9771 -0.1841
 8415SOL    HW226687   1.788   2.417   9.868 -0.4185  0.1293  1.9255
 8416SOL     OW26688   3.841   3.483   0.053 -0.4995 -0.0101 -0.0690
 8416SOL    HW126689   3.758   3.527   0.041 -0.5720 -0.5279 -1.8137
 8416SOL    HW226690   3.883   3.486  -0.033  0.6071 -1.0986  0.3852
 8417SOL     OW26691   3.764   1.620  10.075 -0.2684 -0.1264  0.3469
 8417SOL    HW126692   3.722   1.680  10.136 -0.3481  0.1529  0.0261
 8417SOL    HW226693   3.695   1.560  10.048  0.2566 -1.5939  2.1340
 8418SOL     OW26694   2.384   3.702  10.607 -0.3270  0.0065 -0.6718
 8418SOL    HW126695   2.455   3.640  10.591  0.5892  1.0178 -0.6690
 8418SOL    HW226696   2.310   3.668  10.557  0.5322 -0.4237 -1.6814
 8419SOL     OW26697   2.052   4.538  11.890 -0.3568  0.0154 -0.2935
 8419SOL    HW126698   2.100   4.514  11.970 -0.9395 -0.3529 -0.0450
 8419SOL    HW226699   2.038   4.633  11.898 -0.4124 -0.0195  0.0437
 8420SOL     OW26700   1.411   3.956  10.745  0.0379 -0.1103 -1.0489
 8420SOL    HW126701   1.395   3.933  10.836  0.8018 -1.8056 -1.3045
 8420SOL    HW226702   1.502   3.933  10.729  0.1928  1.0482 -1.9967
 8421SOL     OW26703   1.528   1.851   9.447 -0.0618 -0.4338  0.6207
 8421SOL    HW126704   1.543   1.945   9.456  1.5600 -0.4059 -1.4926
 8421SOL    HW226705   1.435   1.839   9.464 -0.5196  1.7169 -0.0530
 8422SOL     OW26706   2.430   2.716   8.069  0.5412  0.0628  0.3037
 8422SOL    HW126707   2.487   2.645   8.039 -1.4112 -1.7135  0.6393
 8422SOL    HW226708   2.344   2.676   8.080  0.3295  1.2494  5.1732
 8423SOL     OW26709   3.105   2.940   9.675 -0.9483  0.8231  0.6227
 8423SOL    HW126710   3.133   2.920   9.764  1.9959 -0.1730 -0.3710
 8423SOL    HW226711   3.159   3.015   9.650  0.5109 -0.7038 -1.1822
 8424SOL     OW26712   3.115   2.144  10.459  0.1248 -0.0123  0.1201
 8424SOL    HW126713   3.132   2.236  10.482  1.6690 -0.3433  0.4456
 8424SOL    HW226714   3.130   2.096  10.541 -0.7256 -0.5674 -0.0344
 8425SOL     OW26715   3.177   2.761   9.485 -0.2647  0.3932  0.5474
 8425SOL    HW126716   3.173   2.680   9.536  0.1342  0.0751  0.0835
 8425SOL    HW226717   3.130   2.825   9.538 -1.4098 -0.3728  0.4952
 8426SOL     OW26718   2.439   2.939  10.147 -0.2656 -0.5567  0.2786
 8426SOL    HW126719   2.452   2.846  10.131 -0.1109 -0.3198 -1.0438
 8426SOL    HW226720   2.526   2.972  10.170 -0.3513 -0.7559  0.9178
 8427SOL     OW26721   1.664   4.161  10.824 -0.0397 -0.2614  0.8775
 8427SOL    HW126722   1.688   4.134  10.735 -3.0207 -0.9232  0.1870
 8427SOL    HW226723   1.656   4.257  10.818 -0.4278 -0.3175  0.3538
 8428SOL     OW26724   5.659   3.889  11.108 -0.4163  0.2140 -0.2143
 8428SOL    HW126725   5.626   3.802  11.130  1.4108 -0.4749 -0.0832
 8428SOL    HW226726   5.684   3.883  11.016  0.5492  0.3158  0.0318
 8429SOL     OW26727   2.337   3.088  11.041  0.1115 -0.1565  0.3101
 8429SOL    HW126728   2.415   3.098  10.988  0.1652  0.7044  0.5286
 8429SOL    HW226729   2.305   3.000  11.022  0.3400 -0.0012 -0.8495
 8430SOL     OW26730   3.518   2.085  10.665  0.2402  0.3569  0.3926
 8430SOL    HW126731   3.609   2.115  10.666 -0.1972  2.0311  3.5968
 8430SOL    HW226732   3.466   2.165  10.658 -1.0145 -0.4712 -0.1580
 8431SOL     OW26733   3.300   1.792   8.428  0.5746  0.4765  0.0280
 8431SOL    HW126734   3.310   1.806   8.522 -1.8159 -0.6019  0.5174
 8431SOL    HW226735   3.299   1.697   8.418  0.2492  0.5749 -0.9969
 8432SOL     OW26736   2.856   1.459   9.902 -0.7266  0.0770  0.2212
 8432SOL    HW126737   2.920   1.527   9.925 -0.2353 -0.6457  1.0384
 8432SOL    HW226738   2.900   1.377   9.923 -1.2328 -0.5160 -0.9826
 8433SOL     OW26739   3.507   1.904   8.277 -0.3179 -0.6749  0.0211
 8433SOL    HW126740   3.515   1.846   8.201  0.5585 -2.7896  1.6405
 8433SOL    HW226741   3.441   1.863   8.332 -0.6824  0.6292  0.6034
 8434SOL     OW26742   3.824   0.884  10.458  0.0765 -0.3824 -0.3531
 8434SOL    HW126743   3.798   0.865  10.368 -0.5890  1.9791 -0.7121
 8434SOL    HW226744   3.774   0.962  10.481  0.6340 -0.6336  1.9027
 8435SOL     OW26745   0.539   2.917  10.766  0.1594  0.0369 -0.0816
 8435SOL    HW126746   0.619   2.910  10.818  0.6016 -1.6338 -0.9216
 8435SOL    HW226747   0.471   2.939  10.830  1.0233 -0.0067  0.8857
 8436SOL     OW26748   2.722   1.772   9.359 -0.4280  0.2640 -0.2301
 8436SOL    HW126749   2.761   1.725   9.285  1.4873  1.0605  0.2139
 8436SOL    HW226750   2.692   1.855   9.321  0.8018  0.7908 -0.1316
 8437SOL     OW26751   3.513   3.135  11.000 -0.0773 -0.2123  0.3154
 8437SOL    HW126752   3.437   3.175  10.958  0.3848  0.1210 -0.2207
 8437SOL    HW226753   3.528   3.186  11.079  0.8466  1.0648 -0.6418
 8438SOL     OW26754   2.472   1.270   9.199 -0.6571  0.1573 -0.0167
 8438SOL    HW126755   2.500   1.361   9.192  1.1674 -0.3464  0.2101
 8438SOL    HW226756   2.530   1.221   9.141 -1.5996 -0.8761 -0.1359
 8439SOL     OW26757   2.400   1.300   8.383  0.1878  0.1713 -0.0084
 8439SOL    HW126758   2.350   1.353   8.445 -0.3978  1.2289 -1.3379
 8439SOL    HW226759   2.490   1.304   8.415 -0.2856 -0.3963  1.4886
 8440SOL     OW26760   2.142   3.257  10.055  0.6164  0.4447  0.3783
 8440SOL    HW126761   2.202   3.304   9.997 -0.2796  0.2325 -0.7522
 8440SOL    HW226762   2.078   3.323  10.082  0.5038  0.3278  0.3978
 8441SOL     OW26763   2.136   3.274  10.392  0.0735  0.2756  0.2854
 8441SOL    HW126764   2.095   3.199  10.433 -0.0970  0.3978  0.3382
 8441SOL    HW226765   2.205   3.237  10.337  0.7550  0.1469  1.2017
 8442SOL     OW26766   3.791   3.755  10.103  0.1252  0.1294  0.1216
 8442SOL    HW126767   3.875   3.748  10.148  1.1003 -0.3848 -1.6901
 8442SOL    HW226768   3.783   3.674  10.052 -1.6214  0.0340  0.4762
 8443SOL     OW26769   3.431   2.958  10.224  0.1566 -0.1349 -0.2913
 8443SOL    HW126770   3.507   2.914  10.187  1.5419 -0.8742  3.0804
 8443SOL    HW226771   3.463   3.044  10.250 -0.6518  0.2261 -0.4493
 8444SOL     OW26772   2.043   1.526   7.186 -0.8609 -0.0631  0.1975
 8444SOL    HW126773   2.036   1.478   7.103  2.0120 -0.4267  0.0632
 8444SOL    HW226774   2.102   1.472   7.239  1.5586  2.6275  0.4911
 8445SOL     OW26775   3.885   2.282   7.843  0.5638 -0.5449  0.3099
 8445SOL    HW126776   3.936   2.254   7.919  1.0588  0.7591  0.4864
 8445SOL    HW226777   3.855   2.370   7.866  0.8224 -0.0862 -1.0376
 8446SOL     OW26778   3.818   2.569   7.935  0.5955  0.0435 -0.4219
 8446SOL    HW126779   3.821   2.657   7.975  1.6070 -0.7911  1.5091
 8446SOL    HW226780   3.749   2.524   7.983  0.5269 -0.4233 -0.9572
 8447SOL     OW26781   2.512   3.953  10.496  0.2538 -0.3521 -0.4789
 8447SOL    HW126782   2.476   3.868  10.519 -2.0364  0.5706 -0.3984
 8447SOL    HW226783   2.604   3.949  10.523  0.7250 -3.3981 -2.1774
 8448SOL     OW26784   2.476   2.430   9.970  0.0338  0.9884  0.3630
 8448SOL    HW126785   2.510   2.429   9.881 -0.6341  0.3736  0.1032
 8448SOL    HW226786   2.510   2.350  10.010 -2.0019 -0.2771 -0.2759
 8449SOL     OW26787   3.565   4.052  11.096  0.1018 -0.5060  0.1968
 8449SOL    HW126788   3.567   4.127  11.038  0.6357 -1.2567 -0.7893
 8449SOL    HW226789   3.651   4.012  11.088 -0.9567 -2.7408 -1.4137
 8450SOL     OW26790   2.694   2.901  11.265 -0.9804 -0.0141 -0.0350
 8450SOL    HW126791   2.786   2.875  11.252 -0.6394  0.7677  0.6955
 8450SOL    HW226792   2.690   2.992  11.234 -2.1282 -0.8091 -2.4590
 8451SOL     OW26793   2.720   3.272   8.340 -0.1106 -0.5097 -0.0253
 8451SOL    HW126794   2.706   3.243   8.431  3.6083  0.6592  1.1086
 8451SOL    HW226795   2.794   3.220   8.310 -0.6166 -0.1207 -2.0449
 8452SOL     OW26796   2.390   4.002  11.244 -0.2356  0.8313  1.1115
 8452SOL    HW126797   2.399   4.018  11.150  0.2409  0.3321  1.0648
 8452SOL    HW226798   2.335   4.073  11.275  0.5189  1.6517  0.6384
 8453SOL     OW26799   2.679   4.455  10.170  0.3465  0.1771 -0.2316
 8453SOL    HW126800   2.719   4.398  10.236  0.8401  0.3519 -0.3803
 8453SOL    HW226801   2.602   4.406  10.140  0.9513 -0.5602 -0.5965
 8454SOL     OW26802   1.458   3.898  11.012 -0.5889  0.1023  0.2294
 8454SOL    HW126803   1.420   3.907  11.099  0.7660  1.1522  0.7384
 8454SOL    HW226804   1.529   3.834  11.024 -2.3801 -2.2623 -0.8220
 8455SOL     OW26805   1.428   3.500  11.060  0.3747  0.3865  0.9373
 8455SOL    HW126806   1.393   3.442  10.992  1.3347 -1.9402  2.3104
 8455SOL    HW226807   1.351   3.535  11.104 -0.2375  0.7853 -0.4012
 8456SOL     OW26808   0.450   3.455   9.811  0.6105  0.2400  0.5013
 8456SOL    HW126809   0.406   3.389   9.865  1.4277 -0.5487  0.2402
 8456SOL    HW226810   0.471   3.408   9.730  3.5489  0.0035  1.2982
 8457SOL     OW26811   4.078   4.400  11.728 -0.3965  0.3988 -0.3805
 8457SOL    HW126812   4.150   4.392  11.791 -0.5718  0.7922 -0.1288
 8457SOL    HW226813   3.999   4.378  11.778 -0.4615 -0.0084 -0.6490
 8458SOL     OW26814   1.553   2.125   9.479  0.5652  0.2114 -0.6032
 8458SOL    HW126815   1.474   2.171   9.452  0.7155  0.6084 -0.3740
 8458SOL    HW226816   1.565   2.149   9.571  0.4994 -0.4997 -0.3958
 8459SOL     OW26817   3.321   3.982  11.016  0.6416  0.3101 -0.4515
 8459SOL    HW126818   3.350   3.965  10.926 -1.4503  1.9642 -1.5449
 8459SOL    HW226819   3.388   4.039  11.053  1.3844 -0.1551 -1.0648
 8460SOL     OW26820   1.257   5.697   9.288 -0.2326 -0.0844  0.6919
 8460SOL    HW126821   1.203   5.721   9.213 -0.1022  0.6801  0.8358
 8460SOL    HW226822   1.284   5.780   9.326  0.5722 -0.4595  0.9686
 8461SOL     OW26823   2.885   1.915   9.814 -0.0101 -0.5993 -0.0532
 8461SOL    HW126824   2.842   1.912   9.729  0.0648 -1.0295 -0.0788
 8461SOL    HW226825   2.967   1.867   9.802  0.3368 -0.0477  0.0782
 8462SOL     OW26826   2.771   3.781  11.597  0.4491 -0.0890 -0.0299
 8462SOL    HW126827   2.865   3.763  11.594  0.4469 -0.4980  1.5517
 8462SOL    HW226828   2.731   3.699  11.625 -0.2947  0.3412  0.2086
 8463SOL     OW26829   2.518   0.665   8.527 -0.4867 -0.0791 -0.1919
 8463SOL    HW126830   2.581   0.695   8.593  0.1930  1.7539 -1.5885
 8463SOL    HW226831   2.446   0.728   8.533 -0.3293  0.2145 -1.2973
 8464SOL     OW26832   2.555   3.526  10.487  0.2528  0.2498 -0.4688
 8464SOL    HW126833   2.556   3.444  10.537  1.2764  0.4643 -0.1285
 8464SOL    HW226834   2.637   3.569  10.508 -0.3935  1.5172 -0.4270
 8465SOL     OW26835   1.597   1.900  10.369  0.0029  0.1190  0.1142
 8465SOL    HW126836   1.684   1.938  10.377  1.1814 -2.1664 -1.0962
 8465SOL    HW226837   1.587   1.845  10.447  1.2646 -2.5281 -1.4560
 8466SOL     OW26838   3.295   3.133   9.423 -0.1406 -0.1288 -0.1836
 8466SOL    HW126839   3.216   3.150   9.371  0.0712  1.5038 -0.0162
 8466SOL    HW226840   3.366   3.134   9.359 -0.2701 -2.2364 -0.4331
 8467SOL     OW26841   2.944   3.226   9.711 -0.5671  0.2099  0.1302
 8467SOL    HW126842   3.039   3.231   9.704 -0.6753  1.1354 -0.8560
 8467SOL    HW226843   2.912   3.293   9.651 -1.8147  1.2449  1.8795
 8468SOL     OW26844   2.140   2.980  10.163 -0.1729  0.1022 -0.4169
 8468SOL    HW126845   2.227   2.944  10.146 -0.9398 -1.5370 -0.9945
 8468SOL    HW226846   2.143   3.068  10.124  1.2535  0.1362 -0.3027
 8469SOL     OW26847   2.416   1.656   9.457  0.5675  0.8902 -0.1214
 8469SOL    HW126848   2.329   1.685   9.486  1.1488  2.2725  0.3035
 8469SOL    HW226849   2.426   1.692   9.370  1.2652  1.9409  0.3783
 8470SOL     OW26850   1.835   3.392  12.362 -0.4865  0.5025  0.2639
 8470SOL    HW126851   1.853   3.450  12.437 -3.9134  0.6103  1.1737
 8470SOL    HW226852   1.841   3.449  12.286  2.6331  0.4921  0.3964
 8471SOL     OW26853   3.513   1.276  10.610  0.1393  0.1486  0.1813
 8471SOL    HW126854   3.506   1.307  10.700  0.2309  0.2625  0.1506
 8471SOL    HW226855   3.449   1.328  10.561 -0.0118 -0.0148  0.2074
 8472SOL     OW26856   1.021   2.483   9.902 -0.0259  0.1377 -0.4605
 8472SOL    HW126857   0.986   2.500   9.814  0.2992 -0.6339 -0.7389
 8472SOL    HW226858   1.116   2.479   9.890  0.2708  2.5859  0.3542
 8473SOL     OW26859   3.117   3.006   9.166 -0.0925  0.4246 -0.0773
 8473SOL    HW126860   3.058   2.938   9.133 -0.7195  0.5189  0.7967
 8473SOL    HW226861   3.174   3.026   9.092 -0.7787 -0.0846 -0.7702
 8474SOL     OW26862   1.101   2.809  10.001 -0.1321  0.2114  0.2978
 8474SOL    HW126863   1.186   2.819   9.959  0.1393  0.4289  0.8905
 8474SOL    HW226864   1.110   2.731  10.056 -0.6163 -0.3181 -0.3493
 8475SOL     OW26865   3.020   4.051   8.720  0.1161  0.1584 -0.8680
 8475SOL    HW126866   2.980   4.128   8.760 -1.8599 -0.6811 -1.1041
 8475SOL    HW226867   3.001   4.060   8.627  2.6691  0.9350 -1.3878
 8476SOL     OW26868   1.672   4.822  10.559  0.0252 -0.3216  0.2073
 8476SOL    HW126869   1.616   4.896  10.585  0.9939  0.8843 -1.0121
 8476SOL    HW226870   1.611   4.756  10.527 -0.7466  0.9598 -1.0793
 8477SOL     OW26871   3.901   3.211  11.772 -0.2747 -0.2713 -0.4372
 8477SOL    HW126872   3.958   3.167  11.709 -0.4460  0.4532 -1.1085
 8477SOL    HW226873   3.937   3.299  11.780  1.4071 -1.1009  2.5731
 8478SOL     OW26874   0.090   2.653   9.963  0.1666 -0.2811  0.2219
 8478SOL    HW126875   0.011   2.707   9.970 -0.2449 -0.8801  0.2409
 8478SOL    HW226876   0.143   2.696   9.896 -0.6909 -0.5095 -0.6195
 8479SOL     OW26877   3.261   3.507   8.642  0.2043 -0.1335  0.8118
 8479SOL    HW126878   3.326   3.533   8.577  2.7931 -1.5449  2.6471
 8479SOL    HW226879   3.228   3.423   8.611 -1.1818  0.7833 -0.3443
 8480SOL     OW26880   1.400   5.607  11.860  0.1403  0.0532 -0.2164
 8480SOL    HW126881   1.421   5.573  11.773  2.3058  0.6020  0.0180
 8480SOL    HW226882   1.411   5.702  11.852  0.3866  0.1099  0.6336
 8481SOL     OW26883   2.971   2.788   9.059  0.0339  0.7256  0.1299
 8481SOL    HW126884   3.017   2.740   8.990 -0.0752  1.2563 -0.3170
 8481SOL    HW226885   2.980   2.733   9.136  2.5445  1.4043  0.3959
 8482SOL     OW26886   2.617   4.671  11.298 -0.3025 -0.8560 -0.0926
 8482SOL    HW126887   2.526   4.658  11.271 -1.0297  0.3946  1.6152
 8482SOL    HW226888   2.613   4.739  11.365  1.9095 -0.7579  0.0076
 8483SOL     OW26889   3.909   4.104  10.600  1.3017  0.1347 -0.2988
 8483SOL    HW126890   3.849   4.172  10.569  0.9137  0.3227  0.8303
 8483SOL    HW226891   3.852   4.032  10.628  1.6552 -0.1035 -0.1833
 8484SOL     OW26892   3.537   3.455  11.762  0.7029  0.2343  0.5986
 8484SOL    HW126893   3.598   3.406  11.707 -0.0137  0.7766 -0.7310
 8484SOL    HW226894   3.593   3.515  11.812  1.2837  0.5706 -0.4305
 8485SOL     OW26895   3.140   2.421  10.597 -0.0778 -0.0664 -0.6566
 8485SOL    HW126896   3.231   2.410  10.622 -0.7851 -0.2010  2.2110
 8485SOL    HW226897   3.142   2.486  10.527  2.1456  0.4016 -0.2299
 8486SOL     OW26898   0.576   4.740   8.190  0.0357 -0.3522  0.2898
 8486SOL    HW126899   0.505   4.677   8.200  0.2022 -0.4940  0.5929
 8486SOL    HW226900   0.533   4.824   8.181 -0.2127 -0.5807 -0.7516
 8487SOL     OW26901   4.382   2.897   9.974  0.5398 -0.6199 -0.4649
 8487SOL    HW126902   4.420   2.924   9.890 -1.3053  0.6210 -0.9689
 8487SOL    HW226903   4.349   2.809   9.958  1.8528 -1.1298 -0.4531
 8488SOL     OW26904   2.962   4.664   9.349 -0.2384 -0.1604  0.4965
 8488SOL    HW126905   2.891   4.624   9.399 -0.4889  0.1664  0.4016
 8488SOL    HW226906   3.033   4.600   9.354 -1.4794 -1.8765 -1.8366
 8489SOL     OW26907   1.835   1.865  10.501 -0.4670  0.1435 -0.4619
 8489SOL    HW126908   1.787   1.825  10.573 -0.2604  0.0060 -0.4018
 8489SOL    HW226909   1.927   1.860  10.526 -0.4445  0.7349 -0.4158
 8490SOL     OW26910   2.499   4.333  11.944 -0.3960 -0.2782  0.0344
 8490SOL    HW126911   2.550   4.415  11.947  1.4309 -1.3668  0.2183
 8490SOL    HW226912   2.451   4.338  11.861  1.2210  0.1381 -0.9279
 8491SOL     OW26913   1.593   2.377   9.784 -0.0634  0.3699 -0.0139
 8491SOL    HW126914   1.587   2.290   9.745 -0.4016  1.0053 -1.4575
 8491SOL    HW226915   1.577   2.437   9.711 -0.7038  1.6274  1.1143
 8492SOL     OW26916   2.872   2.118  10.057  0.0916 -0.2075 -0.0922
 8492SOL    HW126917   2.909   2.060   9.990 -1.6502 -0.6580 -0.7322
 8492SOL    HW226918   2.891   2.206  10.027  2.9710 -0.3432  0.9951
 8493SOL     OW26919   2.100   1.260   9.221  0.1213 -0.8546  0.2619
 8493SOL    HW126920   2.163   1.198   9.256  0.1600 -0.8796  0.1483
 8493SOL    HW226921   2.153   1.335   9.191  0.5198 -2.2562 -3.0020
 8494SOL     OW26922   2.313   2.972   9.778 -0.0193  0.1918  0.2521
 8494SOL    HW126923   2.336   2.881   9.792 -0.3256 -0.0375 -0.6394
 8494SOL    HW226924   2.391   3.011   9.738 -0.4708 -0.1260 -1.0040
 8495SOL     OW26925   2.304   2.157  10.100  0.0835  0.0556 -0.2264
 8495SOL    HW126926   2.246   2.189  10.170 -1.1424 -2.3136 -0.0841
 8495SOL    HW226927   2.254   2.169  10.020  0.3513  0.1296 -0.3846
 8496SOL     OW26928   3.331   5.068  10.255  0.1226  0.0581  0.1345
 8496SOL    HW126929   3.392   5.142  10.246  0.3066  0.0745  1.3326
 8496SOL    HW226930   3.293   5.058  10.168  1.0658  0.7225 -0.3800
 8497SOL     OW26931   3.259   1.926  10.968 -0.6045  0.0988  0.0094
 8497SOL    HW126932   3.246   1.855  10.905  0.0826  0.2739 -0.3391
 8497SOL    HW226933   3.208   1.899  11.045  0.2243 -1.1462  0.1557
 8498SOL     OW26934   1.277   4.663  10.782 -0.0413 -0.5379 -0.2109
 8498SOL    HW126935   1.340   4.714  10.833 -1.3337  1.5351 -0.5313
 8498SOL    HW226936   1.209   4.640  10.845  0.0024 -0.9359 -0.3073
 8499SOL     OW26937   2.523   3.789   9.549  0.6860  0.0235  0.2411
 8499SOL    HW126938   2.619   3.791   9.557  0.7969 -0.5475 -0.8156
 8499SOL    HW226939   2.499   3.699   9.572  0.4268  0.0985  0.2659
 8500SOL     OW26940   2.102   2.681  10.426  0.0716  0.0931 -0.0883
 8500SOL    HW126941   2.065   2.605  10.473  0.5893 -0.7247 -0.9708
 8500SOL    HW226942   2.193   2.684  10.455  0.2193 -0.0188 -0.5310
 8501SOL     OW26943   1.497   4.003   9.493 -0.2202  0.4771 -0.1666
 8501SOL    HW126944   1.465   3.914   9.480  0.3531  0.3112 -0.4707
 8501SOL    HW226945   1.419   4.058   9.484 -0.3285  0.1320 -1.4979
 8502SOL     OW26946   3.467   4.392  11.156  0.2108 -0.0241  0.0502
 8502SOL    HW126947   3.505   4.368  11.072  0.0093  0.1994 -0.1048
 8502SOL    HW226948   3.398   4.455  11.135  1.9069  2.1135  0.5847
 8503SOL     OW26949   3.709   3.340  12.097 -0.2509 -0.2661  0.7868
 8503SOL    HW126950   3.622   3.317  12.129 -1.2273 -1.0088 -2.1084
 8503SOL    HW226951   3.695   3.418  12.042  0.6901 -1.0064 -0.5616
 8504SOL     OW26952   2.908   3.469   8.649 -0.2650  0.4484 -0.0806
 8504SOL    HW126953   2.912   3.490   8.742 -2.1085 -1.9141  0.6551
 8504SOL    HW226954   2.967   3.393   8.639 -0.2844  0.5168 -0.7898
 8505SOL     OW26955   1.798   3.496   8.680  0.1187  0.5451  0.1132
 8505SOL    HW126956   1.829   3.575   8.636 -1.4016  0.8815 -0.4119
 8505SOL    HW226957   1.703   3.504   8.681  0.0290 -0.1792  2.1686
 8506SOL     OW26958   2.300   1.880  11.280  0.4368 -0.5751  0.5975
 8506SOL    HW126959   2.233   1.947  11.296  1.0638 -0.3058  2.3383
 8506SOL    HW226960   2.364   1.924  11.224 -0.8508 -0.8742 -1.1890
 8507SOL     OW26961   3.243   2.149   8.349  0.3253 -0.3011 -0.0515
 8507SOL    HW126962   3.239   2.133   8.255 -0.2692 -3.9635  0.4719
 8507SOL    HW226963   3.336   2.165   8.367  0.2091  2.4619 -1.4157
 8508SOL     OW26964   4.491   2.459  10.918  0.0580  0.4155  0.1944
 8508SOL    HW126965   4.548   2.521  10.962 -0.6983  0.1602  1.5850
 8508SOL    HW226966   4.402   2.490  10.936 -0.3613 -1.2861  1.3278
 8509SOL     OW26967   2.212   2.238  10.337  0.2014  0.0721  0.2187
 8509SOL    HW126968   2.172   2.223  10.423  0.6460  1.3561  0.6723
 8509SOL    HW226969   2.305   2.217  10.349  0.0675 -0.8712 -0.2758
 8510SOL     OW26970   2.565   4.093   9.028 -0.5414 -0.0265  0.0062
 8510SOL    HW126971   2.561   4.071   8.935 -0.3007 -0.2154  0.0426
 8510SOL    HW226972   2.514   4.025   9.071  1.4032 -1.3927  0.2766
 8511SOL     OW26973   1.530   4.271   0.048  0.0808  0.5276  0.2564
 8511SOL    HW126974   1.504   4.221   0.125  1.3330 -0.7596 -0.1134
 8511SOL    HW226975   1.625   4.257   0.041 -0.1849 -0.4732 -2.2452
 8512SOL     OW26976   3.160   2.825   9.932 -0.0815 -0.3277  0.2649
 8512SOL    HW126977   3.201   2.910   9.946 -1.0981  0.4517 -1.2706
 8512SOL    HW226978   3.229   2.762   9.953  2.4675  0.9091 -3.3769
 8513SOL     OW26979   0.624   1.258  10.211 -0.0181  0.4163 -0.0786
 8513SOL    HW126980   0.624   1.250  10.116 -1.0877  0.2822 -0.0826
 8513SOL    HW226981   0.534   1.239  10.237  0.3103  0.2077  0.9873
 8514SOL     OW26982   2.724   4.381  10.711  0.0450 -0.3156  0.0425
 8514SOL    HW126983   2.730   4.310  10.775  0.2336 -0.5870 -0.2736
 8514SOL    HW226984   2.657   4.352  10.649  0.6011 -0.5373 -0.4755
 8515SOL     OW26985   1.410   2.122   8.692 -0.1127  0.5173 -0.4585
 8515SOL    HW126986   1.339   2.147   8.752  0.4222 -0.3820  0.5934
 8515SOL    HW226987   1.485   2.172   8.723  0.3409 -0.4643  0.1053
 8516SOL     OW26988   0.801   3.585  10.296  0.1037  0.0523 -0.4737
 8516SOL    HW126989   0.843   3.561  10.378 -1.9715  0.5653  0.8169
 8516SOL    HW226990   0.819   3.679  10.286  1.2002 -0.2161 -1.1621
 8517SOL     OW26991   2.789   2.228   9.733 -0.4041  0.0706 -0.3893
 8517SOL    HW126992   2.838   2.163   9.683 -0.6549  0.5479 -1.2810
 8517SOL    HW226993   2.840   2.241   9.813 -1.1805 -2.4299  0.6347
 8518SOL     OW26994   1.597   3.649   9.441 -0.4522  0.3181 -0.7593
 8518SOL    HW126995   1.687   3.680   9.434 -0.5285  0.6413 -0.3791
 8518SOL    HW226996   1.583   3.637   9.535 -0.7606  0.1325 -0.8272
 8519SOL     OW26997   2.656   3.177   9.230  0.4989  0.4532  0.5237
 8519SOL    HW126998   2.583   3.139   9.279 -0.0997 -0.0558 -0.7140
 8519SOL    HW226999   2.687   3.105   9.175  0.5970  1.2148 -0.4496
 8520SOL     OW27000   4.364   4.134  10.655 -0.0289 -0.4526 -0.4171
 8520SOL    HW127001   4.429   4.189  10.610 -0.1333 -1.1786 -1.4701
 8520SOL    HW227002   4.382   4.149  10.748  1.3390 -0.2706 -0.6842
 8521SOL     OW27003   1.991   0.672  10.024 -0.2057  0.1966 -0.2004
 8521SOL    HW127004   2.027   0.739   9.966  2.3726 -0.6895  0.2713
 8521SOL    HW227005   1.954   0.720  10.098  0.8144  1.1302 -0.2860
 8522SOL     OW27006   2.154   2.215  11.001  0.1353 -0.1564  0.3479
 8522SOL    HW127007   2.176   2.140  10.947  2.1688  0.5604  0.1118
 8522SOL    HW227008   2.208   2.287  10.967 -3.0986  1.9957 -0.7090
 8523SOL     OW27009   4.508   3.668  11.635  0.8290  0.8549 -0.4798
 8523SOL    HW127010   4.550   3.748  11.666  1.2033  0.4401  0.0954
 8523SOL    HW227011   4.506   3.677  11.540 -0.7954  2.3820 -0.3642
 8524SOL     OW27012   1.155   2.044  10.147  0.1847  0.5852  0.0847
 8524SOL    HW127013   1.208   2.124  10.153  0.6130  0.3734 -0.7873
 8524SOL    HW227014   1.157   2.021  10.055 -2.3595  1.1688 -0.1801
 8525SOL     OW27015   2.654   2.449   8.827  0.6205  0.7157 -0.2715
 8525SOL    HW127016   2.750   2.450   8.819  0.6367  0.2788 -0.1351
 8525SOL    HW227017   2.625   2.397   8.752  0.5937 -0.6873  0.6894
 8526SOL     OW27018   1.416   2.069   9.893  0.2954  0.1006 -0.1285
 8526SOL    HW127019   1.382   2.091   9.806  1.1060  1.2669 -0.1767
 8526SOL    HW227020   1.469   2.145   9.917 -1.5435  0.7481  2.2776
 8527SOL     OW27021   1.923   1.189  11.222  0.0975 -0.2661 -0.0521
 8527SOL    HW127022   1.867   1.118  11.189  1.4972 -0.5552 -2.0227
 8527SOL    HW227023   1.925   1.252  11.150  2.6992 -0.5416 -0.2994
 8528SOL     OW27024   0.825   0.570  12.223  0.3997 -0.2831  0.0459
 8528SOL    HW127025   0.733   0.543  12.221  0.3652 -0.1527 -0.1474
 8528SOL    HW227026   0.857   0.539  12.308 -0.8367  3.0645  1.9204
 8529SOL     OW27027   2.274   3.685   1.378  0.4123  0.1455 -0.2167
 8529SOL    HW127028   2.216   3.707   1.305  1.4318 -0.6965 -1.3265
 8529SOL    HW227029   2.268   3.590   1.385 -1.0181  0.3245  2.0032
 8530SOL     OW27030   4.134   2.121  11.881 -0.7735 -0.2121 -0.1676
 8530SOL    HW127031   4.062   2.177  11.852 -0.9187 -0.0773  0.4542
 8530SOL    HW227032   4.097   2.033  11.883 -0.8484 -0.1781 -0.0883
 8531SOL     OW27033   3.170   2.757   0.696  0.4572 -0.1518  0.3236
 8531SOL    HW127034   3.088   2.717   0.664  0.9631 -3.6275  2.7449
 8531SOL    HW227035   3.141   2.831   0.750 -0.6654  1.9494 -2.9133
 8532SOL     OW27036   3.870   2.193  12.204  0.3783 -0.4370  0.4634
 8532SOL    HW127037   3.777   2.209  12.215  0.1317 -0.9541 -0.6742
 8532SOL    HW227038   3.898   2.258  12.139 -0.3310 -3.3273 -3.0935
 8533SOL     OW27039   2.311   2.005   0.638  0.7342 -0.0648  0.6776
 8533SOL    HW127040   2.299   2.043   0.725  0.0626  1.7084 -0.1546
 8533SOL    HW227041   2.402   2.025   0.615  0.7177  0.0452  0.7079
 8534SOL     OW27042   2.274   2.859  10.902 -0.4315 -0.0863 -0.2428
 8534SOL    HW127043   2.362   2.853  10.867 -0.7880  1.9391 -1.6574
 8534SOL    HW227044   2.228   2.784  10.864  0.0379  0.2723 -1.5744
 8535SOL     OW27045   0.860   3.010   0.262 -0.0625 -0.2698 -0.1093
 8535SOL    HW127046   0.767   3.011   0.243 -0.1891 -0.2795  0.5112
 8535SOL    HW227047   0.892   3.095   0.230 -0.3160 -0.1877 -0.1459
 8536SOL     OW27048   4.077   3.107  11.610  0.5963  0.4215 -0.2262
 8536SOL    HW127049   4.074   3.042  11.539 -0.4244  0.4654 -0.2370
 8536SOL    HW227050   4.167   3.140  11.609  0.6059  0.3917 -1.4799
 8537SOL     OW27051   2.222   5.107  11.343  0.3868  0.4474 -0.0676
 8537SOL    HW127052   2.172   5.025  11.350 -0.1244  0.6812 -0.8221
 8537SOL    HW227053   2.313   5.080  11.352  0.1331  0.0554  1.6861
 8538SOL     OW27054   2.398   3.470  10.807  0.4266 -0.1391 -0.2274
 8538SOL    HW127055   2.463   3.416  10.762  0.1989 -0.5201 -0.1095
 8538SOL    HW227056   2.449   3.537  10.851  0.8169 -0.8697  0.4721
 8539SOL     OW27057   3.645   3.074  11.987  0.1392  0.2641  0.1752
 8539SOL    HW127058   3.639   3.140  12.056 -3.7896 -0.2837  0.5890
 8539SOL    HW227059   3.627   3.122  11.906 -0.3878  0.1124  0.1965
 8540SOL     OW27060   2.091   2.972  12.169  0.0221  0.3124 -0.2645
 8540SOL    HW127061   2.179   2.936  12.175 -1.0537 -2.7272 -0.9272
 8540SOL    HW227062   2.062   2.980  12.260 -0.4318 -2.7340 -0.0448
 8541SOL     OW27063   2.692   3.208  11.173  0.0379  0.6875 -0.1066
 8541SOL    HW127064   2.680   3.303  11.163 -1.8542  0.5563  0.6140
 8541SOL    HW227065   2.626   3.169  11.117  2.3136 -0.3204 -2.2861
 8542SOL     OW27066   3.018   3.955  10.199 -0.1927  0.2286  0.2896
 8542SOL    HW127067   3.105   3.975  10.232  0.6602 -0.7984 -1.1936
 8542SOL    HW227068   3.020   3.983  10.107 -1.4248  0.1993  0.2305
 8543SOL     OW27069   1.696   4.258  11.755 -0.1973  0.7779  0.0217
 8543SOL    HW127070   1.696   4.239  11.849 -0.9296 -0.3652 -0.1900
 8543SOL    HW227071   1.705   4.353  11.750  0.0928  0.8356  1.2405
 8544SOL     OW27072   4.982   2.222  10.558 -0.1704  0.3830 -0.0297
 8544SOL    HW127073   4.948   2.178  10.480  0.3291  1.2897 -0.7876
 8544SOL    HW227074   5.059   2.171  10.584 -0.1519  0.2575 -0.3337
 8545SOL     OW27075   4.203   3.554   0.050  0.8931 -0.0917  0.1382
 8545SOL    HW127076   4.171   3.622   0.108 -0.9449 -1.8989  1.3672
 8545SOL    HW227077   4.174   3.581  -0.037  1.4337  1.3576  0.3742
 8546SOL     OW27078   3.026   3.015   1.515 -0.1149 -0.1319 -0.2101
 8546SOL    HW127079   2.992   3.043   1.600  1.2009  3.0275 -0.5766
 8546SOL    HW227080   3.093   2.950   1.537 -0.6719 -0.3038  1.0771
 8547SOL     OW27081   3.691   1.688  10.987 -0.3718 -0.4745  0.2768
 8547SOL    HW127082   3.714   1.599  10.962 -1.2077 -1.1854  1.8999
 8547SOL    HW227083   3.754   1.711  11.056  0.7132  0.7457 -1.0501
 8548SOL     OW27084   0.815   1.733  10.590 -0.0278 -0.0576 -0.1106
 8548SOL    HW127085   0.910   1.727  10.574  0.2378  3.2578 -0.4695
 8548SOL    HW227086   0.779   1.764  10.506 -1.0525  0.9400  0.6687
 8549SOL     OW27087   3.554   1.885  11.366  0.8112 -0.8426  0.0269
 8549SOL    HW127088   3.512   1.959  11.410 -0.3032 -3.0906  3.0697
 8549SOL    HW227089   3.567   1.916  11.276 -1.2792  2.3610  0.6403
 8550SOL     OW27090   5.828   3.366  12.112  0.1680 -0.1723  0.4725
 8550SOL    HW127091   5.748   3.419  12.102 -0.5453 -1.2684  0.1685
 8550SOL    HW227092   5.804   3.299  12.175  0.5739 -1.0384 -0.2755
 8551SOL     OW27093   3.495   3.775  12.179 -0.0729  0.5415  0.1082
 8551SOL    HW127094   3.433   3.808  12.114 -2.5447 -1.3698  1.3294
 8551SOL    HW227095   3.533   3.854  12.219 -1.8005  1.8088 -0.6446
 8552SOL     OW27096   4.017   1.149   9.636  0.6718 -0.3236  0.5632
 8552SOL    HW127097   4.016   1.169   9.542  1.0775 -0.0612  0.6090
 8552SOL    HW227098   4.045   1.058   9.641 -0.1586 -0.5966  0.3953
 8553SOL     OW27099   5.440   2.210  11.620 -0.3264  0.0663  0.2508
 8553SOL    HW127100   5.480   2.176  11.540 -1.0869  0.7720 -0.4520
 8553SOL    HW227101   5.365   2.153  11.635 -1.1337  0.8976 -0.4785
 8554SOL     OW27102   4.014   3.447  11.755  0.2323 -0.4641 -0.3574
 8554SOL    HW127103   4.104   3.432  11.727 -0.0717 -1.5423 -0.8059
 8554SOL    HW227104   4.022   3.511  11.826  1.6397 -2.4635  1.4533
 8555SOL     OW27105   2.313   2.581   0.569 -0.3764 -0.4230  0.0107
 8555SOL    HW127106   2.232   2.631   0.562 -0.0194  0.0495 -0.9182
 8555SOL    HW227107   2.285   2.495   0.600 -1.3198 -0.4601 -0.8889
 8556SOL     OW27108   2.672   3.098   0.254 -0.2596 -0.2768  0.4686
 8556SOL    HW127109   2.591   3.117   0.206  0.3012  1.2992  0.0580
 8556SOL    HW227110   2.739   3.148   0.207  0.6878 -0.3620  1.6822
 8557SOL     OW27111   2.724   3.477  11.116  0.3691  0.1477 -0.1669
 8557SOL    HW127112   2.741   3.502  11.026  1.2483 -0.2046 -0.1064
 8557SOL    HW227113   2.683   3.554  11.156 -1.3710 -0.1733 -1.2257
 8558SOL     OW27114   4.640   2.973   0.868 -0.1685  0.0482  0.1917
 8558SOL    HW127115   4.659   2.906   0.802 -1.2020  0.2954 -0.3762
 8558SOL    HW227116   4.654   2.929   0.951 -0.4989 -0.7866 -0.1798
 8559SOL     OW27117   4.483   3.210  12.257  0.5044  0.1311  0.4543
 8559SOL    HW127118   4.535   3.280  12.295 -0.1477  0.0126  1.6043
 8559SOL    HW227119   4.393   3.243  12.259  0.3147 -0.3545  0.1190
 8560SOL     OW27120   2.689   3.167  11.455  0.5666 -0.3824  0.1380
 8560SOL    HW127121   2.661   3.201  11.370  1.4988  0.0502 -0.0167
 8560SOL    HW227122   2.614   3.118  11.488 -0.1879  0.3531 -0.4497
 8561SOL     OW27123   3.533   4.254   9.760 -0.2465 -0.2524  0.3354
 8561SOL    HW127124   3.464   4.208   9.808  0.9818 -0.5501  1.9011
 8561SOL    HW227125   3.539   4.339   9.803  0.6831 -0.4153  0.5386
 8562SOL     OW27126   1.493   2.476  12.158  0.0225  0.2367 -0.0672
 8562SOL    HW127127   1.448   2.559  12.144 -1.4906 -0.7140 -1.1069
 8562SOL    HW227128   1.433   2.409  12.123  1.4651 -1.2451  0.1493
 8563SOL     OW27129   3.481   2.412  12.356  0.0312  0.5378  0.3096
 8563SOL    HW127130   3.567   2.455  12.356  0.5340 -0.4016 -1.3324
 8563SOL    HW227131   3.465   2.390  12.265 -0.8785 -1.4381  0.8935
 8564SOL     OW27132   3.555   3.094   0.298 -0.4619  0.0872 -0.1968
 8564SOL    HW127133   3.643   3.092   0.335  0.0980 -0.4945 -1.4828
 8564SOL    HW227134   3.497   3.103   0.373  0.6997  0.5701  0.6633
 8565SOL     OW27135   3.565   3.547   1.149  0.2569 -0.3360  0.9335
 8565SOL    HW127136   3.493   3.484   1.147  1.1586 -1.3879  0.4655
 8565SOL    HW227137   3.523   3.632   1.143 -0.8855 -0.9643 -0.5805
 8566SOL     OW27138   1.834   3.583  10.549  0.6439  0.4779 -0.2516
 8566SOL    HW127139   1.757   3.569  10.493  0.2820 -0.7153  0.5128
 8566SOL    HW227140   1.896   3.629  10.492  0.4211 -0.9857 -1.7451
 8567SOL     OW27141   5.373   3.395  10.255  0.1548 -0.0732 -0.0126
 8567SOL    HW127142   5.312   3.468  10.269  1.9145  1.3847  0.5733
 8567SOL    HW227143   5.376   3.383  10.160  0.1024  0.8910 -0.1487
 8568SOL     OW27144   2.271   3.852  10.800 -0.1814  0.6616  0.2229
 8568SOL    HW127145   2.317   3.803  10.732 -0.9347 -1.8030  1.4047
 8568SOL    HW227146   2.179   3.829  10.790 -0.2714 -0.1011  2.2777
 8569SOL     OW27147   4.812   0.468  11.322 -0.3708 -0.4022  0.0705
 8569SOL    HW127148   4.854   0.452  11.238  0.4020 -0.3553  0.4328
 8569SOL    HW227149   4.832   0.560  11.341 -1.0403 -0.2462  0.0355
 8570SOL     OW27150   1.822   4.508  11.729 -0.0485  0.0476  0.1619
 8570SOL    HW127151   1.807   4.603  11.725 -0.5731 -0.0706 -1.0301
 8570SOL    HW227152   1.905   4.499  11.776 -0.2817  1.0610  0.8045
 8571SOL     OW27153   2.406   3.564   1.077  0.7246  0.5307  0.0356
 8571SOL    HW127154   2.324   3.517   1.059  0.7444  0.6086 -0.2556
 8571SOL    HW227155   2.451   3.510   1.142  0.7299  0.1692 -0.2689
 8572SOL     OW27156   3.416   1.528  10.779  0.1112  0.1340 -0.1167
 8572SOL    HW127157   3.393   1.484  10.697  0.6351 -1.1443  0.3924
 8572SOL    HW227158   3.498   1.573  10.761 -0.8967  1.7228 -0.9117
 8573SOL     OW27159   2.004   2.896  11.898  0.0896  0.1547 -0.2248
 8573SOL    HW127160   2.024   2.883  11.991  0.3576  0.4742 -0.2385
 8573SOL    HW227161   1.965   2.983  11.894 -1.1591 -0.3740 -0.2230
 8574SOL     OW27162   2.085   1.335  11.542  0.3219 -0.0007  0.7566
 8574SOL    HW127163   2.002   1.318  11.498  1.0370  0.9359 -1.0383
 8574SOL    HW227164   2.067   1.406  11.603 -0.1753  0.2345  0.3340
 8575SOL     OW27165   2.359   3.754  11.274 -0.1585 -0.3234  0.2013
 8575SOL    HW127166   2.267   3.736  11.292 -0.1973 -1.6856 -1.1432
 8575SOL    HW227167   2.364   3.849  11.265 -1.8715 -0.3369 -1.7154
 8576SOL     OW27168   3.816   1.933  12.383  0.0117 -0.2100  0.3031
 8576SOL    HW127169   3.874   1.990  12.333  0.0023  1.0433  1.6481
 8576SOL    HW227170   3.749   1.991  12.417 -2.8043 -1.7559 -2.0980
 8577SOL     OW27171   4.663   1.820   9.373  0.3615  0.0825 -0.4741
 8577SOL    HW127172   4.604   1.894   9.383 -2.4429 -2.1114  0.6154
 8577SOL    HW227173   4.674   1.786   9.462  0.2736 -1.6951 -1.1014
 8578SOL     OW27174   5.026   5.334  12.416 -0.3430 -0.4214 -0.0509
 8578SOL    HW127175   5.068   5.290  12.342 -1.4732 -1.1984 -0.2608
 8578SOL    HW227176   5.022   5.266  12.484 -0.1800  0.0051  0.3887
 8579SOL     OW27177   1.967   2.134  12.122 -0.7194  0.5394 -0.5408
 8579SOL    HW127178   1.986   2.122  12.215  1.1536  2.4619 -0.5805
 8579SOL    HW227179   1.990   2.050  12.081  0.3440  0.3062  0.4986
 8580SOL     OW27180   4.371   5.421  11.643 -0.0247 -0.3763  0.1383
 8580SOL    HW127181   4.396   5.391  11.731 -1.0081 -0.6536  0.3432
 8580SOL    HW227182   4.275   5.423  11.646 -0.0740  2.9758  0.1930
 8581SOL     OW27183   2.940   3.316  11.329 -0.1623  0.4402  0.3077
 8581SOL    HW127184   2.855   3.343  11.364 -0.5532  0.2181 -0.4495
 8581SOL    HW227185   2.972   3.252  11.392 -2.2610 -2.3044 -1.1676
 8582SOL     OW27186   3.068   0.902  12.278 -0.1677 -0.0796  0.8085
 8582SOL    HW127187   3.009   0.827  12.275 -2.4661  1.6188 -1.9582
 8582SOL    HW227188   3.011   0.977  12.298  1.5227  1.3141  0.6644
 8583SOL     OW27189   3.208   1.886   0.353 -0.2412 -0.2446  0.1697
 8583SOL    HW127190   3.163   1.813   0.311  1.0307 -0.3659 -1.0808
 8583SOL    HW227191   3.268   1.919   0.286  2.0265 -0.5330  1.9176
 8584SOL     OW27192   2.118   1.343  11.071  0.1525  0.1553  0.1175
 8584SOL    HW127193   2.123   1.437  11.083 -0.1436  0.0589  1.0867
 8584SOL    HW227194   2.187   1.307  11.127  0.1636 -0.2177 -0.1254
 8585SOL     OW27195   3.778   3.737  11.796  0.6174  0.0546  0.3963
 8585SOL    HW127196   3.780   3.799  11.723  0.8187 -0.5939 -0.1471
 8585SOL    HW227197   3.868   3.708  11.806  0.6061  0.1891  0.9566
 8586SOL     OW27198   4.714   2.056  11.551  0.1854  0.1469 -0.0857
 8586SOL    HW127199   4.795   2.044  11.501 -0.4498 -0.6374 -0.9527
 8586SOL    HW227200   4.706   2.151  11.560  0.7980  0.2618 -0.6688
 8587SOL     OW27201   2.538   5.098  11.712 -0.3578  0.0128 -0.2604
 8587SOL    HW127202   2.466   5.112  11.772 -0.8857  1.2284 -1.1312
 8587SOL    HW227203   2.524   5.009  11.677 -0.3446 -0.4864  0.9685
 8588SOL     OW27204   3.106   3.117   0.262  0.7120  0.0249  0.3067
 8588SOL    HW127205   3.091   3.207   0.235  1.0120  0.8454  2.6512
 8588SOL    HW227206   3.043   3.066   0.212 -0.9673  1.8061  0.4917
 8589SOL     OW27207   3.483   1.322  12.037  0.1254 -0.2474  0.4018
 8589SOL    HW127208   3.549   1.286  12.095 -1.1714 -0.9307  1.5148
 8589SOL    HW227209   3.449   1.246  11.989 -0.5491 -0.0835  0.5987
 8590SOL     OW27210   3.060   3.116  11.474  0.5806 -0.0553  0.4289
 8590SOL    HW127211   3.100   3.099  11.389 -0.8542 -1.2670 -0.0447
 8590SOL    HW227212   3.046   3.029  11.512  0.0044  0.4070  1.3160
 8591SOL     OW27213   0.354   2.092   1.979 -0.0865 -0.3546 -0.1449
 8591SOL    HW127214   0.274   2.144   1.988  1.3262  1.9831 -0.2838
 8591SOL    HW227215   0.325   2.002   1.994 -2.4708  0.5376  1.2906
 8592SOL     OW27216   4.102   2.832   0.719  0.2858  0.0770  0.3245
 8592SOL    HW127217   4.018   2.788   0.708 -0.7220  2.0452 -0.4455
 8592SOL    HW227218   4.105   2.856   0.812 -1.4066  2.4529 -0.1320
 8593SOL     OW27219   2.511   2.677  10.116  0.3006  0.1246 -0.2317
 8593SOL    HW127220   2.479   2.591  10.092  1.3767 -0.0316 -1.1833
 8593SOL    HW227221   2.602   2.678  10.086 -0.1302  2.1325 -1.6853
 8594SOL     OW27222   1.922   3.171   1.450  0.4299 -0.1431 -0.2532
 8594SOL    HW127223   1.916   3.135   1.538  0.3617  0.0259 -0.1883
 8594SOL    HW227224   1.863   3.246   1.451  0.2926 -0.2455 -0.4950
 8595SOL     OW27225   2.590   2.709   1.244 -0.2924 -0.0090  0.1856
 8595SOL    HW127226   2.561   2.632   1.196 -1.3251  0.2263  0.4118
 8595SOL    HW227227   2.642   2.759   1.181 -1.3518  0.1340 -0.5918
 8596SOL     OW27228   2.113   1.589  11.376  0.3319  0.0793 -0.7214
 8596SOL    HW127229   2.124   1.494  11.381  0.3635  0.0514 -1.2282
 8596SOL    HW227230   2.201   1.623  11.358  0.9418  0.4835  2.5225
 8597SOL     OW27231   1.077   1.618   1.255  1.0747 -0.5332  0.0678
 8597SOL    HW127232   1.042   1.544   1.206  0.7550 -0.9176  0.8625
 8597SOL    HW227233   1.092   1.584   1.343  0.2102  0.5439  0.6549
 8598SOL     OW27234   3.384   3.743   1.502 -0.1919  0.6133 -0.1755
 8598SOL    HW127235   3.436   3.665   1.521  0.9957  1.3796 -0.1706
 8598SOL    HW227236   3.357   3.775   1.588 -1.2258 -0.1038 -0.1967
 8599SOL     OW27237   4.609   2.851  12.195  0.2788 -0.3384  0.0890
 8599SOL    HW127238   4.594   2.757  12.196  1.4191 -0.5249  0.4139
 8599SOL    HW227239   4.691   2.864  12.242  0.8762  0.6694 -1.1359
 8600SOL     OW27240   3.914   2.712   1.585  0.0547 -0.5152  0.1763
 8600SOL    HW127241   3.985   2.776   1.597 -0.2074 -0.2505  0.3388
 8600SOL    HW227242   3.874   2.705   1.672 -1.5396  1.0319 -0.3728
 8601SOL     OW27243   1.924   2.521   1.378  0.8417 -0.3482  0.0060
 8601SOL    HW127244   1.959   2.576   1.308  2.0345  0.4737  1.1858
 8601SOL    HW227245   1.927   2.577   1.456 -2.1912 -0.6056  0.4270
 8602SOL     OW27246   2.108   3.673  11.256 -0.2602 -0.0767  0.2406
 8602SOL    HW127247   2.125   3.673  11.161 -1.0862  0.4891  0.0883
 8602SOL    HW227248   2.019   3.640  11.264 -1.2242  2.4039  0.6179
 8603SOL     OW27249   4.038   3.115  11.978 -0.2756  0.4810 -0.8574
 8603SOL    HW127250   4.090   3.192  11.998 -2.0321  1.1465  1.5919
 8603SOL    HW227251   3.988   3.140  11.900 -0.2974  1.5615 -0.5179
 8604SOL     OW27252   1.155   2.075   1.485 -0.4292 -0.6527  0.3690
 8604SOL    HW127253   1.113   2.016   1.548 -1.2682  0.3761  0.7905
 8604SOL    HW227254   1.139   2.163   1.519 -0.0366 -0.1228 -0.7608
 8605SOL     OW27255   2.685   3.027  10.251  0.0751  0.0864  0.6532
 8605SOL    HW127256   2.777   3.011  10.231  0.3780  2.0755  0.2686
 8605SOL    HW227257   2.672   2.985  10.337  1.3934 -0.0343  0.8143
 8606SOL     OW27258   4.149   3.184  12.342  0.8282 -0.5148 -0.2482
 8606SOL    HW127259   4.074   3.235  12.312  1.0027 -0.0452  0.0996
 8606SOL    HW227260   4.162   3.211  12.433  0.3188 -1.9161  0.2560
 8607SOL     OW27261   2.314   2.511  12.424  0.1324 -0.4045 -0.0954
 8607SOL    HW127262   2.261   2.434  12.445  1.2729 -1.2961 -0.3441
 8607SOL    HW227263   2.285   2.578  12.485 -2.3507 -0.3405 -1.2548
 8608SOL     OW27264   4.093   2.624  10.892  0.7366 -0.5331  0.3049
 8608SOL    HW127265   4.029   2.685  10.927 -0.0551 -0.3917 -1.3019
 8608SOL    HW227266   4.142   2.674  10.827  0.5082 -1.4075 -0.5667
 8609SOL     OW27267   1.064   1.927  11.474 -0.3525  0.4802 -0.0093
 8609SOL    HW127268   1.099   1.884  11.552  0.4683  1.8546  0.4161
 8609SOL    HW227269   0.990   1.873  11.447  2.0575 -2.6206 -0.9611
 8610SOL     OW27270   3.327   2.172  12.019  1.3956  0.3356  0.5624
 8610SOL    HW127271   3.315   2.080  12.043  0.7117 -0.1745 -1.4745
 8610SOL    HW227272   3.422   2.183  12.014  1.4874 -0.7299 -0.6733
 8611SOL     OW27273   4.944   2.739  10.968  0.2482  0.2720 -0.4028
 8611SOL    HW127274   4.987   2.725  10.884 -0.4976 -0.3305 -0.6886
 8611SOL    HW227275   4.945   2.834  10.979  1.3846  0.2956 -0.5292
 8612SOL     OW27276   4.628   3.771   0.163 -0.1708  0.4046 -0.0532
 8612SOL    HW127277   4.607   3.768   0.257 -0.8552 -0.0570 -0.2146
 8612SOL    HW227278   4.595   3.688   0.129  0.3237  0.4560 -0.6561
 8613SOL     OW27279   1.669   1.391  11.739 -0.2404 -0.6910  0.1520
 8613SOL    HW127280   1.648   1.406  11.646  0.3548  2.8952  0.4512
 8613SOL    HW227281   1.755   1.432  11.751 -1.0724  0.4881  2.6226
 8614SOL     OW27282   2.961   1.112  11.347 -0.0334  0.5966 -0.2436
 8614SOL    HW127283   3.031   1.095  11.285 -0.6297 -0.3422 -0.6773
 8614SOL    HW227284   2.973   1.204  11.373 -0.6058  1.4815 -2.8094
 8615SOL     OW27285   1.309   3.153   1.603 -0.0199  0.1775 -0.2813
 8615SOL    HW127286   1.260   3.138   1.522 -1.3979  2.8929 -0.0679
 8615SOL    HW227287   1.391   3.192   1.574  0.6598 -1.3447 -0.4697
 8616SOL     OW27288   2.949   1.989  11.050  0.3087  0.0625  0.5952
 8616SOL    HW127289   2.885   2.004  11.120 -0.1197 -1.3039  0.5400
 8616SOL    HW227290   3.012   1.928  11.088  1.1357  0.7610  0.3765
 8617SOL     OW27291   1.694   5.626  12.074 -0.2743  0.0527  0.4417
 8617SOL    HW127292   1.734   5.638  12.160  1.5248  0.2232 -0.3614
 8617SOL    HW227293   1.636   5.701  12.063  0.8801  1.0273  0.7766
 8618SOL     OW27294   3.096   3.560  12.234  0.2875  0.5592  0.1675
 8618SOL    HW127295   3.145   3.594  12.159  0.2369 -0.2388 -0.2393
 8618SOL    HW227296   3.011   3.604  12.230  0.2754  0.4963 -0.2647
 8619SOL     OW27297   3.351   3.821   0.480  0.0558 -0.3210  0.1028
 8619SOL    HW127298   3.316   3.904   0.448  0.7712 -1.2978 -3.7419
 8619SOL    HW227299   3.277   3.778   0.523 -0.9743  1.3088  0.0279
 8620SOL     OW27300   3.036   3.170  10.985 -0.7183  0.4266  0.1053
 8620SOL    HW127301   3.008   3.139  10.898  2.5878 -0.7139 -0.6813
 8620SOL    HW227302   3.125   3.203  10.971  0.2244 -0.5197  3.2090
 8621SOL     OW27303   2.753   1.143   9.540 -0.8925 -0.2702  0.0426
 8621SOL    HW127304   2.743   1.086   9.464 -1.1952  1.8416 -1.6000
 8621SOL    HW227305   2.847   1.162   9.543 -0.6527 -1.4605  1.1209
 8622SOL     OW27306   3.177   2.993  10.742  0.2341  0.1795 -0.0512
 8622SOL    HW127307   3.096   3.039  10.762  1.8481  2.3328  2.0182
 8622SOL    HW227308   3.227   3.054  10.688  1.2778 -0.2671  0.3848
 8623SOL     OW27309   2.573   3.345  11.775 -1.1542 -0.0277  0.2858
 8623SOL    HW127310   2.532   3.265  11.742 -2.9876  0.8649  0.2510
 8623SOL    HW227311   2.663   3.341  11.743 -1.5441 -1.4839 -0.7392
 8624SOL     OW27312   3.125   1.781  10.503  0.0942  0.0880  0.0126
 8624SOL    HW127313   3.179   1.704  10.485  0.0319  0.6577 -3.0447
 8624SOL    HW227314   3.188   1.853  10.509 -0.0947  0.2999 -0.5264
 8625SOL     OW27315   4.026   4.007   0.090 -0.4337 -0.2262 -0.1471
 8625SOL    HW127316   4.000   4.050   0.009  1.2927 -0.4858 -0.8874
 8625SOL    HW227317   4.089   4.067   0.131  0.7048 -1.2369 -0.3481
 8626SOL     OW27318   3.524   2.469  12.055 -0.0419 -0.5437  0.4195
 8626SOL    HW127319   3.432   2.495  12.057  0.4080  1.4780 -1.7024
 8626SOL    HW227320   3.572   2.551  12.054  1.6494 -1.4585 -2.2291
 8627SOL     OW27321   4.354   4.209   0.803  0.2721 -0.4379 -0.3289
 8627SOL    HW127322   4.304   4.204   0.885  0.3343  1.1470 -0.1494
 8627SOL    HW227323   4.295   4.254   0.742  0.8545 -0.0582 -0.6226
 8628SOL     OW27324   3.944   4.901   1.853  0.1150  0.4752  0.3903
 8628SOL    HW127325   4.022   4.897   1.797  0.0637  1.3116  0.2492
 8628SOL    HW227326   3.979   4.906   1.942  0.2003 -0.4185  0.4192
 8629SOL     OW27327   1.478   3.978  12.257 -0.7587 -0.2202 -0.0046
 8629SOL    HW127328   1.399   3.926  12.244 -0.3331 -1.2463  1.2603
 8629SOL    HW227329   1.448   4.055  12.305 -1.1478 -0.0883 -0.4564
 8630SOL     OW27330   4.175   2.978  10.922  0.1236 -0.2652  0.3181
 8630SOL    HW127331   4.183   3.038  10.996  1.8003 -0.9574  0.7263
 8630SOL    HW227332   4.241   2.911  10.938 -0.5278 -1.2709 -1.0312
 8631SOL     OW27333   2.714   2.423  10.408 -0.0397  0.2493  0.1785
 8631SOL    HW127334   2.643   2.363  10.384 -2.4698  2.5671  1.0571
 8631SOL    HW227335   2.743   2.393  10.494 -0.7894 -0.0753  0.3264
 8632SOL     OW27336   3.482   4.970   0.344  0.1798 -0.1638 -0.4713
 8632SOL    HW127337   3.424   4.904   0.304  0.5946 -2.0786  1.8378
 8632SOL    HW227338   3.570   4.935   0.331  0.6321  1.2254 -1.3424
 8633SOL     OW27339   1.641   3.359  10.481  0.2774 -0.1014 -0.3697
 8633SOL    HW127340   1.613   3.450  10.472  2.0629  0.4644 -0.6195
 8633SOL    HW227341   1.564   3.313  10.517 -0.3857  1.6524  0.5682
 8634SOL     OW27342   3.956   3.239   0.149 -0.0257 -0.2092  0.2219
 8634SOL    HW127343   3.900   3.310   0.117 -0.5693  0.6244  2.7984
 8634SOL    HW227344   4.045   3.266   0.123 -0.2990  1.0765  0.5176
 8635SOL     OW27345   3.341   1.146  11.900 -0.1775  0.5022 -0.3777
 8635SOL    HW127346   3.265   1.127  11.955  0.0958 -2.9474 -0.9540
 8635SOL    HW227347   3.305   1.159  11.812 -0.3499  2.9033 -0.0088
 8636SOL     OW27348   1.726   2.392  12.004 -0.5676 -0.3038 -1.3770
 8636SOL    HW127349   1.796   2.395  12.069 -0.8965 -3.8364 -0.6836
 8636SOL    HW227350   1.646   2.388  12.056 -1.1818  1.2456 -2.1431
 8637SOL     OW27351   3.240   3.661   9.877 -0.0458  0.8163 -0.0090
 8637SOL    HW127352   3.205   3.708   9.802  1.3920  0.8400 -0.6992
 8637SOL    HW227353   3.335   3.676   9.873  0.2129 -0.3736  0.9735
 8638SOL     OW27354   3.036   1.684   0.619 -0.0843 -0.3278 -0.3047
 8638SOL    HW127355   2.970   1.665   0.685 -0.2422  0.6989 -0.1385
 8638SOL    HW227356   3.036   1.608   0.561 -0.0883 -1.1430  0.7565
 8639SOL     OW27357   4.028   4.177  10.886 -0.1678  0.2490  0.5959
 8639SOL    HW127358   4.021   4.114  10.958 -1.9347 -1.1296 -0.6977
 8639SOL    HW227359   3.944   4.224  10.887  0.4798  1.4609  0.4848
 8640SOL     OW27360   5.005   4.804  11.475 -0.3956  0.2478  0.1282
 8640SOL    HW127361   5.088   4.796  11.521  0.6025 -0.6566 -1.6944
 8640SOL    HW227362   4.944   4.839  11.540  0.9796 -0.6719  2.0079
 8641SOL     OW27363   3.731   3.063  12.473  0.3426  0.2963 -0.0030
 8641SOL    HW127364   3.818   3.034  12.501  0.3357  1.6074  1.5325
 8641SOL    HW227365   3.745   3.104  12.388  1.0141 -0.4939 -0.2872
 8642SOL     OW27366   3.208   2.996   0.948  0.0568 -0.8652  0.0278
 8642SOL    HW127367   3.178   3.044   1.025 -0.6153 -2.3270  0.7189
 8642SOL    HW227368   3.156   3.033   0.876  0.7248  0.5464  0.2257
 8643SOL     OW27369   3.210   2.610  11.140 -0.4403  1.0180 -0.0595
 8643SOL    HW127370   3.133   2.569  11.180 -0.1412  1.2350  0.7676
 8643SOL    HW227371   3.234   2.679  11.202 -0.8347  2.3547 -1.3323
 8644SOL     OW27372   3.421   3.462  11.022 -0.3897 -0.3828 -0.2414
 8644SOL    HW127373   3.516   3.462  11.011 -0.4494  0.0210 -0.7992
 8644SOL    HW227374   3.393   3.547  10.989 -1.0422 -0.8639 -0.9662
 8645SOL     OW27375   2.695   2.522  11.823  0.2817 -0.7426  0.5758
 8645SOL    HW127376   2.757   2.496  11.891  1.7070  0.9168 -0.0216
 8645SOL    HW227377   2.694   2.618  11.826 -1.0335 -0.6832 -0.5292
 8646SOL     OW27378   2.468   2.949   8.973  0.3496 -0.1958  0.6313
 8646SOL    HW127379   2.559   2.960   8.999  0.2079  1.8390  0.4396
 8646SOL    HW227380   2.470   2.887   8.900  1.3443 -1.5947  1.7936
 8647SOL     OW27381   2.256   2.653  11.782 -0.2432  0.2868  0.6430
 8647SOL    HW127382   2.281   2.642  11.690  0.6423  1.2237  0.7447
 8647SOL    HW227383   2.292   2.577  11.826  1.3973  0.9812  0.5704
 8648SOL     OW27384   2.229   3.432   0.296 -0.6329  0.6224 -0.5322
 8648SOL    HW127385   2.145   3.477   0.290 -0.2016  1.8456  1.6347
 8648SOL    HW227386   2.291   3.500   0.322  0.5559 -0.7008  0.2175
 8649SOL     OW27387   2.027   3.187   0.119 -0.1960 -0.2206 -0.0590
 8649SOL    HW127388   2.069   3.268   0.091 -0.6892 -0.3282 -1.1737
 8649SOL    HW227389   1.934   3.202   0.103 -0.7516  0.3571  3.2044
 8650SOL     OW27390   4.245   2.653  12.182  0.1293  0.0873 -0.6163
 8650SOL    HW127391   4.241   2.628  12.090  1.3854 -0.3745 -0.5738
 8650SOL    HW227392   4.208   2.741  12.184  0.4274  0.2578 -1.6393
 8651SOL     OW27393   3.100   2.721   1.015 -0.6755  0.1993  0.0470
 8651SOL    HW127394   3.101   2.690   1.106  0.5952 -0.2493 -0.1017
 8651SOL    HW227395   3.134   2.811   1.021 -0.8667  0.2740  0.0369
 8652SOL     OW27396   1.787   3.519  11.833  0.3315  0.1153 -0.0606
 8652SOL    HW127397   1.869   3.492  11.874  0.7072  0.8295 -0.3232
 8652SOL    HW227398   1.756   3.592  11.886  0.4902  0.6305 -0.6699
 8653SOL     OW27399   2.323   3.887  10.214 -0.2470  0.0056 -0.2649
 8653SOL    HW127400   2.367   3.804  10.232  0.2600 -0.3129 -2.5984
 8653SOL    HW227401   2.394   3.952  10.210 -0.4100  0.1800 -0.3723
 8654SOL     OW27402   1.388   2.575  11.429  0.5276  0.1754 -0.4850
 8654SOL    HW127403   1.351   2.650  11.475  0.9429  0.0874  0.0126
 8654SOL    HW227404   1.440   2.612  11.359 -1.1815  0.2830 -1.7613
 8655SOL     OW27405   3.483   3.518  12.307 -0.2441 -0.1068  0.2376
 8655SOL    HW127406   3.443   3.571  12.238  2.0934  2.7750  0.8844
 8655SOL    HW227407   3.495   3.432  12.267 -2.3845  0.3425 -1.5902
 8656SOL     OW27408   2.978   2.299   0.523 -0.2459 -0.6748 -0.3467
 8656SOL    HW127409   2.964   2.335   0.611  0.7582 -2.0480  0.4291
 8656SOL    HW227410   2.941   2.364   0.464  1.5261  1.6695  0.9339
 8657SOL     OW27411   3.405   4.004  10.714  0.4749 -0.1699  0.5353
 8657SOL    HW127412   3.382   3.939  10.648 -0.6865  0.1069  0.6471
 8657SOL    HW227413   3.483   4.047  10.679  0.1153 -0.3079 -0.4590
 8658SOL     OW27414   3.182   3.084  11.196  0.7483  0.0534  0.1204
 8658SOL    HW127415   3.115   3.082  11.128  0.4142  1.9663  0.3417
 8658SOL    HW227416   3.227   2.999  11.187  0.2293 -0.0735 -1.9731
 8659SOL     OW27417   1.931   2.477   0.547  0.3029 -0.1664  0.5258
 8659SOL    HW127418   1.993   2.538   0.588 -2.4858  2.1813  1.5735
 8659SOL    HW227419   1.954   2.480   0.454  1.2030  1.3696  0.7473
 8660SOL     OW27420   6.222   3.529  12.107 -0.1947 -0.4415 -0.4384
 8660SOL    HW127421   6.230   3.456  12.045 -0.5537  0.5947 -1.7625
 8660SOL    HW227422   6.189   3.488  12.187 -1.5784 -1.5794 -1.5266
 8661SOL     OW27423   2.709   2.264  11.197  0.5588  0.1184 -0.6566
 8661SOL    HW127424   2.645   2.281  11.265 -0.7258 -1.5651 -1.3921
 8661SOL    HW227425   2.777   2.212  11.240  0.9176  0.9755 -0.1496
 8662SOL     OW27426   2.687   2.369   0.244  0.5830 -0.2620  0.0427
 8662SOL    HW127427   2.688   2.448   0.297 -2.9153  0.3521 -0.5814
 8662SOL    HW227428   2.733   2.393   0.164  1.1300  0.5388  0.5880
 8663SOL     OW27429   3.265   1.992  12.437  0.1506  0.2633  0.1461
 8663SOL    HW127430   3.188   1.954  12.394  1.1519 -0.0279 -1.4693
 8663SOL    HW227431   3.326   2.010  12.366  0.9644  2.0049  1.2218
 8664SOL     OW27432   3.054   4.747  11.814 -0.2936 -0.1439 -0.8394
 8664SOL    HW127433   3.087   4.670  11.768  0.1417 -1.2432  1.1931
 8664SOL    HW227434   3.049   4.720  11.906 -1.3766  1.8508 -0.2504
 8665SOL     OW27435   3.742   3.046  10.344 -0.0387  0.7157 -0.0042
 8665SOL    HW127436   3.832   3.038  10.375  0.4814  0.0325 -1.5861
 8665SOL    HW227437   3.702   3.110  10.403  1.1501  0.2349  1.3993
 8666SOL     OW27438   5.043   2.060   0.891  0.0058  0.7424 -0.4422
 8666SOL    HW127439   5.130   2.045   0.855  0.2428  3.3733 -1.1255
 8666SOL    HW227440   4.986   2.069   0.815 -0.6026  0.4632 -0.0270
 8667SOL     OW27441   3.101   2.882  12.351  0.3778 -0.1269 -0.1959
 8667SOL    HW127442   3.110   2.926  12.266  0.9603 -0.7816 -0.4764
 8667SOL    HW227443   3.175   2.822  12.356 -0.8892 -1.7754 -0.2396
 8668SOL     OW27444   2.580   3.106  10.925  0.5890  0.1016  0.1819
 8668SOL    HW127445   2.599   3.152  10.843 -0.6483 -0.6110 -0.5325
 8668SOL    HW227446   2.609   3.016  10.910  1.4560  0.2302  0.9750
 8669SOL     OW27447   2.116   3.462  12.481 -0.0076 -0.4618  0.5990
 8669SOL    HW127448   2.096   3.437  12.391 -0.8516 -0.2598  0.7202
 8669SOL    HW227449   2.197   3.514  12.475 -0.4337  0.1309 -0.1281
 8670SOL     OW27450   1.696   5.374   1.797 -0.3243 -0.4263  0.0927
 8670SOL    HW127451   1.648   5.346   1.719  0.8894  0.1020 -0.8722
 8670SOL    HW227452   1.781   5.331   1.789  0.4352  1.0072  0.2077
 8671SOL     OW27453   1.420   1.706   0.867 -0.1958  0.7494  0.2922
 8671SOL    HW127454   1.494   1.727   0.809  0.4047 -0.4017  0.6202
 8671SOL    HW227455   1.414   1.783   0.924  1.0700  0.6636  0.5804
 8672SOL     OW27456   2.366   3.658   0.376  0.2107 -0.4686 -0.5733
 8672SOL    HW127457   2.439   3.707   0.337  2.7185 -1.6620  2.2059
 8672SOL    HW227458   2.344   3.708   0.455  0.6855 -2.0932  0.6361
 8673SOL     OW27459   3.789   5.237   1.194  0.0489 -0.2303  0.3112
 8673SOL    HW127460   3.699   5.268   1.203  1.0794  2.7100  1.6518
 8673SOL    HW227461   3.785   5.146   1.223 -2.3748 -0.0069  0.9620
 8674SOL     OW27462   3.929   6.751   1.325 -0.2482 -0.1673  0.4253
 8674SOL    HW127463   3.928   6.656   1.342 -1.9307 -0.7847 -2.4712
 8674SOL    HW227464   3.996   6.762   1.257 -2.2723  0.1046 -1.6465
 8675SOL     OW27465   2.658   4.687   1.981 -0.3332  0.3820  0.4300
 8675SOL    HW127466   2.717   4.743   2.030  0.7400 -0.2480 -0.1134
 8675SOL    HW227467   2.631   4.741   1.906  0.6484  0.2058 -0.0600
 8676SOL     OW27468   4.218   4.398  11.484 -0.2680  0.1302  0.0723
 8676SOL    HW127469   4.194   4.399  11.577 -0.8588  0.4919 -0.0782
 8676SOL    HW227470   4.313   4.387  11.484 -0.3518 -0.6881  0.6967
 8677SOL     OW27471   2.564   5.254   1.734  0.1155 -0.2938  0.0527
 8677SOL    HW127472   2.539   5.199   1.660  0.2194  2.0441 -1.8394
 8677SOL    HW227473   2.659   5.245   1.739 -0.0190 -1.4359  0.7525
 8678SOL     OW27474   2.294   5.037   2.976  0.3660 -0.0843  0.1355
 8678SOL    HW127475   2.294   5.054   2.881 -0.9625  0.6578  0.2537
 8678SOL    HW227476   2.275   4.943   2.983 -1.1599  0.1609 -0.3196
 8679SOL     OW27477   7.999   4.867   1.521 -0.3328 -0.0301  0.4619
 8679SOL    HW127478   8.008   4.896   1.430  0.7649  0.6464  0.7647
 8679SOL    HW227479   8.087   4.837   1.546  0.6009  3.7733  2.5855
 8680SOL     OW27480   3.368   6.021   0.223  0.2391 -0.3374 -0.2771
 8680SOL    HW127481   3.394   5.935   0.190 -1.8298 -0.6211 -1.3469
 8680SOL    HW227482   3.314   6.003   0.300  2.4511  0.2144  1.5381
 8681SOL     OW27483   1.379   4.426   1.918  0.1247 -0.6246 -0.5850
 8681SOL    HW127484   1.372   4.336   1.949 -1.0559 -0.1137  0.7121
 8681SOL    HW227485   1.466   4.431   1.877  0.7195 -1.9926  0.4610
 8682SOL     OW27486   3.430   5.666   1.783 -0.4676  0.4264  0.0671
 8682SOL    HW127487   3.418   5.585   1.832  0.6916  0.4577  0.4281
 8682SOL    HW227488   3.523   5.687   1.792 -0.7745  1.9061  0.1537
 8683SOL     OW27489   1.236   5.091   1.425  0.3227  0.0475 -0.4877
 8683SOL    HW127490   1.252   5.140   1.506  0.0489 -1.5503  0.5810
 8683SOL    HW227491   1.250   4.999   1.450  1.0270 -0.4191 -2.4679
 8684SOL     OW27492   4.509   4.719   0.294  0.0565 -0.1043 -0.0584
 8684SOL    HW127493   4.507   4.776   0.217  3.2567  1.4491  0.8340
 8684SOL    HW227494   4.554   4.639   0.264  1.8559  0.7453  0.2487
 8685SOL     OW27495   2.529   6.201   0.895  0.1704  0.2557 -0.4255
 8685SOL    HW127496   2.581   6.256   0.954 -0.3659 -0.1524  0.4499
 8685SOL    HW227497   2.589   6.133   0.866  0.0482 -0.4515  0.9021
 8686SOL     OW27498   3.722   4.639   3.095 -0.4569 -0.4577  0.2125
 8686SOL    HW127499   3.645   4.674   3.141 -0.8678  0.9232 -1.4049
 8686SOL    HW227500   3.761   4.716   3.053  0.7537 -1.4372 -0.5085
 8687SOL     OW27501   3.580   4.765   0.049 -0.0434  0.3139  0.1008
 8687SOL    HW127502   3.661   4.804   0.083  1.1126 -0.3311 -1.7961
 8687SOL    HW227503   3.523   4.759   0.126  1.6919  0.8041  1.5021
 8688SOL     OW27504   1.239   4.592   1.736  0.5101 -0.3382 -0.1636
 8688SOL    HW127505   1.237   4.685   1.760 -1.1251 -0.3607 -0.1459
 8688SOL    HW227506   1.272   4.548   1.815 -1.7825 -0.0795  1.0079
 8689SOL     OW27507   3.452   6.602   2.595 -0.1275 -0.3666 -0.2486
 8689SOL    HW127508   3.426   6.686   2.631 -0.1583 -1.1980  1.7850
 8689SOL    HW227509   3.487   6.623   2.508 -1.8130  1.4972 -0.5518
 8690SOL     OW27510   1.741   5.949   1.113  0.4763  0.2851  0.1986
 8690SOL    HW127511   1.733   5.861   1.149 -0.3505  0.8618  1.5185
 8690SOL    HW227512   1.753   6.005   1.190 -0.8501  1.5100 -0.4367
 8691SOL     OW27513   3.901   4.959  12.227 -0.0882  0.5441  0.3031
 8691SOL    HW127514   3.809   4.958  12.254 -0.1928  1.1463 -0.0127
 8691SOL    HW227515   3.914   5.047  12.191  0.1521 -0.0906 -1.2356
 8692SOL     OW27516   2.341   2.930   0.415  0.1247 -0.2683 -0.0719
 8692SOL    HW127517   2.318   2.924   0.322  1.3052  1.2765 -0.5043
 8692SOL    HW227518   2.302   3.013   0.444  0.1272 -0.5331  0.7124
 8693SOL     OW27519   2.594   5.657   1.533  0.7089 -0.0919  0.2148
 8693SOL    HW127520   2.544   5.577   1.515  0.7421 -0.2176  0.6621
 8693SOL    HW227521   2.561   5.721   1.470 -1.7523  0.5587  2.0204
 8694SOL     OW27522   3.717   5.090  12.441  0.3602  0.0467  0.2893
 8694SOL    HW127523   3.722   5.183  12.460  1.3866 -0.0559  0.6137
 8694SOL    HW227524   3.719   5.048  12.527 -3.3648 -0.2241  0.3791
 8695SOL     OW27525   2.323   4.800   0.830  0.2642  0.3818 -0.5883
 8695SOL    HW127526   2.397   4.740   0.831 -1.1428 -1.4523  0.7875
 8695SOL    HW227527   2.338   4.858   0.905  0.8314  0.7068 -0.9533
 8696SOL     OW27528   4.111   4.183   2.205  0.5487  0.5497  0.5894
 8696SOL    HW127529   4.146   4.192   2.294  0.4439 -0.0181  0.6882
 8696SOL    HW227530   4.028   4.231   2.207  0.2173 -0.0419  0.9860
 8697SOL     OW27531   2.144   4.429   1.205 -0.0845  0.2341 -0.4066
 8697SOL    HW127532   2.219   4.465   1.252 -0.1214  0.2360 -0.3500
 8697SOL    HW227533   2.159   4.334   1.203 -0.4800  0.1496  0.2979
 8698SOL     OW27534   3.922   4.578   1.996 -0.1254  0.2841 -0.1834
 8698SOL    HW127535   4.002   4.592   2.047  1.1845 -0.9930 -1.8126
 8698SOL    HW227536   3.910   4.659   1.947  0.6105  0.2071 -0.5005
 8699SOL     OW27537   2.503   3.654   1.609 -0.3997 -0.4329 -0.3744
 8699SOL    HW127538   2.433   3.666   1.673  0.9084  2.9643  0.6316
 8699SOL    HW227539   2.460   3.662   1.524 -1.3127  1.4094  0.2110
 8700SOL     OW27540   1.402   5.791  12.119  0.0607  0.1265 -0.5035
 8700SOL    HW127541   1.317   5.786  12.075 -0.6324 -1.8428  0.9307
 8700SOL    HW227542   1.382   5.775  12.212  2.0624 -1.0805 -0.2277
 8701SOL     OW27543   3.446   3.998   0.155  0.1835 -0.1440 -0.4072
 8701SOL    HW127544   3.466   3.989   0.061 -0.5138  0.4647 -0.6268
 8701SOL    HW227545   3.483   3.919   0.195  0.6665 -0.3166 -1.1630
 8702SOL     OW27546   2.163   5.684   0.330  0.5812  0.0613  0.2153
 8702SOL    HW127547   2.199   5.702   0.243  0.0019 -0.2440 -0.0907
 8702SOL    HW227548   2.107   5.758   0.349 -2.1747 -1.4902 -1.2436
 8703SOL     OW27549   4.421   4.626   2.268  0.0492 -0.8655 -0.2852
 8703SOL    HW127550   4.349   4.677   2.305  0.8715 -0.0314  0.1979
 8703SOL    HW227551   4.462   4.685   2.204  0.7682 -1.0582 -0.0067
 8704SOL     OW27552   3.739   5.013   0.566 -0.1401  0.0092  0.0503
 8704SOL    HW127553   3.747   5.019   0.470  1.1240 -1.2110  0.0535
 8704SOL    HW227554   3.797   4.941   0.590 -1.2350 -0.3851  1.6470
 8705SOL     OW27555   2.252   5.792   0.112  0.5612 -0.1884  0.4576
 8705SOL    HW127556   2.258   5.780   0.017 -1.5147  2.0584 -0.0462
 8705SOL    HW227557   2.343   5.793   0.142  1.2859 -0.3743 -1.5667
 8706SOL     OW27558   1.127   3.652  11.919 -0.1385 -0.1392  0.3047
 8706SOL    HW127559   1.077   3.718  11.871  0.8698  0.0693 -0.4858
 8706SOL    HW227560   1.165   3.596  11.851  2.4789  0.9900  0.7095
 8707SOL     OW27561   2.225   2.686   0.103  0.8586  0.3351  0.2947
 8707SOL    HW127562   2.257   2.775   0.112  0.3583  0.3782  1.9628
 8707SOL    HW227563   2.268   2.637   0.174 -0.5778 -0.2187  0.8179
 8708SOL     OW27564   4.026   3.922  12.056 -0.1286  0.4820  0.7203
 8708SOL    HW127565   4.038   3.939  11.963  0.0959 -2.0934  0.1916
 8708SOL    HW227566   4.094   3.972  12.100  1.2619 -0.0748 -0.7318
 8709SOL     OW27567   1.037   5.227   0.323 -0.0998  0.1048 -0.2112
 8709SOL    HW127568   1.054   5.320   0.337  3.0105 -0.7115  3.0199
 8709SOL    HW227569   0.943   5.221   0.310 -1.2031  3.4302  3.8865
 8710SOL     OW27570   4.176   3.361   2.179  0.5776  0.1206  0.2267
 8710SOL    HW127571   4.145   3.315   2.101 -2.4290 -0.5460  1.6794
 8710SOL    HW227572   4.219   3.440   2.144 -1.1987  0.1712 -2.1335
 8711SOL     OW27573   3.051   5.164   2.765  0.3703  0.5757 -0.4839
 8711SOL    HW127574   3.108   5.109   2.818 -0.6211  1.6713  1.8601
 8711SOL    HW227575   2.962   5.139   2.790 -0.2736 -0.4998 -3.4392
 8712SOL     OW27576   2.866   4.970   1.760  0.7669 -0.2472 -0.2505
 8712SOL    HW127577   2.838   4.931   1.677 -1.2237  1.0778 -0.3033
 8712SOL    HW227578   2.950   4.929   1.779  0.6022 -1.6587 -2.1785
 8713SOL     OW27579   3.651   3.041   1.011  0.4794 -0.6530 -0.3254
 8713SOL    HW127580   3.667   3.121   1.061 -0.9225 -0.8510  0.5139
 8713SOL    HW227581   3.720   3.039   0.945  1.8820  0.0815  1.0506
 8714SOL     OW27582   2.679   3.968   0.795  0.2162  0.7680  0.3347
 8714SOL    HW127583   2.607   3.907   0.777 -0.2578  1.0899  1.0686
 8714SOL    HW227584   2.686   3.968   0.891  0.9321  1.0429  0.2847
 8715SOL     OW27585   1.163   6.219   2.400  0.1634 -0.1467  0.3202
 8715SOL    HW127586   1.161   6.158   2.326 -0.4992  0.6278 -0.3232
 8715SOL    HW227587   1.100   6.287   2.377 -0.4104 -0.1264  1.8266
 8716SOL     OW27588   4.083   5.161   2.109  0.2941  0.3293 -0.9400
 8716SOL    HW127589   4.112   5.127   2.193  0.1047 -2.0618 -1.7733
 8716SOL    HW227590   4.155   5.143   2.049 -0.0857  0.8144 -1.5617
 8717SOL     OW27591   2.676   3.120   1.348  0.2261 -0.1266  0.2159
 8717SOL    HW127592   2.595   3.116   1.296  0.6372 -1.5253 -0.3617
 8717SOL    HW227593   2.645   3.119   1.439 -0.4634  1.4616  0.0463
 8718SOL     OW27594   3.805   6.863   1.084  0.1847 -0.3068  0.1450
 8718SOL    HW127595   3.883   6.883   1.137  0.1657  1.0927 -0.2996
 8718SOL    HW227596   3.731   6.880   1.144  0.1834  0.5704 -0.0843
 8719SOL     OW27597   1.685   2.892   0.262  0.1804 -0.0538 -0.2994
 8719SOL    HW127598   1.713   2.933   0.180 -0.6997 -0.0656 -0.6233
 8719SOL    HW227599   1.743   2.817   0.273 -1.1895 -1.5006 -2.2046
 8720SOL     OW27600   1.957   5.954   1.933 -0.5422 -0.3983 -0.1304
 8720SOL    HW127601   2.035   5.913   1.970 -0.2653 -2.3966 -2.6298
 8720SOL    HW227602   1.884   5.902   1.966 -0.9645  1.5785  2.3504
 8721SOL     OW27603   2.603   5.570   2.966 -0.4790 -0.1390 -0.5602
 8721SOL    HW127604   2.585   5.664   2.968  0.1723  0.0126 -1.2541
 8721SOL    HW227605   2.609   5.549   2.872 -0.4665 -0.8396 -0.4071
 8722SOL     OW27606   3.465   4.416   0.665  0.0001 -0.1360 -0.8217
 8722SOL    HW127607   3.472   4.477   0.591  1.7850  0.6385 -0.0797
 8722SOL    HW227608   3.545   4.363   0.660 -0.5606 -1.0491 -0.2797
 8723SOL     OW27609   1.969   4.157   0.797  0.1574  0.0149  0.3292
 8723SOL    HW127610   1.906   4.206   0.850 -0.7925  0.7643 -1.3884
 8723SOL    HW227611   2.045   4.145   0.854 -0.1052  2.3280  1.2705
 8724SOL     OW27612   1.722   3.015   0.016  0.0783  0.1881  0.6816
 8724SOL    HW127613   1.661   3.085   0.038  0.7551  1.3185 -0.8168
 8724SOL    HW227614   1.667   2.945  -0.019 -0.5238  0.3560  1.2702
 8725SOL     OW27615   2.925   4.247   0.059  0.7542 -0.6115 -0.6713
 8725SOL    HW127616   2.913   4.153   0.070  2.8426 -0.9040 -0.4618
 8725SOL    HW227617   2.974   4.274   0.137  0.7682  0.5281 -1.0523
 8726SOL     OW27618   2.724   4.871   2.876 -0.1821  0.0542 -0.1021
 8726SOL    HW127619   2.736   4.783   2.840  1.6316  0.4256 -0.5159
 8726SOL    HW227620   2.667   4.915   2.813 -0.9343 -0.7251  0.0021
 8727SOL     OW27621   4.146   4.326   0.668 -0.1033 -0.0594  0.2067
 8727SOL    HW127622   4.068   4.315   0.614  1.9213 -0.8375 -2.8155
 8727SOL    HW227623   4.151   4.421   0.683 -1.1349  0.0923 -0.3154
 8728SOL     OW27624   3.229   4.259   0.641  0.1537 -0.3586 -0.8576
 8728SOL    HW127625   3.299   4.324   0.636  1.8398 -2.0974 -1.2276
 8728SOL    HW227626   3.263   4.184   0.590 -1.7247 -1.4892 -0.5187
 8729SOL     OW27627   3.433   3.274   0.870 -0.1502 -0.1207  0.1987
 8729SOL    HW127628   3.431   3.179   0.854  0.2509 -0.2131  0.6611
 8729SOL    HW227629   3.506   3.305   0.817 -0.5432 -0.0021 -0.2792
 8730SOL     OW27630   2.116   5.227  12.487  0.1034 -0.3314  0.2374
 8730SOL    HW127631   2.156   5.291  12.546  0.6648 -0.9417  0.5316
 8730SOL    HW227632   2.138   5.258  12.400  1.0818 -0.5649  0.3924
 8731SOL     OW27633   5.229   3.290   0.184  0.3251  0.5201  0.0056
 8731SOL    HW127634   5.323   3.299   0.167  0.3777 -1.3588 -1.0567
 8731SOL    HW227635   5.223   3.277   0.279  1.5342 -2.2723 -0.1784
 8732SOL     OW27636   1.814   5.815   1.469 -0.0512  0.1062 -0.1179
 8732SOL    HW127637   1.739   5.768   1.507  0.2425 -0.0551  0.2687
 8732SOL    HW227638   1.872   5.746   1.437  0.3162  0.2031  0.3262
 8733SOL     OW27639   2.522   5.784  12.343  0.1919 -0.0410  0.5297
 8733SOL    HW127640   2.488   5.763  12.256  0.2512  0.0249  0.4902
 8733SOL    HW227641   2.508   5.878  12.352  1.3829  0.1966  0.0625
 8734SOL     OW27642   1.462   4.266   1.209 -0.4416  0.9083 -0.6288
 8734SOL    HW127643   1.429   4.180   1.236 -0.4186  0.3518 -2.2461
 8734SOL    HW227644   1.390   4.303   1.157 -0.4539  1.8810  0.0602
 8735SOL     OW27645   2.905   2.948   1.856  0.1526 -0.0093 -0.3597
 8735SOL    HW127646   2.915   2.962   1.951  1.6303 -0.9609 -0.3380
 8735SOL    HW227647   2.858   2.865   1.850 -0.1275  0.1574 -0.4615
 8736SOL     OW27648   4.591   3.084  11.800 -0.7994 -0.3610  0.1978
 8736SOL    HW127649   4.624   3.002  11.762 -0.3812 -0.6701  1.1986
 8736SOL    HW227650   4.553   3.058  11.884 -2.0421  0.2593 -0.1617
 8737SOL     OW27651   2.784   4.656   0.826  0.1156  0.1868  0.1514
 8737SOL    HW127652   2.785   4.727   0.761  1.6103  0.8688  0.8602
 8737SOL    HW227653   2.694   4.653   0.858 -0.1910  1.1219 -0.5868
 8738SOL     OW27654   1.409   5.199   3.186 -0.3686 -0.1037  0.3812
 8738SOL    HW127655   1.475   5.269   3.188 -0.8235  0.3631 -0.2990
 8738SOL    HW227656   1.365   5.210   3.102  0.2549 -1.8908 -0.2232
 8739SOL     OW27657   1.654   3.879   0.653  0.5452  0.5991 -0.0205
 8739SOL    HW127658   1.703   3.960   0.638  1.0550  0.7218  2.0305
 8739SOL    HW227659   1.681   3.850   0.740 -0.7141 -1.0186 -0.1184
 8740SOL     OW27660   2.657   3.136  12.059 -0.1495  0.0299 -0.1635
 8740SOL    HW127661   2.739   3.132  12.010  0.2364 -0.6548  0.5315
 8740SOL    HW227662   2.654   3.226  12.093  0.8041 -0.2255  0.6306
 8741SOL     OW27663   1.347   4.815  12.228  0.1691  0.1697 -0.1641
 8741SOL    HW127664   1.330   4.860  12.311 -0.4535  3.1548 -1.7697
 8741SOL    HW227665   1.442   4.817  12.219  0.2617 -0.4343  0.5890
 8742SOL     OW27666   1.683   2.993   0.709  0.6428 -0.5866  0.3913
 8742SOL    HW127667   1.627   2.996   0.632  0.3266 -0.7784  0.6123
 8742SOL    HW227668   1.721   3.080   0.715  3.0835 -1.3608 -1.7525
 8743SOL     OW27669   4.264   4.609   1.314 -0.0537 -0.3485 -0.5417
 8743SOL    HW127670   4.213   4.572   1.386  0.0725 -0.6392 -0.6018
 8743SOL    HW227671   4.350   4.568   1.321  0.3097  0.4508 -0.1863
 8744SOL     OW27672   1.107   3.135   0.108  0.0975 -0.2330  0.4122
 8744SOL    HW127673   1.080   3.171   0.023 -2.3670  0.6646  1.5017
 8744SOL    HW227674   1.157   3.056   0.085 -2.2849 -1.2292 -1.8908
 8745SOL     OW27675   2.755   6.653   0.613  0.3015 -0.0209  0.1058
 8745SOL    HW127676   2.787   6.569   0.579  1.1947 -0.0981  1.0869
 8745SOL    HW227677   2.818   6.718   0.582  0.2619  0.1173  0.3091
 8746SOL     OW27678   2.485   4.543   2.550  0.3686 -0.1371  0.6446
 8746SOL    HW127679   2.435   4.481   2.604 -1.8740 -0.9392 -2.1109
 8746SOL    HW227680   2.577   4.517   2.564 -0.3712 -3.0255  0.8981
 8747SOL     OW27681   3.653   6.098  11.670  0.2170  0.0757  0.0471
 8747SOL    HW127682   3.566   6.077  11.636  0.8001 -1.8547 -0.4052
 8747SOL    HW227683   3.692   6.154  11.603 -0.1953 -0.1626 -0.3996
 8748SOL     OW27684   3.710   5.763   1.608 -0.3249  0.0732  0.3696
 8748SOL    HW127685   3.757   5.847   1.605 -0.0735 -0.0719  0.1814
 8748SOL    HW227686   3.732   5.728   1.694 -0.0075 -0.0358  0.2482
 8749SOL     OW27687   2.445   5.485   0.820 -0.3691  0.3438  0.5833
 8749SOL    HW127688   2.426   5.571   0.858 -0.0492  0.0047  1.5427
 8749SOL    HW227689   2.474   5.432   0.894  3.3934  0.5575 -0.5285
 8750SOL     OW27690   2.815   3.598  11.889 -0.2110 -0.1448 -0.4566
 8750SOL    HW127691   2.719   3.606  11.890 -0.3285 -1.4444  0.0879
 8750SOL    HW227692   2.846   3.688  11.878 -1.5007  0.2243 -1.3241
 8751SOL     OW27693   0.844   5.768   0.546 -0.1607 -0.0462  0.0791
 8751SOL    HW127694   0.790   5.830   0.596 -0.4027  1.1081 -1.5318
 8751SOL    HW227695   0.781   5.707   0.508 -0.2502  0.5733 -0.8069
 8752SOL     OW27696   1.890   2.727   1.185 -0.1598  0.3120 -0.2885
 8752SOL    HW127697   1.875   2.793   1.253 -0.0720 -1.6418  1.7207
 8752SOL    HW227698   1.802   2.699   1.160 -0.2234 -1.4875  1.6840
 8753SOL     OW27699   2.999   3.985   0.984  0.0442 -0.0661  0.2153
 8753SOL    HW127700   3.055   4.026   1.050 -0.6765 -1.6177  1.8577
 8753SOL    HW227701   2.924   4.044   0.976  0.2648  0.2703  0.5686
 8754SOL     OW27702   3.993   2.795  10.581  0.8372 -0.4176  0.0846
 8754SOL    HW127703   3.986   2.875  10.633 -0.8724  0.7865 -1.8201
 8754SOL    HW227704   4.067   2.748  10.619  1.0610  1.4085  2.1289
 8755SOL     OW27705   3.216   5.262   2.435 -0.1159  0.5571 -0.2301
 8755SOL    HW127706   3.172   5.179   2.452 -0.7743  0.6752 -1.2604
 8755SOL    HW227707   3.304   5.237   2.408 -0.7560  0.0869 -1.9896
 8756SOL     OW27708   3.990   4.039   1.830  0.3817 -0.0387 -0.1849
 8756SOL    HW127709   3.997   4.002   1.918 -2.8142 -2.3423 -0.6885
 8756SOL    HW227710   3.902   4.076   1.827  0.1958 -0.4939 -2.5116
 8757SOL     OW27711   4.449   4.205   3.101  0.7257 -0.0724 -0.1103
 8757SOL    HW127712   4.537   4.236   3.120  0.2102  0.1811  2.3057
 8757SOL    HW227713   4.461   4.118   3.064  2.0148  0.6269 -1.4133
 8758SOL     OW27714   3.144   7.387  12.413  0.4826  0.3818 -0.0149
 8758SOL    HW127715   3.126   7.478  12.439  2.3862  0.8554 -0.1852
 8758SOL    HW227716   3.187   7.395  12.328  1.4013 -0.6306  0.3412
 8759SOL     OW27717   3.546   4.042   1.130 -0.5392 -0.1546 -0.1560
 8759SOL    HW127718   3.631   4.045   1.086 -0.1955 -1.6145  0.3670
 8759SOL    HW227719   3.535   4.131   1.166  0.9777 -0.0677  0.1691
 8760SOL     OW27720   3.774   3.322   0.778  0.4052  0.0798 -0.0706
 8760SOL    HW127721   3.792   3.231   0.756  0.3287  0.2925 -1.0341
 8760SOL    HW227722   3.758   3.365   0.694 -0.5958  0.7631  0.4497
 8761SOL     OW27723   2.337   3.258  12.385 -0.4894  0.8307 -0.2871
 8761SOL    HW127724   2.315   3.199  12.312  2.4635 -0.3061 -0.4131
 8761SOL    HW227725   2.363   3.340  12.342 -1.4142  1.1040 -0.3288
 8762SOL     OW27726   3.741   3.952   2.112 -0.3028 -0.0139  0.5999
 8762SOL    HW127727   3.833   3.940   2.137 -0.3992 -0.2754  0.8308
 8762SOL    HW227728   3.729   4.047   2.112 -0.1003  0.0123  0.8211
 8763SOL     OW27729   4.063   3.947   2.079  0.1862  0.0855  0.4435
 8763SOL    HW127730   4.082   4.021   2.137  1.2080  0.5481 -0.4374
 8763SOL    HW227731   4.073   3.870   2.134 -1.0488  0.5807  1.4198
 8764SOL     OW27732   5.043   4.598   2.338 -0.2584  0.5350 -0.1971
 8764SOL    HW127733   4.960   4.550   2.334 -0.5362  0.9009  0.7161
 8764SOL    HW227734   5.022   4.677   2.388  1.0207 -0.2182  1.6538
 8765SOL     OW27735   2.107   4.795   1.165 -0.1473 -0.1704  0.5076
 8765SOL    HW127736   2.115   4.719   1.106  0.0554 -0.4281  0.8644
 8765SOL    HW227737   2.185   4.847   1.147  0.5856 -0.8980  1.4559
 8766SOL     OW27738   1.716   3.827   0.915  0.2209  0.0903 -0.4515
 8766SOL    HW127739   1.649   3.883   0.953 -1.0499 -2.0737  0.6695
 8766SOL    HW227740   1.796   3.847   0.965 -0.8030 -0.8249  1.6804
 8767SOL     OW27741   3.286   2.862   1.953  0.0708 -0.2701  0.2894
 8767SOL    HW127742   3.377   2.877   1.929 -0.4665 -0.4213 -2.0628
 8767SOL    HW227743   3.244   2.947   1.941  0.1359  0.2303  2.9508
 8768SOL     OW27744   2.597   4.785   4.551 -0.6566  0.8317 -0.4157
 8768SOL    HW127745   2.535   4.832   4.495 -1.6340  1.4551  1.1034
 8768SOL    HW227746   2.654   4.738   4.491 -3.3518 -0.7577 -1.9396
 8769SOL     OW27747   2.847   4.256   2.716 -0.0943  0.3659  0.6132
 8769SOL    HW127748   2.792   4.255   2.795 -0.6666  1.0232  0.2277
 8769SOL    HW227749   2.817   4.332   2.667 -0.8618 -0.9518 -1.0393
 8770SOL     OW27750   1.815   4.551   2.263 -0.2096  0.1418 -0.0141
 8770SOL    HW127751   1.744   4.490   2.245  0.9105 -0.8920 -1.1210
 8770SOL    HW227752   1.888   4.495   2.291  0.0478  1.2087  1.5859
 8771SOL     OW27753   2.181   5.786   1.728  0.2021  0.0163  0.1578
 8771SOL    HW127754   2.107   5.744   1.772 -0.1205  1.2409  0.8171
 8771SOL    HW227755   2.258   5.753   1.775 -0.0647  0.3840  0.8604
 8772SOL     OW27756   2.200   5.421   0.418  0.4541  0.0876  0.1836
 8772SOL    HW127757   2.154   5.500   0.391 -0.0797  0.3056  1.6182
 8772SOL    HW227758   2.233   5.382   0.337 -0.1893  1.2127 -0.6325
 8773SOL     OW27759   2.630   3.971   1.386  0.4440 -0.4553 -0.2361
 8773SOL    HW127760   2.676   4.030   1.326 -0.1405  0.3522  0.0881
 8773SOL    HW227761   2.650   4.007   1.473  0.1572 -0.7907 -0.0321
 8774SOL     OW27762   1.702   4.360   1.303 -0.1462  0.2961  0.4201
 8774SOL    HW127763   1.623   4.334   1.256 -0.1366  0.4922  0.2932
 8774SOL    HW227764   1.737   4.278   1.338 -0.9523  0.3343  1.3469
 8775SOL     OW27765   2.401   4.762   0.421 -0.6284 -0.0381  0.1658
 8775SOL    HW127766   2.475   4.821   0.408 -0.5189 -0.2706 -0.2754
 8775SOL    HW227767   2.423   4.712   0.500 -1.3680  1.4923  1.4128
 8776SOL     OW27768   3.120   3.587   0.400  0.4344 -0.5330 -0.1916
 8776SOL    HW127769   3.095   3.670   0.438 -0.2323  0.7877 -3.1886
 8776SOL    HW227770   3.114   3.524   0.472 -1.2797  1.5822  1.6545
 8777SOL     OW27771   2.304   5.597   2.508 -0.3155 -0.0923  0.2793
 8777SOL    HW127772   2.374   5.531   2.514 -1.3538 -1.2489  0.1346
 8777SOL    HW227773   2.345   5.678   2.540  1.4515 -0.4205 -0.9996
 8778SOL     OW27774   2.037   4.370   2.349  0.3297 -0.2158  0.1396
 8778SOL    HW127775   2.060   4.344   2.438 -2.4238 -1.2569  0.6808
 8778SOL    HW227776   2.058   4.293   2.295  3.8838  1.0975 -0.6125
 8779SOL     OW27777   2.818   5.220   2.502 -0.0571  0.1580  0.2680
 8779SOL    HW127778   2.865   5.298   2.532 -0.2752  0.9281 -1.2963
 8779SOL    HW227779   2.739   5.254   2.459  0.4736 -0.8172 -1.5949
 8780SOL     OW27780   1.775   4.294   0.919  0.1196 -0.1187  0.1204
 8780SOL    HW127781   1.810   4.308   1.008 -1.3493  1.8709  0.4594
 8780SOL    HW227782   1.692   4.342   0.919  0.1974  0.1074 -2.4198
 8781SOL     OW27783   2.333   5.637   1.906 -0.3303  0.1463 -0.0949
 8781SOL    HW127784   2.349   5.544   1.890 -0.0426  0.3119 -0.8217
 8781SOL    HW227785   2.403   5.664   1.965  1.2747  0.5237 -2.0764
 8782SOL     OW27786   2.578   4.334   1.068  0.3305 -1.0550 -0.0128
 8782SOL    HW127787   2.557   4.342   0.975  0.7606 -1.2056 -0.1240
 8782SOL    HW227788   2.665   4.293   1.070  0.4690 -0.7520  0.4438
 8783SOL     OW27789   4.459   3.561   0.142  0.5636 -0.0271  0.0511
 8783SOL    HW127790   4.367   3.573   0.120  0.4064 -3.3472 -1.8495
 8783SOL    HW227791   4.459   3.500   0.217  1.2027 -0.2141 -0.0874
 8784SOL     OW27792   2.729   2.973   0.871 -0.1957  0.2700 -0.4079
 8784SOL    HW127793   2.755   3.065   0.862 -2.2145  0.8699 -0.7581
 8784SOL    HW227794   2.710   2.963   0.965 -2.1756  0.9283 -0.6834
 8785SOL     OW27795   0.643   4.697  11.513 -0.1478  0.6471 -0.5525
 8785SOL    HW127796   0.625   4.694  11.420 -2.5076  2.2357 -0.2097
 8785SOL    HW227797   0.569   4.653  11.554 -0.1538  1.7130  0.6529
 8786SOL     OW27798   3.426   4.589   0.883  0.0634  1.0522  0.0770
 8786SOL    HW127799   3.504   4.643   0.894 -0.2487  1.7836 -1.1375
 8786SOL    HW227800   3.444   4.536   0.806  0.2457 -0.4256  1.0766
 8787SOL     OW27801   4.391   3.631   2.103 -0.1547  0.2890 -0.0754
 8787SOL    HW127802   4.435   3.693   2.045 -0.2988  0.8083  0.3616
 8787SOL    HW227803   4.461   3.571   2.131 -0.2911 -0.6438 -1.6341
 8788SOL     OW27804   1.491   2.909   1.161  0.1706  0.2420 -0.0176
 8788SOL    HW127805   1.471   2.919   1.254  0.5532  2.0010 -0.0969
 8788SOL    HW227806   1.405   2.905   1.119 -0.0009 -0.2652  0.3583
 8789SOL     OW27807   3.545   4.834   1.026  0.0567 -0.0101 -0.7883
 8789SOL    HW127808   3.451   4.847   1.039 -0.1829 -0.9971 -1.3808
 8789SOL    HW227809   3.576   4.918   0.992 -0.3442  0.7567  0.6680
 8790SOL     OW27810   3.086   5.878   1.571  0.3890 -0.2438 -0.0821
 8790SOL    HW127811   3.180   5.868   1.585  0.3536 -0.8721 -0.2375
 8790SOL    HW227812   3.060   5.950   1.628  0.7817 -0.7444  0.7534
 8791SOL     OW27813   4.115   6.897   1.874  0.1510 -0.3557 -0.3582
 8791SOL    HW127814   4.088   6.806   1.859  0.6996 -0.6129  0.1508
 8791SOL    HW227815   4.038   6.949   1.854 -0.7519 -1.0680  1.0936
 8792SOL     OW27816   1.834   4.600   3.880  0.0129 -0.6757  0.4256
 8792SOL    HW127817   1.783   4.520   3.874  0.0119 -0.6566  0.1973
 8792SOL    HW227818   1.913   4.583   3.829  0.1221 -0.6155  0.5722
 8793SOL     OW27819   3.636   4.686   1.804 -0.4473  0.6036 -0.2628
 8793SOL    HW127820   3.646   4.695   1.899 -0.7090 -1.8556  0.0486
 8793SOL    HW227821   3.558   4.632   1.793  1.3148 -1.8664 -1.6938
 8794SOL     OW27822   2.349   5.143   0.558 -0.2090 -0.0781  0.4481
 8794SOL    HW127823   2.360   5.057   0.599  0.2588  0.2427  1.0106
 8794SOL    HW227824   2.409   5.142   0.483  0.1999 -0.0424  0.7743
 8795SOL     OW27825   2.940   3.005   0.072 -0.4910  0.1900  0.1592
 8795SOL    HW127826   2.993   2.966   0.002  0.2486  1.3450  0.0429
 8795SOL    HW227827   2.872   3.055   0.025  1.5775  3.2179  0.0522
 8796SOL     OW27828   2.059   4.464   1.908  0.1266  0.0308 -0.0474
 8796SOL    HW127829   2.047   4.398   1.839 -0.7614 -0.3754  0.4817
 8796SOL    HW227830   1.982   4.521   1.901  0.4958  0.5438  0.0098
 8797SOL     OW27831   1.012   5.609   3.474 -0.0421  0.0330  0.2010
 8797SOL    HW127832   1.066   5.589   3.397 -0.8940 -1.6119 -0.0192
 8797SOL    HW227833   1.072   5.600   3.548 -0.3104 -4.0691  0.1778
 8798SOL     OW27834   1.164   4.967   0.363  0.0316  0.3189 -0.0193
 8798SOL    HW127835   1.108   5.044   0.359 -0.4372 -0.0514 -0.7639
 8798SOL    HW227836   1.245   4.999   0.403 -0.3139  1.0915  0.0914
 8799SOL     OW27837   2.401   4.913   3.449 -0.0782 -0.1277  0.0165
 8799SOL    HW127838   2.369   4.996   3.414  1.2138  0.5501  0.3870
 8799SOL    HW227839   2.322   4.867   3.477 -0.9742  0.1550 -1.9305
 8800SOL     OW27840   2.935   5.074   1.238 -0.0790 -0.2522 -0.5558
 8800SOL    HW127841   2.981   5.057   1.156  1.0408  0.3870 -0.0772
 8800SOL    HW227842   2.947   4.993   1.288  0.9823  0.0896 -0.2345
 8801SOL     OW27843   0.676   5.877   0.748  0.5629 -0.0254  0.1158
 8801SOL    HW127844   0.683   5.782   0.744 -0.3942 -0.0913 -0.4507
 8801SOL    HW227845   0.615   5.894   0.820 -1.4865 -0.0118 -1.5259
 8802SOL     OW27846   2.691   4.886   3.146 -0.2067  0.1493 -0.3375
 8802SOL    HW127847   2.643   4.963   3.174 -0.4759  0.0852 -0.6177
 8802SOL    HW227848   2.699   4.896   3.051  0.8554  0.4573 -0.2293
 8803SOL     OW27849   2.693   2.356   0.703 -0.2035 -0.1321 -0.1844
 8803SOL    HW127850   2.779   2.341   0.743 -1.6279  0.9781  3.8413
 8803SOL    HW227851   2.647   2.273   0.713 -0.6334  0.2073  0.8564
 8804SOL     OW27852   3.912   2.247   1.335  0.4652  0.2994 -0.2573
 8804SOL    HW127853   3.911   2.332   1.291 -0.1795  0.9899  1.0279
 8804SOL    HW227854   3.981   2.255   1.400  1.1336 -0.5665 -0.8431
 8805SOL     OW27855   1.015   5.527   1.760 -0.1455 -0.1543 -0.1499
 8805SOL    HW127856   0.937   5.552   1.710 -0.6791 -0.5575  0.4676
 8805SOL    HW227857   0.996   5.555   1.849  0.0174 -1.1058  0.1911
 8806SOL     OW27858   2.835   3.485   0.567  0.2100  0.4003  0.4142
 8806SOL    HW127859   2.752   3.438   0.561  0.5661 -0.1309 -0.5505
 8806SOL    HW227860   2.826   3.558   0.504  0.6427  0.0590 -0.0518
 8807SOL     OW27861   3.485   5.735   1.298 -0.5720 -0.1431  0.5543
 8807SOL    HW127862   3.571   5.766   1.328 -0.1316 -0.6505 -0.1463
 8807SOL    HW227863   3.485   5.752   1.204 -1.1159 -0.4296  0.5019
 8808SOL     OW27864   1.847   3.795   1.712  0.2606  0.1689  0.4827
 8808SOL    HW127865   1.864   3.701   1.705  0.9014  0.1191  2.3093
 8808SOL    HW227866   1.867   3.830   1.624 -0.3375 -1.4260 -0.3218
 8809SOL     OW27867   2.138   7.107   1.833  0.0802 -0.4968 -0.7957
 8809SOL    HW127868   2.118   7.027   1.783  0.7495 -2.3516  1.6922
 8809SOL    HW227869   2.230   7.125   1.812  0.5938 -1.7241  0.2728
 8810SOL     OW27870   1.927   5.630   1.763 -0.1628  0.2388  0.2069
 8810SOL    HW127871   1.844   5.646   1.807  0.7375  1.4636  1.5778
 8810SOL    HW227872   1.904   5.587   1.681 -2.4352  3.3853 -0.9813
 8811SOL     OW27873   1.158   5.343   0.615  0.0026  0.4427 -0.0371
 8811SOL    HW127874   1.194   5.418   0.567  1.9931 -1.0064 -1.0101
 8811SOL    HW227875   1.086   5.312   0.560  0.7778  0.1875 -0.9409
 8812SOL     OW27876   2.766   5.633   1.793 -0.1401 -0.5857  0.1537
 8812SOL    HW127877   2.760   5.721   1.755  0.4075  0.2684  1.9552
 8812SOL    HW227878   2.685   5.590   1.767 -0.7724  0.7136 -0.0952
 8813SOL     OW27879   3.036   5.322   1.224  0.1294  0.1986  0.3220
 8813SOL    HW127880   3.045   5.353   1.134 -0.3367  1.1651  0.5917
 8813SOL    HW227881   2.976   5.247   1.218  1.7506 -1.1108 -0.4210
 8814SOL     OW27882   3.535   7.007   1.747 -0.4777 -0.0469  0.0327
 8814SOL    HW127883   3.538   7.055   1.830 -1.5809  1.6329 -0.8299
 8814SOL    HW227884   3.550   7.075   1.681  4.1768 -1.8384 -1.1259
 8815SOL     OW27885   3.749   4.440   0.025  0.3555  0.1985 -0.4096
 8815SOL    HW127886   3.670   4.465   0.072  1.6696  1.8773  1.0218
 8815SOL    HW227887   3.726   4.356  -0.017 -1.8586  0.1903  0.6755
 8816SOL     OW27888   1.631   7.125   0.904 -0.0661  0.5652  0.5207
 8816SOL    HW127889   1.712   7.172   0.927 -0.5004  2.2377 -1.1737
 8816SOL    HW227890   1.611   7.074   0.983  0.7119  2.8376  2.3213
 8817SOL     OW27891   2.631   6.937   1.303 -0.1545  0.5308  0.9566
 8817SOL    HW127892   2.725   6.924   1.312 -0.0394 -0.2408 -0.9062
 8817SOL    HW227893   2.608   6.997   1.374  1.2105 -1.5420  3.3279
 8818SOL     OW27894   4.062   5.484   0.080  0.0355  0.4079  0.1517
 8818SOL    HW127895   4.131   5.418   0.074  0.0278  0.4104  0.0175
 8818SOL    HW227896   4.109   5.567   0.084  0.0405  0.5263 -1.4596
 8819SOL     OW27897   3.334   4.280   0.129  0.2372 -0.0281 -0.3857
 8819SOL    HW127898   3.403   4.213   0.131  0.0476 -0.3047 -1.7795
 8819SOL    HW227899   3.267   4.247   0.189  0.6150 -0.5563 -0.2449
 8820SOL     OW27900   3.125   4.633   1.192 -0.1935 -0.5638  0.0597
 8820SOL    HW127901   3.145   4.695   1.261 -0.4242 -0.1773 -0.2124
 8820SOL    HW227902   3.030   4.618   1.200 -0.2803 -0.2726 -0.3612
 8821SOL     OW27903   3.061   5.814   1.019  0.0996  0.7445 -0.5670
 8821SOL    HW127904   3.124   5.819   0.947  1.6045 -0.2819  0.6156
 8821SOL    HW227905   3.093   5.879   1.083  1.5290 -1.4815  1.1374
 8822SOL     OW27906   5.500   3.326   0.199 -0.6141 -0.5988  0.2685
 8822SOL    HW127907   5.531   3.369   0.119 -1.9055  1.1935  0.6624
 8822SOL    HW227908   5.536   3.379   0.270 -0.5987 -1.3709  0.8431
 8823SOL     OW27909   1.324   4.849   1.537  0.9943 -0.0495  0.2567
 8823SOL    HW127910   1.293   4.865   1.626  2.9750 -0.9504  1.1625
 8823SOL    HW227911   1.310   4.755   1.523 -0.0330  0.2203 -0.7215
 8824SOL     OW27912   2.655   5.723   0.708 -0.0588 -0.3539  0.2519
 8824SOL    HW127913   2.723   5.671   0.752 -0.0149  0.1718  0.8160
 8824SOL    HW227914   2.663   5.699   0.616  0.8962 -0.2943  0.3069
 8825SOL     OW27915   2.056   4.658   1.469 -0.3803 -0.1898 -0.1043
 8825SOL    HW127916   2.014   4.717   1.531  0.3517 -0.8289  1.0640
 8825SOL    HW227917   2.054   4.703   1.385 -0.6696  1.0657  0.5663
 8826SOL     OW27918   2.836   3.980   0.095 -0.2894 -0.4305 -0.1412
 8826SOL    HW127919   2.746   3.947   0.094 -0.9558  1.2798 -0.4694
 8826SOL    HW227920   2.889   3.907   0.065 -1.8627 -0.7319 -2.4538
 8827SOL     OW27921   2.549   5.335  11.351 -0.2113  0.6685 -0.1725
 8827SOL    HW127922   2.523   5.407  11.294  0.2972  1.1554  0.1945
 8827SOL    HW227923   2.517   5.256  11.307 -0.5791  1.1008 -0.6910
 8828SOL     OW27924   3.010   5.541   1.662  0.2167  0.0811  0.5739
 8828SOL    HW127925   3.015   5.446   1.653 -1.5322 -0.1288  1.4266
 8828SOL    HW227926   2.937   5.556   1.722 -0.4666  2.0130 -0.6484
 8829SOL     OW27927   2.627   4.178   2.011 -0.3367  0.5136 -0.1258
 8829SOL    HW127928   2.563   4.119   1.973  0.0726 -0.4308  0.6087
 8829SOL    HW227929   2.633   4.152   2.103  2.1577 -0.4578 -0.4641
 8830SOL     OW27930   2.555   4.199   2.299  0.0620  0.0810  0.7088
 8830SOL    HW127931   2.465   4.230   2.309 -0.2150 -0.7869  0.9407
 8830SOL    HW227932   2.550   4.105   2.314  0.7637 -0.2154 -0.7377
 8831SOL     OW27933   3.144   4.209   1.081 -0.1031  1.0127 -0.8428
 8831SOL    HW127934   3.093   4.276   1.035  0.2146  2.1639  0.4278
 8831SOL    HW227935   3.230   4.249   1.094  0.2746  0.1314 -0.5735
 8832SOL     OW27936   4.222   3.292   0.082 -0.2260  0.9524 -0.4169
 8832SOL    HW127937   4.201   3.384   0.069 -0.6314  0.9302  0.0615
 8832SOL    HW227938   4.288   3.291   0.151  2.2069  1.0940 -2.5556
 8833SOL     OW27939   3.742   4.630   1.465  0.2759  0.3726  0.3704
 8833SOL    HW127940   3.722   4.644   1.373 -0.1393  1.8277  0.6583
 8833SOL    HW227941   3.703   4.545   1.485  0.4211  0.0141 -0.8004
 8834SOL     OW27942   2.206   5.291   1.495 -0.1503  0.4794 -0.4359
 8834SOL    HW127943   2.186   5.289   1.588  1.6282 -1.3962 -0.0335
 8834SOL    HW227944   2.176   5.206   1.462  0.6971  0.4678 -1.2264
 8835SOL     OW27945   7.898   2.511   1.584  0.1575 -0.1679  0.4401
 8835SOL    HW127946   7.846   2.431   1.595  0.9378 -0.6242  0.8514
 8835SOL    HW227947   7.895   2.528   1.490  0.6089 -1.1190  0.2422
 8836SOL     OW27948   2.811   3.896   2.154 -0.0974 -0.3365  0.0207
 8836SOL    HW127949   2.900   3.931   2.155 -0.4917  0.7334 -0.3159
 8836SOL    HW227950   2.761   3.961   2.104 -0.7333 -1.7422 -1.2228
 8837SOL     OW27951   2.071   3.412   0.745 -0.5434 -0.6900  0.0406
 8837SOL    HW127952   2.018   3.491   0.747  0.9398  0.3662 -0.5472
 8837SOL    HW227953   2.161   3.444   0.736  0.1622 -2.4222  0.5666
 8838SOL     OW27954   3.027   3.761   0.039 -0.0748  0.3461  0.6853
 8838SOL    HW127955   2.946   3.726   0.076  0.2424  1.1629  2.2459
 8838SOL    HW227956   3.095   3.698   0.064 -0.3634 -1.1075 -1.8605
 8839SOL     OW27957   0.062   5.276   2.358  0.3638 -0.3522 -0.1839
 8839SOL    HW127958   0.097   5.308   2.441  1.4087  0.5092 -0.9290
 8839SOL    HW227959   0.139   5.255   2.306 -0.1642  1.8051 -1.9649
 8840SOL     OW27960   4.685   7.228   0.311 -0.1416  0.3534 -0.6734
 8840SOL    HW127961   4.689   7.315   0.351  0.0070  0.0516 -0.0139
 8840SOL    HW227962   4.647   7.172   0.379  1.2064 -0.4155 -0.5122
 8841SOL     OW27963   1.951   5.586   1.349  0.4259 -0.0673 -0.4717
 8841SOL    HW127964   1.933   5.527   1.423 -0.2403  0.6786 -0.0224
 8841SOL    HW227965   2.022   5.642   1.380 -2.1062  2.5668  1.0087
 8842SOL     OW27966   3.513   4.956   0.724 -0.2104  0.1173  0.0205
 8842SOL    HW127967   3.575   4.986   0.657 -2.3322  2.0577 -1.2227
 8842SOL    HW227968   3.538   5.005   0.802  0.1549  0.5007 -0.3252
 8843SOL     OW27969   3.065   3.163   2.260  0.0330  0.0356  0.0281
 8843SOL    HW127970   3.023   3.234   2.309  0.5276  0.2281  0.1760
 8843SOL    HW227971   3.121   3.119   2.324 -0.3150 -0.5284 -0.0481
 8844SOL     OW27972   3.027   4.344   2.958  0.0049 -0.4901 -0.3079
 8844SOL    HW127973   3.111   4.372   2.994 -0.6813  0.7533  0.3756
 8844SOL    HW227974   3.020   4.252   2.984  0.1374  0.0056  1.6006
 8845SOL     OW27975   2.538   3.169   0.493  0.1263  0.3676 -0.2164
 8845SOL    HW127976   2.593   3.167   0.414  0.3968 -0.6913 -0.0103
 8845SOL    HW227977   2.529   3.078   0.518 -0.8947  0.6105  0.3480
 8846SOL     OW27978   2.583   3.742  12.401  0.5088 -0.0982 -0.2652
 8846SOL    HW127979   2.677   3.727  12.401  0.5975  0.2886  1.4975
 8846SOL    HW227980   2.564   3.776  12.488 -1.2278  0.0886 -0.6834
 8847SOL     OW27981   1.966   2.656  11.763  0.1269  0.8325 -0.1898
 8847SOL    HW127982   1.962   2.749  11.785  2.8139  0.7854  0.8486
 8847SOL    HW227983   2.059   2.636  11.759 -0.3725 -1.9308  0.0054
 8848SOL     OW27984   2.033   4.167   2.594  0.0694  0.3339 -0.3922
 8848SOL    HW127985   2.103   4.103   2.581  0.1629  0.2465  0.5076
 8848SOL    HW227986   2.058   4.215   2.672 -0.4151  0.9316 -0.5961
 8849SOL     OW27987   2.295   3.786   0.064  0.5127  0.3267 -0.1080
 8849SOL    HW127988   2.381   3.806   0.101  1.7350  0.4107 -2.7750
 8849SOL    HW227989   2.301   3.693   0.039  0.0637  0.4889 -0.8388
 8850SOL     OW27990   1.350   5.150   0.488 -0.2612 -0.5408  0.2004
 8850SOL    HW127991   1.424   5.110   0.534  0.3962  0.2366 -0.1501
 8850SOL    HW227992   1.286   5.166   0.557  0.2785 -0.3731  0.6750
 8851SOL     OW27993   2.877   3.037   2.113  0.6346  0.1249  1.0219
 8851SOL    HW127994   2.943   3.064   2.177  0.1842 -0.7472  1.8767
 8851SOL    HW227995   2.808   2.995   2.165  0.8255 -1.7280 -0.1128
 8852SOL     OW27996   3.060   4.403   1.550  0.4623  0.4994  0.5867
 8852SOL    HW127997   3.008   4.385   1.472 -0.2341  1.2238  0.8772
 8852SOL    HW227998   3.143   4.436   1.516 -0.0489  1.3709  0.1553
 8853SOL     OW27999   4.438   5.522   1.112  0.3594  0.0212  0.2183
 8853SOL    HW128000   4.366   5.492   1.057  1.5922 -1.2725 -0.7829
 8853SOL    HW228001   4.448   5.614   1.090 -2.9450  1.1867  2.6994
 8854SOL     OW28002   1.813   5.723   2.059 -0.1112 -0.3415 -0.0573
 8854SOL    HW128003   1.725   5.709   2.024 -0.7791  0.5977  1.1606
 8854SOL    HW228004   1.847   5.635   2.076 -2.7347 -0.8085  3.9957
 8855SOL     OW28005   1.998   6.303   1.507  0.0910  0.1760 -0.2556
 8855SOL    HW128006   2.032   6.230   1.456 -1.3179 -0.2267 -0.6765
 8855SOL    HW228007   1.906   6.282   1.521 -0.6261  2.3274 -1.2382
 8856SOL     OW28008   2.623   2.785   0.712  0.0714  0.1533  0.4363
 8856SOL    HW128009   2.596   2.718   0.774 -2.6773  1.1359  0.4268
 8856SOL    HW228010   2.660   2.855   0.766 -0.0158 -0.0437  0.7523
 8857SOL     OW28011   1.998   3.628   2.078 -0.2610 -0.4587  0.1721
 8857SOL    HW128012   2.053   3.553   2.100  0.0997 -0.4312 -0.6127
 8857SOL    HW228013   2.041   3.669   2.003  0.9293  2.0089  2.0489
 8858SOL     OW28014   3.404   4.275   0.943 -0.1192  0.1427 -0.5798
 8858SOL    HW128015   3.498   4.259   0.954 -0.7865 -3.8584  1.0741
 8858SOL    HW228016   3.395   4.304   0.853  2.5602 -1.1098 -1.3636
 8859SOL     OW28017   1.565   2.313  12.468 -0.0827 -0.2190 -0.8596
 8859SOL    HW128018   1.554   2.345  12.379 -1.4386 -0.0015 -0.6273
 8859SOL    HW228019   1.477   2.311  12.505  0.2309 -1.9385 -0.0765
 8860SOL     OW28020   3.146   4.993   0.490 -0.9543  0.6943  0.1892
 8860SOL    HW128021   3.208   4.923   0.511 -1.1164 -0.3757 -2.4760
 8860SOL    HW228022   3.198   5.072   0.490 -0.0317  0.1018  0.0758
 8861SOL     OW28023   3.883   4.782   0.609  0.1992  0.0591  0.7056
 8861SOL    HW128024   3.967   4.824   0.589  0.1686  0.1679  0.8051
 8861SOL    HW228025   3.895   4.691   0.583 -0.6042  0.6597 -2.1071
 8862SOL     OW28026   4.150   4.167  11.207  0.6456  0.0696 -0.0983
 8862SOL    HW128027   4.243   4.167  11.227  0.8690 -0.6522 -1.1122
 8862SOL    HW228028   4.124   4.259  11.219  1.5026  0.3035  0.0548
 8863SOL     OW28029   2.489   3.828   2.711  0.0974 -0.3693  0.1736
 8863SOL    HW128030   2.416   3.797   2.765 -0.2225  0.6070  0.3090
 8863SOL    HW228031   2.489   3.770   2.635 -1.6740  0.4581 -0.4952
 8864SOL     OW28032   1.908   1.165   1.147  0.4755  0.3170  0.5995
 8864SOL    HW128033   1.900   1.077   1.110  3.2563  0.3841 -0.3720
 8864SOL    HW228034   1.954   1.152   1.230  0.7164  0.8190  0.5487
 8865SOL     OW28035   2.837   2.780   0.193  0.2047 -0.3208 -0.0330
 8865SOL    HW128036   2.884   2.846   0.143 -0.4214 -0.5769 -0.9798
 8865SOL    HW228037   2.818   2.710   0.131  1.7308 -1.9016  1.1830
 8866SOL     OW28038   3.857   4.297  11.832 -0.5030  0.1647 -0.0438
 8866SOL    HW128039   3.890   4.210  11.855  2.6374  1.2785  0.1613
 8866SOL    HW228040   3.763   4.292  11.849 -0.0411 -2.3560  2.6788
 8867SOL     OW28041   2.170   5.319  12.242  0.4396 -0.3497  0.0905
 8867SOL    HW128042   2.164   5.414  12.250 -0.0605 -0.4681  1.5746
 8867SOL    HW228043   2.263   5.301  12.233  0.3826  0.4043 -3.0764
 8868SOL     OW28044   5.138   3.553   0.602  0.4266 -0.5258  0.3915
 8868SOL    HW128045   5.055   3.552   0.553  0.4701 -0.7450  0.3211
 8868SOL    HW228046   5.190   3.621   0.559  0.0662  0.0219  0.8023
 8869SOL     OW28047   1.660   4.454   1.880 -0.1145  0.5095  0.4672
 8869SOL    HW128048   1.737   4.509   1.867 -1.2226  2.1955  0.7440
 8869SOL    HW228049   1.639   4.463   1.973 -0.1271 -0.6876  0.5999
 8870SOL     OW28050   1.577   2.881   3.822  0.2233  0.3105  0.4288
 8870SOL    HW128051   1.555   2.970   3.850  2.6438  0.7056  1.2711
 8870SOL    HW228052   1.492   2.836   3.819 -1.1174  2.7138 -0.4074
 8871SOL     OW28053   2.651   4.578   2.272  0.2419 -0.3235  0.2298
 8871SOL    HW128054   2.701   4.635   2.214 -1.9065 -0.3487 -1.7856
 8871SOL    HW228055   2.693   4.492   2.262 -0.0946 -0.3414 -1.3878
 8872SOL     OW28056   1.848   4.633   1.793  0.0979 -0.3349  0.5381
 8872SOL    HW128057   1.862   4.606   1.702  0.8943  0.4477  0.4070
 8872SOL    HW228058   1.794   4.712   1.786  0.1239 -0.2988  0.7464
 8873SOL     OW28059   1.900   5.336   4.507 -0.3261 -0.1721  0.1390
 8873SOL    HW128060   1.880   5.305   4.419 -0.1300 -0.9966  0.3772
 8873SOL    HW228061   1.992   5.362   4.502 -0.4790  0.3425 -0.0498
 8874SOL     OW28062   3.027   4.129   2.360 -1.0477 -0.7193  0.0818
 8874SOL    HW128063   3.045   4.155   2.270 -1.5783  0.3695  0.2752
 8874SOL    HW228064   2.975   4.201   2.396 -1.5360 -1.5133  1.0132
 8875SOL     OW28065   4.647   4.483   2.232 -0.4964 -0.3386 -0.2143
 8875SOL    HW128066   4.600   4.557   2.269  2.3829  2.0961 -1.0461
 8875SOL    HW228067   4.623   4.409   2.287 -0.3856  2.0333  3.2962
 8876SOL     OW28068   3.540   4.431   3.094  0.0988 -0.2219  0.0579
 8876SOL    HW128069   3.530   4.381   3.013  0.7631  2.0138 -1.4996
 8876SOL    HW228070   3.600   4.501   3.071  0.7609  0.1582  2.6920
 8877SOL     OW28071   3.301   4.476   2.355 -0.1909 -1.0817  0.1664
 8877SOL    HW128072   3.243   4.538   2.310 -0.3033 -0.9907  0.4395
 8877SOL    HW228073   3.355   4.439   2.285 -1.4260 -2.1025 -0.3047
 8878SOL     OW28074   2.911   5.264   1.743 -0.1579 -0.0506  0.3305
 8878SOL    HW128075   2.889   5.245   1.651  0.6805  1.8613 -0.3169
 8878SOL    HW228076   2.904   5.179   1.787  1.2467 -1.4296 -1.8793
 8879SOL     OW28077   3.095   4.485   3.818  0.2206  0.1274 -0.9710
 8879SOL    HW128078   3.033   4.446   3.881  0.2577 -0.1543 -1.1069
 8879SOL    HW228079   3.168   4.514   3.872 -0.1307  0.6745 -0.7794
 8880SOL     OW28080   1.519   4.857   2.325 -0.1125  0.2395  0.4548
 8880SOL    HW128081   1.487   4.916   2.393  1.1729  0.4592  0.9010
 8880SOL    HW228082   1.551   4.780   2.373  1.4774  0.7106  0.1850
 8881SOL     OW28083   3.458   5.668   3.303  0.8452  0.6696  0.0400
 8881SOL    HW128084   3.465   5.754   3.260  1.0055  0.0518 -1.2038
 8881SOL    HW228085   3.399   5.618   3.247 -0.5931  0.4713  1.6322
 8882SOL     OW28086   3.108   3.361   2.060 -0.5074  0.2990 -0.7211
 8882SOL    HW128087   3.127   3.283   2.113  0.8075  0.9592 -0.1654
 8882SOL    HW228088   3.019   3.347   2.028 -1.1071 -0.4387  1.1031
 8883SOL     OW28089   3.717   5.395   3.582  0.2553  0.5071  0.2312
 8883SOL    HW128090   3.663   5.351   3.648  1.0924  0.2648  0.7577
 8883SOL    HW228091   3.690   5.487   3.587  0.2207  0.4677  0.8078
 8884SOL     OW28092   1.345   5.607   2.608 -0.5407  0.7698 -0.0736
 8884SOL    HW128093   1.361   5.634   2.698  1.2816  2.2516 -0.7769
 8884SOL    HW228094   1.315   5.686   2.564  3.4700  1.5366 -1.8557
 8885SOL     OW28095   2.451   5.883   2.731  0.0897 -0.0917 -0.1092
 8885SOL    HW128096   2.418   5.966   2.766 -1.6357 -0.2013 -1.3254
 8885SOL    HW228097   2.386   5.818   2.757  0.6558 -0.8062 -0.4328
 8886SOL     OW28098   3.257   5.354   3.567 -0.4320 -0.4265  0.1539
 8886SOL    HW128099   3.278   5.279   3.512  1.3713  2.1472 -3.0219
 8886SOL    HW228100   3.329   5.358   3.631  1.2641  0.3026 -1.7041
 8887SOL     OW28101   2.187   6.518   2.078 -0.3372  0.5671  0.0017
 8887SOL    HW128102   2.173   6.485   2.167 -0.4242  0.9070  0.1188
 8887SOL    HW228103   2.270   6.566   2.083  0.0738 -0.1083 -0.3043
 8888SOL     OW28104   2.560   6.182   2.529  0.3763  0.4295  0.4150
 8888SOL    HW128105   2.621   6.126   2.481 -1.1216 -1.5279  0.7019
 8888SOL    HW228106   2.492   6.204   2.466  0.2202  0.7899  0.7015
 8889SOL     OW28107   2.126   4.447   3.197 -0.2316 -0.5055  0.1292
 8889SOL    HW128108   2.096   4.458   3.287 -0.2130 -1.4615  0.2640
 8889SOL    HW228109   2.220   4.433   3.205 -0.0564  0.4545 -0.1322
 8890SOL     OW28110   2.419   3.391   3.994  0.5517  0.4824  0.2323
 8890SOL    HW128111   2.490   3.335   4.028  1.6512  0.9022 -1.2601
 8890SOL    HW228112   2.412   3.366   3.902 -1.4187  0.3166  0.4002
 8891SOL     OW28113   2.273   6.952   1.591 -0.0909  0.2152  0.4569
 8891SOL    HW128114   2.237   6.894   1.523  0.4427 -0.8095  1.0196
 8891SOL    HW228115   2.232   6.921   1.672  1.4649 -0.5072  1.0076
 8892SOL     OW28116   1.566   5.108   2.891 -0.0604  0.3192  0.1843
 8892SOL    HW128117   1.644   5.145   2.933 -1.0273  0.8524  1.5569
 8892SOL    HW228118   1.530   5.048   2.956  0.0679 -1.1398 -1.0542
 8893SOL     OW28119   3.367   6.061   2.615  0.1492  0.5757 -0.6983
 8893SOL    HW128120   3.275   6.070   2.643  0.0698  2.0714 -1.3534
 8893SOL    HW228121   3.390   6.148   2.583  1.6767  0.0915 -0.9500
 8894SOL     OW28122   3.278   3.442   2.665  0.0961 -0.4272  0.1918
 8894SOL    HW128123   3.343   3.373   2.650 -1.9546 -2.1054 -1.6636
 8894SOL    HW228124   3.219   3.405   2.730 -0.8896 -0.3854 -0.6497
 8895SOL     OW28125   1.591   4.423   4.114 -0.1596  0.2055 -0.2862
 8895SOL    HW128126   1.522   4.488   4.128 -0.5816 -0.4973  1.0932
 8895SOL    HW228127   1.550   4.339   4.137  1.1920 -0.2016  0.8366
 8896SOL     OW28128   2.519   4.878   2.411 -0.2141  0.5826 -0.0241
 8896SOL    HW128129   2.463   4.952   2.433  0.3545  1.0858 -0.2740
 8896SOL    HW228130   2.603   4.899   2.451  0.2597  0.5766 -0.9975
 8897SOL     OW28131   2.546   5.150   3.141  0.0602 -0.0153  0.0198
 8897SOL    HW128132   2.484   5.155   3.214 -0.4803  0.6882 -0.4632
 8897SOL    HW228133   2.490   5.150   3.063  0.6490 -0.0453 -0.4074
 8898SOL     OW28134   2.422   4.616   2.955  0.1280 -0.0041 -0.0909
 8898SOL    HW128135   2.369   4.676   3.007  0.9179  0.3161  0.3643
 8898SOL    HW228136   2.418   4.651   2.866  0.6377  0.7689  0.1834
 8899SOL     OW28137   1.608   6.023   2.390  0.2693 -0.7151 -0.1044
 8899SOL    HW128138   1.658   6.101   2.367  2.0517 -1.9815 -0.7884
 8899SOL    HW228139   1.604   5.972   2.309  1.6137 -2.6003  0.9136
 8900SOL     OW28140   1.950   4.400   3.398  0.3435  0.0770 -0.1523
 8900SOL    HW128141   1.913   4.384   3.485  1.8207 -0.4934  0.4058
 8900SOL    HW228142   1.885   4.456   3.355  0.3398  1.8054  1.9065
 8901SOL     OW28143   1.747   4.365   3.157 -0.1207  0.3675 -0.0238
 8901SOL    HW128144   1.840   4.355   3.136 -0.6811  0.5414 -3.0355
 8901SOL    HW228145   1.720   4.278   3.185  0.7897  0.1241  0.1373
 8902SOL     OW28146   2.709   6.890   1.713  0.2198 -0.6419  0.0225
 8902SOL    HW128147   2.781   6.840   1.752 -0.2558 -1.8847 -0.6565
 8902SOL    HW228148   2.711   6.867   1.621  0.2101  0.9029 -0.3973
 8903SOL     OW28149   4.537   5.098   3.494 -0.3235 -0.0057 -0.5638
 8903SOL    HW128150   4.468   5.063   3.551  1.0434 -0.7156  0.7443
 8903SOL    HW228151   4.599   5.025   3.485  1.0217  1.0853 -0.4087
 8904SOL     OW28152   0.579   3.757   2.826 -0.2946 -0.1928 -0.4310
 8904SOL    HW128153   0.529   3.695   2.879 -0.3046 -0.6283 -0.9337
 8904SOL    HW228154   0.515   3.790   2.762 -0.3648  0.5743  0.0231
 8905SOL     OW28155   2.771   3.849   2.712 -0.6731  0.0972  0.0708
 8905SOL    HW128156   2.794   3.844   2.619  0.6598 -1.2523  0.4319
 8905SOL    HW228157   2.682   3.814   2.716 -0.0483 -1.6907 -0.5080
 8906SOL     OW28158   2.764   6.288   1.826  0.4773  0.0594  0.2953
 8906SOL    HW128159   2.799   6.210   1.869  0.8151  0.1846  0.2503
 8906SOL    HW228160   2.763   6.354   1.894  0.3970  0.0748  0.2784
 8907SOL     OW28161   1.594   4.060   2.101 -0.5563 -0.4333  0.0013
 8907SOL    HW128162   1.656   4.059   2.174  0.2667 -0.7062 -0.6891
 8907SOL    HW228163   1.637   4.114   2.034 -0.4509 -1.7177 -0.9963
 8908SOL     OW28164   3.876   4.159   3.749 -0.6230  0.6574  0.1306
 8908SOL    HW128165   3.826   4.078   3.751 -1.0342  0.8885 -0.6886
 8908SOL    HW228166   3.967   4.131   3.763 -0.7471  0.0475 -0.2558
 8909SOL     OW28167   3.576   4.671   2.098 -0.2905  0.2566 -0.3131
 8909SOL    HW128168   3.510   4.614   2.059 -0.1246  0.0858 -0.3455
 8909SOL    HW228169   3.628   4.614   2.154 -0.6325  0.5319  0.2958
 8910SOL     OW28170   1.646   4.382   2.173  0.2800  0.0874 -0.0785
 8910SOL    HW128171   1.592   4.378   2.252 -0.2696 -1.1990 -0.4983
 8910SOL    HW228172   1.693   4.299   2.172  2.2004  1.1143  0.1973
 8911SOL     OW28173   0.889   4.750   1.229 -0.6364 -0.8174 -0.1005
 8911SOL    HW128174   0.821   4.716   1.287 -0.4369 -0.8293  0.1283
 8911SOL    HW228175   0.970   4.739   1.279 -0.3026 -1.9372 -0.8375
 8912SOL     OW28176   1.000   5.121   1.929  0.2185  0.0121 -0.1109
 8912SOL    HW128177   1.012   5.195   1.989 -1.4050 -0.9674  1.5270
 8912SOL    HW228178   0.997   5.160   1.842 -0.2527  1.8349  0.6798
 8913SOL     OW28179   3.595   4.684   2.770 -0.1476  0.0874 -0.1669
 8913SOL    HW128180   3.518   4.656   2.819  1.2019  0.5074  2.3656
 8913SOL    HW228181   3.645   4.604   2.753 -0.4641 -0.0181 -0.6334
 8914SOL     OW28182   3.672   4.289   3.868 -0.2651  0.2248  0.4210
 8914SOL    HW128183   3.743   4.249   3.817  0.7950  1.0420  1.2068
 8914SOL    HW228184   3.680   4.383   3.850 -1.2370  0.3206  0.4393
 8915SOL     OW28185   2.334   3.956   2.939 -0.3362  0.2737 -0.2067
 8915SOL    HW128186   2.341   3.864   2.913 -1.2185  0.1754 -0.1203
 8915SOL    HW228187   2.396   4.001   2.882  0.5990 -0.4565  0.2157
 8916SOL     OW28188   1.536   4.188   3.846  0.2415 -0.3005 -0.1340
 8916SOL    HW128189   1.525   4.161   3.937  0.2699  0.8698  0.2347
 8916SOL    HW228190   1.603   4.129   3.811 -1.2116 -2.1157 -0.0157
 8917SOL     OW28191   2.724   6.465   2.823 -0.2340 -0.2105 -0.3561
 8917SOL    HW128192   2.710   6.471   2.728 -1.1295  0.2140 -0.2158
 8917SOL    HW228193   2.652   6.410   2.854  1.1961 -2.0420 -0.1434
 8918SOL     OW28194   1.972   7.521   2.570  0.9228 -0.3113 -0.4496
 8918SOL    HW128195   1.933   7.445   2.613  0.0369  0.9328  1.0517
 8918SOL    HW228196   2.049   7.542   2.623  1.4160 -0.4079 -1.1148
 8919SOL     OW28197   4.047   5.012   3.103 -0.0086 -0.0322  0.2025
 8919SOL    HW128198   4.008   4.990   3.187 -0.9028  1.3331  0.1741
 8919SOL    HW228199   4.137   5.037   3.123  0.3208 -1.3820  0.5108
 8920SOL     OW28200   1.328   4.558   1.470  0.0066  0.3868  0.3310
 8920SOL    HW128201   1.283   4.543   1.553 -2.2873  1.5286 -0.6217
 8920SOL    HW228202   1.371   4.475   1.450 -1.7949 -0.8107  1.2679
 8921SOL     OW28203   3.549   5.927   3.226 -0.3235 -0.5137  0.0717
 8921SOL    HW128204   3.612   5.874   3.178  1.9445  1.8926  0.1947
 8921SOL    HW228205   3.507   5.982   3.159  1.4453  1.4531  0.4561
 8922SOL     OW28206   1.581   4.716   4.726 -0.5210 -0.3554 -0.1962
 8922SOL    HW128207   1.660   4.711   4.673  0.1953 -0.2228  0.8335
 8922SOL    HW228208   1.578   4.806   4.757 -2.0522  0.1379 -1.6512
 8923SOL     OW28209   4.291   7.590   1.580  0.3628  0.1456 -0.0315
 8923SOL    HW128210   4.267   7.609   1.489  1.8614  1.2047 -0.2420
 8923SOL    HW228211   4.387   7.596   1.581  0.3280  0.9657  1.7879
 8924SOL     OW28212   1.973   4.744   2.901 -0.0058  0.3418 -0.2384
 8924SOL    HW128213   1.982   4.654   2.932 -1.1190  0.8559  1.6857
 8924SOL    HW228214   1.888   4.746   2.857  0.0808  0.4152 -0.4023
 8925SOL     OW28215   3.617   5.121   1.956  0.1371 -0.2597  0.3392
 8925SOL    HW128216   3.599   5.083   1.870  0.8798  1.0587 -0.4370
 8925SOL    HW228217   3.624   5.046   2.015  0.1244 -1.2158 -0.8423
 8926SOL     OW28218   4.236   6.632   3.997  0.3686  0.3020  0.2813
 8926SOL    HW128219   4.188   6.578   3.935 -1.6173  1.2822  0.8831
 8926SOL    HW228220   4.251   6.575   4.072  0.0990 -0.0056  0.1034
 8927SOL     OW28221   3.650   5.379   2.398  0.4405  0.4219 -0.4162
 8927SOL    HW128222   3.676   5.452   2.342  0.4712 -0.2757 -1.3273
 8927SOL    HW228223   3.726   5.363   2.454 -0.5260  2.9228  1.8419
 8928SOL     OW28224   2.719   6.189   2.110 -0.5719 -0.1178  0.2987
 8928SOL    HW128225   2.770   6.165   2.187  1.7882  1.2432 -0.7170
 8928SOL    HW228226   2.717   6.285   2.112  0.8728  0.0457 -2.0300
 8929SOL     OW28227   3.997   3.022   2.410 -0.4637  0.3229  0.3923
 8929SOL    HW128228   4.077   3.073   2.422 -0.6011  0.7444 -0.4306
 8929SOL    HW228229   4.010   2.976   2.327 -0.7375 -0.2456  0.6609
 8930SOL     OW28230   1.196   3.009   2.304  0.3053  0.2862 -0.3388
 8930SOL    HW128231   1.249   3.089   2.299 -0.2300  1.0671  3.3452
 8930SOL    HW228232   1.252   2.945   2.348  0.2272 -0.9841 -1.9714
 8931SOL     OW28233   3.673   3.941   3.699  0.1409  0.6418  0.1026
 8931SOL    HW128234   3.645   3.853   3.675  1.0918  0.2581  0.3247
 8931SOL    HW228235   3.600   3.978   3.747  0.0151 -0.3171  0.6683
 8932SOL     OW28236   2.290   4.181   2.318 -0.3098 -0.2490 -0.0515
 8932SOL    HW128237   2.278   4.130   2.397 -0.5573  1.1985  0.8851
 8932SOL    HW228238   2.209   4.168   2.268 -0.5278 -0.4579  0.3562
 8933SOL     OW28239   1.747   3.860   4.621  0.2569 -0.4551  0.0164
 8933SOL    HW128240   1.719   3.770   4.608 -0.3136 -0.0197 -2.2347
 8933SOL    HW228241   1.670   3.904   4.656 -0.1978 -0.3888 -1.0410
 8934SOL     OW28242   2.334   6.296   2.390  0.0223 -0.0973 -0.0995
 8934SOL    HW128243   2.279   6.259   2.320 -0.7163 -1.4135  1.1370
 8934SOL    HW228244   2.309   6.388   2.393 -1.3821 -0.4540 -0.2465
 8935SOL     OW28245   2.634   3.852   3.360  0.2548 -0.3595 -0.0924
 8935SOL    HW128246   2.678   3.827   3.278  0.3123  1.2133 -0.5625
 8935SOL    HW228247   2.701   3.901   3.409 -0.6775  1.3028 -0.4292
 8936SOL     OW28248   2.723   4.533   3.007 -0.3154  0.8634 -0.1238
 8936SOL    HW128249   2.638   4.577   2.997  0.1764  1.8308 -0.1125
 8936SOL    HW228250   2.770   4.555   2.926  0.2212  0.9933  0.2226
 8937SOL     OW28251   2.634   2.071   1.758 -0.0888  0.1675 -0.3931
 8937SOL    HW128252   2.575   2.068   1.683 -1.7198  2.9743  0.6118
 8937SOL    HW228253   2.715   2.110   1.724 -1.1251  2.2832 -0.6357
 8938SOL     OW28254   2.974   5.158   2.240  0.7858  0.6444 -0.9260
 8938SOL    HW128255   2.940   5.118   2.321  0.8625  3.4920  0.6372
 8938SOL    HW228256   3.056   5.199   2.266 -0.2417  3.5141 -1.8037
 8939SOL     OW28257   3.313   3.768   1.987  0.0581  0.6284  0.1651
 8939SOL    HW128258   3.291   3.792   1.897 -1.0594 -0.1197  0.2138
 8939SOL    HW228259   3.269   3.684   2.001 -0.8895  1.3443  1.8052
 8940SOL     OW28260   1.524   2.999   2.740  0.2459 -0.6731 -0.3464
 8940SOL    HW128261   1.529   2.999   2.644 -1.8380 -2.2857 -0.5278
 8940SOL    HW228262   1.464   3.070   2.760  2.1229  0.9023 -0.0489
 8941SOL     OW28263   1.856   6.248   2.940  0.1249  0.2012 -0.0278
 8941SOL    HW128264   1.822   6.159   2.940 -1.2933  0.7238 -0.2658
 8941SOL    HW228265   1.911   6.253   3.019  0.0481 -0.8130  0.0983
 8942SOL     OW28266   1.898   5.694   2.601 -0.1994 -0.5592 -0.6695
 8942SOL    HW128267   1.926   5.745   2.525  0.8337 -3.7663 -2.6550
 8942SOL    HW228268   1.803   5.706   2.604 -0.0403  1.1343 -1.2181
 8943SOL     OW28269   4.853   7.019   1.308  0.1803  0.2256  0.0792
 8943SOL    HW128270   4.911   6.944   1.294 -0.0562 -0.0705  0.6692
 8943SOL    HW228271   4.780   7.004   1.249  0.4596  0.3424 -0.3004
 8944SOL     OW28272   1.427   4.071   0.663  1.0016 -0.6907  0.4200
 8944SOL    HW128273   1.453   4.157   0.630 -0.6577 -0.9515 -1.8010
 8944SOL    HW228274   1.503   4.041   0.713  1.9340  1.6870  0.5939
 8945SOL     OW28275   1.855   2.670   4.594 -0.5353  0.4696 -0.0351
 8945SOL    HW128276   1.874   2.577   4.611 -0.8288  0.1071 -1.5064
 8945SOL    HW228277   1.941   2.711   4.589 -0.3588  0.0451 -0.5260
 8946SOL     OW28278   2.379   3.271   3.744  1.1950  0.2919  0.0401
 8946SOL    HW128279   2.289   3.239   3.745  0.9157  0.9997 -0.7976
 8946SOL    HW228280   2.422   3.222   3.674  1.2766  0.4310 -0.0075
 8947SOL     OW28281   1.804   3.255   1.773 -0.2202  0.7877  0.1005
 8947SOL    HW128282   1.812   3.164   1.743  0.5610  0.0217  2.4264
 8947SOL    HW228283   1.732   3.254   1.835 -0.0681  1.7163  0.3036
 8948SOL     OW28284   1.792   2.632   2.578  0.2873  0.0127 -0.0798
 8948SOL    HW128285   1.700   2.644   2.555 -0.1415  0.6227  1.7490
 8948SOL    HW228286   1.817   2.549   2.538 -0.2438  1.0977 -2.8658
 8949SOL     OW28287   2.442   4.546   1.254  0.1573  0.1736 -0.2571
 8949SOL    HW128288   2.495   4.543   1.174  2.4855 -0.0981  1.2034
 8949SOL    HW228289   2.454   4.635   1.287 -0.4741  0.1653  0.0075
 8950SOL     OW28290   2.683   3.549   3.361  0.0361  0.1905  0.9202
 8950SOL    HW128291   2.731   3.539   3.279 -1.9141  0.6444 -0.3281
 8950SOL    HW228292   2.692   3.463   3.404 -0.7031 -0.7929 -0.7974
 8951SOL     OW28293   3.700   4.587   2.334  0.0150 -0.0139 -0.5009
 8951SOL    HW128294   3.743   4.672   2.327  2.5028 -1.1888 -0.4241
 8951SOL    HW228295   3.634   4.599   2.402  2.6972  1.0051  2.1286
 8952SOL     OW28296   3.059   4.809   3.091  0.3662 -0.3382 -0.0784
 8952SOL    HW128297   3.031   4.719   3.076 -2.8358  0.6884 -1.0894
 8952SOL    HW228298   3.014   4.835   3.172  2.3072 -0.0009  0.9412
 8953SOL     OW28299   2.441   4.219   1.613 -0.1144 -0.3661  0.0767
 8953SOL    HW128300   2.424   4.138   1.565  0.3930  0.1745 -1.0492
 8953SOL    HW228301   2.370   4.224   1.677  0.0347 -1.8542  0.3953
 8954SOL     OW28302   2.032   3.971   2.916 -0.4232 -0.0922  0.2665
 8954SOL    HW128303   2.011   3.937   3.003  1.4931  0.6681  1.0826
 8954SOL    HW228304   2.124   3.950   2.904  0.0408  2.1099 -0.4415
 8955SOL     OW28305   2.012   4.064   3.365  0.3908  0.1429 -0.5425
 8955SOL    HW128306   2.100   4.046   3.334  0.3890  0.0946 -0.5188
 8955SOL    HW228307   2.004   4.160   3.363  0.1857  0.1176 -1.2729
 8956SOL     OW28308   2.502   4.660   3.375 -0.3854  0.5023 -0.5439
 8956SOL    HW128309   2.543   4.683   3.292  2.0347 -0.2974  0.3551
 8956SOL    HW228310   2.471   4.743   3.411  1.3068  1.2895 -0.8438
 8957SOL     OW28311   0.893   4.759   3.294 -0.0418  0.1366 -0.3452
 8957SOL    HW128312   0.812   4.762   3.344 -0.7450 -2.2576 -1.2205
 8957SOL    HW228313   0.872   4.799   3.210 -0.4006 -0.6657 -0.6455
 8958SOL     OW28314   3.451   7.265   6.513  0.5890  0.6800 -0.2200
 8958SOL    HW128315   3.416   7.205   6.578  1.0620 -0.6478 -1.1440
 8958SOL    HW228316   3.387   7.336   6.509 -2.4794 -1.9102 -2.2821
 8959SOL     OW28317   3.855   4.820   2.286  0.1451  0.0289 -0.3584
 8959SOL    HW128318   3.935   4.840   2.239 -0.3691  1.4704 -0.6568
 8959SOL    HW228319   3.871   4.851   2.375  0.1104 -0.1643 -0.2841
 8960SOL     OW28320   4.655   5.366   4.224  0.0550  0.7947  0.4096
 8960SOL    HW128321   4.694   5.438   4.174 -1.5885  2.7433  1.7924
 8960SOL    HW228322   4.578   5.341   4.173  0.4056  0.2367  0.1371
 8961SOL     OW28323   3.660   5.661   3.650 -0.0959  0.7643 -0.2894
 8961SOL    HW128324   3.568   5.687   3.663 -0.5736 -0.4416 -1.0607
 8961SOL    HW228325   3.710   5.720   3.707 -1.4812  0.2328  1.5772
 8962SOL     OW28326   2.220   4.781   3.028 -0.0223  0.6739 -0.1757
 8962SOL    HW128327   2.142   4.757   2.978  0.7574 -2.2420 -0.1763
 8962SOL    HW228328   2.190   4.788   3.118 -0.8242  2.7487 -0.5595
 8963SOL     OW28329   2.773   5.896   1.691 -0.6683 -0.0293  0.0727
 8963SOL    HW128330   2.828   5.963   1.732 -0.1000 -0.5556  0.1763
 8963SOL    HW228331   2.686   5.935   1.691 -0.5643  0.2607  1.1823
 8964SOL     OW28332   1.786   5.491   3.145 -0.4034  0.0631  0.0590
 8964SOL    HW128333   1.692   5.494   3.161 -0.4042  0.7690 -0.0406
 8964SOL    HW228334   1.817   5.579   3.166 -0.1373  0.5536 -2.1737
 8965SOL     OW28335   0.772   4.511   3.110 -0.0956 -0.3810  0.4291
 8965SOL    HW128336   0.729   4.430   3.136  2.0793 -1.4483  0.8503
 8965SOL    HW228337   0.766   4.567   3.187 -0.8668 -0.4137  0.4072
 8966SOL     OW28338   3.734   4.389   1.631  0.5833 -0.7247 -0.0614
 8966SOL    HW128339   3.751   4.296   1.621 -0.3457 -0.8614 -0.4016
 8966SOL    HW228340   3.645   4.394   1.666  0.9724  0.0035  0.8930
 8967SOL     OW28341   3.888   5.193   1.920 -0.2511 -0.5287  0.1296
 8967SOL    HW128342   3.927   5.170   2.004 -0.4607 -0.4467  0.2486
 8967SOL    HW228343   3.796   5.170   1.930  0.0564 -2.3588 -0.7235
 8968SOL     OW28344   3.568   6.376   2.129 -0.8310  0.3299 -0.0498
 8968SOL    HW128345   3.524   6.434   2.067 -1.3241  0.2498  0.2143
 8968SOL    HW228346   3.611   6.435   2.191 -1.1119  0.4117  0.0666
 8969SOL     OW28347   3.147   3.078   1.881  0.4471  0.1946 -0.2188
 8969SOL    HW128348   3.054   3.058   1.867  0.3254  1.1386 -0.8263
 8969SOL    HW228349   3.167   3.144   1.815  1.0537  1.4124  1.1534
 8970SOL     OW28350   3.493   5.300   1.159 -0.2848 -0.1557 -0.0070
 8970SOL    HW128351   3.472   5.231   1.223  0.6446 -1.8494 -1.4580
 8970SOL    HW228352   3.408   5.324   1.121 -0.9537  1.3539  2.2292
 8971SOL     OW28353   1.105   4.786   4.212 -0.1560 -0.5519 -0.0235
 8971SOL    HW128354   1.196   4.793   4.242  0.3049  0.5322 -1.5278
 8971SOL    HW228355   1.060   4.859   4.255 -0.1228 -0.6089  0.1065
 8972SOL     OW28356   3.370   4.704   3.697  0.6408 -0.4803  0.5481
 8972SOL    HW128357   3.409   4.649   3.629  2.0493  0.2104  0.7377
 8972SOL    HW228358   3.446   4.737   3.746 -0.2866 -0.0370  1.7200
 8973SOL     OW28359   2.811   3.156   4.555 -0.2095  0.3852  0.3278
 8973SOL    HW128360   2.800   3.154   4.650  3.5775 -1.3393  0.8690
 8973SOL    HW228361   2.841   3.245   4.537 -1.8341  1.0134  0.5378
 8974SOL     OW28362   1.649   4.370   3.529 -0.3285 -0.0912 -0.3717
 8974SOL    HW128363   1.568   4.329   3.497  0.4408 -0.5085 -1.9336
 8974SOL    HW228364   1.674   4.430   3.458  0.5636  0.2519  0.2264
 8975SOL     OW28365   2.827   4.488   2.552  0.1873  0.0223 -0.2246
 8975SOL    HW128366   2.900   4.538   2.515  1.5219 -1.9533 -0.4359
 8975SOL    HW228367   2.817   4.414   2.493 -1.2795 -0.3308  0.4260
 8976SOL     OW28368   2.805   4.287   2.390  0.2125  0.2835  0.1292
 8976SOL    HW128369   2.829   4.285   2.297 -0.2139 -1.2490  0.0209
 8976SOL    HW228370   2.721   4.241   2.394  0.1778  0.4269  1.2620
 8977SOL     OW28371   1.144   3.806   2.104  0.0420 -0.2003  0.3464
 8977SOL    HW128372   1.236   3.796   2.080  0.2897 -0.3960  1.3442
 8977SOL    HW228373   1.145   3.870   2.175 -0.4035 -1.4305  1.5025
 8978SOL     OW28374   1.818   4.519   1.519 -0.4089 -0.1980 -0.1391
 8978SOL    HW128375   1.904   4.541   1.483  0.0997 -0.8999  0.6159
 8978SOL    HW228376   1.790   4.443   1.468  0.5382 -1.5097  1.2326
 8979SOL     OW28377   1.021   2.939   3.267 -0.2460 -0.5874  0.2256
 8979SOL    HW128378   1.103   2.890   3.268  1.2584  1.7835 -0.3100
 8979SOL    HW228379   0.971   2.900   3.196  1.6729 -0.2173 -1.4069
 8980SOL     OW28380   4.494   4.865   3.323  0.3022 -0.1013  0.0203
 8980SOL    HW128381   4.507   4.786   3.375  1.7781  0.4989  0.6304
 8980SOL    HW228382   4.566   4.865   3.261  0.0490  0.5297 -0.2839
 8981SOL     OW28383   2.081   3.056   1.966 -0.0973  0.3317 -0.3279
 8981SOL    HW128384   2.048   3.031   1.880  0.9974  0.0944 -0.7004
 8981SOL    HW228385   2.176   3.040   1.961 -0.0566  0.0249  1.0205
 8982SOL     OW28386   3.775   3.663   2.562 -0.3501 -0.3361 -0.2981
 8982SOL    HW128387   3.788   3.678   2.655  1.2167  2.7566 -0.8750
 8982SOL    HW228388   3.703   3.720   2.538 -0.7928 -1.1634 -0.9862
 8983SOL     OW28389   3.393   5.587   2.683 -0.2580 -0.3209 -0.5221
 8983SOL    HW128390   3.301   5.605   2.659 -0.1180  1.9386  0.3304
 8983SOL    HW228391   3.441   5.662   2.648  1.0064 -0.5981  0.5666
 8984SOL     OW28392   3.114   6.125   2.651 -0.0809  0.1341 -0.3811
 8984SOL    HW128393   3.091   6.213   2.680 -2.1878 -0.2714 -0.6205
 8984SOL    HW228394   3.030   6.078   2.650  1.1893 -2.4342  1.5828
 8985SOL     OW28395   3.459   4.723   4.107  0.2926 -0.1914 -0.9239
 8985SOL    HW128396   3.553   4.724   4.093  0.3833 -0.6148 -0.4048
 8985SOL    HW228397   3.448   4.751   4.198 -0.0734 -0.2523 -0.9457
 8986SOL     OW28398   2.561   3.706   2.477 -0.4886 -0.5079 -0.4484
 8986SOL    HW128399   2.534   3.656   2.400  1.6076 -0.3237 -1.3527
 8986SOL    HW228400   2.649   3.737   2.456 -0.5605  1.0345  1.3234
 8987SOL     OW28401   4.456   4.965   2.617  0.3697 -0.2382  0.3465
 8987SOL    HW128402   4.547   4.990   2.601 -0.1707  0.6119 -1.7071
 8987SOL    HW228403   4.429   5.023   2.689  1.5173 -0.7420  1.2204
 8988SOL     OW28404   4.075   5.436   2.458  0.0003  0.2375 -0.1142
 8988SOL    HW128405   4.077   5.346   2.492  2.3069 -0.1447 -1.0743
 8988SOL    HW228406   4.101   5.490   2.533 -0.8465  0.0799  0.3113
 8989SOL     OW28407   0.091   3.544   1.773 -0.0693  0.1993 -0.9614
 8989SOL    HW128408   0.136   3.585   1.847  0.1975 -0.9301 -0.4667
 8989SOL    HW228409   0.138   3.577   1.696  1.5489 -0.7907 -0.4689
 8990SOL     OW28410   2.258   3.035   3.446  0.4730  0.1006  0.0651
 8990SOL    HW128411   2.185   3.065   3.392  0.3123  1.6895  1.1071
 8990SOL    HW228412   2.274   2.945   3.416 -0.7462  0.3208 -1.3871
 8991SOL     OW28413   0.560   4.383   2.007 -0.0716 -0.1751 -0.1466
 8991SOL    HW128414   0.624   4.389   2.078 -0.0026  1.1368 -0.3006
 8991SOL    HW228415   0.610   4.349   1.933  0.3236  0.3169 -0.1106
 8992SOL     OW28416   0.782   5.802   3.409 -0.1072 -0.1445 -0.2345
 8992SOL    HW128417   0.828   5.885   3.413  0.2514 -0.3779  2.5766
 8992SOL    HW228418   0.834   5.742   3.463 -1.5432 -1.5554 -0.3109
 8993SOL     OW28419   1.277   4.007   3.004 -0.3797  0.1054 -0.4725
 8993SOL    HW128420   1.183   4.010   3.022 -0.4351 -0.7656 -0.5574
 8993SOL    HW228421   1.309   3.936   3.060 -0.0352 -0.6070 -1.5480
 8994SOL     OW28422   2.016   4.113   2.241  0.7829 -0.4282 -0.4238
 8994SOL    HW128423   2.037   4.020   2.239 -1.5836 -1.0460  0.1634
 8994SOL    HW228424   2.005   4.137   2.150  1.6931 -0.6206 -0.5974
 8995SOL     OW28425   0.923   3.900   3.102 -0.0985 -0.0347  0.1473
 8995SOL    HW128426   0.923   3.826   3.040  0.7516 -0.0021  0.0881
 8995SOL    HW228427   0.989   3.876   3.167  1.5733  1.4715 -0.8840
 8996SOL     OW28428   2.272   4.994   2.689 -0.5176  0.1389 -0.6119
 8996SOL    HW128429   2.296   5.003   2.597 -0.0510 -1.2056 -0.6479
 8996SOL    HW228430   2.190   5.041   2.697 -1.8456 -1.6971 -2.3121
 8997SOL     OW28431   3.472   5.933   2.855 -0.7032 -0.1069 -0.2386
 8997SOL    HW128432   3.547   5.985   2.883  0.1688 -1.3108 -0.2820
 8997SOL    HW228433   3.450   5.968   2.768  0.2394 -0.1684 -0.5196
 8998SOL     OW28434   0.175   6.586   0.949 -0.0522  0.4630 -0.0624
 8998SOL    HW128435   0.251   6.538   0.981 -1.3768 -1.0365  1.0256
 8998SOL    HW228436   0.174   6.569   0.855  0.5550 -0.0982  0.0269
 8999SOL     OW28437   2.383   4.218   3.828 -0.2290 -0.5382 -0.1676
 8999SOL    HW128438   2.461   4.199   3.775 -0.9082 -0.9470 -1.0511
 8999SOL    HW228439   2.390   4.312   3.846 -0.7443 -0.0408 -2.3132
 9000SOL     OW28440   3.625   2.804   2.513 -0.2634 -0.2286  0.0194
 9000SOL    HW128441   3.705   2.818   2.564 -1.1096 -0.6420  1.5432
 9000SOL    HW228442   3.602   2.713   2.531 -2.5214  0.6171  1.8732
 9001SOL     OW28443   3.434   4.079   2.337 -0.1098 -0.1776 -0.0912
 9001SOL    HW128444   3.416   4.155   2.282 -0.7282 -1.0494 -1.1241
 9001SOL    HW228445   3.365   4.016   2.315  0.4985 -1.1156  0.5956
 9002SOL     OW28446   2.683   3.174   3.316 -0.0753 -0.3948  0.1057
 9002SOL    HW128447   2.697   3.117   3.240 -0.4560 -1.3116  0.7106
 9002SOL    HW228448   2.759   3.233   3.316  1.2547 -2.0377  0.4586
 9003SOL     OW28449   3.559   5.314   3.796 -0.2258  0.0134 -0.5463
 9003SOL    HW128450   3.498   5.329   3.867 -1.2606 -1.2894 -1.1040
 9003SOL    HW228451   3.602   5.231   3.818  2.5368  1.6244  0.6043
 9004SOL     OW28452   0.962   4.905   2.070 -0.0235 -0.0216  0.1355
 9004SOL    HW128453   1.001   4.978   2.023  1.4380 -0.2029  0.9870
 9004SOL    HW228454   0.922   4.851   2.002  2.0047 -0.2785 -0.9438
 9005SOL     OW28455   3.283   4.894   3.337  0.5285  0.2017  0.6332
 9005SOL    HW128456   3.345   4.851   3.278 -1.5836 -0.2828 -1.3580
 9005SOL    HW228457   3.266   4.829   3.405  2.1744  0.3641  1.2458
 9006SOL     OW28458   2.008   6.120   4.515  0.2066 -0.9268 -0.3887
 9006SOL    HW128459   2.037   6.208   4.493 -1.1341 -0.8180 -1.8690
 9006SOL    HW228460   1.977   6.126   4.605  1.6302 -0.3015  0.0930
 9007SOL     OW28461   7.042   4.967   2.834 -0.0612 -0.1295 -0.3815
 9007SOL    HW128462   7.065   5.005   2.749  1.3502 -0.2053 -0.0592
 9007SOL    HW228463   6.999   5.039   2.881 -1.1712 -0.1921 -1.2630
 9008SOL     OW28464   4.166   5.335   3.323 -0.3461 -0.2790 -0.7484
 9008SOL    HW128465   4.109   5.317   3.397  1.7800 -0.7983  0.8454
 9008SOL    HW228466   4.139   5.422   3.293 -0.5942  0.4056  1.3036
 9009SOL     OW28467   4.934   4.331   2.404  0.2221  0.1738  0.1997
 9009SOL    HW128468   4.974   4.316   2.490 -2.2444  3.4588  2.1576
 9009SOL    HW228469   4.858   4.272   2.403  0.0677  0.3681  0.4164
 9010SOL     OW28470   3.983   4.612   1.658  0.2758  0.0559  0.4095
 9010SOL    HW128471   4.059   4.644   1.609  0.2631  0.1707  0.4623
 9010SOL    HW228472   3.977   4.520   1.636 -1.6827  0.7149 -2.3781
 9011SOL     OW28473   2.532   5.909   3.141 -0.0762 -0.1800  0.7621
 9011SOL    HW128474   2.571   5.838   3.192 -0.9976 -1.2066  0.0857
 9011SOL    HW228475   2.438   5.894   3.147 -0.2694  0.7174  0.2139
 9012SOL     OW28476   2.097   2.348   3.753 -0.3804  0.0047 -0.3952
 9012SOL    HW128477   2.118   2.269   3.704  2.7299 -0.6400  1.6637
 9012SOL    HW228478   2.135   2.419   3.703 -0.4850 -0.1751 -0.7311
 9013SOL     OW28479   1.795   4.819   3.186 -0.0961  0.8620 -0.4688
 9013SOL    HW128480   1.885   4.852   3.179 -0.5351  2.5832  1.0513
 9013SOL    HW228481   1.740   4.897   3.176 -1.3733  0.0090 -0.3356
 9014SOL     OW28482   2.177   4.726   3.555 -0.7010 -0.4737  0.0484
 9014SOL    HW128483   2.123   4.751   3.629  0.1276  0.7892  0.2677
 9014SOL    HW228484   2.256   4.689   3.594 -0.5837 -0.5125 -0.2205
 9015SOL     OW28485   2.064   6.715   3.293 -0.0035 -0.1564 -0.1983
 9015SOL    HW128486   2.040   6.666   3.372 -0.7395 -0.3815 -0.5505
 9015SOL    HW228487   2.156   6.694   3.279  0.0619 -0.3283  0.4466
 9016SOL     OW28488   1.731   4.733   2.782  0.2379 -0.4441 -0.4264
 9016SOL    HW128489   1.740   4.810   2.726  1.6266 -0.6280 -0.4790
 9016SOL    HW228490   1.654   4.752   2.836  1.7875  1.9967  1.1049
 9017SOL     OW28491   3.078   3.623   2.078 -0.0515 -0.2498  0.7864
 9017SOL    HW128492   3.064   3.650   2.169 -2.2966 -0.1808  0.4789
 9017SOL    HW228493   3.087   3.528   2.082 -1.1661 -0.3591  1.0062
 9018SOL     OW28494   2.987   4.330   3.612  0.1848 -0.1012 -0.2607
 9018SOL    HW128495   2.986   4.238   3.638  1.6242 -0.1001 -0.0922
 9018SOL    HW228496   3.021   4.377   3.688  2.8409  0.0974 -1.4540
 9019SOL     OW28497   2.841   4.811   2.194  0.2755  1.1808  0.6763
 9019SOL    HW128498   2.827   4.868   2.269  1.0980  0.9258  1.0350
 9019SOL    HW228499   2.936   4.794   2.194 -0.1200 -1.4971  1.5299
 9020SOL     OW28500   3.722   5.509   1.526 -0.1798  0.0728 -0.0225
 9020SOL    HW128501   3.708   5.598   1.556 -0.2832  0.4110 -1.0197
 9020SOL    HW228502   3.796   5.516   1.465 -0.3910 -0.4559 -0.3506
 9021SOL     OW28503   2.394   4.520   3.589 -0.2739  0.1571  0.2418
 9021SOL    HW128504   2.460   4.513   3.658  1.1583 -0.4305 -1.1404
 9021SOL    HW228505   2.434   4.574   3.522 -0.7528 -1.0708 -1.0897
 9022SOL     OW28506   2.284   5.405   0.111 -0.2763  0.1084  0.3688
 9022SOL    HW128507   2.305   5.461   0.036  0.8652 -0.0702  0.5319
 9022SOL    HW228508   2.342   5.436   0.181 -0.2944 -0.6770  0.7399
 9023SOL     OW28509   2.820   4.211   1.591  0.1567  0.1995  0.2522
 9023SOL    HW128510   2.772   4.129   1.603 -2.7405  1.7910  0.3416
 9023SOL    HW228511   2.910   4.183   1.572 -0.0890 -2.9010  2.8110
 9024SOL     OW28512   1.904   5.279   2.578  0.5710  0.7033 -0.1697
 9024SOL    HW128513   1.955   5.355   2.551 -0.5410  1.7235  0.4748
 9024SOL    HW228514   1.847   5.261   2.503  1.3017  0.0576 -0.5845
 9025SOL     OW28515   1.356   6.096   1.205  0.1223  0.0426 -0.5130
 9025SOL    HW128516   1.413   6.088   1.128  2.9668  0.1069  1.4431
 9025SOL    HW228517   1.335   6.006   1.229  1.7623 -0.1612  0.3130
 9026SOL     OW28518   1.018   4.126   2.694 -1.0048 -0.0570 -0.0842
 9026SOL    HW128519   1.036   4.039   2.659 -2.0971 -1.1744  1.9545
 9026SOL    HW228520   0.936   4.116   2.743 -0.7172  1.9211  0.8936
 9027SOL     OW28521   2.409   3.854   4.225  0.8192  0.0372  0.2352
 9027SOL    HW128522   2.406   3.782   4.162 -0.7688 -0.2769  0.6254
 9027SOL    HW228523   2.453   3.925   4.178  0.2323 -0.3927 -1.0309
 9028SOL     OW28524   0.776   4.778   1.644 -0.4240 -0.3232 -0.4329
 9028SOL    HW128525   0.844   4.834   1.605 -0.9005  0.8070  0.3066
 9028SOL    HW228526   0.720   4.753   1.570  0.9212 -1.5149 -1.1074
 9029SOL     OW28527   3.489   4.285   2.838 -0.4324  0.0240 -0.3162
 9029SOL    HW128528   3.487   4.199   2.880 -0.9321  0.4739  0.6131
 9029SOL    HW228529   3.401   4.295   2.800 -0.8398  0.6728  0.7528
 9030SOL     OW28530   2.352   3.604   3.301 -0.1313  0.6324 -0.1652
 9030SOL    HW128531   2.315   3.516   3.305 -0.6797  0.8611 -0.1137
 9030SOL    HW228532   2.282   3.658   3.265  0.4359  0.9236 -0.8719
 9031SOL     OW28533   2.812   6.656   1.564 -0.0439 -0.1512 -0.2144
 9031SOL    HW128534   2.745   6.588   1.574 -2.4227  2.0218 -0.3419
 9031SOL    HW228535   2.888   6.622   1.612 -1.0735 -2.8987 -0.3767
 9032SOL     OW28536   2.656   4.283   2.921  0.0633 -0.4955  0.5800
 9032SOL    HW128537   2.599   4.241   2.985  1.2841 -1.7389  0.9046
 9032SOL    HW228538   2.683   4.365   2.963  1.0811 -1.4274  1.8177
 9033SOL     OW28539   3.009   4.883   2.843 -0.2058 -0.4562 -0.0174
 9033SOL    HW128540   2.922   4.915   2.867  0.6005  1.4250  0.6176
 9033SOL    HW228541   3.052   4.863   2.926 -0.0910 -1.6049 -0.3363
 9034SOL     OW28542   2.956   4.335   4.067  0.2595 -0.2966  0.0840
 9034SOL    HW128543   2.991   4.250   4.039  0.2083 -0.4482  0.4807
 9034SOL    HW228544   3.026   4.373   4.120  1.2191  0.9080 -1.9048
 9035SOL     OW28545   4.084   5.783   3.802 -0.8660  0.2607 -0.2477
 9035SOL    HW128546   4.085   5.697   3.759  0.5285  0.4362 -0.6211
 9035SOL    HW228547   4.024   5.772   3.876  1.0175 -1.7630  1.0904
 9036SOL     OW28548   3.299   5.003   2.889 -0.2615  0.0911  0.3441
 9036SOL    HW128549   3.383   5.028   2.852 -1.1626  1.2791 -0.9718
 9036SOL    HW228550   3.295   5.049   2.973  0.8210 -0.8227  0.9298
 9037SOL     OW28551   2.914   4.606   1.671  0.4005  0.0141  0.5171
 9037SOL    HW128552   2.960   4.610   1.755  0.3871 -0.5054  0.5516
 9037SOL    HW228553   2.951   4.530   1.627  1.9967  1.5255 -0.9118
 9038SOL     OW28554   1.372   3.019   3.084  0.5432 -0.0843 -0.3768
 9038SOL    HW128555   1.374   3.105   3.042 -0.0964  0.2464  0.2617
 9038SOL    HW228556   1.280   2.992   3.081  0.4702 -0.0295  0.8576
 9039SOL     OW28557   1.992   3.307   1.974 -0.1670  0.1341  0.6281
 9039SOL    HW128558   2.018   3.219   2.001 -0.1981  0.4747  1.8235
 9039SOL    HW228559   1.921   3.292   1.911  0.2358 -0.7019  0.3535
 9040SOL     OW28560   4.117   4.670   3.556 -0.1587 -0.7557  0.0007
 9040SOL    HW128561   4.128   4.587   3.602  2.3500  0.2923  1.4790
 9040SOL    HW228562   4.147   4.736   3.618 -0.8413  1.1663 -1.6047
 9041SOL     OW28563   2.862   4.827   3.921 -0.3745  0.5660 -0.1775
 9041SOL    HW128564   2.830   4.882   3.993 -2.4915  2.5818 -2.4996
 9041SOL    HW228565   2.787   4.772   3.898  0.0456  0.4186 -1.2571
 9042SOL     OW28566   2.394   6.859   1.927  0.1579  0.1622 -0.3072
 9042SOL    HW128567   2.400   6.804   1.850  4.7757 -0.3976  0.1900
 9042SOL    HW228568   2.427   6.805   1.999  1.6725  2.4160  0.8513
 9043SOL     OW28569   2.582   6.120   1.449  0.2645  0.0083  0.6200
 9043SOL    HW128570   2.561   6.092   1.538 -0.8501 -0.8602  0.1088
 9043SOL    HW228571   2.670   6.156   1.455  0.8689 -1.5544  1.7517
 9044SOL     OW28572   2.565   4.090   2.617  0.5752  0.6874  0.1297
 9044SOL    HW128573   2.657   4.115   2.630  0.4096  0.7617  1.2858
 9044SOL    HW228574   2.559   4.001   2.653  0.1304  0.8189  0.3942
 9045SOL     OW28575   2.698   5.992   0.824 -0.9952 -0.2942 -0.3235
 9045SOL    HW128576   2.717   5.971   0.733 -0.2114 -0.1334 -0.2065
 9045SOL    HW228577   2.709   5.910   0.871  1.9561  0.2290  0.1170
 9046SOL     OW28578   1.689   3.923   3.015  0.0885  0.0220 -0.8976
 9046SOL    HW128579   1.635   3.959   2.945 -1.2363 -1.8188 -0.8939
 9046SOL    HW228580   1.663   3.831   3.021  2.0052 -0.5177  0.2965
 9047SOL     OW28581   1.292   5.627   1.749 -0.2059 -0.4120  0.0730
 9047SOL    HW128582   1.315   5.661   1.663  0.0590  1.1413  0.7202
 9047SOL    HW228583   1.207   5.668   1.769  0.0425 -0.2304  0.8021
 9048SOL     OW28584   3.341   7.255   3.386 -0.3082 -0.1320 -0.0357
 9048SOL    HW128585   3.366   7.341   3.349  0.0062  0.0298  0.5468
 9048SOL    HW228586   3.423   7.220   3.421 -0.3974 -0.7677 -0.4577
 9049SOL     OW28587   0.793   4.101   2.910  0.1398  0.3447 -0.4146
 9049SOL    HW128588   0.739   4.163   2.959  0.7083  0.6021 -0.0996
 9049SOL    HW228589   0.826   4.040   2.976  1.5922  1.1920 -0.3162
 9050SOL     OW28590   3.996   5.958   1.470 -0.1679 -0.4489  0.1486
 9050SOL    HW128591   3.906   5.975   1.441 -0.2281 -1.2204 -0.1210
 9050SOL    HW228592   4.001   5.864   1.483  0.7844 -0.5020 -0.4646
 9051SOL     OW28593   2.182   5.064   2.231  0.2256 -0.2371 -0.1836
 9051SOL    HW128594   2.100   5.098   2.196  1.3417  1.1789 -1.5395
 9051SOL    HW228595   2.242   5.066   2.157  0.9326 -3.3653  0.1873
 9052SOL     OW28596   2.991   7.618   2.862 -0.2672  1.1632 -0.0004
 9052SOL    HW128597   3.030   7.552   2.805  0.7678  3.5513 -2.2433
 9052SOL    HW228598   2.897   7.599   2.859  0.0973 -1.1520  0.7923
 9053SOL     OW28599   2.515   3.572   3.055 -0.2938  0.0932  0.2501
 9053SOL    HW128600   2.435   3.617   3.027 -0.0755  0.7524  0.6614
 9053SOL    HW228601   2.505   3.563   3.150 -0.0960 -0.2471  0.2388
 9054SOL     OW28602   0.519   4.602   3.757 -0.2606 -0.4828  0.0083
 9054SOL    HW128603   0.455   4.611   3.687 -0.2638  3.2629  0.3050
 9054SOL    HW228604   0.604   4.613   3.713 -0.1370 -0.1221  0.3377
 9055SOL     OW28605   2.513   5.321   3.590  0.4825  0.1556  0.3569
 9055SOL    HW128606   2.462   5.247   3.623 -0.6088  1.2251  1.1515
 9055SOL    HW228607   2.603   5.301   3.615  0.2698 -1.0853  0.1979
 9056SOL     OW28608   3.220   3.981   1.475  0.4142 -0.2856 -0.6515
 9056SOL    HW128609   3.289   4.044   1.494  0.5590 -0.4670 -0.5684
 9056SOL    HW228610   3.267   3.904   1.441  0.0749  0.5793 -3.2896
 9057SOL     OW28611   1.506   4.078   2.891  0.1240 -0.4214  0.5521
 9057SOL    HW128612   1.412   4.069   2.908 -0.1080 -0.0071 -0.4146
 9057SOL    HW228613   1.534   4.148   2.950 -0.6239  0.8820 -0.5628
 9058SOL     OW28614   4.855   3.790   1.931  0.3996 -0.0315 -0.5455
 9058SOL    HW128615   4.805   3.759   1.856 -2.3916 -0.8765  1.4922
 9058SOL    HW228616   4.920   3.722   1.948 -1.5202 -1.8108  0.0607
 9059SOL     OW28617   3.216   4.995   1.304 -0.3520 -0.2549 -0.0455
 9059SOL    HW128618   3.302   5.031   1.326 -0.3103 -1.0877  1.2772
 9059SOL    HW228619   3.153   5.059   1.338 -0.2892  0.4039 -1.1017
 9060SOL     OW28620   3.227   4.481   3.107  0.0925  0.6191  0.4200
 9060SOL    HW128621   3.228   4.573   3.079 -1.8711  0.3099 -0.8765
 9060SOL    HW228622   3.316   4.450   3.088 -0.4364  1.0166 -3.8332
 9061SOL     OW28623   3.139   4.111   3.987 -0.5208 -0.3919 -0.4036
 9061SOL    HW128624   3.124   4.042   3.922 -1.5411  0.2502 -0.8766
 9061SOL    HW228625   3.224   4.148   3.963 -0.5272 -0.6821 -0.8863
 9062SOL     OW28626   0.977   3.888   4.425  0.3537 -0.0108  0.3167
 9062SOL    HW128627   1.049   3.930   4.472 -1.3055  2.4141  0.8927
 9062SOL    HW228628   0.908   3.878   4.490  0.5611 -3.7315  0.1817
 9063SOL     OW28629   1.900   5.356   4.919 -0.4470 -0.4482  0.5444
 9063SOL    HW128630   1.946   5.433   4.950  0.3796 -0.3616 -0.7959
 9063SOL    HW228631   1.969   5.292   4.902 -0.8228 -0.4592 -1.1135
 9064SOL     OW28632   2.112   6.591   4.862 -0.0029  0.6757 -0.0234
 9064SOL    HW128633   2.066   6.561   4.784  0.6778  0.9679 -0.5464
 9064SOL    HW228634   2.048   6.582   4.932  0.0333 -1.6485 -0.1974
 9065SOL     OW28635   2.810   5.410   4.573  0.1625 -0.1709 -0.3102
 9065SOL    HW128636   2.845   5.499   4.579  1.0455 -0.5289  0.0968
 9065SOL    HW228637   2.809   5.390   4.479  0.5957  0.0300 -0.3601
 9066SOL     OW28638   3.608   4.741   3.802 -0.1969 -0.1273 -0.2244
 9066SOL    HW128639   3.633   4.764   3.892 -2.7856 -0.7669  0.7318
 9066SOL    HW228640   3.671   4.674   3.776 -0.5158 -1.3269  1.8643
 9067SOL     OW28641   3.077   5.970   3.226  0.0559 -0.0883 -0.3024
 9067SOL    HW128642   3.140   6.009   3.166 -0.3312  3.0391  1.1568
 9067SOL    HW228643   2.998   6.024   3.217 -1.4259 -2.0650  0.0951
 9068SOL     OW28644   2.162   4.936   5.092 -0.7204  0.0688  0.5183
 9068SOL    HW128645   2.186   5.023   5.059 -2.4544  0.0546 -0.9396
 9068SOL    HW228646   2.197   4.875   5.026  0.2216 -0.3460  1.3787
 9069SOL     OW28647   2.210   4.206   4.079  0.3423 -0.7139  0.1733
 9069SOL    HW128648   2.243   4.251   4.157 -0.6288 -1.7256  1.2245
 9069SOL    HW228649   2.287   4.198   4.022  0.9856  0.4273  0.8305
 9070SOL     OW28650   0.413   5.056   5.989  0.0735 -0.0870  0.3126
 9070SOL    HW128651   0.408   5.090   5.900  1.0051 -2.0080 -0.5271
 9070SOL    HW228652   0.343   4.991   5.994  1.3132 -1.4696  0.2609
 9071SOL     OW28653   3.240   6.450   5.697  0.3503 -0.0581 -0.3286
 9071SOL    HW128654   3.325   6.459   5.654  0.5036  0.0269 -0.0135
 9071SOL    HW228655   3.186   6.519   5.658 -0.0033 -0.9802 -1.5183
 9072SOL     OW28656   1.712   4.855   3.887 -0.0583 -0.7226 -0.3155
 9072SOL    HW128657   1.754   4.769   3.887  1.5669  0.0391 -0.4918
 9072SOL    HW228658   1.762   4.906   3.951 -1.3125 -0.0372  0.1532
 9073SOL     OW28659   2.421   3.114   4.423  0.2967  0.1623 -0.2426
 9073SOL    HW128660   2.345   3.063   4.452  0.1116 -0.2016 -1.3197
 9073SOL    HW228661   2.384   3.193   4.385  0.6176  1.7606  2.4842
 9074SOL     OW28662   3.738   4.525   3.685  0.2385 -0.3459  0.3318
 9074SOL    HW128663   3.724   4.475   3.605  0.2509  2.6395 -1.7110
 9074SOL    HW228664   3.819   4.491   3.722  0.2585 -1.7570 -0.9286
 9075SOL     OW28665   2.154   4.300   4.615  0.0169 -0.6488 -0.0543
 9075SOL    HW128666   2.104   4.252   4.682 -0.9566 -0.6312 -0.7513
 9075SOL    HW228667   2.087   4.344   4.563  0.8420  0.4825 -0.1829
 9076SOL     OW28668   2.027   4.906   3.698 -0.0951 -0.1309 -0.3942
 9076SOL    HW128669   2.069   4.927   3.781 -0.7535 -0.4350  0.0223
 9076SOL    HW228670   2.045   4.982   3.642  0.9508 -0.2355 -0.2135
 9077SOL     OW28671   1.476   6.356   5.477  0.7772  0.3840 -0.0076
 9077SOL    HW128672   1.555   6.403   5.505 -0.0557  1.1587  1.1042
 9077SOL    HW228673   1.483   6.270   5.520  0.6497  0.7202  0.6865
 9078SOL     OW28674   1.021   6.124   4.668 -0.1726 -0.1229 -0.3005
 9078SOL    HW128675   1.076   6.180   4.613  0.8949 -1.2095 -0.3872
 9078SOL    HW228676   1.083   6.082   4.729 -0.9465 -1.1000 -0.1614
 9079SOL     OW28677   3.041   4.071   5.706  0.1734  0.3389 -0.2890
 9079SOL    HW128678   3.000   4.106   5.627 -0.8368 -0.9291 -0.3683
 9079SOL    HW228679   3.116   4.128   5.722 -0.7744  1.8343 -0.9996
 9080SOL     OW28680   3.288   4.021   3.666 -0.0788 -0.0728  0.0180
 9080SOL    HW128681   3.324   4.088   3.608  1.1489 -0.4543  0.2972
 9080SOL    HW228682   3.193   4.031   3.660  0.0502  0.4420 -1.3993
 9081SOL     OW28683   1.641   4.123   3.200 -0.2380 -0.0345  0.4070
 9081SOL    HW128684   1.548   4.146   3.204  0.2128  2.1266 -0.1006
 9081SOL    HW228685   1.645   4.048   3.142 -1.6350  0.0637  0.1517
 9082SOL     OW28686   3.163   6.385   5.090 -0.2494  0.3970  0.0797
 9082SOL    HW128687   3.240   6.381   5.147  0.3111  2.9852 -0.3446
 9082SOL    HW228688   3.088   6.390   5.150  0.0312 -0.5215  0.5182
 9083SOL     OW28689   0.900   7.098   4.005  0.1751  0.0592 -0.2735
 9083SOL    HW128690   0.924   7.080   3.914 -1.4346  0.0699 -0.7234
 9083SOL    HW228691   0.833   7.033   4.025  0.2400  0.3051  0.7833
 9084SOL     OW28692   3.442   4.481   4.385  0.6213 -0.1404 -0.7537
 9084SOL    HW128693   3.397   4.413   4.436  1.1288 -0.1821 -0.3452
 9084SOL    HW228694   3.373   4.543   4.362  0.5072  0.3720  0.8019
 9085SOL     OW28695   1.856   4.707   5.171  0.0600 -0.1866 -0.0146
 9085SOL    HW128696   1.859   4.640   5.103  0.4554  0.3314 -0.5153
 9085SOL    HW228697   1.793   4.772   5.139 -2.5272 -1.6593  1.7552
 9086SOL     OW28698   3.082   4.716   3.667 -0.4752  0.4186 -0.2587
 9086SOL    HW128699   3.177   4.728   3.676  0.4758 -3.2885 -2.8564
 9086SOL    HW228700   3.064   4.636   3.716 -1.7922 -0.2107 -1.7084
 9087SOL     OW28701   4.134   5.874   5.484  0.2748 -0.5602 -0.0302
 9087SOL    HW128702   4.212   5.823   5.464  0.4418 -1.2864  2.1614
 9087SOL    HW228703   4.070   5.809   5.514 -0.2968  0.2824  0.6324
 9088SOL     OW28704   1.875   1.616   5.133  0.0164  0.1626  0.2442
 9088SOL    HW128705   1.798   1.671   5.127 -1.9226 -2.3151  0.8386
 9088SOL    HW228706   1.894   1.612   5.227  0.7053  0.5152  0.1282
 9089SOL     OW28707   2.505   3.487   3.613  0.4734 -0.1957  0.1412
 9089SOL    HW128708   2.464   3.416   3.662 -0.6514 -1.1868 -2.1004
 9089SOL    HW228709   2.593   3.455   3.592  0.9944  0.2736  1.5323
 9090SOL     OW28710   3.807   6.313   4.539 -0.0416 -0.6326  0.7077
 9090SOL    HW128711   3.856   6.248   4.589 -0.5275 -0.2503  1.7047
 9090SOL    HW228712   3.744   6.349   4.601 -1.5011 -0.9975 -0.4963
 9091SOL     OW28713   2.864   6.044   5.055 -0.2843 -0.6328 -0.2331
 9091SOL    HW128714   2.875   6.139   5.048 -0.5237 -0.5656  0.2378
 9091SOL    HW228715   2.848   6.029   5.148 -0.2597 -1.1346 -0.3084
 9092SOL     OW28716   2.908   3.719   6.884 -0.0140  0.0200 -0.1618
 9092SOL    HW128717   2.919   3.772   6.805  0.3664 -0.8200 -0.6971
 9092SOL    HW228718   2.997   3.712   6.920  0.1531 -1.1961 -0.7474
 9093SOL     OW28719   2.712   4.259   4.126 -0.1563 -0.3218  0.3579
 9093SOL    HW128720   2.800   4.293   4.107  0.3675 -1.3759  0.8082
 9093SOL    HW228721   2.725   4.202   4.202 -0.4896 -3.4474 -1.7271
 9094SOL     OW28722   3.457   2.676   3.747 -0.2026  0.5397 -0.6114
 9094SOL    HW128723   3.412   2.741   3.800  0.7854  0.9722 -0.3002
 9094SOL    HW228724   3.388   2.641   3.689 -1.4810 -0.4660  1.3974
 9095SOL     OW28725   4.075   5.362   4.258  0.3319 -0.3412 -0.3306
 9095SOL    HW128726   4.137   5.316   4.314 -1.0299 -1.9338 -0.0382
 9095SOL    HW228727   3.990   5.348   4.300 -0.5081 -0.1868 -1.9044
 9096SOL     OW28728   2.186   4.630   5.583  0.0277 -0.1126 -0.2469
 9096SOL    HW128729   2.092   4.611   5.580 -0.2798  1.2985 -0.4048
 9096SOL    HW228730   2.216   4.593   5.666 -0.7175 -0.3999 -0.1027
 9097SOL     OW28731   1.331   4.398   4.571 -0.5398  0.0960 -0.4003
 9097SOL    HW128732   1.334   4.355   4.656  0.4448  1.5376  0.3250
 9097SOL    HW228733   1.240   4.388   4.542 -1.1272  0.4127  1.2582
 9098SOL     OW28734   3.788   2.042   3.313  0.1104 -0.3946 -0.0466
 9098SOL    HW128735   3.707   2.064   3.267 -0.5069  0.4398  1.3499
 9098SOL    HW228736   3.792   1.946   3.312 -1.3644 -0.4896  0.5903
 9099SOL     OW28737   2.898   3.888   4.138 -0.3008 -0.1498  0.0725
 9099SOL    HW128738   2.930   3.863   4.051  0.0504  1.7235 -0.3792
 9099SOL    HW228739   2.975   3.888   4.194 -0.0957  0.9604 -0.1936
 9100SOL     OW28740   1.711   5.061   4.270 -0.1501 -0.2133  0.0857
 9100SOL    HW128741   1.773   5.005   4.223 -0.5510 -0.3376 -0.3039
 9100SOL    HW228742   1.625   5.036   4.235 -0.4002  0.1019  0.4696
 9101SOL     OW28743   2.611   3.762   3.656 -0.5655  0.2840 -0.0905
 9101SOL    HW128744   2.632   3.707   3.731  0.5198 -0.6598 -1.0352
 9101SOL    HW228745   2.686   3.821   3.648 -1.4404  1.5215  0.5445
 9102SOL     OW28746   1.979   3.535   4.855  0.0401 -0.1391  0.0509
 9102SOL    HW128747   2.042   3.598   4.821 -0.4703 -0.4066 -1.4285
 9102SOL    HW228748   2.001   3.452   4.812 -0.6593 -0.4768  0.3224
 9103SOL     OW28749   3.140   6.717   3.537 -0.2088  0.3003  0.4340
 9103SOL    HW128750   3.223   6.677   3.563  0.3764  1.1126 -0.1431
 9103SOL    HW228751   3.159   6.811   3.531 -1.5887  0.7152  1.8951
 9104SOL     OW28752   0.845   4.113   3.312  0.1134  0.1538 -0.5516
 9104SOL    HW128753   0.858   4.030   3.266  1.7794 -0.0248  0.1805
 9104SOL    HW228754   0.775   4.157   3.263 -1.9173 -2.3204 -0.0343
 9105SOL     OW28755   4.495   5.318   6.208  0.4927 -0.4259  0.0256
 9105SOL    HW128756   4.438   5.242   6.226  0.9242 -0.7905 -0.1365
 9105SOL    HW228757   4.575   5.280   6.171  1.6328 -0.1084  2.0111
 9106SOL     OW28758   2.977   4.680   4.202 -0.6910  0.0433 -0.4247
 9106SOL    HW128759   3.067   4.693   4.231 -0.9673 -0.5312  0.7588
 9106SOL    HW228760   2.984   4.614   4.133 -0.1140  0.7191 -1.0275
 9107SOL     OW28761   1.536   3.509   5.233  0.2281 -0.0783  0.4243
 9107SOL    HW128762   1.569   3.425   5.263  0.2202  0.0612  0.8240
 9107SOL    HW228763   1.489   3.489   5.152  0.2155 -0.4570  0.5251
 9108SOL     OW28764   2.553   5.500   4.940  0.4063  0.4026  0.0949
 9108SOL    HW128765   2.466   5.523   4.908 -0.7305 -0.2781  2.4451
 9108SOL    HW228766   2.613   5.535   4.874 -1.6359  0.4704 -1.8574
 9109SOL     OW28767   3.973   5.301   4.545 -0.3673  0.0298  0.4712
 9109SOL    HW128768   3.968   5.211   4.514 -0.6475  0.6860 -1.6047
 9109SOL    HW228769   3.896   5.312   4.601  0.3292 -1.3237  1.7627
 9110SOL     OW28770   2.296   3.300   7.260 -0.5482  0.2282 -0.4725
 9110SOL    HW128771   2.241   3.224   7.239  0.5532 -1.4372  2.0260
 9110SOL    HW228772   2.385   3.268   7.248 -0.0623  1.7829 -1.1785
 9111SOL     OW28773   2.787   4.598   4.411  0.2289 -0.1840 -0.2024
 9111SOL    HW128774   2.835   4.605   4.329 -0.1517  0.3363 -0.3855
 9111SOL    HW228775   2.840   4.539   4.465  0.0286 -1.2523 -1.1345
 9112SOL     OW28776   1.144   5.568   4.736  0.6420 -0.2349 -0.2189
 9112SOL    HW128777   1.141   5.623   4.814 -1.6171 -0.7790  0.1433
 9112SOL    HW228778   1.074   5.603   4.680  0.4414 -1.5281 -0.8083
 9113SOL     OW28779   3.481   3.507   4.064 -0.0587 -0.0248 -0.4178
 9113SOL    HW128780   3.520   3.428   4.101 -1.7675 -0.3212  0.8962
 9113SOL    HW228781   3.405   3.474   4.014 -0.0191  0.6921 -0.9663
 9114SOL     OW28782   2.358   5.999   4.935 -0.3072  0.3019 -0.6403
 9114SOL    HW128783   2.336   5.976   4.845 -0.6086  0.0427 -0.5020
 9114SOL    HW228784   2.446   5.964   4.948  0.2658  1.4630 -1.2411
 9115SOL     OW28785   2.935   4.586   5.267 -0.5248  0.4628  0.5644
 9115SOL    HW128786   2.872   4.589   5.195  0.2539 -0.4085 -0.1764
 9115SOL    HW228787   2.916   4.504   5.312 -0.5069  0.6349  0.8872
 9116SOL     OW28788   3.409   3.269   3.348  0.2929  0.2163 -0.4215
 9116SOL    HW128789   3.457   3.332   3.403 -0.5689 -0.1516  0.7980
 9116SOL    HW228790   3.417   3.186   3.395 -1.3568  0.1104 -0.2867
 9117SOL     OW28791   2.822   6.277   7.265  0.3461  0.2207 -0.0844
 9117SOL    HW128792   2.858   6.296   7.179  0.3987  0.5404  0.0070
 9117SOL    HW228793   2.758   6.346   7.280  0.2840  0.1230  0.1013
 9118SOL     OW28794   1.096   2.401   4.218 -0.0240 -0.1925 -0.4598
 9118SOL    HW128795   1.045   2.351   4.282  0.2143 -1.3713 -1.1709
 9118SOL    HW228796   1.046   2.482   4.206 -0.7142 -0.4928  0.2834
 9119SOL     OW28797   3.407   4.294   3.619 -0.5750 -1.1716 -0.1798
 9119SOL    HW128798   3.402   4.379   3.575 -0.9738 -1.5211 -0.8227
 9119SOL    HW228799   3.476   4.247   3.573  0.1090 -0.9696  0.6035
 9120SOL     OW28800   3.339   4.267   3.878  0.2116  0.2173 -0.2709
 9120SOL    HW128801   3.342   4.361   3.894 -0.0927  0.2372 -0.3261
 9120SOL    HW228802   3.342   4.258   3.783  1.4027  0.1236 -0.2332
 9121SOL     OW28803   1.613   2.055   4.228 -0.5543  0.0002 -0.5545
 9121SOL    HW128804   1.614   2.151   4.228  0.7846  0.0061  0.2136
 9121SOL    HW228805   1.703   2.030   4.208 -0.3668 -1.0851  1.4391
 9122SOL     OW28806   3.868   4.120   3.284 -0.2145  0.2314  0.5534
 9122SOL    HW128807   3.827   4.040   3.253 -0.1520  0.8139 -1.1718
 9122SOL    HW228808   3.912   4.095   3.365 -1.5154 -1.0811  0.8954
 9123SOL     OW28809   0.791   4.877   3.637 -0.2777 -0.1238 -0.2536
 9123SOL    HW128810   0.741   4.826   3.573  0.8943  0.0589 -1.3565
 9123SOL    HW228811   0.854   4.815   3.674  0.2426  0.1834 -0.6055
 9124SOL     OW28812   2.797   3.589   4.675  1.0508 -0.0268 -0.3421
 9124SOL    HW128813   2.887   3.579   4.642  1.1288  0.9359 -0.4563
 9124SOL    HW228814   2.801   3.666   4.731  0.5310 -0.6407  0.5676
 9125SOL     OW28815   3.726   5.356   4.730 -0.0720  0.1901 -0.1983
 9125SOL    HW128816   3.698   5.411   4.804  0.2379  1.7470 -1.1897
 9125SOL    HW228817   3.772   5.282   4.771  0.9919  1.5363  1.1598
 9126SOL     OW28818   2.824   4.217   4.379 -0.1967 -0.5428 -0.0902
 9126SOL    HW128819   2.849   4.276   4.450  0.6470 -0.3328 -0.5442
 9126SOL    HW228820   2.908   4.183   4.346 -0.6320 -1.3852 -0.3492
 9127SOL     OW28821   2.252   5.954   4.121  0.0880 -0.3869  0.3871
 9127SOL    HW128822   2.215   5.891   4.059 -0.6501  0.0580  0.3669
 9127SOL    HW228823   2.303   6.014   4.068  0.5108 -0.7561  0.3664
 9128SOL     OW28824   3.747   4.261   2.103  0.0650 -0.4064 -0.1345
 9128SOL    HW128825   3.798   4.264   2.022  0.8110 -0.5229  0.3232
 9128SOL    HW228826   3.803   4.301   2.169 -0.5747 -0.2209  0.3101
 9129SOL     OW28827   2.048   3.329   4.707  0.1586  0.3945 -0.3393
 9129SOL    HW128828   2.113   3.339   4.638  0.9994  0.2196  0.4030
 9129SOL    HW228829   2.049   3.235   4.727  1.3671  0.6812  1.2218
 9130SOL     OW28830   1.356   4.659   4.570 -0.1444  0.0528  0.0549
 9130SOL    HW128831   1.364   4.563   4.564 -2.0410 -0.2502  1.4652
 9130SOL    HW228832   1.426   4.686   4.629  0.1472 -0.5128 -0.0258
 9131SOL     OW28833   2.168   3.721   4.782 -0.6492 -0.1422 -0.3103
 9131SOL    HW128834   2.253   3.727   4.738 -0.9213  0.1510 -0.8114
 9131SOL    HW228835   2.151   3.810   4.814 -0.4044 -0.3796  0.4856
 9132SOL     OW28836   2.998   4.122   5.434  0.3645 -0.0894 -0.4228
 9132SOL    HW128837   3.093   4.112   5.426  0.3177 -0.9603  0.0026
 9132SOL    HW228838   2.962   4.042   5.396 -0.0583 -1.5510  2.7240
 9133SOL     OW28839   3.028   5.415   3.928 -0.6861  0.1170 -0.0629
 9133SOL    HW128840   3.037   5.454   3.842  0.1654  0.3647  0.1225
 9133SOL    HW228841   2.935   5.396   3.937 -0.7371 -0.2421 -1.1712
 9134SOL     OW28842   4.130   3.972   1.579 -0.9315  0.2099 -0.4587
 9134SOL    HW128843   4.076   4.017   1.644 -0.0940  0.1236  0.3107
 9134SOL    HW228844   4.216   3.965   1.620 -0.7540 -1.1047 -1.0016
 9135SOL     OW28845   3.569   3.313   4.423 -0.5992  0.2786  0.6204
 9135SOL    HW128846   3.663   3.328   4.413  0.0760 -2.4215  1.9704
 9135SOL    HW228847   3.541   3.283   4.337  0.3043 -1.0688  0.7597
 9136SOL     OW28848   3.117   3.825   4.365 -0.0217  0.6908 -0.0524
 9136SOL    HW128849   3.197   3.799   4.321  1.2225  0.3558  2.2568
 9136SOL    HW228850   3.099   3.753   4.427 -2.4222  0.5002 -0.8755
 9137SOL     OW28851   3.052   4.811   5.568 -0.3549 -0.8312 -0.0135
 9137SOL    HW128852   2.990   4.742   5.593 -1.3923 -0.8507 -2.3914
 9137SOL    HW228853   3.105   4.772   5.498 -0.1098  0.3718 -0.5315
 9138SOL     OW28854   2.880   5.371   5.032 -0.0156  0.0170 -0.0313
 9138SOL    HW128855   2.835   5.330   4.959 -1.4011 -1.1716  1.4274
 9138SOL    HW228856   2.851   5.463   5.030 -1.4905 -0.4270  0.0980
 9139SOL     OW28857   3.874   6.643   5.120  0.4709 -0.2775  0.3271
 9139SOL    HW128858   3.789   6.668   5.158  1.3734  1.0685  1.6019
 9139SOL    HW228859   3.864   6.659   5.026 -1.6297 -3.0996 -0.0513
 9140SOL     OW28860   2.788   5.172   2.945 -0.0708 -0.0825  0.0857
 9140SOL    HW128861   2.726   5.186   2.874  0.1708 -0.8057 -0.2819
 9140SOL    HW228862   2.735   5.175   3.025 -0.7156 -1.4067 -0.2636
 9141SOL     OW28863   1.677   3.109   4.532 -0.2281 -0.1739  0.3754
 9141SOL    HW128864   1.599   3.153   4.498 -0.0411 -0.3329 -0.2756
 9141SOL    HW228865   1.645   3.058   4.607 -0.5730  0.5132  0.7106
 9142SOL     OW28866   3.078   4.136   4.299 -0.0378 -0.2720  0.4836
 9142SOL    HW128867   3.095   4.078   4.225 -2.2394 -0.7328  0.2590
 9142SOL    HW228868   3.117   4.220   4.274 -1.4435 -0.1687 -1.6197
 9143SOL     OW28869   2.433   3.714   4.733  0.7306 -0.6049 -0.4411
 9143SOL    HW128870   2.483   3.781   4.781 -2.8575  1.8051  0.3352
 9143SOL    HW228871   2.440   3.741   4.641 -0.3027  0.6729 -0.1819
 9144SOL     OW28872   2.278   4.360   4.305 -0.6153  0.3372 -0.5301
 9144SOL    HW128873   2.354   4.412   4.281 -1.3259  1.6635 -0.0634
 9144SOL    HW228874   2.204   4.420   4.292 -1.6226 -1.0359 -1.3612
 9145SOL     OW28875   3.025   5.119   5.088 -0.0519  0.2043  0.5367
 9145SOL    HW128876   3.067   5.060   5.150 -0.8511  0.0732  0.9714
 9145SOL    HW228877   3.013   5.067   5.009  0.0019  0.0396  0.6380
 9146SOL     OW28878   2.208   2.974   6.267 -0.0816  0.5780 -0.0248
 9146SOL    HW128879   2.273   2.909   6.241  2.6616  3.7250 -2.0021
 9146SOL    HW228880   2.137   2.965   6.203  1.3721  0.9300 -1.7732
 9147SOL     OW28881   2.743   5.027   4.144 -0.1579  0.4939  0.2798
 9147SOL    HW128882   2.764   5.118   4.165 -0.4408  0.3808  1.1210
 9147SOL    HW228883   2.780   4.977   4.217  1.7199 -0.2792 -1.1164
 9148SOL     OW28884   3.220   4.925   3.797 -0.0070 -0.1235  0.0506
 9148SOL    HW128885   3.267   4.961   3.873 -0.3245 -1.5657  0.9665
 9148SOL    HW228886   3.279   4.859   3.762 -0.8536 -1.1504  0.5194
 9149SOL     OW28887   3.592   4.134   3.478  0.0659  0.1693  0.1942
 9149SOL    HW128888   3.554   4.089   3.402 -0.4116 -0.4160  0.7603
 9149SOL    HW228889   3.612   4.064   3.539  3.4531  0.2738 -0.5900
 9150SOL     OW28890   0.358   2.844   5.950 -0.8218  0.2906 -0.3538
 9150SOL    HW128891   0.453   2.854   5.959 -0.9545  0.4066  1.3825
 9150SOL    HW228892   0.347   2.783   5.878  0.6544 -0.9796  0.4223
 9151SOL     OW28893   2.127   4.651   6.476 -0.4112 -0.6077 -0.0684
 9151SOL    HW128894   2.190   4.707   6.431 -2.4328  1.2544 -0.7516
 9151SOL    HW228895   2.146   4.662   6.569 -0.8643  1.4347 -0.1741
 9152SOL     OW28896   2.748   2.247   5.540 -0.1262  0.0601 -0.5949
 9152SOL    HW128897   2.747   2.327   5.487  0.8443 -0.0247 -0.7648
 9152SOL    HW228898   2.692   2.186   5.493 -1.2334  0.7800 -0.2354
 9153SOL     OW28899   1.678   4.004   5.100  0.1116 -0.4719 -0.3667
 9153SOL    HW128900   1.680   4.097   5.122  0.6073 -0.2985 -1.0857
 9153SOL    HW228901   1.771   3.981   5.090  0.0547 -1.3059  0.8311
 9154SOL     OW28902   3.724   4.079   4.076  0.1570 -0.5581  0.0962
 9154SOL    HW128903   3.761   4.134   4.006 -0.1343  0.2253  0.5405
 9154SOL    HW228904   3.785   4.088   4.149 -1.4943  1.8687  1.3361
 9155SOL     OW28905   2.281   4.854   4.563 -0.3026  0.2460  0.3240
 9155SOL    HW128906   2.192   4.879   4.587 -0.7746 -1.0611  0.0216
 9155SOL    HW228907   2.278   4.842   4.468  1.0558  3.4210 -0.2414
 9156SOL     OW28908   2.207   2.942   4.478 -0.4157  0.5327 -0.3828
 9156SOL    HW128909   2.133   2.992   4.511 -0.1871  2.5045 -2.6118
 9156SOL    HW228910   2.168   2.864   4.439 -1.0596  0.3533  0.5915
 9157SOL     OW28911   2.973   5.106   3.892  0.3347 -0.1037 -0.0475
 9157SOL    HW128912   3.031   5.123   3.966  1.3042  0.9867 -1.0121
 9157SOL    HW228913   2.892   5.152   3.914 -0.0458 -1.2496  1.0983
 9158SOL     OW28914   2.649   2.091   4.691  0.3536  0.1838  0.3945
 9158SOL    HW128915   2.729   2.095   4.638  0.0822 -0.9390 -0.1368
 9158SOL    HW228916   2.617   2.181   4.693  0.2680  0.2526 -1.5657
 9159SOL     OW28917   3.722   3.839   3.954 -0.0991 -0.2048 -0.2856
 9159SOL    HW128918   3.690   3.907   4.013  0.6531  0.5327 -0.7163
 9159SOL    HW228919   3.642   3.806   3.912 -0.5603 -0.2140  0.5692
 9160SOL     OW28920   2.844   4.884   4.386  0.3796 -0.1598 -0.1973
 9160SOL    HW128921   2.831   4.813   4.449 -1.9367  0.8021  0.5127
 9160SOL    HW228922   2.918   4.855   4.332 -1.0279 -3.5361 -0.5586
 9161SOL     OW28923   3.328   6.465   5.946 -0.0130 -0.1492 -0.2303
 9161SOL    HW128924   3.244   6.485   5.988 -0.0110  0.1956 -0.3864
 9161SOL    HW228925   3.313   6.484   5.853  0.6639  1.3428 -0.0579
 9162SOL     OW28926   1.990   3.925   6.491 -0.2829  0.3674 -0.2540
 9162SOL    HW128927   2.068   3.980   6.489  1.6260 -2.1674 -0.3648
 9162SOL    HW228928   2.010   3.857   6.555 -3.5456  1.0840  1.7541
 9163SOL     OW28929   2.482   3.829   4.468 -0.0227 -0.2462 -0.5037
 9163SOL    HW128930   2.576   3.839   4.477 -0.1733  1.4828 -0.4989
 9163SOL    HW228931   2.461   3.865   4.382 -0.7527 -0.0514 -0.2554
 9164SOL     OW28932   5.143   5.915   3.793  0.4026  0.0038  0.1355
 9164SOL    HW128933   5.146   5.831   3.838  1.6747  0.0416  0.1518
 9164SOL    HW228934   5.143   5.893   3.700 -1.1761 -0.0459  0.1253
 9165SOL     OW28935   3.170   5.896   4.210 -0.4614 -0.1730 -0.5967
 9165SOL    HW128936   3.173   5.884   4.305 -1.0734  0.8645 -0.4287
 9165SOL    HW228937   3.157   5.807   4.175  2.2836 -0.9604  0.0954
 9166SOL     OW28938   3.311   3.673   4.222 -0.3374  0.2902  0.3246
 9166SOL    HW128939   3.294   3.670   4.128 -1.2480 -1.2196  0.5168
 9166SOL    HW228940   3.402   3.644   4.230 -0.2200  0.5306 -0.0833
 9167SOL     OW28941   2.282   3.619   6.337 -0.1622  0.3071 -0.5527
 9167SOL    HW128942   2.345   3.556   6.371  0.4096  1.3588  0.3918
 9167SOL    HW228943   2.207   3.566   6.310  0.7082 -0.8644 -0.7410
 9168SOL     OW28944   2.574   4.129   5.743 -0.0359 -0.4924 -0.1952
 9168SOL    HW128945   2.509   4.116   5.674  0.0408 -2.4109  0.0461
 9168SOL    HW228946   2.601   4.041   5.768  0.5278  0.1706  1.7456
 9169SOL     OW28947   2.774   4.953   3.658 -0.0409 -0.8178  0.6973
 9169SOL    HW128948   2.696   4.939   3.713 -1.5335  1.5142 -0.6579
 9169SOL    HW228949   2.744   4.934   3.569  1.0071 -0.1496  0.1841
 9170SOL     OW28950   1.313   5.367   4.681 -0.1456  0.1216  0.6795
 9170SOL    HW128951   1.245   5.424   4.715 -0.4840  0.2597 -0.2100
 9170SOL    HW228952   1.393   5.395   4.725 -0.3475  1.1368  0.4097
 9171SOL     OW28953   2.531   4.271   4.694 -0.7744 -0.3867  0.6625
 9171SOL    HW128954   2.591   4.197   4.701 -2.3821 -1.7576  0.6342
 9171SOL    HW228955   2.474   4.262   4.771 -1.6173  0.2146  0.1279
 9172SOL     OW28956   1.842   4.533   4.906  0.0510 -0.7821  0.3917
 9172SOL    HW128957   1.796   4.525   4.822 -0.3708 -0.9734  0.6377
 9172SOL    HW228958   1.934   4.543   4.882 -0.2640  1.1203 -0.1806
 9173SOL     OW28959   2.579   3.911   4.847 -0.3634 -0.1639  0.2723
 9173SOL    HW128960   2.656   3.871   4.888  0.5584  1.0669 -0.1863
 9173SOL    HW228961   2.611   3.995   4.814 -2.0873  0.6860  0.6768
 9174SOL     OW28962   2.455   4.414   6.266 -0.3395 -0.0825 -0.3457
 9174SOL    HW128963   2.518   4.406   6.338 -0.3997 -0.0721 -0.2910
 9174SOL    HW228964   2.370   4.426   6.310 -0.3643  0.0163 -0.4182
 9175SOL     OW28965   4.224   4.404   3.638 -0.0184 -0.3682 -0.4129
 9175SOL    HW128966   4.149   4.366   3.684  1.3291 -0.7355  1.5677
 9175SOL    HW228967   4.277   4.328   3.612  0.1034 -0.0672 -1.0659
 9176SOL     OW28968   2.633   4.322   6.115  0.2152  0.4594  0.1359
 9176SOL    HW128969   2.693   4.395   6.132  1.0646 -0.2294  0.1683
 9176SOL    HW228970   2.580   4.316   6.194  1.7192 -0.4238  1.1386
 9177SOL     OW28971   2.547   5.092   5.720  0.2605  0.2002  0.5253
 9177SOL    HW128972   2.619   5.150   5.694  3.0833 -2.6684  1.2316
 9177SOL    HW228973   2.566   5.010   5.675 -2.2508 -0.9060  1.3256
 9178SOL     OW28974   2.429   4.388   5.505 -0.2177 -0.1139 -0.1169
 9178SOL    HW128975   2.472   4.423   5.583  2.1467 -0.4666 -1.1882
 9178SOL    HW228976   2.495   4.332   5.464 -1.1908  0.4805 -2.6749
 9179SOL     OW28977   1.854   3.557   4.299  0.6235  0.2650  0.2359
 9179SOL    HW128978   1.902   3.633   4.333  2.0446 -1.3096  1.8976
 9179SOL    HW228979   1.842   3.500   4.375 -1.2824 -0.7633 -0.7745
 9180SOL     OW28980   1.255   3.171   2.748  0.4093  0.3321  0.6821
 9180SOL    HW128981   1.239   3.265   2.742  0.9346  0.3615 -0.6018
 9180SOL    HW228982   1.184   3.138   2.804 -0.6524  1.2718 -0.0694
 9181SOL     OW28983   3.176   4.389   4.218  0.3259 -0.0298  0.4218
 9181SOL    HW128984   3.173   4.479   4.252  1.1823 -0.0161  0.4823
 9181SOL    HW228985   3.270   4.367   4.217  0.0776 -1.1889  1.1042
 9182SOL     OW28986   3.542   6.873   3.799 -0.2973  0.3937  0.2596
 9182SOL    HW128987   3.623   6.880   3.748  0.2091 -0.0679  0.9771
 9182SOL    HW228988   3.503   6.791   3.769  0.5987 -0.4899  1.4267
 9183SOL     OW28989   2.756   5.237   5.597  0.1118 -0.4320  0.1867
 9183SOL    HW128990   2.806   5.176   5.542  1.5520 -0.3578  1.3534
 9183SOL    HW228991   2.823   5.287   5.644 -1.0730  0.4371  1.0080
 9184SOL     OW28992   2.501   4.461   4.171  0.4016 -0.3093 -0.3726
 9184SOL    HW128993   2.576   4.403   4.161 -0.6978 -1.7020 -0.7629
 9184SOL    HW228994   2.539   4.547   4.192  2.0262 -1.4670  1.7798
 9185SOL     OW28995   3.137   6.139   5.358 -0.0279 -0.2017 -0.1396
 9185SOL    HW128996   3.050   6.176   5.342 -0.5341 -0.9885  0.7269
 9185SOL    HW228997   3.155   6.160   5.449  0.1260 -1.1592  0.0574
 9186SOL     OW28998   4.050   4.629   3.294  0.2412 -0.3466 -0.2061
 9186SOL    HW128999   3.969   4.677   3.277 -1.4047 -2.8845 -0.0154
 9186SOL    HW229000   4.072   4.653   3.384 -1.3522 -0.9893  0.3930
 9187SOL     OW29001   3.534   5.280   4.171 -0.3685  0.2654  0.5784
 9187SOL    HW129002   3.453   5.289   4.120  0.1297  0.9874 -0.1172
 9187SOL    HW229003   3.569   5.195   4.145 -0.2032  0.5554 -0.1895
 9188SOL     OW29004   2.524   5.720   6.232  0.0211 -0.6560 -0.6472
 9188SOL    HW129005   2.503   5.633   6.264  0.6315  0.0470  1.9053
 9188SOL    HW229006   2.609   5.740   6.271 -0.5795  1.4607 -0.3057
 9189SOL     OW29007   3.207   6.433   6.414 -0.5282 -0.1881 -0.1904
 9189SOL    HW129008   3.276   6.468   6.470  1.0475 -1.9712 -0.9047
 9189SOL    HW229009   3.212   6.338   6.427 -1.4193 -0.4981 -1.8834
 9190SOL     OW29010   2.755   6.027   2.396  0.7171  0.1383  0.4892
 9190SOL    HW129011   2.776   5.960   2.331  0.3469 -0.2670  0.7822
 9190SOL    HW229012   2.791   5.993   2.478  0.1715  0.1047  0.7164
 9191SOL     OW29013   4.047   5.785   4.263 -0.0257  0.3887 -0.0064
 9191SOL    HW129014   4.117   5.793   4.328 -0.5819  1.1401  0.5286
 9191SOL    HW229015   4.073   5.711   4.208  0.5264 -0.1845  0.9924
 9192SOL     OW29016   3.306   4.243   4.475 -0.3518 -0.1721 -0.7907
 9192SOL    HW129017   3.358   4.182   4.528 -1.2256 -3.0157 -2.9447
 9192SOL    HW229018   3.221   4.245   4.518 -0.4922 -0.9862 -1.0064
 9193SOL     OW29019   2.642   2.805   4.179 -0.7323  0.0958  0.1366
 9193SOL    HW129020   2.642   2.748   4.256 -0.6731  0.8447  0.7036
 9193SOL    HW229021   2.721   2.858   4.189 -0.7371  0.2115 -0.4337
 9194SOL     OW29022   5.213   5.561   5.050 -0.2510 -0.4333 -0.0186
 9194SOL    HW129023   5.151   5.517   5.109 -0.7185 -0.0599 -0.2281
 9194SOL    HW229024   5.184   5.536   4.962  0.6058 -1.2016 -0.0891
 9195SOL     OW29025   1.951   5.013   5.314 -0.3111  0.6637  0.0788
 9195SOL    HW129026   1.991   4.977   5.235 -0.5456 -0.1971  0.3414
 9195SOL    HW229027   1.857   5.002   5.300 -0.3399  0.1932  0.6162
 9196SOL     OW29028   3.571   4.389   4.155  0.4683  0.0414  0.6783
 9196SOL    HW129029   3.641   4.444   4.118  0.5536 -0.9211 -0.6768
 9196SOL    HW229030   3.556   4.424   4.242  1.9423  0.9221  0.6067
 9197SOL     OW29031   3.486   5.171   2.397  0.0240 -0.3114 -0.5831
 9197SOL    HW129032   3.555   5.233   2.376 -0.5642  0.2891 -0.7843
 9197SOL    HW229033   3.532   5.088   2.414  0.8810  0.3595  0.4726
 9198SOL     OW29034   2.429   6.403   5.215 -0.0401  0.2140  0.3656
 9198SOL    HW129035   2.468   6.490   5.224  0.7286 -0.2501  2.0095
 9198SOL    HW229036   2.413   6.375   5.306 -0.9057 -1.0861 -0.1525
 9199SOL     OW29037   4.202   5.774   4.502  0.3246 -0.6041 -0.1569
 9199SOL    HW129038   4.286   5.728   4.501  0.2545 -0.7499  0.2189
 9199SOL    HW229039   4.143   5.713   4.547  0.2440 -0.1172  0.4113
 9200SOL     OW29040   3.084   3.613   4.615 -0.0402 -0.5416 -0.1542
 9200SOL    HW129041   3.177   3.615   4.593  0.0580  0.6869  0.3066
 9200SOL    HW229042   3.076   3.672   4.690 -0.8267 -2.4219  1.3146
 9201SOL     OW29043   1.733   4.365   3.787  0.1220 -0.2251  0.3506
 9201SOL    HW129044   1.675   4.317   3.846 -0.0805 -1.2294 -0.6417
 9201SOL    HW229045   1.702   4.342   3.699  0.8056  0.7606 -0.1592
 9202SOL     OW29046   3.302   5.291   3.992 -0.4362  0.2568 -1.1188
 9202SOL    HW129047   3.279   5.210   4.038  1.5485  0.5461  0.5142
 9202SOL    HW229048   3.218   5.336   3.979 -1.2289 -0.5340  0.9342
 9203SOL     OW29049   1.787   5.702   6.618 -0.1373  0.3064 -0.1273
 9203SOL    HW129050   1.732   5.627   6.593  0.3019 -0.3112  0.6957
 9203SOL    HW229051   1.866   5.662   6.653  0.0199  1.1652  0.5142
 9204SOL     OW29052   1.855   4.650   6.669 -0.4412  0.2027 -0.2536
 9204SOL    HW129053   1.766   4.623   6.644 -0.6736  2.2191 -1.8974
 9204SOL    HW229054   1.911   4.601   6.609 -0.3799 -1.1847  0.8827
 9205SOL     OW29055   1.596   3.815   3.338 -0.6102 -0.1617 -0.2239
 9205SOL    HW129056   1.644   3.893   3.366 -0.4803  0.3915 -1.8878
 9205SOL    HW229057   1.505   3.834   3.361 -0.4694  0.1292  0.1021
 9206SOL     OW29058   2.267   2.588   2.778 -0.2089  0.3019 -0.1162
 9206SOL    HW129059   2.195   2.596   2.715  1.7180  0.4022 -2.4912
 9206SOL    HW229060   2.275   2.675   2.817 -1.6753  0.1404  0.6105
 9207SOL     OW29061   3.713   5.219   3.184  0.1087 -0.7122  0.0657
 9207SOL    HW129062   3.754   5.303   3.166 -2.8219  0.5203 -1.3843
 9207SOL    HW229063   3.730   5.204   3.277  0.3960  1.6317  0.4485
 9208SOL     OW29064   2.539   4.973   5.015 -0.2048 -0.3278  0.6762
 9208SOL    HW129065   2.469   4.970   4.949 -0.8539  0.0674  1.3255
 9208SOL    HW229066   2.601   4.906   4.987 -1.2194 -1.2278  0.4885
 9209SOL     OW29067   4.773   6.846   3.503  0.0041  0.0924  0.0223
 9209SOL    HW129068   4.712   6.826   3.573  1.1791 -1.0522  0.7672
 9209SOL    HW229069   4.764   6.773   3.442 -1.2760  1.2588 -1.2566
 9210SOL     OW29070   2.708   5.555   5.653 -0.1633 -0.0373 -0.1097
 9210SOL    HW129071   2.802   5.562   5.637 -0.3844  1.2968 -0.9470
 9210SOL    HW229072   2.672   5.637   5.620 -1.6584 -0.6306 -0.0137
 9211SOL     OW29073   3.331   4.932   6.379  0.1679  0.0783  1.0708
 9211SOL    HW129074   3.344   4.950   6.286  0.4056 -1.7388  0.7136
 9211SOL    HW229075   3.420   4.917   6.413  0.1659  1.5495  1.8068
 9212SOL     OW29076   2.984   5.585   5.654 -0.5731  0.1804  0.2529
 9212SOL    HW129077   2.981   5.678   5.675 -1.2213  0.2026  0.0759
 9212SOL    HW229078   3.077   5.566   5.640 -0.3439  0.6098  1.1383
 9213SOL     OW29079   3.465   4.001   3.873  0.3926  0.4802  0.1940
 9213SOL    HW129080   3.446   3.914   3.910  0.9796 -0.6316 -1.9911
 9213SOL    HW229081   3.392   4.018   3.813  1.2289  0.6472 -0.7931
 9214SOL     OW29082   3.399   4.163   4.242  0.4370  0.0663 -0.3510
 9214SOL    HW129083   3.434   4.075   4.257  0.7004  0.1810 -0.2856
 9214SOL    HW229084   3.366   4.191   4.327  2.4491  0.9434  0.2014
 9215SOL     OW29085   2.188   6.212   4.836 -0.6752  0.5558 -1.4655
 9215SOL    HW129086   2.236   6.152   4.894 -0.4647  1.0764 -1.0916
 9215SOL    HW229087   2.250   6.232   4.766 -1.2041 -0.7014 -2.3181
 9216SOL     OW29088   2.159   5.586   4.133  0.1377 -0.3905 -0.0105
 9216SOL    HW129089   2.182   5.499   4.100 -0.1131 -1.0466  1.4929
 9216SOL    HW229090   2.212   5.597   4.211 -0.5193  0.4286  0.3305
 9217SOL     OW29091   4.013   3.449   4.885 -0.2247  0.1362 -0.3304
 9217SOL    HW129092   3.928   3.491   4.898 -0.9232 -1.0938 -0.7617
 9217SOL    HW229093   4.018   3.437   4.790 -1.3444 -3.2248 -0.1078
 9218SOL     OW29094   3.547   5.001   3.753  0.1401  0.0048  0.1553
 9218SOL    HW129095   3.588   5.031   3.834 -0.7728  0.2711  0.5362
 9218SOL    HW229096   3.567   4.908   3.748  2.4496  0.4804 -0.6914
 9219SOL     OW29097   4.020   6.183   3.154  0.3678 -0.1857  0.7640
 9219SOL    HW129098   3.973   6.100   3.166  0.1212  0.0233  1.2915
 9219SOL    HW229099   4.112   6.160   3.164  0.2505 -0.2537  1.8410
 9220SOL     OW29100   2.366   3.968   5.549  0.0893 -0.3877  0.5502
 9220SOL    HW129101   2.380   3.880   5.517  1.1109  0.0257 -0.1861
 9220SOL    HW229102   2.371   4.024   5.472  0.0467  0.3793  1.0818
 9221SOL     OW29103   2.351   5.592   4.359  0.0251  0.1990 -0.0878
 9221SOL    HW129104   2.393   5.673   4.387 -0.4892  0.6167 -0.5226
 9221SOL    HW229105   2.402   5.523   4.402  2.6098  0.5479 -2.3068
 9222SOL     OW29106   3.336   6.019   5.730  0.2171  0.2026  0.3078
 9222SOL    HW129107   3.270   6.076   5.691 -0.8252 -2.2295 -1.7511
 9222SOL    HW229108   3.287   5.945   5.766  1.6673 -0.5587  0.8316
 9223SOL     OW29109   3.871   4.129   4.281  0.2218  0.5093  0.3342
 9223SOL    HW129110   3.960   4.164   4.271  0.3315  0.8401  2.2406
 9223SOL    HW229111   3.826   4.194   4.334 -0.6675 -0.4841  0.8159
 9224SOL     OW29112   0.848   3.999   4.658  0.5411  0.2451 -0.0471
 9224SOL    HW129113   0.856   4.056   4.734  0.2020  0.4709 -0.1770
 9224SOL    HW229114   0.798   4.051   4.595 -1.0161 -0.6878  0.3468
 9225SOL     OW29115   4.208   6.309   4.381  0.1297 -0.4128 -0.3701
 9225SOL    HW129116   4.174   6.342   4.464  1.2393 -0.6629  0.2045
 9225SOL    HW229117   4.211   6.214   4.392 -0.4564 -0.5109 -0.9952
 9226SOL     OW29118   2.299   3.798   3.749  0.2255 -0.1114 -0.0510
 9226SOL    HW129119   2.225   3.739   3.731  0.3161 -0.2754  0.1160
 9226SOL    HW229120   2.260   3.886   3.746  0.1967 -0.1417 -0.8474
 9227SOL     OW29121   2.808   4.873   4.680  0.4091 -0.3265  0.2074
 9227SOL    HW129122   2.781   4.960   4.650  1.0588  0.2796  1.3048
 9227SOL    HW229123   2.728   4.821   4.675  0.0172  0.3154 -0.5101
 9228SOL     OW29124   2.543   3.955   3.888  0.4794  0.4712  0.5917
 9228SOL    HW129125   2.579   3.971   3.801 -1.7847  1.5728 -0.2101
 9228SOL    HW229126   2.462   3.906   3.873  0.6620 -0.3794  2.1845
 9229SOL     OW29127   2.829   4.669   3.218  0.0185  0.3957 -0.1484
 9229SOL    HW129128   2.810   4.602   3.152  0.0607 -0.3469  0.5841
 9229SOL    HW229129   2.782   4.746   3.188  0.6497  0.2969 -1.4555
 9230SOL     OW29130   2.369   4.575   6.066 -0.0194 -0.9194  0.0320
 9230SOL    HW129131   2.405   4.507   6.122  0.1388 -0.7122  0.1820
 9230SOL    HW229132   2.444   4.612   6.020 -0.0184 -0.4280  0.4123
 9231SOL     OW29133   3.454   4.554   3.440 -0.1834  0.2503 -0.5290
 9231SOL    HW129134   3.487   4.643   3.424 -0.5267  0.7566  1.3359
 9231SOL    HW229135   3.520   4.497   3.400  0.3039  1.3351 -1.3191
 9232SOL     OW29136   3.872   5.188   3.785 -0.2047  0.0012  0.0525
 9232SOL    HW129137   3.878   5.279   3.811 -2.1442 -0.0488  0.8778
 9232SOL    HW229138   3.832   5.144   3.860  0.1637 -1.4215 -0.5456
 9233SOL     OW29139   0.823   5.139   4.685 -0.2850 -0.0290  0.3706
 9233SOL    HW129140   0.887   5.097   4.742 -1.5252  0.9723  2.6390
 9233SOL    HW229141   0.871   5.212   4.645  0.5959 -0.7051  0.1831
 9234SOL     OW29142   1.977   3.758   4.460 -0.3933 -0.2225  0.5143
 9234SOL    HW129143   2.020   3.719   4.536  0.2226  0.8095  0.7150
 9234SOL    HW229144   1.908   3.812   4.497  0.0042  0.3998  0.3497
 9235SOL     OW29145   2.508   4.624   6.982  0.7336 -0.4739 -0.0367
 9235SOL    HW129146   2.530   4.537   7.015  0.3275 -0.5553  0.0337
 9235SOL    HW229147   2.540   4.625   6.892  0.0807 -0.9732 -0.2896
 9236SOL     OW29148   1.764   4.096   6.599 -0.4534  0.1218 -0.0405
 9236SOL    HW129149   1.701   4.040   6.643  1.4203 -1.8601  0.2416
 9236SOL    HW229150   1.850   4.062   6.624  0.8227  3.1649  0.1847
 9237SOL     OW29151   2.994   6.001   5.896 -0.2866 -0.1344 -0.0655
 9237SOL    HW129152   3.033   5.918   5.869  0.1230 -0.1810  0.6321
 9237SOL    HW229153   2.982   6.049   5.815  0.8446 -0.2903 -0.3503
 9238SOL     OW29154   3.326   5.119   7.177 -0.0006 -0.1699  0.1191
 9238SOL    HW129155   3.404   5.137   7.126 -0.1025  0.1409  0.0696
 9238SOL    HW229156   3.335   5.028   7.203 -0.1708 -0.4792 -0.8481
 9239SOL     OW29157   2.643   4.737   6.477 -0.6557  0.4167  0.3559
 9239SOL    HW129158   2.736   4.759   6.466 -0.4715  0.1087  1.1634
 9239SOL    HW229159   2.638   4.643   6.457 -0.3375 -0.1176  2.5417
 9240SOL     OW29160   2.147   4.421   6.095  0.6208  0.1033 -0.0915
 9240SOL    HW129161   2.121   4.427   6.187  1.9008 -0.7978  0.3566
 9240SOL    HW229162   2.212   4.490   6.083 -0.5197  1.1075 -0.7047
 9241SOL     OW29163   3.323   4.461   6.614 -0.2252  0.1841  0.2689
 9241SOL    HW129164   3.305   4.368   6.627  1.6965  0.0503  2.7956
 9241SOL    HW229165   3.272   4.485   6.537 -2.0767 -2.5513  0.5102
 9242SOL     OW29166   1.447   5.242   8.275  0.0857  0.8014  0.3020
 9242SOL    HW129167   1.392   5.271   8.348 -0.0725 -0.1675  0.5796
 9242SOL    HW229168   1.391   5.183   8.225  0.7502  0.0846  0.3875
 9243SOL     OW29169   2.882   5.015   7.561  0.0591 -0.0590 -0.7986
 9243SOL    HW129170   2.799   5.039   7.519  0.5974  0.7604 -1.4234
 9243SOL    HW229171   2.941   4.994   7.488  0.2203 -1.3271 -0.3399
 9244SOL     OW29172   3.594   4.285   6.927  0.2589 -0.6705  0.4760
 9244SOL    HW129173   3.544   4.204   6.940 -0.3436 -0.2375  0.8749
 9244SOL    HW229174   3.558   4.324   6.848  2.5056 -2.2274 -1.4748
 9245SOL     OW29175   3.118   4.635   8.077  0.1810 -0.0591  0.1605
 9245SOL    HW129176   3.078   4.608   8.160 -0.4681 -0.8498 -0.3810
 9245SOL    HW229177   3.135   4.552   8.031 -0.0856  0.3870 -0.7651
 9246SOL     OW29178   2.219   6.017   7.635 -0.3666  0.4213  0.8089
 9246SOL    HW129179   2.149   6.082   7.626 -1.1978 -0.4539  0.7589
 9246SOL    HW229180   2.174   5.932   7.625  0.4728 -0.2159  2.1529
 9247SOL     OW29181   2.395   4.416   7.390 -0.0738 -0.1959 -0.3146
 9247SOL    HW129182   2.429   4.475   7.323  0.1666 -1.0974 -1.0033
 9247SOL    HW229183   2.473   4.383   7.435 -0.1279 -0.9525 -0.7686
 9248SOL     OW29184   2.819   4.262   5.666 -0.6037 -0.2687  0.2542
 9248SOL    HW129185   2.788   4.328   5.604 -2.1896 -0.4465  0.8232
 9248SOL    HW229186   2.745   4.203   5.679  0.2315 -1.1883  1.0625
 9249SOL     OW29187   2.229   4.031   5.806  0.5812 -0.5569  0.2118
 9249SOL    HW129188   2.277   3.990   5.735 -0.0377 -0.2383 -0.3980
 9249SOL    HW229189   2.224   3.963   5.874 -0.4329 -1.5250 -0.7810
 9250SOL     OW29190   2.337   5.406   7.132 -0.0640 -0.3489 -0.4082
 9250SOL    HW129191   2.300   5.430   7.217  0.1231 -0.5474 -0.2706
 9250SOL    HW229192   2.429   5.386   7.150  0.1375  0.2201 -0.7637
 9251SOL     OW29193   1.983   3.539   6.416  0.0316  0.4494  0.1901
 9251SOL    HW129194   1.921   3.548   6.344  0.3833  0.7128 -0.0883
 9251SOL    HW229195   2.006   3.446   6.417 -1.5104  0.0451  1.2744
 9252SOL     OW29196   3.255   3.904   6.855  0.1602  0.2480  0.2975
 9252SOL    HW129197   3.211   3.836   6.906 -0.0392  0.8468  0.9446
 9252SOL    HW229198   3.192   3.928   6.787 -0.0468  0.2577  0.4893
 9253SOL     OW29199   2.920   3.822   5.678 -0.1427 -0.3949  0.1120
 9253SOL    HW129200   2.945   3.912   5.654  1.5757 -0.7903  0.3185
 9253SOL    HW229201   2.948   3.813   5.769 -2.3586 -0.4426  0.8440
 9254SOL     OW29202   3.994   6.093   8.025  0.0791 -0.3474  0.4361
 9254SOL    HW129203   3.904   6.070   8.002  0.5438 -1.8669 -0.0165
 9254SOL    HW229204   3.996   6.093   8.120 -0.3708 -0.4982  0.4466
 9255SOL     OW29205   2.435   4.068   7.227  0.0482  0.0930 -0.2790
 9255SOL    HW129206   2.524   4.077   7.260  0.1098 -2.1338  0.3196
 9255SOL    HW229207   2.442   4.089   7.134  1.0027  0.8200 -0.0579
 9256SOL     OW29208   1.333   5.468   7.432 -0.9172  0.4415  0.8979
 9256SOL    HW129209   1.363   5.523   7.360  1.7967  0.5715  2.0090
 9256SOL    HW229210   1.301   5.388   7.390  2.1960 -0.2087 -0.4624
 9257SOL     OW29211   4.090   5.349   6.459  0.4438 -0.2604 -0.1363
 9257SOL    HW129212   4.065   5.325   6.370  0.9385 -0.2263 -0.2913
 9257SOL    HW229213   4.167   5.295   6.477 -0.3403 -1.1200  0.7083
 9258SOL     OW29214   3.161   4.721   7.068 -0.0763 -0.4961  0.8468
 9258SOL    HW129215   3.221   4.686   7.002 -0.8480  0.5528 -0.4579
 9258SOL    HW229216   3.218   4.746   7.141  0.9578 -0.3779  0.0225
 9259SOL     OW29217   1.603   3.686   6.066  0.0110 -0.2746  0.1500
 9259SOL    HW129218   1.598   3.663   6.159  0.1880 -2.6927 -0.3553
 9259SOL    HW229219   1.578   3.605   6.020  1.3933  0.3662 -1.9063
 9260SOL     OW29220   2.261   5.909   7.064  0.0691  0.0879  0.5057
 9260SOL    HW129221   2.316   5.941   7.136  0.1373 -2.0459  1.4910
 9260SOL    HW229222   2.235   5.988   7.017 -0.3534  1.6655  3.1417
 9261SOL     OW29223   2.087   4.715   7.762  0.0328  0.5507 -0.0284
 9261SOL    HW129224   1.993   4.705   7.776 -0.0493  0.0239 -0.9027
 9261SOL    HW229225   2.122   4.734   7.850 -0.6429 -1.1406  0.6597
 9262SOL     OW29226   1.237   4.922   7.373 -0.4330  0.1518  0.0626
 9262SOL    HW129227   1.176   4.966   7.432  0.6777  0.9630  0.6494
 9262SOL    HW229228   1.248   4.835   7.409  0.7542  0.8486  1.4947
 9263SOL     OW29229   3.913   4.647   6.513 -0.2429 -0.4626  0.4306
 9263SOL    HW129230   3.848   4.578   6.499 -1.7915  0.7090  1.4931
 9263SOL    HW229231   3.997   4.602   6.512 -0.8600 -1.8240 -2.7501
 9264SOL     OW29232   3.887   5.304   7.310  0.3501 -0.0840  0.1222
 9264SOL    HW129233   3.796   5.310   7.337  0.5718 -0.6423  1.0439
 9264SOL    HW229234   3.930   5.378   7.352  0.2445  0.4514 -0.6919
 9265SOL     OW29235   2.857   4.855   6.170 -0.3067  0.8053 -0.1455
 9265SOL    HW129236   2.818   4.773   6.140  1.1836  0.0256 -0.0744
 9265SOL    HW229237   2.938   4.828   6.213  1.1546  2.4437 -1.7056
 9266SOL     OW29238   3.830   5.241   6.552 -0.0740 -0.5060 -0.0847
 9266SOL    HW129239   3.904   5.277   6.504 -0.0022  0.6766  0.8713
 9266SOL    HW229240   3.868   5.177   6.613  0.2059  0.2408  0.5412
 9267SOL     OW29241   1.360   4.517   8.815  0.5019  0.6193  0.3542
 9267SOL    HW129242   1.414   4.487   8.889  2.1441  0.6651 -0.7806
 9267SOL    HW229243   1.296   4.577   8.855  3.1571  2.9568  1.4446
 9268SOL     OW29244   3.626   3.502   7.174 -0.3316  0.3789  0.2903
 9268SOL    HW129245   3.656   3.411   7.164 -0.0257  0.2843  1.7941
 9268SOL    HW229246   3.662   3.547   7.097 -0.0313 -0.6565 -0.2031
 9269SOL     OW29247   2.490   6.648   8.350 -0.0245 -0.2729 -0.1973
 9269SOL    HW129248   2.539   6.588   8.408  0.6405 -0.1999 -0.6761
 9269SOL    HW229249   2.399   6.638   8.378  0.3413  0.2424  1.3043
 9270SOL     OW29250   2.489   2.908   5.996  0.0875 -0.3105  0.0839
 9270SOL    HW129251   2.566   2.965   6.002 -1.0315  1.1215  1.5918
 9270SOL    HW229252   2.524   2.820   6.010  1.6536  0.1252 -0.8560
 9271SOL     OW29253   2.902   5.043   6.399  0.6995  0.1936  0.1911
 9271SOL    HW129254   2.931   5.010   6.484  0.6455  0.0949  0.1705
 9271SOL    HW229255   2.916   4.970   6.338  0.9137  0.3263  0.0796
 9272SOL     OW29256   1.721   3.788   7.961  0.1122  0.2559  0.5145
 9272SOL    HW129257   1.682   3.809   7.876 -0.7492  0.2584  0.9066
 9272SOL    HW229258   1.729   3.692   7.960 -0.8873  0.1602  0.8478
 9273SOL     OW29259   1.815   5.339   7.639 -0.1166  0.0778 -0.6065
 9273SOL    HW129260   1.793   5.329   7.731 -1.6046 -2.8985 -1.1540
 9273SOL    HW229261   1.775   5.422   7.613 -0.2671  0.6202  1.2379
 9274SOL     OW29262   2.736   2.885   6.531  0.1554 -0.0144 -0.3876
 9274SOL    HW129263   2.754   2.867   6.438  1.5154  0.5582 -0.2617
 9274SOL    HW229264   2.705   2.976   6.531 -0.1261 -0.1112 -0.3135
 9275SOL     OW29265   3.601   4.101   7.378 -0.2215 -0.4469 -0.5033
 9275SOL    HW129266   3.600   4.161   7.303 -0.5453  0.1651 -0.0132
 9275SOL    HW229267   3.693   4.098   7.404 -0.0834 -0.7697 -1.0021
 9276SOL     OW29268   2.820   4.383   6.830  0.4902  0.7329 -0.7296
 9276SOL    HW129269   2.879   4.325   6.783  0.2857  0.6043 -0.8304
 9276SOL    HW229270   2.877   4.442   6.880  0.6998  0.6280 -0.8491
 9277SOL     OW29271   3.669   6.808   7.057 -0.7548 -0.1361 -0.6989
 9277SOL    HW129272   3.648   6.719   7.027 -0.3894 -0.6608  0.5450
 9277SOL    HW229273   3.611   6.822   7.133  1.2332 -0.4715  0.9570
 9278SOL     OW29274   3.270   6.425   5.375 -0.2321 -0.1845  0.8657
 9278SOL    HW129275   3.301   6.511   5.402 -1.8566  0.7272 -0.0413
 9278SOL    HW229276   3.179   6.422   5.405 -0.5459 -1.1342 -0.1296
 9279SOL     OW29277   4.256   5.158   5.962  1.0805 -0.3772 -0.4253
 9279SOL    HW129278   4.169   5.149   5.923 -0.4476  0.5516  2.4766
 9279SOL    HW229279   4.311   5.095   5.915 -1.4866 -1.9930 -1.4424
 9280SOL     OW29280   2.477   5.240   7.503 -0.0727 -0.1514 -0.3397
 9280SOL    HW129281   2.538   5.184   7.454  1.3928  1.3559 -0.3500
 9280SOL    HW229282   2.515   5.327   7.496 -1.6893  0.6664  0.6136
 9281SOL     OW29283   2.410   3.732   5.467 -0.1418  0.0464  0.1445
 9281SOL    HW129284   2.453   3.678   5.533 -0.0326 -0.0615 -0.0125
 9281SOL    HW229285   2.412   3.679   5.387 -1.6285 -0.4516  0.4083
 9282SOL     OW29286   2.268   5.824   6.770 -0.2160 -0.1736  0.3797
 9282SOL    HW129287   2.355   5.851   6.800  0.5687 -1.8705 -0.2269
 9282SOL    HW229288   2.284   5.785   6.684 -1.8138  0.8177 -0.4068
 9283SOL     OW29289   1.853   5.769   6.987 -0.1882  0.8025  0.5491
 9283SOL    HW129290   1.799   5.699   7.024  0.1298  0.3777  0.2256
 9283SOL    HW229291   1.941   5.731   6.984 -0.3249  0.5725 -1.2795
 9284SOL     OW29292   1.588   2.093   6.473 -1.0628 -0.4899  0.2825
 9284SOL    HW129293   1.630   2.080   6.558 -0.1218 -0.6924 -0.1984
 9284SOL    HW229294   1.656   2.071   6.409 -1.7625 -0.3641 -0.5243
 9285SOL     OW29295   3.168   6.314   7.394  0.4128  0.1752  0.6718
 9285SOL    HW129296   3.103   6.259   7.350  1.1212 -0.3426  0.2435
 9285SOL    HW229297   3.178   6.276   7.481  0.3530  0.0726  0.6340
 9286SOL     OW29298   2.195   6.547   6.268 -0.0583  0.1782  0.4638
 9286SOL    HW129299   2.236   6.602   6.201 -0.6274 -0.7650 -0.6952
 9286SOL    HW229300   2.178   6.464   6.224  0.3358 -0.7797  2.0396
 9287SOL     OW29301   2.913   7.201   5.528  0.3117 -0.2823  1.0255
 9287SOL    HW129302   2.860   7.212   5.607  0.8751 -0.6237  1.4613
 9287SOL    HW229303   2.998   7.237   5.552  0.5788 -0.6877  0.6856
 9288SOL     OW29304   2.652   3.956   5.422  0.1193  0.2910 -0.2747
 9288SOL    HW129305   2.712   3.893   5.461 -0.4040  0.5713  1.0525
 9288SOL    HW229306   2.565   3.922   5.441 -0.1552  0.5759 -0.9894
 9289SOL     OW29307   3.490   3.720   6.899  0.6725  0.0722  0.0157
 9289SOL    HW129308   3.437   3.789   6.860 -1.7857 -0.7567  1.6290
 9289SOL    HW229309   3.436   3.641   6.890  1.9962 -1.0031  1.0174
 9290SOL     OW29310   2.667   3.907   5.841 -0.1759  0.3760  0.0571
 9290SOL    HW129311   2.754   3.943   5.860  0.9183 -1.1751 -1.7095
 9290SOL    HW229312   2.663   3.826   5.891 -1.0509  0.9092  0.8993
 9291SOL     OW29313   2.458   5.485   6.369 -0.1943 -0.1450 -0.6566
 9291SOL    HW129314   2.460   5.537   6.450 -0.3179 -0.3217 -0.5380
 9291SOL    HW229315   2.528   5.421   6.380  0.0587  0.0918 -0.8689
 9292SOL     OW29316   2.875   4.640   7.084 -0.5300 -0.9396  0.6345
 9292SOL    HW129317   2.965   4.662   7.107 -0.7310 -1.5413  2.1257
 9292SOL    HW229318   2.837   4.606   7.165 -1.8504 -1.5052 -0.1832
 9293SOL     OW29319   2.120   5.671   6.950  0.5188 -0.2874  0.0709
 9293SOL    HW129320   2.155   5.725   7.021 -0.5133  0.9032 -0.2921
 9293SOL    HW229321   2.173   5.696   6.874  0.7007 -0.5266  0.1191
 9294SOL     OW29322   3.832   4.242   6.031 -0.0761 -0.4836 -0.1881
 9294SOL    HW129323   3.740   4.263   6.018  0.1175  0.1541 -0.5554
 9294SOL    HW229324   3.862   4.209   5.947 -0.2295 -1.7174  0.2241
 9295SOL     OW29325   3.156   3.214   5.764 -0.1376 -0.4667 -0.1221
 9295SOL    HW129326   3.115   3.151   5.705  1.0047 -1.8171  0.4766
 9295SOL    HW229327   3.208   3.270   5.707 -2.1378  0.7705 -0.7987
 9296SOL     OW29328   2.683   1.571   7.102 -0.1302 -0.6243  0.1555
 9296SOL    HW129329   2.746   1.597   7.034  0.1182 -1.0530  0.2247
 9296SOL    HW229330   2.606   1.626   7.084 -0.6319 -1.7492 -1.3935
 9297SOL     OW29331   2.013   3.467   6.104 -0.0594 -0.3021  0.1819
 9297SOL    HW129332   2.015   3.535   6.037 -0.4892 -1.1868 -0.7687
 9297SOL    HW229333   2.071   3.399   6.071  0.5579 -0.3084  1.2358
 9298SOL     OW29334   2.425   4.195   5.974 -0.1201 -0.4529 -0.0583
 9298SOL    HW129335   2.468   4.164   5.895 -0.6029  0.4946 -0.7121
 9298SOL    HW229336   2.496   4.236   6.025  0.0129 -0.1628 -0.4711
 9299SOL     OW29337   3.105   4.809   6.302 -0.0024 -0.3478 -0.1393
 9299SOL    HW129338   3.138   4.726   6.335  0.6369 -0.7364 -1.6780
 9299SOL    HW229339   3.183   4.865   6.297  0.1768 -0.7047 -2.1097
 9300SOL     OW29340   2.717   5.729   6.690  0.5053  0.1671  0.2905
 9300SOL    HW129341   2.754   5.671   6.623 -0.6231  0.0832 -0.2694
 9300SOL    HW229342   2.792   5.782   6.719  0.9391  0.4916 -1.3127
 9301SOL     OW29343   2.718   6.331   5.396  0.3572 -0.0286 -0.1453
 9301SOL    HW129344   2.632   6.340   5.435  0.3618  1.8657 -0.4558
 9301SOL    HW229345   2.730   6.237   5.384 -1.8844 -0.3105 -0.5916
 9302SOL     OW29346   2.633   5.162   6.376 -0.2434  0.4291  0.4194
 9302SOL    HW129347   2.726   5.169   6.401 -0.3711  2.6035  0.4276
 9302SOL    HW229348   2.635   5.144   6.282  0.1824  1.2438  0.2708
 9303SOL     OW29349   3.200   4.648   5.145  0.0248  0.4710  0.2531
 9303SOL    HW129350   3.267   4.588   5.111 -0.2158  0.5128 -0.3045
 9303SOL    HW229351   3.117   4.604   5.125 -0.1405  0.8404  0.1257
 9304SOL     OW29352   0.935   3.916   5.585 -0.2548 -0.4103  0.7959
 9304SOL    HW129353   1.000   3.942   5.651 -0.6984  0.2062  1.0069
 9304SOL    HW229354   0.981   3.920   5.502  0.3493 -1.3122  1.0674
 9305SOL     OW29355   3.048   4.134   7.264  1.2496  0.3744 -0.1207
 9305SOL    HW129356   3.122   4.156   7.321  0.5537 -2.4207  2.1144
 9305SOL    HW229357   3.031   4.041   7.282 -0.4397 -0.0889 -3.3687
 9306SOL     OW29358   2.056   3.047   4.770  0.5282 -0.2532 -0.9165
 9306SOL    HW129359   2.028   2.981   4.833 -0.1118  0.4450 -0.4547
 9306SOL    HW229360   2.013   3.021   4.688  0.0476 -0.2595 -0.6675
 9307SOL     OW29361   1.030   3.689   7.149  0.2135  0.9588  0.3412
 9307SOL    HW129362   1.115   3.646   7.160  0.3097  0.8783 -0.6419
 9307SOL    HW229363   1.047   3.763   7.090 -0.5274  0.4605 -0.5361
 9308SOL     OW29364   3.785   4.993   6.052  0.1991 -0.1187 -0.1175
 9308SOL    HW129365   3.841   4.932   6.004 -0.8382  0.9030 -2.7955
 9308SOL    HW229366   3.700   4.949   6.057 -0.2819  0.6718 -1.1708
 9309SOL     OW29367   3.197   6.319   7.850  0.0186 -0.0675 -0.4122
 9309SOL    HW129368   3.196   6.294   7.943  0.4092 -0.0302 -0.3958
 9309SOL    HW229369   3.290   6.325   7.828 -0.0629  0.6923 -0.5936
 9310SOL     OW29370   3.874   4.541   5.873  0.2956 -0.2867 -0.2405
 9310SOL    HW129371   3.793   4.528   5.922  0.1522 -0.7245 -0.5887
 9310SOL    HW229372   3.860   4.494   5.791 -0.2690  2.1206 -1.6151
 9311SOL     OW29373   1.842   6.191   5.222 -0.0238 -0.3313 -0.1635
 9311SOL    HW129374   1.929   6.206   5.185 -0.2100  0.2606 -0.3680
 9311SOL    HW229375   1.851   6.214   5.315 -0.6214  2.4735 -0.7036
 9312SOL     OW29376   2.483   5.339   5.147  0.1949  0.4827  0.4182
 9312SOL    HW129377   2.500   5.363   5.056  0.4323  0.2681  0.4043
 9312SOL    HW229378   2.493   5.420   5.196 -0.9977  0.8292  0.1232
 9313SOL     OW29379   4.119   4.110   6.271  0.4811  0.1988  0.6989
 9313SOL    HW129380   4.069   4.177   6.223  0.8378  1.1623  1.6421
 9313SOL    HW229381   4.130   4.039   6.207  0.5592  1.2532 -0.5109
 9314SOL     OW29382   3.735   5.442   6.720  0.3037 -0.0062  0.1649
 9314SOL    HW129383   3.790   5.519   6.736  0.2556 -0.1022  0.8062
 9314SOL    HW229384   3.776   5.399   6.645 -0.1009  1.0448 -0.6973
 9315SOL     OW29385   3.162   3.725   7.043  0.8576 -0.4611 -0.4628
 9315SOL    HW129386   3.204   3.641   7.026  1.5687 -0.2359  0.1610
 9315SOL    HW229387   3.184   3.746   7.134 -1.8985 -1.0807  0.4669
 9316SOL     OW29388   4.687   5.524   5.658  0.2846  0.1820  0.1072
 9316SOL    HW129389   4.682   5.465   5.733 -0.6402 -0.5533 -0.5153
 9316SOL    HW229390   4.613   5.583   5.670  0.0702 -0.0060 -0.2757
 9317SOL     OW29391   3.599   4.318   7.219  0.0732 -0.2799 -0.0402
 9317SOL    HW129392   3.620   4.276   7.135  1.0838 -0.7247  0.4217
 9317SOL    HW229393   3.504   4.308   7.227 -0.4596  1.9488 -2.2787
 9318SOL     OW29394   2.899   4.846   7.766 -0.3801 -0.4757  0.0402
 9318SOL    HW129395   2.901   4.773   7.703  0.5895  0.1349 -0.6571
 9318SOL    HW229396   2.876   4.922   7.714  0.6480  0.0786  0.3739
 9319SOL     OW29397   4.427   5.654   5.673  0.4638 -0.0515 -0.4181
 9319SOL    HW129398   4.395   5.683   5.587  0.4960  1.0619 -0.0705
 9319SOL    HW229399   4.420   5.559   5.670 -0.8930  0.0410 -1.1241
 9320SOL     OW29400   3.343   5.624   8.628 -0.1032 -0.2153  0.1219
 9320SOL    HW129401   3.286   5.701   8.625 -0.2526 -0.3303  0.0669
 9320SOL    HW229402   3.350   5.603   8.722  0.0508 -0.0511  0.1491
 9321SOL     OW29403   3.378   3.707   7.584  0.6445 -0.4951 -0.5273
 9321SOL    HW129404   3.348   3.703   7.675 -0.0468  0.0684 -0.7162
 9321SOL    HW229405   3.311   3.760   7.540  0.8350 -0.9861 -1.4164
 9322SOL     OW29406   2.509   5.872   8.540  0.3373  0.5792  0.3211
 9322SOL    HW129407   2.559   5.949   8.510  1.9790  0.0708  1.6175
 9322SOL    HW229408   2.460   5.904   8.615  0.8885  0.4052  0.7567
 9323SOL     OW29409   3.065   4.466   5.528 -0.4622 -0.2004 -0.0813
 9323SOL    HW129410   3.011   4.507   5.596  0.3382  0.8221 -0.0273
 9323SOL    HW229411   3.074   4.534   5.461 -1.9330 -1.4656 -1.6560
 9324SOL     OW29412   2.736   3.391   6.240 -0.0832  0.1827 -0.9235
 9324SOL    HW129413   2.720   3.445   6.163  0.9644 -1.2439 -2.2132
 9324SOL    HW229414   2.831   3.392   6.251 -0.3073  2.3045  1.8867
 9325SOL     OW29415   3.821   5.704   6.774 -0.2547  0.2886  0.0466
 9325SOL    HW129416   3.802   5.797   6.759  1.4660  0.6009 -0.3626
 9325SOL    HW229417   3.887   5.682   6.709  0.3030 -0.8880  0.9874
 9326SOL     OW29418   3.851   3.739   7.648  0.5397 -0.3235 -0.3339
 9326SOL    HW129419   3.878   3.650   7.622  1.2851  0.1219 -1.1469
 9326SOL    HW229420   3.929   3.777   7.688 -0.1251 -0.4253  1.1127
 9327SOL     OW29421   2.386   4.478   7.772  0.1650  0.0172 -0.0297
 9327SOL    HW129422   2.336   4.476   7.690  1.8619 -0.6952 -1.0940
 9327SOL    HW229423   2.476   4.494   7.745  0.3153  3.4142  1.9935
 9328SOL     OW29424   2.839   4.657   7.581 -0.3386  0.3638 -0.4938
 9328SOL    HW129425   2.850   4.724   7.514 -1.5957  0.6518 -0.4229
 9328SOL    HW229426   2.879   4.579   7.544  0.4464  0.9393 -0.8947
 9329SOL     OW29427   2.945   1.587   5.034 -0.2946  0.0722 -0.0561
 9329SOL    HW129428   2.960   1.499   4.998 -0.0220  0.7576 -1.6509
 9329SOL    HW229429   2.870   1.621   4.986 -1.9913 -0.1696  2.2384
 9330SOL     OW29430   2.486   5.120   6.591 -0.1470 -0.4195 -0.2928
 9330SOL    HW129431   2.546   5.163   6.529 -0.1072 -0.4798 -0.2965
 9330SOL    HW229432   2.527   5.035   6.609  0.8965  0.3794  1.3847
 9331SOL     OW29433   2.693   4.403   6.448  0.4301 -0.0997  0.2562
 9331SOL    HW129434   2.781   4.424   6.416 -0.2781 -0.3575 -2.0723
 9331SOL    HW229435   2.700   4.314   6.481  0.6176 -0.9332 -1.9117
 9332SOL     OW29436   3.585   4.046   6.640  0.6006 -0.0767 -0.4794
 9332SOL    HW129437   3.679   4.056   6.657  0.4369  0.7323 -0.0255
 9332SOL    HW229438   3.580   3.970   6.582  1.4008 -1.3191  0.9747
 9333SOL     OW29439   2.876   3.230   7.287  0.1877  0.0838  0.1270
 9333SOL    HW129440   2.930   3.279   7.227 -0.9115 -0.4800 -1.3863
 9333SOL    HW229441   2.858   3.291   7.359  1.6116  0.7257 -0.0330
 9334SOL     OW29442   3.237   4.397   7.375  0.2163  0.0228 -0.0165
 9334SOL    HW129443   3.280   4.475   7.340  1.7315 -0.2879  1.0459
 9334SOL    HW229444   3.234   4.411   7.470 -0.2693 -0.8367  0.1098
 9335SOL     OW29445   2.726   6.014   7.228  0.1811  0.6916 -0.3871
 9335SOL    HW129446   2.741   6.103   7.259  0.8009  0.6006 -0.4184
 9335SOL    HW229447   2.767   6.011   7.142 -1.4114  0.8984 -1.1841
 9336SOL     OW29448   2.679   4.516   7.263  0.4028 -0.0257  0.2094
 9336SOL    HW129449   2.716   4.470   7.338  0.5613 -1.4103 -0.6816
 9336SOL    HW229450   2.678   4.451   7.193 -0.5313  0.9816 -0.7572
 9337SOL     OW29451   3.344   4.177   6.690  0.1030  0.2987  0.1422
 9337SOL    HW129452   3.278   4.109   6.674 -0.4473  1.0028 -0.6740
 9337SOL    HW229453   3.427   4.137   6.663 -0.0105 -0.5242  0.9816
 9338SOL     OW29454   1.684   4.785   9.154  0.5662 -0.7121 -0.1996
 9338SOL    HW129455   1.674   4.873   9.189  0.0459 -1.2126  0.9459
 9338SOL    HW229456   1.633   4.785   9.073  1.1989  0.2481 -0.6113
 9339SOL     OW29457   2.797   5.031   7.145  0.6993 -0.3176  0.2657
 9339SOL    HW129458   2.837   4.964   7.090  0.4016  0.0117 -0.3667
 9339SOL    HW229459   2.864   5.099   7.153  0.6693 -0.2714  0.1303
 9340SOL     OW29460   1.545   5.813   6.983 -0.3686  0.7038  0.4995
 9340SOL    HW129461   1.507   5.883   6.930  0.4422  1.1761  0.5222
 9340SOL    HW229462   1.575   5.748   6.918 -1.8076  0.0020  0.5113
 9341SOL     OW29463   2.740   5.395   5.331 -0.1198  0.1451  0.5571
 9341SOL    HW129464   2.773   5.434   5.411  1.7357 -0.1480 -0.0297
 9341SOL    HW229465   2.731   5.468   5.270 -0.4695  0.2067  0.6792
 9342SOL     OW29466   3.748   4.045   7.000  0.5700 -0.3464 -0.0940
 9342SOL    HW129467   3.654   4.031   6.991  0.3562  1.0947 -0.4549
 9342SOL    HW229468   3.787   3.995   6.929  0.2568 -2.4335  1.1433
 9343SOL     OW29469   2.448   3.736   6.108  0.3758 -0.3141  0.8393
 9343SOL    HW129470   2.362   3.767   6.082  0.0161 -0.6046  1.6557
 9343SOL    HW229471   2.431   3.659   6.162  1.2256 -1.6396 -0.6662
 9344SOL     OW29472   2.694   5.075   6.134 -0.2084 -0.7739 -0.1709
 9344SOL    HW129473   2.755   5.004   6.148 -1.8659 -2.2523 -0.0957
 9344SOL    HW229474   2.622   5.036   6.083 -1.5233  0.6303  0.5106
 9345SOL     OW29475   0.595   3.173   8.603 -0.2146 -0.1015  0.0028
 9345SOL    HW129476   0.520   3.204   8.551  0.6523  2.5064  0.1279
 9345SOL    HW229477   0.575   3.202   8.692  1.2374  1.3542 -0.0969
 9346SOL     OW29478   3.096   5.192   6.833 -0.0645  0.4500 -0.7562
 9346SOL    HW129479   3.007   5.157   6.824 -0.7669  1.0357  2.4293
 9346SOL    HW229480   3.153   5.120   6.809 -1.4311 -0.6197 -0.9335
 9347SOL     OW29481   2.173   4.844   4.322 -0.3162  0.3835 -0.2447
 9347SOL    HW129482   2.104   4.809   4.266 -0.1932  0.6621 -0.5752
 9347SOL    HW229483   2.249   4.853   4.265 -0.0188  0.1232  0.1070
 9348SOL     OW29484   1.913   6.463   4.683 -0.7633  0.0138  0.0646
 9348SOL    HW129485   1.831   6.472   4.635  0.2254 -0.0286 -1.7151
 9348SOL    HW229486   1.912   6.374   4.719 -1.0591 -0.3400 -0.8115
 9349SOL     OW29487   2.994   4.505   7.429  0.6212  0.0083  0.0263
 9349SOL    HW129488   2.975   4.430   7.485  0.1720 -0.3136 -0.5460
 9349SOL    HW229489   3.077   4.482   7.387 -0.9962 -1.6669 -2.5550
 9350SOL     OW29490   2.017   6.141   7.182  0.2694 -0.3017  0.1605
 9350SOL    HW129491   1.991   6.059   7.223 -1.4217 -0.0639 -0.3368
 9350SOL    HW229492   1.995   6.131   7.090  1.1142  0.3048 -0.1266
 9351SOL     OW29493   1.934   4.354   6.755 -0.5237 -0.0708 -0.3008
 9351SOL    HW129494   1.958   4.437   6.797 -1.5357 -1.1371  2.5994
 9351SOL    HW229495   2.014   4.327   6.709  0.5627  1.4035  0.6264
 9352SOL     OW29496   1.744   2.669   9.611 -0.8715 -0.2702  0.7465
 9352SOL    HW129497   1.691   2.738   9.651 -1.1422 -0.9836  1.6633
 9352SOL    HW229498   1.821   2.663   9.667 -0.0864  0.3589 -0.2454
 9353SOL     OW29499   1.969   2.928   6.048  0.2538  0.4991  0.1791
 9353SOL    HW129500   1.886   2.929   6.000 -0.7073 -2.6600  1.5112
 9353SOL    HW229501   2.027   2.873   5.995  0.3661 -0.0287  0.8312
 9354SOL     OW29502   3.920   4.474   7.027  0.1777 -0.2554 -0.0690
 9354SOL    HW129503   3.947   4.550   6.976  1.7898 -0.4883  0.3913
 9354SOL    HW229504   3.971   4.479   7.108 -1.6859 -0.3725  1.1784
 9355SOL     OW29505   0.403   5.937   7.400 -0.0600  0.4488 -0.3612
 9355SOL    HW129506   0.483   5.914   7.352 -0.1705  1.0667 -0.8555
 9355SOL    HW229507   0.332   5.916   7.340 -0.2218  0.7557 -0.2802
 9356SOL     OW29508   3.640   2.803   6.656 -0.3488  0.0053  0.0100
 9356SOL    HW129509   3.640   2.873   6.591 -1.5553  0.1860  0.1821
 9356SOL    HW229510   3.726   2.808   6.696  0.0521  0.5431 -0.8775
 9357SOL     OW29511   1.255   5.974   8.091  0.3203  0.3446  0.2041
 9357SOL    HW129512   1.345   5.986   8.060  0.5982  2.7761  1.7327
 9357SOL    HW229513   1.200   6.011   8.021  0.6652  1.0426  0.2936
 9358SOL     OW29514   1.609   4.102   6.146 -0.1782 -0.0506  0.5269
 9358SOL    HW129515   1.700   4.104   6.176 -0.4131 -0.1602  1.2912
 9358SOL    HW229516   1.593   4.189   6.111  0.8818 -0.7011 -1.7353
 9359SOL     OW29517   2.058   5.059   6.739 -0.0094  0.2129  0.2068
 9359SOL    HW129518   2.012   4.976   6.742 -2.0242  1.1217 -1.9905
 9359SOL    HW229519   1.994   5.123   6.772  1.3601  0.9809  1.4953
 9360SOL     OW29520   3.946   4.244   7.231  0.1479  0.0423  0.2094
 9360SOL    HW129521   4.041   4.257   7.222  0.3828 -1.2509  0.5930
 9360SOL    HW229522   3.921   4.300   7.304  0.4645  0.9758 -0.3700
 9361SOL     OW29523   1.743   5.317   7.347  0.1591  0.3574 -0.1222
 9361SOL    HW129524   1.745   5.410   7.324  0.9609  0.6157  0.8944
 9361SOL    HW229525   1.757   5.315   7.442  2.2330 -0.8754 -0.3914
 9362SOL     OW29526   4.169   4.529   6.316 -0.2560 -0.0637  0.4817
 9362SOL    HW129527   4.090   4.492   6.275  0.1808 -0.3720 -0.1048
 9362SOL    HW229528   4.239   4.507   6.255  0.3211  0.0114  1.1141
 9363SOL     OW29529   1.892   5.653   6.241  0.0008 -0.2262  0.1366
 9363SOL    HW129530   1.822   5.695   6.291  1.5014  1.3383  1.0209
 9363SOL    HW229531   1.956   5.626   6.306  1.5162  0.9013 -0.8342
 9364SOL     OW29532   1.346   5.337   7.672  0.0619  0.7242  0.4066
 9364SOL    HW129533   1.365   5.372   7.585 -0.4021  2.2184  0.8829
 9364SOL    HW229534   1.393   5.253   7.675 -0.5191  0.2937 -1.5371
 9365SOL     OW29535   4.314   5.966   6.271 -0.4140  0.8286  0.0607
 9365SOL    HW129536   4.278   6.013   6.347 -0.8683 -0.2414  0.5327
 9365SOL    HW229537   4.268   5.882   6.271 -1.0284  1.1170 -1.8949
 9366SOL     OW29538   2.841   3.774   7.596  0.3812  0.2237  0.5250
 9366SOL    HW129539   2.896   3.764   7.519 -0.4521 -1.4990  0.1218
 9366SOL    HW229540   2.880   3.716   7.662 -0.5874 -0.5638  0.4242
 9367SOL     OW29541   2.910   6.510   4.828 -0.4862  0.3071 -0.0693
 9367SOL    HW129542   2.929   6.553   4.911 -1.2246  0.8331 -0.1548
 9367SOL    HW229543   2.857   6.574   4.780 -1.6610 -0.7102 -0.1778
 9368SOL     OW29544   2.069   4.949   8.164 -0.0566  0.5765 -0.1794
 9368SOL    HW129545   2.007   4.909   8.225  0.6072  0.8548  0.7105
 9368SOL    HW229546   2.047   5.042   8.166 -1.1258  0.3917 -1.6877
 9369SOL     OW29547   3.859   3.892   6.752  1.1298  0.3170 -0.0662
 9369SOL    HW129548   3.880   3.804   6.719 -0.0351 -0.1688  0.4250
 9369SOL    HW229549   3.889   3.951   6.683  0.7635 -0.5481 -1.0074
 9370SOL     OW29550   0.717   3.405   4.734  0.0749  0.3994  0.7724
 9370SOL    HW129551   0.774   3.369   4.666  0.1276  2.7671 -0.5511
 9370SOL    HW229552   0.699   3.331   4.792  1.3097 -1.3429 -0.9355
 9371SOL     OW29553   3.310   6.379   7.139  0.6140  0.3473  0.8800
 9371SOL    HW129554   3.355   6.380   7.055  2.1987  1.3127  1.6987
 9371SOL    HW229555   3.229   6.330   7.123  0.3973  1.3624 -1.4402
 9372SOL     OW29556   2.806   4.748   6.810 -0.0161 -0.2246 -0.2949
 9372SOL    HW129557   2.813   4.699   6.892 -0.2170 -1.4690 -1.0090
 9372SOL    HW229558   2.887   4.726   6.762  0.4427  1.0551 -0.1508
 9373SOL     OW29559   3.032   4.953   6.621  0.0015  0.1131 -0.1835
 9373SOL    HW129560   3.013   4.927   6.711  0.8444  0.6101  0.1438
 9373SOL    HW229561   3.100   4.892   6.592  1.6488  1.5739  0.4279
 9374SOL     OW29562   5.838   5.686   6.137 -0.5936  0.1544 -0.2632
 9374SOL    HW129563   5.842   5.601   6.093  0.4827 -0.4072  0.8668
 9374SOL    HW229564   5.816   5.666   6.228  0.4032  1.0033  0.1869
 9375SOL     OW29565   2.508   4.931   7.906  0.4224 -0.0291 -0.3785
 9375SOL    HW129566   2.499   4.888   7.821  0.9696 -1.4656  0.2610
 9375SOL    HW229567   2.603   4.930   7.923  0.2091 -1.0412  0.8724
 9376SOL     OW29568   3.961   4.705   6.893 -0.3384 -0.4272  0.4382
 9376SOL    HW129569   4.011   4.747   6.823 -0.2989 -2.6525 -0.9717
 9376SOL    HW229570   3.910   4.776   6.932  0.4462  1.0832 -1.1162
 9377SOL     OW29571   3.179   6.225   6.611 -0.0551  0.1534  1.1304
 9377SOL    HW129572   3.218   6.150   6.566 -1.9506  0.4448 -1.1646
 9377SOL    HW229573   3.095   6.193   6.643 -1.9047  1.7096 -1.7657
 9378SOL     OW29574   2.882   4.849   5.890  0.5560 -0.1242 -0.5649
 9378SOL    HW129575   2.903   4.871   5.981  1.2558 -2.1490 -0.1884
 9378SOL    HW229576   2.899   4.930   5.842  1.7028  0.5467  0.8747
 9379SOL     OW29577   2.464   5.555   6.924 -0.1955 -0.0039 -0.3517
 9379SOL    HW129578   2.397   5.518   6.981 -0.5384  0.1421 -0.6505
 9379SOL    HW229579   2.526   5.598   6.983 -0.9584  0.8114 -0.1179
 9380SOL     OW29580   3.923   5.609   5.463 -0.0420  0.5701  0.2548
 9380SOL    HW129581   3.905   5.582   5.373  1.6494  0.5122 -0.0945
 9380SOL    HW229582   3.995   5.553   5.492  1.1111  2.2077  0.7561
 9381SOL     OW29583   2.481   4.137   6.965  0.1362  0.0875 -0.0610
 9381SOL    HW129584   2.474   4.083   6.887  0.3848  0.7920 -0.5842
 9381SOL    HW229585   2.411   4.203   6.955  1.2700  1.2501 -0.5698
 9382SOL     OW29586   2.531   5.910   6.853  0.3445  0.4370 -0.3501
 9382SOL    HW129587   2.535   5.940   6.763  3.4515  0.8124 -0.1786
 9382SOL    HW229588   2.599   5.843   6.859  0.5187  0.7344  1.8063
 9383SOL     OW29589   1.838   3.402   4.512 -0.6229  0.3928  0.0313
 9383SOL    HW129590   1.914   3.389   4.568 -1.1868  0.6089  0.8739
 9383SOL    HW229591   1.807   3.313   4.494  0.1973  0.2804 -0.8451
 9384SOL     OW29592   3.004   4.136   6.998  0.8045 -0.3123  0.2082
 9384SOL    HW129593   3.022   4.150   7.091 -0.6125  0.4968  0.3921
 9384SOL    HW229594   3.089   4.146   6.955  1.4277 -0.3820  1.3739
 9385SOL     OW29595   2.532   3.540   6.399  0.3723  0.6167 -0.2764
 9385SOL    HW129596   2.571   3.506   6.318  1.5102  1.1175  0.0511
 9385SOL    HW229597   2.542   3.468   6.461  0.6576  0.7003 -0.2261
 9386SOL     OW29598   3.417   5.231   6.199 -0.0623  0.4251  0.5832
 9386SOL    HW129599   3.480   5.204   6.266  0.6078 -0.4849 -0.3822
 9386SOL    HW229600   3.382   5.149   6.164 -0.6339  0.8921  0.0191
 9387SOL     OW29601   3.082   4.986   7.356  0.3001  0.4778  0.3422
 9387SOL    HW129602   3.061   5.054   7.291  0.9034  0.3867  0.0446
 9387SOL    HW229603   3.164   4.948   7.325  0.9538  0.8912  1.5362
 9388SOL     OW29604   3.508   4.817   7.001 -0.2217  0.1769  0.0934
 9388SOL    HW129605   3.521   4.741   7.058 -1.1503 -1.0190 -1.2108
 9388SOL    HW229606   3.589   4.867   7.009  0.4255 -0.9569  0.9926
 9389SOL     OW29607   1.908   4.669   7.382  0.4999  0.0366 -0.5177
 9389SOL    HW129608   1.972   4.615   7.336  0.3318 -2.3452  1.8004
 9389SOL    HW229609   1.837   4.609   7.404 -0.3669  1.5293  1.0103
 9390SOL     OW29610   1.135   6.504   6.035 -0.0353  1.0426  0.0832
 9390SOL    HW129611   1.229   6.508   6.015  0.2423  0.5269  1.2269
 9390SOL    HW229612   1.118   6.582   6.088  0.1860  0.1198  1.5574
 9391SOL     OW29613   4.628   4.345   6.343  0.6064 -0.5263  0.0211
 9391SOL    HW129614   4.693   4.398   6.389 -0.7937 -0.7539  2.4383
 9391SOL    HW229615   4.652   4.352   6.250  2.1540  1.9724  0.5172
 9392SOL     OW29616   3.604   4.816   6.373 -0.1796 -0.3874 -0.8396
 9392SOL    HW129617   3.585   4.830   6.280 -1.7395  1.3024 -0.3254
 9392SOL    HW229618   3.578   4.724   6.388 -0.2530 -0.5727 -1.9863
 9393SOL     OW29619   2.567   4.956   8.273  0.0210 -0.4351  0.1430
 9393SOL    HW129620   2.611   5.034   8.308  0.7907  0.8843 -3.3859
 9393SOL    HW229621   2.632   4.916   8.215 -1.7299 -1.3704 -1.2647
 9394SOL     OW29622   3.654   4.695   6.629  0.4438  0.3789  0.1832
 9394SOL    HW129623   3.669   4.620   6.687 -0.1949 -0.2921 -0.4928
 9394SOL    HW229624   3.643   4.769   6.688  1.4753  0.0187  0.8514
 9395SOL     OW29625   3.144   5.104   6.079 -0.2924  0.1536 -0.1752
 9395SOL    HW129626   3.217   5.052   6.115 -0.4492 -0.9220 -1.3634
 9395SOL    HW229627   3.174   5.131   5.992 -1.7367 -1.2923 -1.1718
 9396SOL     OW29628   4.403   5.519   8.390  0.3701 -0.2884  0.8172
 9396SOL    HW129629   4.400   5.485   8.300  0.4040  0.6973  0.4342
 9396SOL    HW229630   4.314   5.505   8.423  0.4308 -0.9089  0.7333
 9397SOL     OW29631   3.682   5.648   5.615 -0.3949 -0.2449  0.4341
 9397SOL    HW129632   3.727   5.608   5.541 -0.4160  0.0367  0.2692
 9397SOL    HW229633   3.752   5.672   5.676 -0.2777  0.5676 -0.0031
 9398SOL     OW29634   2.939   5.090   5.430 -0.2261 -0.4298 -0.5523
 9398SOL    HW129635   2.874   5.027   5.400 -1.3655 -0.4765  1.7509
 9398SOL    HW229636   3.010   5.037   5.465  0.7235 -0.3780 -2.3222
 9399SOL     OW29637   3.418   5.301   6.576 -0.6388 -0.0810  0.3309
 9399SOL    HW129638   3.373   5.376   6.615 -0.5093 -0.3761  1.0618
 9399SOL    HW229639   3.348   5.241   6.552 -0.7364  0.2234 -0.1666
 9400SOL     OW29640   2.433   4.149   8.246 -0.1095  0.2226  0.5537
 9400SOL    HW129641   2.432   4.244   8.260  2.3578 -0.0093  3.2091
 9400SOL    HW229642   2.505   4.135   8.184  0.9318  0.0200  1.7575
 9401SOL     OW29643   2.013   6.006   8.894  0.0412  0.4375 -0.0703
 9401SOL    HW129644   2.035   5.913   8.897 -1.5799  0.0533  1.8407
 9401SOL    HW229645   2.093   6.050   8.924  1.1174 -0.2083 -1.8115
 9402SOL     OW29646   2.964   4.644   6.611  0.5166  0.2501  0.1518
 9402SOL    HW129647   2.941   4.589   6.536 -1.0593 -1.7669  2.0195
 9402SOL    HW229648   3.056   4.624   6.629  0.7555  0.3643 -0.8758
 9403SOL     OW29649   2.330   4.084   5.314  0.1568  0.6614 -0.1824
 9403SOL    HW129650   2.235   4.082   5.326  0.2744  1.6315  1.1518
 9403SOL    HW229651   2.345   4.154   5.250 -0.1616 -1.2534 -2.4578
 9404SOL     OW29652   4.228   5.354   7.241  0.6430 -0.0287  0.2049
 9404SOL    HW129653   4.191   5.442   7.243 -0.7131 -0.5374 -0.9180
 9404SOL    HW229654   4.300   5.359   7.177  2.1690  0.7937  1.8946
 9405SOL     OW29655   2.587   6.301   6.538  0.1031  0.5310  0.2727
 9405SOL    HW129656   2.627   6.354   6.607 -0.9391  0.4293  0.9880
 9405SOL    HW229657   2.660   6.273   6.484  1.0884 -0.1843  1.8990
 9406SOL     OW29658   2.378   5.232   7.827 -0.2117 -0.5230 -0.3785
 9406SOL    HW129659   2.383   5.190   7.742 -0.5503 -0.6439 -0.3372
 9406SOL    HW229660   2.363   5.161   7.889  0.4519 -0.4904 -0.1651
 9407SOL     OW29661   2.979   3.762   5.951  0.0849  0.4892  0.1154
 9407SOL    HW129662   2.893   3.750   5.991 -0.7912  1.0832 -1.5399
 9407SOL    HW229663   3.038   3.712   6.007 -1.6117 -1.5087  0.2100
 9408SOL     OW29664   2.781   6.586   5.340 -0.0828  0.5928 -0.0442
 9408SOL    HW129665   2.723   6.629   5.277 -1.0966  0.4501  0.7496
 9408SOL    HW229666   2.735   6.504   5.361  0.1550  0.7233  1.0003
 9409SOL     OW29667   0.426   5.207   7.849  0.4779 -0.3535 -0.2406
 9409SOL    HW129668   0.408   5.208   7.755  1.6813 -0.0172 -0.4813
 9409SOL    HW229669   0.503   5.151   7.858  1.7955  1.4464  0.2553
 9410SOL     OW29670   2.660   5.036   7.383  0.7075 -0.2903 -0.4645
 9410SOL    HW129671   2.712   5.042   7.304  2.0446  1.0900  0.4651
 9410SOL    HW229672   2.622   4.948   7.381  0.9676 -0.3884 -2.4415
 9411SOL     OW29673   2.740   4.115   4.674  0.4828 -0.2603 -0.0384
 9411SOL    HW129674   2.796   4.192   4.689  0.4004 -0.4468  1.3611
 9411SOL    HW229675   2.772   4.079   4.591 -0.1544  1.8435 -1.2901
 9412SOL     OW29676   4.704   6.676   5.495  0.1294  0.9570  0.9897
 9412SOL    HW129677   4.708   6.581   5.479  1.0498  1.0658  0.4605
 9412SOL    HW229678   4.643   6.709   5.430  1.8804  1.0552 -0.6971
 9413SOL     OW29679   2.041   5.460   8.908 -0.1494  0.2481 -0.0110
 9413SOL    HW129680   2.060   5.457   9.002 -0.5268  0.0851  0.0623
 9413SOL    HW229681   2.046   5.368   8.881  2.1198  0.4860 -0.5960
 9414SOL     OW29682   0.614   5.816   8.388 -0.0388  0.2267  0.5064
 9414SOL    HW129683   0.526   5.846   8.410 -0.7088 -2.1552  1.3463
 9414SOL    HW229684   0.666   5.836   8.465 -0.2587  0.0512  0.7000
 9415SOL     OW29685   1.675   6.334   9.670  0.1825 -0.4027 -0.2956
 9415SOL    HW129686   1.704   6.312   9.582 -0.2433  1.0037 -0.8119
 9415SOL    HW229687   1.612   6.405   9.658  0.1801 -0.1245  1.1446
 9416SOL     OW29688   4.840   5.508   7.009 -0.3183 -0.1703  0.2029
 9416SOL    HW129689   4.880   5.433   6.966  0.3689  0.3474 -0.0755
 9416SOL    HW229690   4.802   5.560   6.938  0.7545  0.6468  0.2035
 9417SOL     OW29691   1.980   4.555   8.410  0.2343  0.7404 -0.1178
 9417SOL    HW129692   2.022   4.479   8.451 -3.2698 -0.1005  2.3572
 9417SOL    HW229693   1.947   4.522   8.327 -0.8368 -0.3949  0.7197
 9418SOL     OW29694   3.405   2.399  10.621  0.4916  0.0111 -0.0630
 9418SOL    HW129695   3.436   2.418  10.533 -0.2832  1.7362 -0.0109
 9418SOL    HW229696   3.454   2.460  10.677  0.8236 -0.9178  0.6802
 9419SOL     OW29697   2.694   5.061   9.202  0.0345  0.0505  0.5515
 9419SOL    HW129698   2.654   4.977   9.180 -1.7403  1.4247 -1.8891
 9419SOL    HW229699   2.636   5.099   9.268 -0.2041  0.1460  0.2879
 9420SOL     OW29700   2.452   4.166   9.506  0.0375  0.5614 -0.2269
 9420SOL    HW129701   2.503   4.217   9.443  0.1805  0.1229 -0.4710
 9420SOL    HW229702   2.517   4.132   9.567  0.2142 -0.9571 -1.1972
 9421SOL     OW29703   1.734   5.734   9.001 -0.3636  0.5374 -0.6930
 9421SOL    HW129704   1.782   5.726   8.919  0.2123  2.9233 -0.6631
 9421SOL    HW229705   1.796   5.704   9.068 -0.5202 -0.5527 -1.0077
 9422SOL     OW29706   1.194   3.473   8.406  0.4428  0.1766 -0.3600
 9422SOL    HW129707   1.238   3.487   8.322 -1.4494  0.2280 -1.3871
 9422SOL    HW229708   1.120   3.417   8.385 -0.7951  1.2050  1.0510
 9423SOL     OW29709   3.755   5.758   7.655 -0.6940 -0.4818 -0.3805
 9423SOL    HW129710   3.787   5.825   7.596  0.3881 -1.0896 -0.5152
 9423SOL    HW229711   3.663   5.746   7.632 -0.8069  0.7126 -0.5631
 9424SOL     OW29712   2.808   4.386   8.280 -0.2853 -0.2000 -0.5515
 9424SOL    HW129713   2.763   4.369   8.362 -0.1589 -2.7413 -0.9081
 9424SOL    HW229714   2.768   4.466   8.246 -0.2345  0.9859  2.0113
 9425SOL     OW29715   3.615   5.303   7.323 -0.1710  0.0133  0.4163
 9425SOL    HW129716   3.537   5.293   7.377  0.0009 -1.6126  0.4269
 9425SOL    HW229717   3.586   5.279   7.235  0.3280 -0.7084  0.4416
 9426SOL     OW29718   3.219   5.520   9.449  0.7272 -0.1845 -0.3393
 9426SOL    HW129719   3.250   5.441   9.494  0.6534  0.0321  0.0918
 9426SOL    HW229720   3.261   5.516   9.363  1.2560 -0.3490 -0.0772
 9427SOL     OW29721   2.332   4.743   9.974  0.2300 -0.5685  0.3501
 9427SOL    HW129722   2.282   4.702  10.044 -0.8443 -0.1329 -0.1381
 9427SOL    HW229723   2.317   4.837   9.985 -2.1507 -0.5635 -1.9768
 9428SOL     OW29724   1.033   4.791   9.492  0.2474 -0.0986 -0.2694
 9428SOL    HW129725   1.094   4.864   9.481  0.4357 -0.5075 -2.1468
 9428SOL    HW229726   0.984   4.813   9.572  1.5635  1.1396  0.2423
 9429SOL     OW29727   2.451   6.495  10.647  0.4994  0.2758  0.6458
 9429SOL    HW129728   2.500   6.417  10.620  2.5525  1.0851  1.8183
 9429SOL    HW229729   2.389   6.462  10.711 -1.5441 -0.9804 -1.7863
 9430SOL     OW29730   2.196   5.248   6.943 -0.4401  0.6428 -0.1492
 9430SOL    HW129731   2.150   5.201   7.012  0.5141 -0.6812 -0.3660
 9430SOL    HW229732   2.240   5.321   6.988 -0.3642  0.1850  0.5371
 9431SOL     OW29733   1.884   4.879   7.170 -0.4201 -0.3604 -0.1951
 9431SOL    HW129734   1.791   4.898   7.165 -0.1057  2.1733  1.6478
 9431SOL    HW229735   1.893   4.825   7.249 -0.3384 -0.8995 -0.5655
 9432SOL     OW29736   3.945   5.571   7.419  0.1956 -1.0711 -0.0747
 9432SOL    HW129737   3.906   5.629   7.354  0.6637 -1.1419 -0.4246
 9432SOL    HW229738   3.893   5.584   7.498  0.3018 -0.1709 -0.1478
 9433SOL     OW29739   2.545   5.558   5.895  0.1198 -0.0374 -0.1423
 9433SOL    HW129740   2.566   5.474   5.936  1.3530  0.3390  0.0429
 9433SOL    HW229741   2.580   5.551   5.806 -0.7573 -0.1101 -0.4932
 9434SOL     OW29742   3.654   5.295   9.187  0.2899  0.6731 -0.6959
 9434SOL    HW129743   3.707   5.315   9.110 -1.3610  0.6802 -1.8686
 9434SOL    HW229744   3.670   5.202   9.204 -1.9849 -0.3191 -3.2828
 9435SOL     OW29745   2.117   5.415   9.200 -0.1406 -0.1177  0.4034
 9435SOL    HW129746   2.090   5.324   9.184  1.1286 -0.3672 -0.5544
 9435SOL    HW229747   2.211   5.408   9.216  0.3695  1.2011 -1.6612
 9436SOL     OW29748   2.355   4.500   9.550 -0.1739  0.2070 -0.3741
 9436SOL    HW129749   2.338   4.467   9.638 -0.2793  2.6416  0.5884
 9436SOL    HW229750   2.312   4.438   9.492 -0.6140 -1.1307  1.3096
 9437SOL     OW29751   1.860   3.747   8.513 -0.3197  0.2888 -0.4662
 9437SOL    HW129752   1.766   3.728   8.506 -0.5366  0.7477  0.8301
 9437SOL    HW229753   1.872   3.828   8.463 -0.5876  0.1384 -0.7759
 9438SOL     OW29754   1.301   3.047   9.095  0.2203 -0.2576  0.2187
 9438SOL    HW129755   1.206   3.046   9.095  0.1441 -1.6835 -1.9605
 9438SOL    HW229756   1.325   3.115   9.158 -2.1875 -0.4836  1.4945
 9439SOL     OW29757   2.143   4.645   9.236  0.2990  0.4618 -0.0731
 9439SOL    HW129758   2.155   4.573   9.175  0.0912  2.0793 -2.1481
 9439SOL    HW229759   2.049   4.657   9.241  0.3364  0.6799  0.1456
 9440SOL     OW29760   2.362   2.749   9.140  0.5464 -0.0141  0.1435
 9440SOL    HW129761   2.437   2.691   9.157  0.5443 -0.5209 -1.4711
 9440SOL    HW229762   2.296   2.693   9.099 -0.3344  0.6538  0.6092
 9441SOL     OW29763   3.947   6.127   8.293 -0.0724  0.8228 -0.2166
 9441SOL    HW129764   4.029   6.129   8.341  0.0488 -1.2225 -0.2422
 9441SOL    HW229765   3.896   6.058   8.336 -1.7908  2.0317 -0.2050
 9442SOL     OW29766   2.178   5.226   7.529 -0.0132 -0.0172 -0.1099
 9442SOL    HW129767   2.266   5.244   7.495  0.6600 -0.3576  1.3699
 9442SOL    HW229768   2.190   5.150   7.586 -1.1229  0.3797  0.6784
 9443SOL     OW29769   2.669   4.523   7.748  0.7258  0.2714 -0.0352
 9443SOL    HW129770   2.739   4.562   7.696  0.0985  1.6160  0.0849
 9443SOL    HW229771   2.695   4.432   7.759  1.3328  0.1867 -1.9083
 9444SOL     OW29772   3.194   4.061   8.459  0.5107  0.5779 -0.0804
 9444SOL    HW129773   3.201   3.993   8.525  0.1275  1.2666  0.6792
 9444SOL    HW229774   3.280   4.062   8.416 -0.3217 -2.3160 -2.0690
 9445SOL     OW29775   2.542   5.910   8.118  0.3418  0.4415  0.5116
 9445SOL    HW129776   2.595   5.831   8.130 -1.4928 -0.8355  0.6167
 9445SOL    HW229777   2.569   5.968   8.189  2.5792  0.4566 -0.2785
 9446SOL     OW29778   2.010   3.171   9.487  0.2373 -0.1591 -0.4915
 9446SOL    HW129779   2.054   3.216   9.560  0.7235  1.2069 -1.5748
 9446SOL    HW229780   1.943   3.117   9.529  2.2979 -1.5730  1.1561
 9447SOL     OW29781   2.757   4.467   8.924 -0.0457  0.1687 -0.0947
 9447SOL    HW129782   2.749   4.375   8.900 -1.0359  0.1176  0.3908
 9447SOL    HW229783   2.812   4.467   9.002  0.6832  0.0791 -0.5940
 9448SOL     OW29784   3.719   2.899   9.447 -0.2708 -0.5479 -0.0969
 9448SOL    HW129785   3.628   2.871   9.435 -0.7000 -0.1909  1.9337
 9448SOL    HW229786   3.713   2.994   9.458  0.3881 -0.4845 -0.2635
 9449SOL     OW29787   3.197   5.149   6.505 -0.5242 -0.1262 -0.5181
 9449SOL    HW129788   3.250   5.089   6.453  3.0747  0.1397  2.4049
 9449SOL    HW229789   3.116   5.100   6.523  0.4600 -2.3633 -1.7532
 9450SOL     OW29790   7.994   3.779   6.651 -0.2938  0.1317 -0.3547
 9450SOL    HW129791   7.977   3.868   6.682  1.1732  0.5696 -0.7361
 9450SOL    HW229792   7.992   3.786   6.556 -0.0456 -0.2084 -0.3861
 9451SOL     OW29793   3.562   5.591   9.010  0.7217  0.5017 -0.4686
 9451SOL    HW129794   3.548   5.503   8.974  3.5551 -0.3129  0.2211
 9451SOL    HW229795   3.644   5.621   8.971 -0.9803  3.6684 -2.0190
 9452SOL     OW29796   2.897   2.964   7.187 -0.0417 -0.2432  0.3038
 9452SOL    HW129797   2.991   2.951   7.197  0.1833  0.5044 -0.6441
 9452SOL    HW229798   2.883   3.057   7.204 -0.7107 -0.4641  1.0308
 9453SOL     OW29799   3.707   4.638   9.294 -0.0831 -0.1808  0.1896
 9453SOL    HW129800   3.726   4.690   9.216  3.4516 -1.9876 -0.3764
 9453SOL    HW229801   3.660   4.561   9.261 -1.3579  0.5001  0.3663
 9454SOL     OW29802   5.194   4.813   7.497  0.0405 -0.7159  0.2905
 9454SOL    HW129803   5.215   4.903   7.472  1.6992 -1.0981  0.1823
 9454SOL    HW229804   5.152   4.822   7.583  0.5693  0.1385  0.4774
 9455SOL     OW29805   2.008   3.460   8.278 -0.6913  0.3266  0.0481
 9455SOL    HW129806   1.950   3.530   8.248  0.0805  1.6122  1.4624
 9455SOL    HW229807   2.096   3.493   8.264 -0.3147 -0.1507  1.1417
 9456SOL     OW29808   3.562   5.002   8.242  0.2971  0.2966 -0.6464
 9456SOL    HW129809   3.474   5.035   8.259 -0.0678 -0.3321 -1.2566
 9456SOL    HW229810   3.563   4.914   8.281  0.9808  0.6695  0.2128
 9457SOL     OW29811   1.375   4.461   9.188  0.4593 -0.4446  0.3899
 9457SOL    HW129812   1.419   4.432   9.267  0.5406 -1.3132  0.0398
 9457SOL    HW229813   1.283   4.468   9.213  0.7283  1.0072  1.0208
 9458SOL     OW29814   2.940   5.598   9.259  0.5874 -0.0729  0.3244
 9458SOL    HW129815   2.871   5.632   9.317  0.4159  1.1130 -0.5141
 9458SOL    HW229816   2.969   5.517   9.300  0.4121  0.6775  2.0030
 9459SOL     OW29817   2.461   4.045   7.758  0.3370 -0.1110  0.3953
 9459SOL    HW129818   2.516   4.025   7.833 -0.3078 -0.0585  0.8909
 9459SOL    HW229819   2.469   3.967   7.702  0.4765 -0.3374  0.7252
 9460SOL     OW29820   2.972   4.937   8.353  0.4790  0.0537 -0.3101
 9460SOL    HW129821   2.969   4.914   8.445  0.2548  0.7731 -0.1304
 9460SOL    HW229822   2.990   4.855   8.308  0.7460 -0.2754  0.3829
 9461SOL     OW29823   1.308   7.263   8.780  0.5001  0.4756  0.5110
 9461SOL    HW129824   1.282   7.299   8.696  1.6087 -0.5575 -0.3000
 9461SOL    HW229825   1.403   7.271   8.782  0.4552  1.0111  1.9289
 9462SOL     OW29826   3.308   6.093   7.230 -0.2293  0.6287  0.3336
 9462SOL    HW129827   3.367   6.121   7.160 -1.5594 -0.3791 -1.2940
 9462SOL    HW229828   3.220   6.112   7.195 -1.0836 -2.5553  0.4175
 9463SOL     OW29829   2.890   3.692   9.677 -0.4756  0.1152 -0.3812
 9463SOL    HW129830   2.959   3.755   9.656  1.4908 -1.2032  1.6093
 9463SOL    HW229831   2.830   3.741   9.734  0.5321  0.4584  0.4117
 9464SOL     OW29832   4.496   5.067   7.716  0.2013  0.6230  0.8480
 9464SOL    HW129833   4.556   4.999   7.685 -0.7123  0.4612 -0.6729
 9464SOL    HW229834   4.410   5.026   7.715 -0.3005  1.6385  0.3781
 9465SOL     OW29835   2.288   4.727   7.386  0.3338  0.2659  0.8698
 9465SOL    HW129836   2.280   4.821   7.369 -1.9751 -0.2549 -1.5687
 9465SOL    HW229837   2.263   4.686   7.303 -0.2181 -2.5181  2.3206
 9466SOL     OW29838   3.064   4.991   9.302 -0.1420  0.0451 -0.4936
 9466SOL    HW129839   3.125   5.034   9.242 -0.1581  0.5740 -0.1450
 9466SOL    HW229840   3.118   4.964   9.376 -0.2592  0.1429 -0.3715
 9467SOL     OW29841   3.647   5.494   9.392  0.4450  0.4843  0.0870
 9467SOL    HW129842   3.660   5.439   9.315  1.8471 -0.1498  0.7460
 9467SOL    HW229843   3.717   5.558   9.389  0.6519  0.3177  0.9352
 9468SOL     OW29844   1.889   4.787   8.263  0.1052  0.0994  0.2165
 9468SOL    HW129845   1.852   4.787   8.351 -0.1433  0.7503  0.1162
 9468SOL    HW229846   1.926   4.699   8.253 -1.9770 -0.8347  0.0876
 9469SOL     OW29847   2.888   5.993   6.977  0.3658 -0.0059 -0.4651
 9469SOL    HW129848   2.924   5.916   6.933 -1.1799 -0.0414 -1.7376
 9469SOL    HW229849   2.885   6.061   6.910  1.5681  1.1619  0.6079
 9470SOL     OW29850   1.958   4.549  10.168  0.0500 -0.1504 -0.3321
 9470SOL    HW129851   1.933   4.457  10.177  0.6474 -0.2042  1.0245
 9470SOL    HW229852   1.880   4.598  10.191  0.3630 -0.3293  1.2118
 9471SOL     OW29853   1.818   3.976   9.625 -0.6584  0.7676  0.1834
 9471SOL    HW129854   1.890   4.017   9.578 -0.6658 -0.3271 -0.8427
 9471SOL    HW229855   1.827   3.882   9.606 -2.3832  0.6151 -0.0590
 9472SOL     OW29856   2.438   4.906   9.076 -0.1272  0.0264  0.7188
 9472SOL    HW129857   2.483   4.824   9.053  0.2211 -0.0820  1.7363
 9472SOL    HW229858   2.445   4.960   8.998  0.6183 -0.5023  0.4094
 9473SOL     OW29859   3.094   5.009   8.913 -0.3697  0.2928 -0.0845
 9473SOL    HW129860   3.177   5.041   8.946  0.3599 -2.7365  1.3785
 9473SOL    HW229861   3.048   5.087   8.882  0.8667  2.8141  3.7671
 9474SOL     OW29862   2.270   3.911   9.441  0.2949 -0.1454 -0.3113
 9474SOL    HW129863   2.347   3.965   9.461  0.7702 -0.2135 -1.8116
 9474SOL    HW229864   2.297   3.859   9.366 -1.3505  0.0763 -1.0939
 9475SOL     OW29865   2.880   3.188   8.136  0.3546  0.3402 -0.0942
 9475SOL    HW129866   2.908   3.256   8.075 -2.1646 -0.1244 -1.9729
 9475SOL    HW229867   2.896   3.106   8.089 -1.2283 -0.0457 -0.0476
 9476SOL     OW29868   3.444   2.751   7.264 -0.2789  0.5387 -0.0590
 9476SOL    HW129869   3.496   2.795   7.332  1.6553  1.7738 -2.2289
 9476SOL    HW229870   3.393   2.821   7.224 -2.1181 -0.3323  0.6128
 9477SOL     OW29871   3.156   4.348   8.511 -0.0842 -0.0202  0.0190
 9477SOL    HW129872   3.211   4.378   8.439 -0.7357  0.7802 -0.1624
 9477SOL    HW229873   3.194   4.264   8.538  2.3643  1.3443  1.1211
 9478SOL     OW29874   3.292   4.882   8.468  0.0725  0.5673 -0.7597
 9478SOL    HW129875   3.283   4.787   8.476  1.0435  0.5948  1.0620
 9478SOL    HW229876   3.202   4.915   8.473 -0.1244 -0.1285  1.1442
 9479SOL     OW29877   1.293   5.138  10.097 -0.2953 -0.0407 -0.5618
 9479SOL    HW129878   1.374   5.179  10.128 -0.6965  0.1626  0.2620
 9479SOL    HW229879   1.322   5.065  10.043  0.4347  0.8246 -1.3661
 9480SOL     OW29880   3.277   5.617   8.898  0.5562  0.1983 -0.1938
 9480SOL    HW129881   3.230   5.656   8.973  0.8490  2.8542 -1.2727
 9480SOL    HW229882   3.369   5.625   8.921  0.6153 -0.0102 -0.3613
 9481SOL     OW29883   1.106   5.454   8.074 -0.2185  0.0527 -0.3757
 9481SOL    HW129884   1.179   5.455   8.012  1.9301  2.7669  1.9261
 9481SOL    HW229885   1.120   5.376   8.127  1.9485  1.2495  0.9250
 9482SOL     OW29886   2.847   2.395   8.014  0.2782  0.2955 -0.0547
 9482SOL    HW129887   2.926   2.447   8.003  0.0779  0.3812 -1.1633
 9482SOL    HW229888   2.862   2.316   7.962  0.5759 -0.7877  1.6095
 9483SOL     OW29889   2.210   4.906   8.575  0.0192 -0.1588  0.3025
 9483SOL    HW129890   2.279   4.926   8.638 -0.5649 -1.3724  1.4019
 9483SOL    HW229891   2.254   4.859   8.504  0.4614 -0.1612  0.5747
 9484SOL     OW29892   2.090   3.538   8.526 -0.5135 -0.2747 -0.3767
 9484SOL    HW129893   2.067   3.625   8.560 -0.7599 -0.0846 -1.0092
 9484SOL    HW229894   2.020   3.518   8.464 -0.7657 -1.1880  0.1953
 9485SOL     OW29895   3.048   4.664   8.376  0.4028 -0.5527 -0.6487
 9485SOL    HW129896   3.114   4.628   8.435  1.1979  1.3713 -0.2802
 9485SOL    HW229897   2.968   4.667   8.428  0.6547 -0.5354 -0.2585
 9486SOL     OW29898   2.635   4.029   8.080  0.5966 -0.0239  0.1352
 9486SOL    HW129899   2.718   4.062   8.115  1.5808 -1.3047 -0.8562
 9486SOL    HW229900   2.622   3.946   8.125  0.1387 -0.0848 -0.1105
 9487SOL     OW29901   2.538   3.636   8.019 -0.1240  0.0756 -0.1580
 9487SOL    HW129902   2.485   3.601   7.947  1.0181 -0.9480 -0.5307
 9487SOL    HW229903   2.619   3.665   7.977  0.4208 -0.2301  0.6605
 9488SOL     OW29904   3.505   5.282   8.107  0.0867 -0.0674  0.0609
 9488SOL    HW129905   3.476   5.347   8.042 -0.1915 -0.9156 -0.6870
 9488SOL    HW229906   3.451   5.205   8.089  0.5593 -0.5791  0.7956
 9489SOL     OW29907   2.795   4.013   6.852  0.1408 -0.5230  0.2319
 9489SOL    HW129908   2.860   4.068   6.896 -0.0963 -0.1892  0.1694
 9489SOL    HW229909   2.846   3.956   6.794  0.3266  0.2325 -0.3567
 9490SOL     OW29910   4.903   4.889   7.704 -0.2872 -0.5033 -0.5521
 9490SOL    HW129911   4.826   4.844   7.738  0.4348  0.2330  2.3466
 9490SOL    HW229912   4.869   4.966   7.660 -1.3042 -1.5916 -1.7278
 9491SOL     OW29913   2.354   5.565   9.383 -0.0578  0.3301 -0.3054
 9491SOL    HW129914   2.361   5.656   9.354  0.4413  0.8220  1.2381
 9491SOL    HW229915   2.389   5.514   9.311  0.4053  1.4208 -0.8742
 9492SOL     OW29916   3.526   5.353   8.823  0.1134 -0.1778  0.3713
 9492SOL    HW129917   3.480   5.273   8.849 -2.5416  0.8048 -0.9561
 9492SOL    HW229918   3.527   5.349   8.727  1.8095  0.4317  0.3316
 9493SOL     OW29919   3.445   3.368   9.055  0.0741  0.6693 -0.0015
 9493SOL    HW129920   3.402   3.452   9.037  0.4916  1.1369  1.0962
 9493SOL    HW229921   3.468   3.334   8.968 -2.9383  0.1373 -0.7206
 9494SOL     OW29922   2.561   4.553   9.393  0.7308  0.4637  0.4794
 9494SOL    HW129923   2.536   4.466   9.361  0.4880  0.9743 -0.7799
 9494SOL    HW229924   2.491   4.578   9.453  0.5026  0.0272  0.4014
 9495SOL     OW29925   2.904   2.472   7.750  0.2918 -0.6667 -0.3336
 9495SOL    HW129926   2.833   2.433   7.800  1.2555 -1.2041  0.6551
 9495SOL    HW229927   2.885   2.566   7.751 -1.1234 -0.9113 -1.2748
 9496SOL     OW29928   1.657   5.673   8.193 -0.2903  0.1028 -0.2934
 9496SOL    HW129929   1.657   5.769   8.190 -2.0274  0.1122 -1.0871
 9496SOL    HW229930   1.602   5.651   8.268 -1.6115 -0.2435 -1.3255
 9497SOL     OW29931   2.884   3.494   8.931  0.3332  0.3914  0.1978
 9497SOL    HW129932   2.958   3.504   8.991 -0.2287 -1.7031  1.3117
 9497SOL    HW229933   2.858   3.403   8.939 -1.4608  0.7076 -1.2880
 9498SOL     OW29934   7.271   5.359   8.129 -0.4442  0.3654  0.0284
 9498SOL    HW129935   7.305   5.374   8.041  0.6178 -2.2808 -0.1030
 9498SOL    HW229936   7.181   5.330   8.115  0.1877 -1.5606 -0.3922
 9499SOL     OW29937   1.079   5.148   7.534 -0.1267 -0.2656 -0.0849
 9499SOL    HW129938   1.128   5.180   7.459  0.1567  1.1264  0.6763
 9499SOL    HW229939   0.993   5.189   7.527  0.1490  0.4811  0.7545
 9500SOL     OW29940   3.237   5.445   7.263  0.0310 -0.7182  0.6721
 9500SOL    HW129941   3.323   5.486   7.261 -0.2893  0.1328  2.1084
 9500SOL    HW229942   3.205   5.462   7.352 -1.1164 -2.0697  0.5521
 9501SOL     OW29943   3.976   6.980   9.875 -0.4236  0.1097 -0.2240
 9501SOL    HW129944   3.972   7.075   9.866 -0.6263  0.1045 -0.2068
 9501SOL    HW229945   3.908   6.960   9.940  1.3803  0.2321  1.8509
 9502SOL     OW29946   2.206   4.188   7.235 -0.1120 -0.0272 -0.3318
 9502SOL    HW129947   2.210   4.205   7.141  0.1538  0.9435 -0.1552
 9502SOL    HW229948   2.288   4.144   7.256  0.7053  1.4893 -0.2369
 9503SOL     OW29949   3.232   5.034   9.620 -0.4446  0.4746 -0.3901
 9503SOL    HW129950   3.228   5.129   9.607  0.2572  0.2013 -3.2720
 9503SOL    HW229951   3.320   5.009   9.593 -1.1514 -1.1747 -1.3151
 9504SOL     OW29952   3.108   5.950   8.149 -0.2522  0.0588  0.3205
 9504SOL    HW129953   3.089   5.865   8.189  0.3201  1.5316  4.2207
 9504SOL    HW229954   3.031   6.003   8.169 -0.6518  0.5174 -2.1639
 9505SOL     OW29955   2.835   4.175   9.011 -0.7391 -0.2475  0.2995
 9505SOL    HW129956   2.747   4.141   9.029 -0.4925 -0.4151  1.2392
 9505SOL    HW229957   2.885   4.154   9.089  0.1151 -0.0509 -0.1855
 9506SOL     OW29958   3.104   3.520   9.098 -0.2804 -0.0317  0.5108
 9506SOL    HW129959   3.191   3.542   9.065 -1.0837  2.5936 -0.1126
 9506SOL    HW229960   3.116   3.439   9.148  2.8561  1.2559  2.0227
 9507SOL     OW29961   3.015   5.546   8.832 -0.2298  0.0876  0.6417
 9507SOL    HW129962   3.110   5.549   8.821 -0.2465  0.9175  0.6578
 9507SOL    HW229963   2.982   5.605   8.765 -0.7077  0.2025  0.9772
 9508SOL     OW29964   2.737   4.321   8.555 -0.2849  0.2940 -0.1622
 9508SOL    HW129965   2.647   4.319   8.591  0.2119  1.2980  1.2480
 9508SOL    HW229966   2.754   4.414   8.539  0.7993  0.2054  0.4060
 9509SOL     OW29967   2.257   2.584   7.382 -0.0859 -0.1850 -0.3736
 9509SOL    HW129968   2.265   2.678   7.367 -0.3842 -0.1914 -0.5699
 9509SOL    HW229969   2.347   2.552   7.380 -0.0433 -0.0396 -1.2175
 9510SOL     OW29970   2.605   4.054  10.170  0.0532  0.5801 -0.9035
 9510SOL    HW129971   2.632   4.061  10.078 -0.4989 -0.4602 -1.1550
 9510SOL    HW229972   2.671   4.105  10.217  0.8560  0.4012 -1.7847
 9511SOL     OW29973   1.008   5.600   8.335  0.4841 -0.3282  0.3549
 9511SOL    HW129974   1.025   5.528   8.275 -0.0705 -0.5390  0.4453
 9511SOL    HW229975   1.095   5.636   8.355  0.9900 -2.2645  1.9241
 9512SOL     OW29976   3.322   4.457   8.326  0.4667  0.2460  0.8168
 9512SOL    HW129977   3.377   4.467   8.249 -0.3596 -0.7440  0.0641
 9512SOL    HW229978   3.379   4.480   8.400  0.3035  4.8332 -0.1914
 9513SOL     OW29979   2.872   5.875  10.911  0.2619 -0.2149  0.3147
 9513SOL    HW129980   2.829   5.847  10.830  1.5548  1.7650 -1.1856
 9513SOL    HW229981   2.947   5.816  10.920  0.1942 -0.3584 -0.0303
 9514SOL     OW29982   3.384   5.121   8.909  0.0361  0.1872 -0.1983
 9514SOL    HW129983   3.375   5.097   8.816  2.0218 -0.4974 -0.2602
 9514SOL    HW229984   3.421   5.043   8.950  1.0128  1.1529  0.7928
 9515SOL     OW29985   3.922   4.449   6.214 -0.4790  0.3745  0.0075
 9515SOL    HW129986   3.851   4.513   6.210 -1.2456 -0.5139 -1.3470
 9515SOL    HW229987   3.890   4.374   6.164  0.7382 -0.7418  0.8353
 9516SOL     OW29988   1.950   6.115   7.716 -0.2074  0.2317 -0.4826
 9516SOL    HW129989   1.871   6.116   7.769  0.1074  3.0374  0.0745
 9516SOL    HW229990   1.920   6.139   7.628 -0.1731 -0.3039 -0.6436
 9517SOL     OW29991   2.441   2.591   7.628 -0.1978 -0.4722 -0.6479
 9517SOL    HW129992   2.391   2.612   7.707 -0.5720 -1.2628 -0.6685
 9517SOL    HW229993   2.476   2.676   7.599  0.4820 -0.2462  0.7212
 9518SOL     OW29994   1.402   4.181   9.731 -0.0756 -0.0583 -0.7437
 9518SOL    HW129995   1.370   4.211   9.816  1.8392  0.1659 -0.0401
 9518SOL    HW229996   1.368   4.246   9.669 -0.4617  0.4969  0.0275
 9519SOL     OW29997   2.283   3.351   8.447 -0.4398  0.0987  0.6524
 9519SOL    HW129998   2.319   3.394   8.369 -0.3657 -2.1443 -0.6752
 9519SOL    HW229999   2.217   3.411   8.481  1.3695  2.3110  0.4560
 9520SOL     OW30000   2.187   5.634   8.643 -0.4099  0.2132 -0.1146
 9520SOL    HW130001   2.232   5.711   8.677  0.3930 -0.7713  1.1272
 9520SOL    HW230002   2.249   5.594   8.582 -0.3472 -0.1036  0.1545
 9521SOL     OW30003   2.694   7.205   8.841 -0.1892  0.4665 -0.0586
 9521SOL    HW130004   2.680   7.147   8.766 -0.9330  0.8604 -0.2391
 9521SOL    HW230005   2.619   7.264   8.840 -0.1429  0.5676  0.9236
 9522SOL     OW30006   2.064   3.996   7.754  0.5813 -0.0393 -0.0857
 9522SOL    HW130007   2.005   4.067   7.730  0.8884 -0.2042 -1.3747
 9522SOL    HW230008   2.078   3.947   7.673  1.8902 -0.4483  0.3550
 9523SOL     OW30009   3.330   5.055   8.046  0.0005 -0.3474  0.0840
 9523SOL    HW130010   3.286   5.079   8.128 -0.8243 -0.2307 -0.3838
 9523SOL    HW230011   3.271   4.993   8.004  0.9870 -1.3577  0.1265
 9524SOL     OW30012   2.739   2.587   9.343  0.3791 -0.3299 -0.4284
 9524SOL    HW130013   2.819   2.546   9.376 -0.0561 -0.1483  0.9152
 9524SOL    HW230014   2.753   2.681   9.356  0.7070 -0.1394 -1.9734
 9525SOL     OW30015   2.759   3.617   9.297 -0.4616  0.1260 -0.1428
 9525SOL    HW130016   2.791   3.528   9.313  1.0598  0.5429 -0.6875
 9525SOL    HW230017   2.827   3.657   9.244 -0.8289  1.8208  0.6105
 9526SOL     OW30018   2.506   4.766   7.670  0.1635 -0.4649 -0.4440
 9526SOL    HW130019   2.550   4.762   7.586  3.2008 -0.0446  0.9983
 9526SOL    HW230020   2.541   4.692   7.720 -0.7772 -0.1094  0.8015
 9527SOL     OW30021   0.891   5.529   9.099  0.3502 -0.2638  0.3563
 9527SOL    HW130022   0.899   5.434   9.106 -1.1613 -0.5355 -0.9782
 9527SOL    HW230023   0.827   5.553   9.166 -0.9849 -0.5269 -0.7807
 9528SOL     OW30024   2.309   1.896   8.959  0.4366 -0.2332  0.0593
 9528SOL    HW130025   2.239   1.864   8.903  0.1516  0.3125  0.0960
 9528SOL    HW230026   2.390   1.864   8.918  0.1457 -1.4681  0.4084
 9529SOL     OW30027   2.362   5.013   9.993  0.2052 -0.5343  0.5260
 9529SOL    HW130028   2.343   5.077  10.062 -0.5918 -0.9299  0.6885
 9529SOL    HW230029   2.442   5.045   9.952  1.6537 -1.1583  2.6964
 9530SOL     OW30030   1.155   4.897   8.053  0.0467 -0.3271  0.0395
 9530SOL    HW130031   1.186   4.853   8.132  2.2388  1.8636  0.5138
 9530SOL    HW230032   1.077   4.946   8.081 -0.7852 -1.6630  0.1439
 9531SOL     OW30033   1.010   6.322  10.436  0.2236 -0.3986  0.3293
 9531SOL    HW130034   1.053   6.353  10.356  1.0301 -0.4300  0.7419
 9531SOL    HW230035   1.053   6.238  10.454 -1.0463 -1.1681 -0.0673
 9532SOL     OW30036   3.831   5.325   8.910  0.6535  0.1828 -0.1443
 9532SOL    HW130037   3.758   5.318   8.848  0.5746  0.6421 -0.1050
 9532SOL    HW230038   3.904   5.282   8.866  0.3051 -0.4671 -0.0980
 9533SOL     OW30039   3.576   5.347   7.739 -0.2775 -0.4032  0.1612
 9533SOL    HW130040   3.658   5.299   7.735  0.6828  1.0334  1.4649
 9533SOL    HW230041   3.513   5.285   7.777  0.6403 -0.9839  0.7572
 9534SOL     OW30042   1.561   4.977   8.991 -0.1989  0.1594  0.3406
 9534SOL    HW130043   1.651   5.004   8.973  0.8399 -2.6401  0.7760
 9534SOL    HW230044   1.517   5.057   9.020  1.7135  1.9252 -1.3071
 9535SOL     OW30045   0.850   4.326   8.556 -0.1818 -1.2049 -0.1665
 9535SOL    HW130046   0.841   4.417   8.585  1.3371 -0.6387 -1.3731
 9535SOL    HW230047   0.762   4.290   8.567 -0.2785 -0.3860  2.7891
 9536SOL     OW30048   2.401   6.688  10.855  0.1318  0.3444  0.7575
 9536SOL    HW130049   2.471   6.651  10.801  0.9382 -0.9430  2.5713
 9536SOL    HW230050   2.421   6.782  10.858 -1.6078  1.0539 -3.4366
 9537SOL     OW30051   4.535   3.710   7.762  0.0002 -0.5146 -0.1756
 9537SOL    HW130052   4.620   3.749   7.778  1.2325 -1.2823 -3.7929
 9537SOL    HW230053   4.472   3.780   7.779  1.7668  1.6048 -1.8483
 9538SOL     OW30054   3.906   5.771   7.873  0.3957  0.6750  0.3834
 9538SOL    HW130055   3.985   5.805   7.830 -0.5627  3.5670  0.6371
 9538SOL    HW230056   3.840   5.769   7.804  0.0909  0.5914  0.6780
 9539SOL     OW30057   1.474   4.461   9.443 -0.4170 -0.1195 -0.0294
 9539SOL    HW130058   1.400   4.448   9.502 -0.5296  1.2809  0.1730
 9539SOL    HW230059   1.476   4.555   9.427  1.0523 -0.1805 -0.3798
 9540SOL     OW30060   2.691   4.637   8.232 -0.0004 -0.1578  0.1122
 9540SOL    HW130061   2.710   4.711   8.175 -1.3941  1.3713  1.5249
 9540SOL    HW230062   2.605   4.607   8.204  0.4440 -1.1244 -0.2777
 9541SOL     OW30063   2.561   4.306   9.277  0.2062 -0.2748  0.3324
 9541SOL    HW130064   2.533   4.285   9.188  0.0647 -2.1977  0.8071
 9541SOL    HW230065   2.657   4.302   9.273  0.2405  0.4528  0.1091
 9542SOL     OW30066   2.380   5.954   8.800  0.2701  0.1571 -0.0008
 9542SOL    HW130067   2.435   5.910   8.866 -0.4835 -1.5807 -0.4756
 9542SOL    HW230068   2.360   6.039   8.838  1.4352 -0.0537  1.1588
 9543SOL     OW30069   3.028   5.312   9.260 -0.1733 -0.4283 -0.5245
 9543SOL    HW130070   3.091   5.332   9.191 -1.3081  0.1398 -1.4349
 9543SOL    HW230071   3.035   5.218   9.272  1.3420 -0.2932 -0.0914
 9544SOL     OW30072   1.901   4.628   7.035 -0.3064  0.2059  0.3225
 9544SOL    HW130073   1.882   4.722   7.037  1.1525  0.5319  0.5247
 9544SOL    HW230074   1.979   4.622   6.980 -0.8941 -1.0023 -0.4081
 9545SOL     OW30075   2.681   6.409   7.843  0.3638  0.4261 -0.2643
 9545SOL    HW130076   2.643   6.435   7.927 -0.2737 -0.8938 -0.1226
 9545SOL    HW230077   2.770   6.382   7.865 -0.3992 -1.7605  0.3516
 9546SOL     OW30078   2.968   4.339   8.722  0.0942  0.4090  0.2591
 9546SOL    HW130079   2.882   4.318   8.686 -0.6909  0.7095  1.8901
 9546SOL    HW230080   3.025   4.348   8.645 -1.1764 -0.4272 -0.8081
 9547SOL     OW30081   1.919   3.977   8.371 -0.0141  0.3182  0.3415
 9547SOL    HW130082   1.927   3.979   8.275 -1.4209 -1.1294  0.1513
 9547SOL    HW230083   1.959   4.059   8.400 -1.9543  2.1575 -1.7148
 9548SOL     OW30084   2.813   5.115   6.799 -0.4690  0.0144  0.6772
 9548SOL    HW130085   2.756   5.129   6.723 -1.0910  0.4308  1.2092
 9548SOL    HW230086   2.781   5.035   6.839 -0.0633 -0.2721  0.4393
 9549SOL     OW30087   0.512   5.452   7.564 -0.0409  0.1365 -0.4299
 9549SOL    HW130088   0.449   5.481   7.498 -2.4080 -0.2555  1.5163
 9549SOL    HW230089   0.482   5.364   7.589  1.7026 -0.3544  0.1077
 9550SOL     OW30090   3.942   7.434   9.096  0.0771  0.3940 -0.2390
 9550SOL    HW130091   3.851   7.435   9.067  0.5708 -0.1185 -1.9086
 9550SOL    HW230092   3.937   7.445   9.191 -1.6233  2.4973 -0.4905
 9551SOL     OW30093   2.228   3.855   8.408 -0.0824 -0.3985  0.3052
 9551SOL    HW130094   2.190   3.821   8.488 -0.6654  0.2743  0.3304
 9551SOL    HW230095   2.165   3.833   8.340 -1.0557  1.5756  0.4932
 9552SOL     OW30096   1.882   4.181   9.293 -0.4556 -0.1468 -0.9507
 9552SOL    HW130097   1.790   4.169   9.317 -0.6230 -0.0684 -1.5265
 9552SOL    HW230098   1.931   4.128   9.356 -0.8385  0.4488 -0.1362
 9553SOL     OW30099   4.220   5.755   7.833 -0.0228 -0.0588 -0.1590
 9553SOL    HW130100   4.275   5.770   7.909 -0.4514 -1.8122  0.5540
 9553SOL    HW230101   4.181   5.840   7.814  0.3243  0.4745  1.3968
 9554SOL     OW30102   3.145   6.576   7.293 -0.7276 -0.3667 -0.4222
 9554SOL    HW130103   3.180   6.609   7.376 -1.2091 -0.5128 -0.1608
 9554SOL    HW230104   3.177   6.486   7.287  0.2546  0.0046 -0.9448
 9555SOL     OW30105   1.252   4.967  10.653 -0.6026  0.0923  0.5739
 9555SOL    HW130106   1.241   5.000  10.742  0.7428 -0.6650  1.0452
 9555SOL    HW230107   1.335   5.004  10.624 -1.2751  0.7557 -0.5867
 9556SOL     OW30108   1.517   5.441  10.097  0.4462 -0.6633  0.0034
 9556SOL    HW130109   1.589   5.398  10.052  0.8443 -2.8321  2.4643
 9556SOL    HW230110   1.504   5.389  10.177 -2.9789  0.4091  0.3104
 9557SOL     OW30111   1.451   4.857  10.056  0.0000 -0.5104  0.0139
 9557SOL    HW130112   1.512   4.799  10.010  0.6652 -0.7668  1.1696
 9557SOL    HW230113   1.374   4.804  10.071 -0.9427  0.0833 -2.2584
 9558SOL     OW30114   2.931   4.818   9.024  0.1886 -0.0598 -0.3427
 9558SOL    HW130115   2.968   4.890   8.971  0.9823  0.2280  0.5721
 9558SOL    HW230116   2.975   4.740   8.991  1.6359  0.2709  0.6871
 9559SOL     OW30117   3.810   5.001   8.041  0.0402  0.3991  0.3813
 9559SOL    HW130118   3.755   4.982   7.965 -1.0188  2.2056  0.6640
 9559SOL    HW230119   3.845   4.915   8.066 -0.7886 -0.4542 -1.2121
 9560SOL     OW30120   2.773   4.563   9.549  0.3452  0.4990 -0.1775
 9560SOL    HW130121   2.683   4.547   9.520  0.4173 -1.3572  0.5070
 9560SOL    HW230122   2.764   4.628   9.618 -0.5889 -0.3344  0.5132
 9561SOL     OW30123   3.141   5.400   7.753 -0.0413 -0.0660  0.3399
 9561SOL    HW130124   3.059   5.352   7.755 -0.1962 -0.0462 -2.1752
 9561SOL    HW230125   3.208   5.334   7.734  0.4903 -0.0005  1.8428
 9562SOL     OW30126   1.698   5.493  11.208 -0.3543 -0.2004 -0.0442
 9562SOL    HW130127   1.782   5.539  11.202 -0.6337  0.7309  2.0479
 9562SOL    HW230128   1.670   5.482  11.118  0.4187  2.5278 -0.6981
 9563SOL     OW30129   2.980   4.850  10.355 -0.0394 -0.0002 -0.1851
 9563SOL    HW130130   2.901   4.904  10.348  0.0225  0.0075 -0.8733
 9563SOL    HW230131   2.960   4.771  10.304 -0.4988 -1.0881  1.5996
 9564SOL     OW30132   1.876   4.681   8.971  0.0068 -0.1602  0.0749
 9564SOL    HW130133   1.816   4.703   9.043 -0.2068 -1.0408  0.1755
 9564SOL    HW230134   1.905   4.592   8.990  1.1473  0.1568 -0.1252
 9565SOL     OW30135   2.871   3.452   7.676 -0.0712  0.1619 -0.1077
 9565SOL    HW130136   2.936   3.484   7.614  1.1962 -0.9640  0.5810
 9565SOL    HW230137   2.917   3.452   7.761 -1.0786 -0.3201  0.4565
 9566SOL     OW30138   1.805   4.286   8.469 -0.0055  0.1592 -0.4146
 9566SOL    HW130139   1.787   4.220   8.402 -0.4235 -0.4879  0.3308
 9566SOL    HW230140   1.900   4.280   8.484 -0.0355 -0.2330 -0.3800
 9567SOL     OW30141   1.288   3.880   9.682 -0.0395 -0.1053  0.0116
 9567SOL    HW130142   1.255   3.899   9.769  1.1287 -1.8873  0.9106
 9567SOL    HW230143   1.379   3.909   9.684  0.9603 -2.9545  0.5252
 9568SOL     OW30144   2.135   3.797   8.655 -0.0747  0.2089 -0.1429
 9568SOL    HW130145   2.078   3.841   8.718  1.3180 -0.6441  1.8191
 9568SOL    HW230146   2.214   3.775   8.705  0.7077 -1.4026 -1.9408
 9569SOL     OW30147   2.312   5.814   8.334  0.1119  0.2368  0.3078
 9569SOL    HW130148   2.263   5.858   8.403  1.1646  1.9592  0.0256
 9569SOL    HW230149   2.404   5.826   8.359  0.5366  1.3508 -1.6151
 9570SOL     OW30150   2.153   3.684   9.558  0.0600 -0.0118 -0.4751
 9570SOL    HW130151   2.196   3.768   9.542  0.9352 -0.3395  0.0999
 9570SOL    HW230152   2.089   3.703   9.626  0.8557  0.0197  0.2806
 9571SOL     OW30153   1.093   5.320   6.902  0.0891 -0.8643  0.2689
 9571SOL    HW130154   1.107   5.229   6.876  0.2960 -1.1672  1.3747
 9571SOL    HW230155   1.026   5.316   6.970  0.8520 -0.3131  1.0836
 9572SOL     OW30156   2.714   3.827   8.650 -0.0058  0.3178 -0.6529
 9572SOL    HW130157   2.762   3.905   8.621 -0.2956  0.4938 -0.6621
 9572SOL    HW230158   2.761   3.754   8.611  0.4106  0.4730 -0.4524
 9573SOL     OW30159   0.645   5.652   8.140 -0.1015  0.3678 -0.0678
 9573SOL    HW130160   0.612   5.701   8.215 -0.3352 -0.1904  0.1975
 9573SOL    HW230161   0.635   5.712   8.066  0.6995  1.1573  0.4301
 9574SOL     OW30162   2.600   4.685  10.031  0.6544 -0.8046  0.2898
 9574SOL    HW130163   2.512   4.704  10.000  0.4558  1.7992  2.0558
 9574SOL    HW230164   2.590   4.606  10.085 -0.4166 -1.0479 -0.2350
 9575SOL     OW30165   2.810   3.544   8.340 -0.2366  0.5887  0.4871
 9575SOL    HW130166   2.748   3.568   8.408  0.7647  0.9597  1.2872
 9575SOL    HW230167   2.779   3.459   8.308 -0.1436 -0.0927  2.1218
 9576SOL     OW30168   2.239   4.819   7.991  0.4636  0.4967  0.2524
 9576SOL    HW130169   2.178   4.866   8.048  0.5451  1.3367 -0.3379
 9576SOL    HW230170   2.321   4.869   7.996  0.2337  1.0781 -1.2315
 9577SOL     OW30171   1.292   5.910   8.702 -0.3749  0.3285 -0.3042
 9577SOL    HW130172   1.237   5.966   8.757  0.1267  2.6526 -1.9947
 9577SOL    HW230173   1.356   5.873   8.763 -1.2391  0.9544  1.0394
 9578SOL     OW30174   2.481   5.393   9.586  0.7564  0.3350 -0.0532
 9578SOL    HW130175   2.387   5.382   9.599  1.2009 -1.4589  2.1751
 9578SOL    HW230176   2.489   5.477   9.539 -1.9074  0.5288 -0.2948
 9579SOL     OW30177   3.291   4.223   7.141 -0.2708  0.2809 -0.5156
 9579SOL    HW130178   3.255   4.255   7.058 -1.9020 -0.0491  0.0356
 9579SOL    HW230179   3.251   4.278   7.208  2.3898  1.7559  0.0280
 9580SOL     OW30180   2.493   4.898   9.345  0.0469  0.3570 -0.2103
 9580SOL    HW130181   2.458   4.900   9.256 -0.2467  2.4744 -0.1135
 9580SOL    HW230182   2.416   4.886   9.400  0.0170  0.6762 -0.1810
 9581SOL     OW30183   2.329   5.523   8.851  0.1017  0.2566  0.1948
 9581SOL    HW130184   2.247   5.480   8.827 -0.1438  0.9348 -0.2140
 9581SOL    HW230185   2.388   5.451   8.876 -0.4415 -0.2745 -0.0299
 9582SOL     OW30186   1.348   5.584   7.791 -0.5051  0.1561 -0.0717
 9582SOL    HW130187   1.297   5.664   7.779 -0.1200  0.4323  0.1146
 9582SOL    HW230188   1.322   5.529   7.717  0.4069  1.0888 -1.1334
 9583SOL     OW30189   2.007   4.356  11.272  0.2943 -0.1774  0.0425
 9583SOL    HW130190   1.980   4.361  11.364  0.9547  1.3956  0.1896
 9583SOL    HW230191   1.990   4.265  11.247  0.1682 -0.6601  1.7313
 9584SOL     OW30192   0.503   3.601  10.039 -0.2744  0.2630 -0.0187
 9584SOL    HW130193   0.519   3.528  10.099  0.3057 -0.5183 -1.0915
 9584SOL    HW230194   0.508   3.562   9.952 -0.5895  1.4748 -0.5988
 9585SOL     OW30195   3.539   4.906  12.137 -0.2921 -0.1340 -0.0567
 9585SOL    HW130196   3.617   4.879  12.088  1.1563 -1.3021  2.6704
 9585SOL    HW230197   3.492   4.825  12.154 -0.5683  0.1876  0.7678
 9586SOL     OW30198   2.068   4.053   9.551  0.1644  0.0921 -0.0850
 9586SOL    HW130199   2.143   4.010   9.512 -0.5019 -0.0897 -1.2137
 9586SOL    HW230200   2.099   4.086   9.635  1.7890  0.9636 -0.9911
 9587SOL     OW30201   2.900   3.923   9.442 -0.1908 -0.1748  0.1324
 9587SOL    HW130202   2.994   3.909   9.432 -0.4292 -1.7023 -0.1307
 9587SOL    HW230203   2.860   3.853   9.392 -1.4755 -0.0021  0.8797
 9588SOL     OW30204   2.116   5.238  10.097 -0.2748  0.5447  0.3401
 9588SOL    HW130205   2.208   5.230  10.125  0.3523 -0.9309 -1.8571
 9588SOL    HW230206   2.089   5.148  10.079 -2.2926  0.9230  1.1702
 9589SOL     OW30207   2.396   4.278   0.345 -0.2494 -0.5039 -0.1041
 9589SOL    HW130208   2.386   4.368   0.315 -0.0467 -0.1751  0.7717
 9589SOL    HW230209   2.434   4.231   0.271  0.1028  0.2463 -0.4020
 9590SOL     OW30210   3.344   5.190  10.536  0.1092  0.1169 -0.5264
 9590SOL    HW130211   3.343   5.139  10.617 -2.5807  0.2100 -0.3904
 9590SOL    HW230212   3.308   5.131  10.470 -1.5413  1.2337 -0.7042
 9591SOL     OW30213   2.014   4.710  12.430 -0.8399 -0.0304  0.5874
 9591SOL    HW130214   1.977   4.647  12.368 -1.1314 -0.0752  0.8027
 9591SOL    HW230215   2.057   4.655  12.496 -0.7273  0.0091  0.5460
 9592SOL     OW30216   1.074   7.283   8.946 -0.4072  0.7100 -0.0930
 9592SOL    HW130217   1.139   7.353   8.949  1.2512 -0.7867  0.9401
 9592SOL    HW230218   1.024   7.300   8.866  0.6304  2.4491 -0.4206
 9593SOL     OW30219   4.163   5.560   8.691  0.7131  0.1783  0.0529
 9593SOL    HW130220   4.159   5.586   8.599  0.1047 -0.8443 -0.2199
 9593SOL    HW230221   4.166   5.643   8.739  0.8118  0.7232 -0.8737
 9594SOL     OW30222   0.255   4.259  10.060 -0.0625 -0.1512 -0.1866
 9594SOL    HW130223   0.321   4.267  10.129  0.4285  1.5722 -0.8110
 9594SOL    HW230224   0.230   4.349  10.040 -0.0140 -0.5750 -2.4265
 9595SOL     OW30225   2.738   4.650  10.563 -0.2546 -0.0315 -0.6100
 9595SOL    HW130226   2.661   4.622  10.513  0.2709  0.9319 -1.9977
 9595SOL    HW230227   2.813   4.623  10.510  0.3359  0.3155  0.0317
 9596SOL     OW30228   0.468   6.514   8.987 -0.0637  0.0404  0.6117
 9596SOL    HW130229   0.545   6.467   8.953  0.7482  1.2446  0.7100
 9596SOL    HW230230   0.398   6.449   8.987  0.2325 -0.4059 -2.0578
 9597SOL     OW30231   2.807   4.666  11.656  0.0265  0.7021 -0.0703
 9597SOL    HW130232   2.879   4.719  11.690  0.1693  0.4496  0.0185
 9597SOL    HW230233   2.732   4.726  11.654  0.1718  0.8890  0.0928
 9598SOL     OW30234   2.963   4.609   8.811 -0.5014  0.0414  0.4248
 9598SOL    HW130235   2.878   4.604   8.855  0.2528 -3.0634  1.8242
 9598SOL    HW230236   2.981   4.519   8.785  1.3677  1.0051 -1.9319
 9599SOL     OW30237   4.174   5.254  11.057 -0.4960  0.0767 -0.0025
 9599SOL    HW130238   4.131   5.169  11.068 -0.7945  0.3567  1.1059
 9599SOL    HW230239   4.231   5.242  10.981 -2.2883 -0.3962 -1.3333
 9600SOL     OW30240   0.614   4.368  11.561  0.4311  0.1366 -0.0781
 9600SOL    HW130241   0.644   4.345  11.474 -2.4011  1.0495 -1.4301
 9600SOL    HW230242   0.590   4.284  11.601 -0.3330 -0.1429 -1.0757
 9601SOL     OW30243   3.128   4.515  10.026  0.0578  0.6105  0.3938
 9601SOL    HW130244   3.156   4.503   9.935 -1.1288  0.8856 -0.0179
 9601SOL    HW230245   3.126   4.426  10.062 -1.2672  0.3041 -0.4001
 9602SOL     OW30246   3.688   3.835  10.512 -0.1075  0.2897 -0.3875
 9602SOL    HW130247   3.678   3.846  10.417 -1.3114  0.0773 -0.3023
 9602SOL    HW230248   3.780   3.812  10.524  0.5883  2.2749 -1.3168
 9603SOL     OW30249   1.858   3.680   9.565 -0.0976  0.0588  0.0667
 9603SOL    HW130250   1.934   3.621   9.560 -1.4274 -1.6669 -0.8355
 9603SOL    HW230251   1.787   3.624   9.596 -1.1649  1.4816  0.2513
 9604SOL     OW30252   2.581   5.381   8.618  0.1402 -0.3612 -0.7453
 9604SOL    HW130253   2.629   5.299   8.608  2.5537  0.7930  0.5055
 9604SOL    HW230254   2.552   5.380   8.709 -0.6339 -0.2037 -0.9829
 9605SOL     OW30255   1.756   5.355  10.554 -0.0967  0.7202 -0.2304
 9605SOL    HW130256   1.799   5.307  10.483 -1.3229 -0.1204 -0.4239
 9605SOL    HW230257   1.823   5.359  10.623  0.6269  0.3010 -0.8880
 9606SOL     OW30258   3.716   3.113  10.819  0.2510  0.1827 -0.5741
 9606SOL    HW130259   3.773   3.190  10.820 -1.2386  1.4448 -2.7372
 9606SOL    HW230260   3.649   3.132  10.885  1.0585 -0.2952  0.4125
 9607SOL     OW30261   3.555   4.157   9.522  0.1989 -0.2387  0.1992
 9607SOL    HW130262   3.486   4.091   9.534 -0.4087  0.0846 -1.2829
 9607SOL    HW230263   3.551   4.211   9.600 -0.9252 -0.5103  0.3435
 9608SOL     OW30264   0.345   5.154   0.036  0.2721  0.4578  0.3236
 9608SOL    HW130265   0.421   5.115   0.078  0.4141  1.2243  0.7920
 9608SOL    HW230266   0.284   5.081   0.024 -0.8743  0.6056  4.1996
 9609SOL     OW30267   2.947   5.167  10.830 -0.0511  0.1150  0.4708
 9609SOL    HW130268   3.014   5.123  10.778  0.6774  0.3056  1.2095
 9609SOL    HW230269   2.880   5.101  10.845  0.4453 -0.3810  0.5458
 9610SOL     OW30270   2.291   4.474  10.990 -0.0029  0.2306  0.3901
 9610SOL    HW130271   2.213   4.422  10.970  1.1525 -1.2633 -0.4551
 9610SOL    HW230272   2.332   4.489  10.905  0.3149  1.5486  0.7560
 9611SOL     OW30273   3.166   3.369   9.942  0.3819  0.1694  0.2037
 9611SOL    HW130274   3.196   3.455   9.910 -1.6998  1.0582  0.4929
 9611SOL    HW230275   3.247   3.322   9.964  1.5598  2.5389  1.2927
 9612SOL     OW30276   2.711   3.837  10.949 -0.4542 -0.2386 -0.2816
 9612SOL    HW130277   2.784   3.814  10.892 -1.3623 -2.3482 -0.6743
 9612SOL    HW230278   2.722   3.782  11.027 -1.9302 -1.0499 -0.6097
 9613SOL     OW30279   3.900   4.592   9.025 -0.1147 -0.0271  0.0568
 9613SOL    HW130280   3.944   4.632   8.950  0.0368 -0.6365 -0.1865
 9613SOL    HW230281   3.830   4.653   9.047  0.4288  0.6271  0.0243
 9614SOL     OW30282   3.294   6.511  10.774  0.1693  0.0739 -0.0255
 9614SOL    HW130283   3.228   6.573  10.745 -1.0120 -0.0386  2.2074
 9614SOL    HW230284   3.352   6.501  10.699 -1.8385  0.8430 -1.7860
 9615SOL     OW30285   1.871   4.674   0.936  0.1785 -0.1551 -0.2823
 9615SOL    HW130286   1.869   4.628   1.019 -0.4053 -1.2699 -0.8863
 9615SOL    HW230287   1.834   4.761   0.955  0.4965 -0.2239  0.6959
 9616SOL     OW30288   3.194   3.749  11.021  0.0222  0.5326  0.0015
 9616SOL    HW130289   3.168   3.738  11.112 -2.4419 -0.5291 -0.7446
 9616SOL    HW230290   3.238   3.834  11.018 -1.3556  1.3718  1.8647
 9617SOL     OW30291   3.790   5.877  10.235  0.0654 -0.1444 -0.2006
 9617SOL    HW130292   3.701   5.893  10.203  0.0838  0.3742  0.0027
 9617SOL    HW230293   3.783   5.797  10.286 -0.3709  0.1092  0.1438
 9618SOL     OW30294   1.752   3.569  10.266 -0.3422  0.0060 -0.2086
 9618SOL    HW130295   1.784   3.659  10.257  0.2073 -0.1220  0.4516
 9618SOL    HW230296   1.677   3.565  10.206 -1.5273  1.4479  1.0988
 9619SOL     OW30297   2.017   2.674   9.710 -0.4053  0.0788  0.0388
 9619SOL    HW130298   2.107   2.694   9.684 -0.7038  1.1095 -0.2345
 9619SOL    HW230299   2.011   2.707   9.800 -0.8806  1.2338 -0.3935
 9620SOL     OW30300   3.480   5.031   9.497 -0.4139  0.7148  0.4215
 9620SOL    HW130301   3.530   4.962   9.453 -2.3498  1.7765 -3.9610
 9620SOL    HW230302   3.545   5.098   9.518  0.9366 -0.8382  1.4220
 9621SOL     OW30303   1.440   5.718  10.101  0.0282  0.2717 -0.6964
 9621SOL    HW130304   1.461   5.625  10.102 -1.1984 -0.0337 -1.1037
 9621SOL    HW230305   1.525   5.763  10.104  0.6188 -0.8051  2.2483
 9622SOL     OW30306   2.958   3.922  11.798 -0.5019  0.6790  0.4497
 9622SOL    HW130307   2.975   4.012  11.824  0.2162  0.6409  0.1378
 9622SOL    HW230308   2.869   3.923  11.763 -0.8000  1.0930  1.1941
 9623SOL     OW30309   3.138   5.496  10.734 -0.4039 -0.3179 -0.2207
 9623SOL    HW130310   3.219   5.473  10.780 -0.9308  0.1905  0.9942
 9623SOL    HW230311   3.086   5.415  10.736  0.6904 -1.1610 -2.4674
 9624SOL     OW30312   2.468   4.299  10.093  0.7399 -0.1208  0.4632
 9624SOL    HW130313   2.423   4.233  10.041  0.1998 -0.2435  1.0753
 9624SOL    HW230314   2.450   4.274  10.184  1.7268  0.0438  0.7179
 9625SOL     OW30315   2.330   4.274  11.343 -0.4742 -0.4525  0.0748
 9625SOL    HW130316   2.247   4.286  11.297  0.3225  1.2608 -0.9968
 9625SOL    HW230317   2.350   4.360  11.381  1.6405 -0.3183 -1.1876
 9626SOL     OW30318   0.996   4.934   9.727 -0.3074  0.1517 -0.3818
 9626SOL    HW130319   1.041   4.899   9.804 -0.3620  1.1130  0.1074
 9626SOL    HW230320   0.993   5.028   9.743  1.3071  0.6079 -2.4080
 9627SOL     OW30321   2.238   5.381  11.363  0.4972  0.1283  0.3029
 9627SOL    HW130322   2.227   5.287  11.352 -1.1728  0.4184 -0.9116
 9627SOL    HW230323   2.279   5.410  11.281  0.0033  0.5767  0.2062
 9628SOL     OW30324   2.472   3.927   9.773  0.6351  0.5266  0.0066
 9628SOL    HW130325   2.493   3.889   9.688 -0.5852  0.7029 -0.3995
 9628SOL    HW230326   2.436   3.853   9.823 -1.1784  0.9479 -0.5822
 9629SOL     OW30327   4.218   6.422  11.533 -0.2641 -0.7493 -0.2026
 9629SOL    HW130328   4.197   6.509  11.566 -1.2424 -0.7018 -0.9046
 9629SOL    HW230329   4.268   6.438  11.454  1.0783 -0.8574  0.5947
 9630SOL     OW30330   2.497   4.635  10.449 -0.0970 -0.2522  0.8173
 9630SOL    HW130331   2.499   4.696  10.375  0.4731 -0.6434  0.5017
 9630SOL    HW230332   2.407   4.640  10.483 -0.2280  0.2787  0.3933
 9631SOL     OW30333   2.132   4.188   9.792  0.3281 -0.3203  0.6630
 9631SOL    HW130334   2.102   4.278   9.781  1.7164  0.0184 -0.7577
 9631SOL    HW230335   2.215   4.196   9.839 -0.5725 -1.0493  2.4612
 9632SOL     OW30336   3.675   3.577  11.982 -0.1693 -0.2383  0.3387
 9632SOL    HW130337   3.721   3.631  11.917  0.0393 -0.4437  0.3151
 9632SOL    HW230338   3.642   3.640  12.046 -0.8398  0.0255 -0.2494
 9633SOL     OW30339   2.766   4.996  10.907  0.1223  0.0774  0.2610
 9633SOL    HW130340   2.726   5.039  10.982  2.2409  0.5608  1.1848
 9633SOL    HW230341   2.718   4.914  10.898 -0.7409  0.4033  1.5936
 9634SOL     OW30342   4.119   3.942  10.053 -0.0213 -0.6461 -0.4572
 9634SOL    HW130343   4.141   3.878   9.985  1.0018 -1.8821  0.9751
 9634SOL    HW230344   4.089   3.889  10.127  0.2474  0.5822  0.5678
 9635SOL     OW30345   2.214   3.961  10.455  0.5446  0.2445 -0.0330
 9635SOL    HW130346   2.248   3.934  10.369  0.6385 -0.9876  0.3688
 9635SOL    HW230347   2.288   4.004  10.497  0.7352  0.1579 -0.2739
 9636SOL     OW30348   1.829   5.316   9.726  0.2953 -0.2034 -0.2130
 9636SOL    HW130349   1.743   5.336   9.690 -1.0258  0.8486  3.1933
 9636SOL    HW230350   1.843   5.224   9.705 -1.5131 -0.3173 -1.0934
 9637SOL     OW30351   3.481   5.164   9.976  0.0325 -0.2527  0.2123
 9637SOL    HW130352   3.522   5.078   9.983 -2.3804 -1.4451  0.7005
 9637SOL    HW230353   3.387   5.146   9.968 -0.4426  2.2928 -1.3113
 9638SOL     OW30354   2.372   4.362  11.698  0.2652  0.3495  0.1926
 9638SOL    HW130355   2.282   4.332  11.689  0.8761 -2.1518  1.5048
 9638SOL    HW230356   2.378   4.438  11.640 -3.2547  2.0321  1.7802
 9639SOL     OW30357   4.549   4.572   9.363  0.2034  0.5938  0.1632
 9639SOL    HW130358   4.501   4.500   9.404 -0.8806  1.8891  1.2690
 9639SOL    HW230359   4.501   4.589   9.282 -1.3790  1.9623  1.3214
 9640SOL     OW30360   1.215   4.710  10.516 -0.1852  0.0376  0.1311
 9640SOL    HW130361   1.232   4.804  10.504 -0.0982 -0.0671 -0.6465
 9640SOL    HW230362   1.226   4.695  10.609 -0.2188  0.8083  0.2659
 9641SOL     OW30363   3.285   5.816  10.936 -0.4290 -0.3140  0.1732
 9641SOL    HW130364   3.284   5.911  10.948  0.4330 -0.5284  2.3972
 9641SOL    HW230365   3.360   5.800  10.878 -0.2394  0.3160  0.2420
 9642SOL     OW30366   3.211   5.720   9.803  0.0970 -0.0870 -0.3375
 9642SOL    HW130367   3.134   5.664   9.790 -0.6836  0.6955  0.7061
 9642SOL    HW230368   3.186   5.778   9.875  2.0405 -0.4905  0.7292
 9643SOL     OW30369   1.994   4.107  10.806  0.0303  0.0311  0.0531
 9643SOL    HW130370   2.053   4.180  10.791 -0.7837  0.8140  0.5613
 9643SOL    HW230371   1.939   4.135  10.879 -2.4466  0.2738 -1.7706
 9644SOL     OW30372   3.415   6.140  10.741 -0.4528  0.1164 -0.1114
 9644SOL    HW130373   3.444   6.146  10.650 -1.2308 -0.6437 -0.4209
 9644SOL    HW230374   3.461   6.211  10.786  0.4716  0.0668 -0.9512
 9645SOL     OW30375   0.695   4.213   9.431 -0.2984 -0.1102  0.1998
 9645SOL    HW130376   0.608   4.251   9.420 -0.2380 -0.3888 -1.4956
 9645SOL    HW230377   0.754   4.277   9.391  0.1018 -0.6157 -0.0278
 9646SOL     OW30378   3.451   2.914  12.371  0.5035  0.3224 -0.1649
 9646SOL    HW130379   3.527   2.894  12.317 -0.0647 -0.5737 -0.6458
 9646SOL    HW230380   3.398   2.835  12.370  1.0001 -0.1448  2.6410
 9647SOL     OW30381   3.193   3.835   8.655  0.1136  0.0524 -0.0773
 9647SOL    HW130382   3.148   3.905   8.703 -2.5850 -2.4512  1.3889
 9647SOL    HW230383   3.122   3.777   8.626  2.2316 -2.6252 -0.2592
 9648SOL     OW30384   3.310   4.645  10.193 -0.1460  0.2111  0.2220
 9648SOL    HW130385   3.241   4.626  10.129  0.8419  0.6785 -1.0048
 9648SOL    HW230386   3.391   4.643  10.143  0.8518 -1.1704  1.8075
 9649SOL     OW30387   3.783   5.673  10.450  0.5807  0.4416 -0.3694
 9649SOL    HW130388   3.832   5.708  10.524 -0.0580 -0.7853  0.6942
 9649SOL    HW230389   3.692   5.701  10.465  0.2800 -0.5956 -0.1547
 9650SOL     OW30390   2.941   5.312  11.057  0.3278 -0.3157  0.3084
 9650SOL    HW130391   2.912   5.245  11.119 -1.5109  0.1780  0.0366
 9650SOL    HW230392   2.929   5.272  10.971  3.1862 -1.1224  0.1766
 9651SOL     OW30393   1.813   6.137  10.972 -0.4314  0.1294  0.2804
 9651SOL    HW130394   1.737   6.140  11.030 -1.1009  1.2402 -0.5903
 9651SOL    HW230395   1.781   6.091  10.894 -0.0755  0.1936  0.0955
 9652SOL     OW30396   1.937   2.983  10.375  0.7303 -0.0127 -0.2738
 9652SOL    HW130397   2.001   2.957  10.309  0.6035  3.0797 -1.7855
 9652SOL    HW230398   1.852   2.973  10.331  0.4116 -0.7014  0.4752
 9653SOL     OW30399   2.071   3.438  10.644  0.2927 -0.1403 -0.5887
 9653SOL    HW130400   2.125   3.450  10.566  1.8353  0.5278  0.5412
 9653SOL    HW230401   1.992   3.489  10.627  1.0949  0.9038 -1.2754
 9654SOL     OW30402   3.384   5.068   8.640 -0.2973  0.2453  0.0876
 9654SOL    HW130403   3.347   4.993   8.593  2.2852 -1.3290  0.3693
 9654SOL    HW230404   3.372   5.142   8.581  0.1032 -1.0659 -1.7347
 9655SOL     OW30405   1.435   3.334  10.809 -0.4377 -0.4846  0.0261
 9655SOL    HW130406   1.380   3.400  10.767  0.1301 -1.4873 -2.5427
 9655SOL    HW230407   1.377   3.258  10.820  0.1552 -1.3480 -2.1639
 9656SOL     OW30408   1.849   2.749  10.650 -0.0364  0.6886  0.2970
 9656SOL    HW130409   1.824   2.720  10.737 -0.1816  3.9740  1.4924
 9656SOL    HW230410   1.816   2.681  10.591  0.8508 -2.0925  2.7775
 9657SOL     OW30411   3.110   4.202  10.383  0.3076 -0.0538 -0.0491
 9657SOL    HW130412   3.127   4.296  10.374 -0.2671  0.1382  0.7674
 9657SOL    HW230413   3.018   4.191  10.359  0.1362 -0.2690  0.6711
 9658SOL     OW30414   4.216   7.477  10.508  0.0308  0.2540 -0.1110
 9658SOL    HW130415   4.304   7.497  10.476 -0.1166  0.2014 -0.5668
 9658SOL    HW230416   4.204   7.535  10.583 -0.0561  1.2686 -0.8824
 9659SOL     OW30417   3.758   5.944   9.756 -0.3954 -0.0092  0.3558
 9659SOL    HW130418   3.775   5.867   9.702 -0.6672  0.6383 -0.6995
 9659SOL    HW230419   3.813   5.932   9.834  2.0207  0.2004 -1.1846
 9660SOL     OW30420   3.031   4.903   9.975 -0.0239 -0.1456  0.5574
 9660SOL    HW130421   2.980   4.844  10.030 -0.3501 -0.6957 -0.3120
 9660SOL    HW230422   3.080   4.844   9.917 -0.2392  0.4284 -0.2222
 9661SOL     OW30423   1.431   5.295  10.997 -0.1953  0.1741 -0.2533
 9661SOL    HW130424   1.493   5.329  10.933 -0.3753  1.1647  0.0676
 9661SOL    HW230425   1.447   5.201  11.001  2.8563  0.6507  1.4877
 9662SOL     OW30426   2.809   4.048   8.493 -0.3025  0.2918  0.6697
 9662SOL    HW130427   2.864   4.069   8.418 -2.0012  0.5730 -0.5778
 9662SOL    HW230428   2.771   4.132   8.519 -1.1475 -0.0652  0.6353
 9663SOL     OW30429   2.248   3.601   8.218 -0.2369 -0.3285 -0.1473
 9663SOL    HW130430   2.302   3.671   8.254 -0.0263 -1.5841  2.2031
 9663SOL    HW230431   2.308   3.547   8.167  0.3496 -0.6196  0.8183
 9664SOL     OW30432   3.232   2.056  10.694 -0.5670  0.4296 -0.1404
 9664SOL    HW130433   3.217   2.101  10.777 -0.6924 -0.4576  0.3294
 9664SOL    HW230434   3.319   2.017  10.703 -0.2371  1.0164 -0.7505
 9665SOL     OW30435   3.168   6.073  10.865 -0.4873 -0.2640  0.2056
 9665SOL    HW130436   3.236   6.098  10.802 -0.6328 -1.2048 -0.3441
 9665SOL    HW230437   3.206   6.093  10.950  0.1084  0.0911 -0.1347
 9666SOL     OW30438   2.427   3.314  11.425 -0.0010  0.3128  0.2191
 9666SOL    HW130439   2.441   3.248  11.493  0.0186 -0.5453 -0.5992
 9666SOL    HW230440   2.333   3.311  11.408  0.0965  0.0011 -0.2954
 9667SOL     OW30441   3.547   4.709  10.357  0.6661  0.2636  0.0553
 9667SOL    HW130442   3.484   4.754  10.300 -1.1682  1.0412  2.4857
 9667SOL    HW230443   3.493   4.676  10.429  2.8250 -0.8148  1.2522
 9668SOL     OW30444   2.418   7.220   9.146 -0.3609 -0.3793  0.1849
 9668SOL    HW130445   2.485   7.242   9.212 -1.2687  0.6519  0.7873
 9668SOL    HW230446   2.422   7.291   9.083 -2.5266  1.0312  1.5274
 9669SOL     OW30447   3.411   5.017  10.764 -0.5876 -0.8098  0.2379
 9669SOL    HW130448   3.489   4.963  10.756 -1.4293 -2.0250 -0.1719
 9669SOL    HW230449   3.427   5.072  10.840  0.0950 -2.0382  1.0176
 9670SOL     OW30450   2.090   4.967   9.508 -0.0367  0.0309 -0.5134
 9670SOL    HW130451   2.130   5.023   9.574 -2.7397  0.8804  0.5234
 9670SOL    HW230452   2.163   4.918   9.470  1.8379  0.9105  1.7666
 9671SOL     OW30453   3.463   5.842  10.457  0.2906  0.3018 -0.2596
 9671SOL    HW130454   3.457   5.860  10.363  0.6013  1.0648 -0.1358
 9671SOL    HW230455   3.391   5.781  10.474  0.5066 -0.2008 -1.0724
 9672SOL     OW30456   2.780   5.064  10.452  0.0690 -0.1097  0.2535
 9672SOL    HW130457   2.853   5.119  10.425 -1.2212  1.9488  0.7400
 9672SOL    HW230458   2.723   5.059  10.376  0.0030 -0.4930  0.3239
 9673SOL     OW30459   1.549   6.146  11.114 -0.3788 -0.2394 -0.1299
 9673SOL    HW130460   1.524   6.175  11.201  1.1538  0.4955  0.0986
 9673SOL    HW230461   1.566   6.053  11.123  1.0634  0.0830  0.6897
 9674SOL     OW30462   2.756   5.714  10.732 -0.1125 -0.0872  0.0923
 9674SOL    HW130463   2.710   5.637  10.766  0.0215 -0.6730 -1.0032
 9674SOL    HW230464   2.792   5.685  10.649 -0.0400  1.1641 -0.3297
 9675SOL     OW30465   4.370   2.793  10.262 -0.5955 -0.0761 -0.2166
 9675SOL    HW130466   4.349   2.788  10.169 -1.4495  1.5846 -0.1521
 9675SOL    HW230467   4.294   2.836  10.301  0.2859  0.3860  1.0428
 9676SOL     OW30468   2.822   4.613   9.874  0.5097  0.5393  0.3355
 9676SOL    HW130469   2.765   4.647   9.943  0.6816 -0.0138  0.7604
 9676SOL    HW230470   2.845   4.525   9.903  0.0096  0.0190 -0.7811
 9677SOL     OW30471   3.181   5.313   0.186  0.0179 -0.7937 -0.2401
 9677SOL    HW130472   3.160   5.270   0.103  0.8272  2.1029 -2.0724
 9677SOL    HW230473   3.243   5.253   0.229 -0.3839 -2.3283 -1.7059
 9678SOL     OW30474   1.618   3.673  11.013  0.3483  0.1828  0.0691
 9678SOL    HW130475   1.547   3.613  11.036  0.2092  1.0658  2.1006
 9678SOL    HW230476   1.658   3.633  10.935  1.0514 -3.2481  1.9831
 9679SOL     OW30477   2.265   4.602  10.222 -0.1381 -0.3257  0.8067
 9679SOL    HW130478   2.320   4.529  10.247  0.7746  1.0516  3.1629
 9679SOL    HW230479   2.175   4.571  10.235  0.2403 -0.9972  1.8956
 9680SOL     OW30480   3.941   3.756  10.526  0.0395 -0.2932 -0.4995
 9680SOL    HW130481   4.023   3.802  10.543  0.0586 -0.0189 -1.2825
 9680SOL    HW230482   3.956   3.711  10.443 -0.5079 -0.4520 -0.5158
 9681SOL     OW30483   1.908   5.787  10.495  0.1156  0.1831  0.1324
 9681SOL    HW130484   1.831   5.737  10.518  0.6541 -0.7287  0.0056
 9681SOL    HW230485   1.949   5.737  10.424  0.4866  0.9790 -0.2358
 9682SOL     OW30486   0.693   5.525   9.657  0.2676  0.5177 -0.4219
 9682SOL    HW130487   0.645   5.607   9.653 -0.7343  0.0730  1.3463
 9682SOL    HW230488   0.624   5.457   9.656  0.9519 -0.2067  0.1691
 9683SOL     OW30489   2.718   4.093   9.606 -0.5486 -0.6240  0.1108
 9683SOL    HW130490   2.760   4.026   9.553 -1.2837 -0.3052 -0.9117
 9683SOL    HW230491   2.770   4.172   9.591  0.8846 -1.1291  2.0514
 9684SOL     OW30492   3.405   6.442  10.205 -0.0109  0.1182 -0.1485
 9684SOL    HW130493   3.474   6.423  10.268  0.1831  0.9756 -0.0939
 9684SOL    HW230494   3.450   6.453  10.121 -0.3850 -2.4072 -0.7904
 9685SOL     OW30495   3.082   6.641  10.420 -0.2137  0.3312 -0.3817
 9685SOL    HW130496   3.143   6.617  10.350  0.2613  1.0739 -0.2429
 9685SOL    HW230497   3.025   6.565  10.430  2.3747 -1.5379  1.3413
 9686SOL     OW30498   3.321   4.116  10.172  0.3154  0.6621  0.9113
 9686SOL    HW130499   3.373   4.189  10.140 -0.6757  1.2714  0.6490
 9686SOL    HW230500   3.235   4.154  10.190 -0.1129 -0.3694  1.1107
 9687SOL     OW30501   2.099   4.857  11.055 -0.2191  0.1827 -0.1646
 9687SOL    HW130502   2.030   4.796  11.032  0.4818 -0.6134 -0.2098
 9687SOL    HW230503   2.147   4.871  10.974  0.3657 -0.1861  0.1056
 9688SOL     OW30504   3.352   4.251  10.471 -0.3517 -0.1716 -0.5649
 9688SOL    HW130505   3.305   4.184  10.423  0.2244  0.3842 -1.9465
 9688SOL    HW230506   3.295   4.328  10.469 -1.1987 -0.6812  1.3726
 9689SOL     OW30507   4.496   6.357  10.617  0.5488 -0.1099  0.2579
 9689SOL    HW130508   4.425   6.321  10.671 -0.4991  2.0166  0.4246
 9689SOL    HW230509   4.479   6.323  10.529  0.2112 -0.8207  0.5868
 9690SOL     OW30510   2.756   4.467  11.928  0.2155 -0.2872 -0.1131
 9690SOL    HW130511   2.719   4.555  11.924 -1.9570 -1.1670 -1.1348
 9690SOL    HW230512   2.850   4.480  11.919 -0.1610  1.8481 -1.8159
 9691SOL     OW30513   3.613   4.358   9.319  0.2668 -0.9535  0.3930
 9691SOL    HW130514   3.530   4.403   9.337  1.2306  0.0021  2.8854
 9691SOL    HW230515   3.607   4.277   9.369  0.5386 -1.2617 -0.0720
 9692SOL     OW30516   0.921   5.823   9.606  0.2922 -0.3719  0.7202
 9692SOL    HW130517   0.946   5.871   9.685 -0.4870 -0.7350  1.2003
 9692SOL    HW230518   0.955   5.876   9.534 -1.2290  1.3483  1.1881
 9693SOL     OW30519   2.920   4.511  10.449  0.0258 -0.2024  0.0268
 9693SOL    HW130520   2.888   4.422  10.435  0.2099 -0.4716  1.2451
 9693SOL    HW230521   3.014   4.501  10.460  0.0031  0.0942  0.5284
 9694SOL     OW30522   2.792   3.417   9.595 -0.1909  0.3742  0.4542
 9694SOL    HW130523   2.728   3.402   9.665 -2.2854 -0.0373 -1.4267
 9694SOL    HW230524   2.822   3.507   9.610 -1.0709  0.5176  1.5102
 9695SOL     OW30525   2.900   3.682  11.078 -0.3336 -0.3897 -0.0917
 9695SOL    HW130526   2.938   3.718  11.158  0.8024 -1.1540 -0.2676
 9695SOL    HW230527   2.974   3.645  11.030 -1.0373 -0.2243 -1.3585
 9696SOL     OW30528   2.822   4.344   9.952  0.6156 -0.3627  0.5356
 9696SOL    HW130529   2.771   4.267   9.929 -1.4398  1.0667 -0.0117
 9696SOL    HW230530   2.778   4.380  10.030  1.1986  0.5208  0.4747
 9697SOL     OW30531   1.784   3.753  11.951  0.0161 -0.1498 -0.4400
 9697SOL    HW130532   1.850   3.703  11.999 -1.2674 -0.2274  1.3614
 9697SOL    HW230533   1.755   3.820  12.014 -0.4315  0.9508 -1.7723
 9698SOL     OW30534   3.969   4.043   9.621 -0.1489  0.1778 -0.2792
 9698SOL    HW130535   3.908   4.036   9.547 -0.3557  1.4589 -0.2599
 9698SOL    HW230536   3.964   4.135   9.647  0.7329 -0.0185  0.6468
 9699SOL     OW30537   1.937   4.028   9.921  0.1919  0.2273 -0.1173
 9699SOL    HW130538   1.976   4.098   9.869  0.3683  0.6277  0.5349
 9699SOL    HW230539   1.845   4.026   9.894  0.7179 -1.0432 -2.0162
 9700SOL     OW30540   3.532   3.970  10.314  0.2896 -0.0584 -0.3695
 9700SOL    HW130541   3.563   4.041  10.369  1.8457  0.7679 -2.2066
 9700SOL    HW230542   3.462   4.009  10.262  0.3180 -0.2099 -0.5237
 9701SOL     OW30543   3.654   6.256  10.059 -0.0699 -0.0627 -0.3399
 9701SOL    HW130544   3.732   6.242  10.112  0.9591  0.9539 -1.5253
 9701SOL    HW230545   3.605   6.174  10.066  0.7912 -0.5032  0.8983
 9702SOL     OW30546   2.780   5.570  10.233 -0.5156 -0.0785  0.3322
 9702SOL    HW130547   2.797   5.610  10.148 -0.1791  1.4994  1.1226
 9702SOL    HW230548   2.814   5.480  10.224 -1.0634 -0.1523 -1.3816
 9703SOL     OW30549   3.083   4.156  11.507  0.2576 -0.5072  0.0749
 9703SOL    HW130550   3.129   4.121  11.431  0.9103 -1.4071  0.8615
 9703SOL    HW230551   3.152   4.193  11.562 -0.3365  1.4048 -0.3747
 9704SOL     OW30552   2.095   4.327  11.710 -0.4797  0.4193  0.0893
 9704SOL    HW130553   2.090   4.391  11.781 -0.6820  0.5218 -0.0169
 9704SOL    HW230554   2.008   4.328  11.670 -0.3762  0.3444 -0.1429
 9705SOL     OW30555   4.696   7.508  11.441 -0.5181  0.0580  0.1149
 9705SOL    HW130556   4.682   7.415  11.454 -1.6440 -0.0412 -1.5668
 9705SOL    HW230557   4.742   7.514  11.357  0.7567  0.9660  0.8349
 9706SOL     OW30558   1.800   6.656   9.749  0.2767  0.2638 -0.0344
 9706SOL    HW130559   1.738   6.607   9.695  0.4822 -1.2414  1.0183
 9706SOL    HW230560   1.853   6.705   9.687  0.7939 -1.7604 -1.2938
 9707SOL     OW30561   2.343   5.086  10.471 -0.0935  0.2930  0.1172
 9707SOL    HW130562   2.428   5.065  10.508 -0.1330  0.4911  0.3229
 9707SOL    HW230563   2.281   5.031  10.518 -0.2041  0.8954  0.6961
 9708SOL     OW30564   3.625   5.283  12.257  0.0536  0.0041 -0.1529
 9708SOL    HW130565   3.531   5.275  12.268 -0.2311  0.9317 -1.5490
 9708SOL    HW230566   3.658   5.193  12.259 -0.6770 -0.2428  1.5938
 9709SOL     OW30567   1.928   5.553  10.051 -0.0409 -0.1475 -0.2362
 9709SOL    HW130568   1.848   5.504  10.072  0.8181 -1.0346  1.0951
 9709SOL    HW230569   1.897   5.640  10.024 -1.4405 -0.2987  0.7817
 9710SOL     OW30570   1.870   6.068   8.434  0.2676 -0.0766 -0.1575
 9710SOL    HW130571   1.950   6.119   8.423 -1.4868  3.6176  2.1545
 9710SOL    HW230572   1.881   6.025   8.519  1.5168 -3.5155 -1.8634
 9711SOL     OW30573   2.293   4.810  10.864 -0.0272 -0.5307  0.1625
 9711SOL    HW130574   2.385   4.823  10.844 -0.0197 -0.3307  0.3237
 9711SOL    HW230575   2.256   4.770  10.785  0.3292 -1.2115  0.3346
 9712SOL     OW30576   1.616   5.006  11.204  0.3276  0.8136  0.2762
 9712SOL    HW130577   1.599   4.912  11.196  0.5525  0.7718  0.2807
 9712SOL    HW230578   1.598   5.041  11.116  1.6430  0.5397 -0.1237
 9713SOL     OW30579   0.503   5.028  11.259 -0.3014  0.1988  0.2827
 9713SOL    HW130580   0.489   5.060  11.170 -0.9092 -0.4940  0.1200
 9713SOL    HW230581   0.425   4.977  11.279  0.6096 -1.1602  0.5250
 9714SOL     OW30582   2.676   4.040  11.804  0.4947  0.0430 -0.1823
 9714SOL    HW130583   2.636   3.959  11.836  2.4046 -1.0148 -0.3511
 9714SOL    HW230584   2.675   4.098  11.880  2.0445 -1.3099  0.9604
 9715SOL     OW30585   2.442   4.840  10.291  0.4399 -0.0257  0.0903
 9715SOL    HW130586   2.365   4.788  10.267  0.8748 -1.5673  1.7665
 9715SOL    HW230587   2.409   4.929  10.300 -1.0323 -0.5442  0.1616
 9716SOL     OW30588   2.898   3.784  10.743 -0.5209  0.0667  0.1167
 9716SOL    HW130589   2.983   3.740  10.744 -1.0116 -1.0850  3.5572
 9716SOL    HW230590   2.845   3.733  10.683  0.3957 -0.9759  0.1601
 9717SOL     OW30591   1.841   3.815  11.246  0.5442 -0.1020 -0.2165
 9717SOL    HW130592   1.817   3.724  11.228  1.4147 -0.2899 -0.4615
 9717SOL    HW230593   1.778   3.844  11.312  0.9229 -1.2222  0.6656
 9718SOL     OW30594   3.172   4.609  11.063 -0.6322  0.4983  0.2111
 9718SOL    HW130595   3.193   4.702  11.056 -0.9745  0.6033  0.5413
 9718SOL    HW230596   3.168   4.593  11.157  2.3042 -0.5098  0.2629
 9719SOL     OW30597   3.357   4.730  11.697 -0.0776  0.1887 -0.2148
 9719SOL    HW130598   3.318   4.699  11.778 -1.3049  0.1705 -0.7910
 9719SOL    HW230599   3.292   4.710  11.630 -0.7997  3.5541 -0.7185
 9720SOL     OW30600   3.487   7.479  11.037 -0.1297  0.0928 -0.0369
 9720SOL    HW130601   3.505   7.562  11.080 -0.0039  0.8860 -1.5541
 9720SOL    HW230602   3.422   7.500  10.970  2.0411 -0.3699 -2.4417
 9721SOL     OW30603   2.197   4.404   9.037 -0.7934  0.1776  0.5220
 9721SOL    HW130604   2.255   4.429   8.965 -1.0633  1.3044  0.6788
 9721SOL    HW230605   2.220   4.313   9.056 -0.0755  0.1644 -0.3664
 9722SOL     OW30606   1.886   5.746   9.852  0.3779  0.2123  0.1431
 9722SOL    HW130607   1.854   5.797   9.778  0.1616  0.5896  0.4893
 9722SOL    HW230608   1.932   5.672   9.813 -0.4934 -0.0657 -0.3624
 9723SOL     OW30609   2.003   5.309  10.683 -0.4560 -0.0767  0.7884
 9723SOL    HW130610   2.079   5.337  10.632 -1.1577 -0.8635 -0.7634
 9723SOL    HW230611   2.036   5.240  10.740  0.5109  1.3417  2.0430
 9724SOL     OW30612   3.308   4.107   9.866 -0.6692 -0.6272 -0.5034
 9724SOL    HW130613   3.324   4.040   9.800  0.1523 -1.7580  0.8035
 9724SOL    HW230614   3.220   4.140   9.845 -0.2530 -0.5949 -2.4255
 9725SOL     OW30615   3.316   4.724   9.637 -0.3672 -0.2573  0.0060
 9725SOL    HW130616   3.312   4.741   9.543 -0.2374  0.2168  0.0850
 9725SOL    HW230617   3.229   4.748   9.669 -0.4546 -0.5456 -0.0123
 9726SOL     OW30618   2.767   4.893   9.454  0.3279 -0.0864 -0.6180
 9726SOL    HW130619   2.764   4.854   9.541  0.2648  0.0338 -0.5668
 9726SOL    HW230620   2.676   4.899   9.426  0.1243  2.1625  0.3275
 9727SOL     OW30621   2.881   4.656  12.446 -0.2257  0.0160 -0.4848
 9727SOL    HW130622   2.976   4.665  12.454 -0.2293  0.9817 -1.3542
 9727SOL    HW230623   2.870   4.584  12.383 -0.0957 -0.6319  0.2151
 9728SOL     OW30624   2.777   3.872  10.306  0.1553 -0.1364  0.6872
 9728SOL    HW130625   2.853   3.915  10.267 -0.8038  0.4533 -0.6286
 9728SOL    HW230626   2.711   3.941  10.312 -0.1074 -0.4898  2.3769
 9729SOL     OW30627   2.735   4.830   9.710 -0.6208  0.0328 -0.0252
 9729SOL    HW130628   2.640   4.837   9.715 -0.7075 -1.1504  0.2129
 9729SOL    HW230629   2.757   4.752   9.761  0.3167 -0.6595 -1.4156
 9730SOL     OW30630   3.827   4.013  10.993  0.2702  0.3940 -0.3646
 9730SOL    HW130631   3.851   3.933  10.947 -0.4577 -0.1764  0.2253
 9730SOL    HW230632   3.880   4.012  11.072 -0.1982  0.1662 -0.0495
 9731SOL     OW30633   4.083   6.370  10.583 -0.3927  0.1852  0.3309
 9731SOL    HW130634   4.135   6.423  10.644  2.2520 -0.9868 -0.7448
 9731SOL    HW230635   4.102   6.406  10.497  0.3567 -1.5447 -0.2860
 9732SOL     OW30636   1.837   4.922   0.649 -0.2624  0.0929 -0.3311
 9732SOL    HW130637   1.811   4.927   0.741  0.2854 -0.5951 -0.1235
 9732SOL    HW230638   1.933   4.923   0.651 -0.1933 -1.5572 -0.7540
 9733SOL     OW30639   2.633   5.616   8.490  0.4307  0.7613  0.4237
 9733SOL    HW130640   2.571   5.681   8.524 -0.0014  1.6751 -1.9261
 9733SOL    HW230641   2.629   5.543   8.552 -2.9629  0.8136  0.4063
 9734SOL     OW30642   3.605   5.067  11.209 -0.3358  0.4345  0.2029
 9734SOL    HW130643   3.693   5.106  11.214 -0.0625 -0.2111  0.5609
 9734SOL    HW230644   3.573   5.071  11.299 -0.7743  0.8797  0.0321
 9735SOL     OW30645   2.948   3.868   8.893 -0.6084  0.2235  0.1864
 9735SOL    HW130646   2.872   3.845   8.839 -0.3947 -0.6983  0.2662
 9735SOL    HW230647   2.986   3.944   8.849 -2.1840  1.3761  0.7362
 9736SOL     OW30648   0.827   4.913  11.007 -0.0831  0.1807 -0.0234
 9736SOL    HW130649   0.769   4.842  10.980  0.0094 -0.0531  0.3961
 9736SOL    HW230650   0.887   4.874  11.070  1.7300 -0.0434 -1.7747
 9737SOL     OW30651   3.166   5.678   9.129  0.7892 -0.4002 -0.2575
 9737SOL    HW130652   3.077   5.694   9.161  0.7811 -1.7886  0.4998
 9737SOL    HW230653   3.219   5.672   9.209  1.3658 -0.6487 -0.6506
 9738SOL     OW30654   3.432   4.779  11.305 -0.4712  0.1870  0.1895
 9738SOL    HW130655   3.356   4.723  11.317 -0.6487  0.3123 -0.3358
 9738SOL    HW230656   3.406   4.841  11.237  0.4061 -0.3373 -0.6470
 9739SOL     OW30657   1.998   4.394   9.528 -0.0345  0.2260  0.0090
 9739SOL    HW130658   2.064   4.337   9.491 -0.8898 -1.3761  0.8456
 9739SOL    HW230659   2.035   4.424   9.611 -0.2005 -0.4005  0.3168
 9740SOL     OW30660   3.010   5.162   9.726 -0.3018 -0.3713 -0.0473
 9740SOL    HW130661   2.938   5.149   9.788 -1.2918 -0.3401 -1.1485
 9740SOL    HW230662   3.058   5.080   9.726  0.6571  0.1285  1.8818
 9741SOL     OW30663   2.979   6.076   1.789  0.1824 -0.1872  0.3073
 9741SOL    HW130664   2.977   6.021   1.867 -0.1637  0.5330  0.8235
 9741SOL    HW230665   2.999   6.164   1.823  0.3680  0.0725 -0.4535
 9742SOL     OW30666   4.609   5.187  10.241 -0.6796 -0.2611  0.1592
 9742SOL    HW130667   4.683   5.154  10.291  0.6966 -0.5772 -1.9587
 9742SOL    HW230668   4.553   5.230  10.306  1.1003 -0.4286  1.8888
 9743SOL     OW30669   3.037   5.308  11.558  0.0317 -0.1708 -1.0008
 9743SOL    HW130670   3.125   5.344  11.568  0.1238 -0.4060 -0.9454
 9743SOL    HW230671   3.000   5.354  11.484 -0.5221  1.3615  0.1712
 9744SOL     OW30672   3.464   4.677  11.002 -0.1048  0.0147  0.1521
 9744SOL    HW130673   3.393   4.734  11.031 -0.7497 -0.0259 -1.2780
 9744SOL    HW230674   3.425   4.622  10.934  1.0482 -0.6795  0.0219
 9745SOL     OW30675   4.108   6.381   8.778  0.2046  0.0307 -0.8997
 9745SOL    HW130676   4.084   6.347   8.692  0.4668 -1.2365 -0.4849
 9745SOL    HW230677   4.132   6.304   8.829 -2.1539  0.4486  1.0497
 9746SOL     OW30678   2.136   4.247  10.429 -0.2343 -0.2529  0.1881
 9746SOL    HW130679   2.047   4.282  10.431  0.4456  1.7070 -1.1236
 9746SOL    HW230680   2.125   4.156  10.401 -1.8516 -0.1928  0.5559
 9747SOL     OW30681   1.864   3.982  10.186 -0.0388 -0.2753  0.1650
 9747SOL    HW130682   1.780   4.026  10.204  0.9301  1.5742  0.4393
 9747SOL    HW230683   1.883   4.004  10.095  0.5182 -0.0250  0.3393
 9748SOL     OW30684   3.067   4.214   9.804 -0.0605  0.3116 -0.2431
 9748SOL    HW130685   3.032   4.212   9.715 -0.6806  0.7552 -0.0215
 9748SOL    HW230686   3.037   4.299   9.838 -0.0831  0.0126  0.4835
 9749SOL     OW30687   2.473   3.621  10.226 -0.8813 -0.5380 -0.3301
 9749SOL    HW130688   2.556   3.645  10.185 -0.4852 -0.9347  0.2263
 9749SOL    HW230689   2.496   3.597  10.316 -2.1076  3.3903  1.2454
 9750SOL     OW30690   2.104   4.055   8.971 -0.0187  0.0923  0.3709
 9750SOL    HW130691   2.075   3.965   8.958 -0.2299 -0.0901  1.8939
 9750SOL    HW230692   2.060   4.105   8.902 -1.8642 -0.5938  0.9928
 9751SOL     OW30693   1.663   5.034  10.024 -0.0349  0.2122 -0.0803
 9751SOL    HW130694   1.589   4.976  10.041 -0.4096  0.8431  0.4506
 9751SOL    HW230695   1.662   5.097  10.095 -0.0533  1.3081 -1.0214
 9752SOL     OW30696   2.639   3.397   9.895  0.0019 -0.3039  0.3165
 9752SOL    HW130697   2.730   3.414   9.920 -0.1402  1.0842 -0.0135
 9752SOL    HW230698   2.602   3.354   9.972  0.8465 -0.5712  0.5922
 9753SOL     OW30699   2.919   4.776  10.773 -0.3997 -0.3318 -0.4203
 9753SOL    HW130700   2.970   4.854  10.796  0.2278 -0.8365 -0.0342
 9753SOL    HW230701   2.875   4.799  10.692  0.3460  0.1804 -0.6925
 9754SOL     OW30702   3.543   6.496  11.363  0.0039  0.0899 -0.1212
 9754SOL    HW130703   3.544   6.401  11.362  1.2929  0.0769 -0.2284
 9754SOL    HW230704   3.631   6.521  11.333  0.7501  1.2752  2.7279
 9755SOL     OW30705   3.871   5.343  10.674 -0.3983  0.0869 -0.2443
 9755SOL    HW130706   3.821   5.357  10.754  0.8536 -0.5888  0.6968
 9755SOL    HW230707   3.807   5.307  10.612 -1.4878  1.0420  0.2810
 9756SOL     OW30708   3.345   5.295  11.243  0.3269 -0.1383  0.4567
 9756SOL    HW130709   3.280   5.228  11.220  1.3103 -0.6977 -0.8743
 9756SOL    HW230710   3.339   5.303  11.338 -0.0393 -1.9129  0.6210
 9757SOL     OW30711   2.687   5.242  10.204  0.3864 -0.3061 -0.3015
 9757SOL    HW130712   2.694   5.167  10.144  1.6768 -1.3368  1.0318
 9757SOL    HW230713   2.774   5.283  10.201 -0.6152  1.8842 -1.8444
 9758SOL     OW30714   2.816   5.604  10.509 -0.0369 -0.6440  0.0813
 9758SOL    HW130715   2.865   5.526  10.535 -0.3806 -1.4563 -1.6359
 9758SOL    HW230716   2.757   5.574  10.440 -1.2263  0.8365  0.4044
 9759SOL     OW30717   2.896   6.278  10.064  0.2088 -0.2434 -0.0818
 9759SOL    HW130718   2.974   6.266  10.009 -1.0591 -1.7765 -1.6437
 9759SOL    HW230719   2.823   6.279  10.003 -1.0009  2.5678  1.2108
 9760SOL     OW30720   1.827   4.181  11.051  0.1633  0.3084  0.3086
 9760SOL    HW130721   1.796   4.109  10.996  0.1007  1.0085 -0.5993
 9760SOL    HW230722   1.785   4.166  11.136 -0.7310 -0.1120 -0.1920
 9761SOL     OW30723   4.475   5.060  11.094 -0.0154  0.0716  0.0762
 9761SOL    HW130724   4.513   5.110  11.167 -3.0230  1.5298  0.8287
 9761SOL    HW230725   4.419   4.995  11.137 -0.7645  0.0449 -0.9130
 9762SOL     OW30726   2.817   4.163  11.520 -0.3196 -0.2998 -0.4653
 9762SOL    HW130727   2.913   4.164  11.523 -0.3191 -1.0521  1.9981
 9762SOL    HW230728   2.791   4.245  11.561 -0.7764  0.5367 -2.3510
 9763SOL     OW30729   3.680   7.021   8.444  0.0973  0.2447 -0.5090
 9763SOL    HW130730   3.671   6.933   8.479 -0.8788  1.2732  2.0417
 9763SOL    HW230731   3.775   7.034   8.436  0.2648 -0.7977 -0.2832
 9764SOL     OW30732   2.240   6.176   8.903 -0.1130 -0.0252  0.0535
 9764SOL    HW130733   2.276   6.242   8.844 -1.4382  1.8440  1.2178
 9764SOL    HW230734   2.280   6.194   8.987  1.2276 -2.2144 -0.0385
 9765SOL     OW30735   2.151   4.001  11.563 -0.3980  0.0095  0.5835
 9765SOL    HW130736   2.196   4.048  11.633 -2.2494  1.2257  0.9995
 9765SOL    HW230737   2.116   3.922  11.604  0.0260 -0.1810  0.5910
 9766SOL     OW30738   3.022   4.387  10.874  0.2302  0.1450 -0.2728
 9766SOL    HW130739   3.026   4.340  10.958  1.0873  0.1247 -0.3138
 9766SOL    HW230740   3.091   4.348  10.821  0.5119  0.9832 -0.5494
 9767SOL     OW30741   3.730   5.395  10.896 -0.2547  0.4206  0.4308
 9767SOL    HW130742   3.690   5.479  10.875 -0.3083  0.5051  0.8631
 9767SOL    HW230743   3.697   5.374  10.983  0.6466  0.4889  0.7927
 9768SOL     OW30744   2.794   3.925  12.116 -0.0522 -0.1362 -0.3494
 9768SOL    HW130745   2.829   4.005  12.156  0.9333 -1.4118  1.4378
 9768SOL    HW230746   2.701   3.944  12.102  0.0537  1.1288  0.5202
 9769SOL     OW30747   2.785   4.045  10.567 -0.1688 -0.4058  1.0107
 9769SOL    HW130748   2.810   4.093  10.488  1.3315 -1.3461  0.8685
 9769SOL    HW230749   2.840   3.966  10.566  1.1324  0.3110  3.8030
 9770SOL     OW30750   2.463   3.684  11.005 -0.3513  0.2752 -0.8244
 9770SOL    HW130751   2.455   3.703  11.098 -0.6232 -0.8825 -0.5970
 9770SOL    HW230752   2.518   3.755  10.971 -0.2324  0.7034  0.2094
 9771SOL     OW30753   2.540   4.241  10.522  0.6976  0.0798  0.4900
 9771SOL    HW130754   2.623   4.241  10.473 -0.4842  0.5560 -1.6558
 9771SOL    HW230755   2.509   4.151  10.518  0.2778  0.2486 -0.2742
 9772SOL     OW30756   7.706   5.945   9.719  0.1408  0.0681 -0.2394
 9772SOL    HW130757   7.627   5.997   9.704  0.5726  0.9257  0.3488
 9772SOL    HW230758   7.768   5.973   9.652  1.5829  2.8969  2.0445
 9773SOL     OW30759   4.064   5.806   9.756 -0.3633 -0.1118  0.0622
 9773SOL    HW130760   4.157   5.783   9.766 -0.5435 -2.3560 -2.2991
 9773SOL    HW230761   4.040   5.844   9.840  2.9846  1.7997  0.3347
 9774SOL     OW30762   3.166   5.364   9.779  0.2361  0.0046 -0.2649
 9774SOL    HW130763   3.226   5.347   9.707 -0.5909  0.4072 -1.0566
 9774SOL    HW230764   3.100   5.294   9.773 -1.0832  1.2838 -1.2727
 9775SOL     OW30765   2.930   3.133  10.736  0.1440 -0.0116 -0.5308
 9775SOL    HW130766   2.846   3.110  10.696 -0.9925  0.4595  1.4303
 9775SOL    HW230767   2.952   3.218  10.698 -0.6095  0.1648 -0.5910
 9776SOL     OW30768   2.411   3.693   9.941  0.0996  0.3240  0.8243
 9776SOL    HW130769   2.471   3.683  10.015 -0.0839  1.0381  1.0752
 9776SOL    HW230770   2.329   3.720   9.980 -0.2674 -0.2018  0.4354
 9777SOL     OW30771   0.650   4.635  10.320 -0.4376 -0.0321 -0.0399
 9777SOL    HW130772   0.682   4.623  10.230  1.7822  0.5540  0.5959
 9777SOL    HW230773   0.589   4.709  10.314  2.0742  2.1604 -0.6695
 9778SOL     OW30774   3.784   6.125  10.367 -0.2921  0.3066 -0.1919
 9778SOL    HW130775   3.780   6.045  10.313  2.0389  0.0427 -0.0974
 9778SOL    HW230776   3.828   6.189  10.311 -4.6957  2.6771 -1.4187
 9779SOL     OW30777   3.518   4.745  10.024  1.0108  0.1091 -0.7264
 9779SOL    HW130778   3.468   4.814   9.979  0.9557  0.0339 -0.7806
 9779SOL    HW230779   3.596   4.789  10.057  1.2506  0.0821 -1.2415
 9780SOL     OW30780   2.525   3.139   9.705 -0.2530  0.0103  0.1745
 9780SOL    HW130781   2.605   3.103   9.743 -0.8076 -1.6920 -0.2023
 9780SOL    HW230782   2.513   3.222   9.751  0.6448 -0.6348  1.6785
 9781SOL     OW30783   0.783   4.599  10.574  0.1586  0.3696 -0.7855
 9781SOL    HW130784   0.774   4.587  10.479  0.3764  1.4093 -0.9499
 9781SOL    HW230785   0.768   4.693  10.587  0.4464  0.2852  0.1725
 9782SOL     OW30786   1.948   5.324  10.324 -0.5049  0.2224 -0.5897
 9782SOL    HW130787   1.864   5.278  10.323  0.4408 -1.7455  1.4331
 9782SOL    HW230788   1.992   5.296  10.244 -0.5466 -1.2796 -0.1155
 9783SOL     OW30789   3.049   4.012   0.682  0.2301 -0.2431 -0.1484
 9783SOL    HW130790   3.049   3.994   0.776  2.6741 -1.2014 -0.2598
 9783SOL    HW230791   3.062   4.107   0.677  0.6008 -0.2511  0.4824
 9784SOL     OW30792   0.938   4.506  12.149  0.4459  0.5532 -0.4867
 9784SOL    HW130793   1.013   4.540  12.197  0.9327 -1.0534 -0.0404
 9784SOL    HW230794   0.864   4.518  12.208  0.8301 -0.2870  0.1762
 9785SOL     OW30795   2.550   3.425   0.575 -0.0716 -0.2189  0.2731
 9785SOL    HW130796   2.543   3.333   0.551  1.0806 -0.3889  0.5492
 9785SOL    HW230797   2.488   3.470   0.517 -1.1134 -1.2340  0.5830
 9786SOL     OW30798   3.854   4.483   0.904  0.5298  0.1972 -0.5939
 9786SOL    HW130799   3.784   4.533   0.862 -0.1589  0.2359  0.5613
 9786SOL    HW230800   3.824   4.392   0.899  0.2208  0.2509  0.2179
 9787SOL     OW30801   2.877   5.371  10.635  0.1225 -0.1339 -0.2325
 9787SOL    HW130802   2.797   5.387  10.684  0.0578 -0.4940 -0.2162
 9787SOL    HW230803   2.911   5.289  10.670 -0.2521 -0.7248 -1.2121
 9788SOL     OW30804   4.787   3.589  11.685 -0.0972  0.0485 -0.0422
 9788SOL    HW130805   4.792   3.645  11.762  0.2888  0.5805 -0.4504
 9788SOL    HW230806   4.695   3.566  11.678 -0.1877  0.2785  0.3785
 9789SOL     OW30807   2.666   4.882   0.646 -0.2988 -0.3977 -0.2254
 9789SOL    HW130808   2.614   4.802   0.649 -0.8120 -0.0629 -0.0868
 9789SOL    HW230809   2.652   4.916   0.558 -2.0019  0.7797  0.4411
 9790SOL     OW30810   1.916   4.510  12.266 -0.0867  0.1738 -0.0300
 9790SOL    HW130811   1.864   4.490  12.188 -0.4224 -1.5315  0.5852
 9790SOL    HW230812   1.963   4.429  12.284  1.2525  1.0648  0.6052
 9791SOL     OW30813   3.938   4.642  10.993 -0.1817  0.5092  0.6522
 9791SOL    HW130814   3.847   4.672  10.990 -0.0423  0.9471  0.7202
 9791SOL    HW230815   3.988   4.713  10.952  0.0908  0.1186  0.3030
 9792SOL     OW30816   0.664   5.082   9.964  0.4323  0.3769 -0.1092
 9792SOL    HW130817   0.739   5.054  10.016  1.2322  0.3424 -1.2430
 9792SOL    HW230818   0.690   5.168   9.929 -0.1617  0.4871 -0.2945
 9793SOL     OW30819   2.953   3.350   0.244  0.1732  0.0673  0.1281
 9793SOL    HW130820   2.933   3.409   0.317  0.8910 -0.2174  0.5674
 9793SOL    HW230821   2.880   3.362   0.184 -0.0824  0.8340  0.5634
 9794SOL     OW30822   1.697   4.674  11.387 -0.4484 -0.1269 -0.1628
 9794SOL    HW130823   1.662   4.589  11.361 -1.5389  0.0804  0.5472
 9794SOL    HW230824   1.623   4.719  11.427 -0.0942  1.4570 -1.1777
 9795SOL     OW30825   1.657   4.795  12.481 -0.2563  0.4246 -0.2072
 9795SOL    HW130826   1.741   4.765  12.515 -1.1409  1.0748  2.9821
 9795SOL    HW230827   1.600   4.719  12.487 -0.5104  0.6356  0.1275
 9796SOL     OW30828   2.149   2.956  10.581  0.0855 -0.2748  0.3510
 9796SOL    HW130829   2.239   2.983  10.600  0.3956 -0.6795 -0.5159
 9796SOL    HW230830   2.157   2.894  10.508 -1.0516  1.2285 -1.1295
 9797SOL     OW30831   4.402   4.787  11.133  0.2550 -0.4542  0.1845
 9797SOL    HW130832   4.428   4.721  11.197 -0.7399 -0.6536  0.4007
 9797SOL    HW230833   4.463   4.775  11.060  0.3379 -1.3478  0.3921
 9798SOL     OW30834   4.246   3.297  11.970 -0.9816 -0.0062  0.0997
 9798SOL    HW130835   4.329   3.318  11.926 -2.0290  1.4278 -1.2923
 9798SOL    HW230836   4.230   3.372  12.027 -1.2252 -0.4025  0.5635
 9799SOL     OW30837   5.257   4.104   0.225 -0.4267 -0.1641 -0.2182
 9799SOL    HW130838   5.208   4.031   0.186 -1.4625  2.1497 -3.6962
 9799SOL    HW230839   5.344   4.098   0.186 -0.3858  0.2442 -0.1873
 9800SOL     OW30840   1.461   4.888   0.813  0.2855  0.2345 -0.3614
 9800SOL    HW130841   1.447   4.795   0.831 -2.1238  1.0615  3.0398
 9800SOL    HW230842   1.547   4.907   0.851 -0.1311 -0.2564  0.8838
 9801SOL     OW30843   2.603   4.909   0.347 -0.5775 -0.0103 -0.1358
 9801SOL    HW130844   2.615   4.993   0.301 -1.5991 -0.0417 -0.4997
 9801SOL    HW230845   2.657   4.847   0.298  0.2603  0.4480  0.1922
 9802SOL     OW30846   3.893   4.321   0.252 -0.2226 -0.5448  0.1426
 9802SOL    HW130847   3.961   4.299   0.189  1.4069  3.2880  0.2915
 9802SOL    HW230848   3.840   4.388   0.209 -1.1949 -0.3283  1.5814
 9803SOL     OW30849   7.217   2.346   2.287  0.1435  0.0779  0.3555
 9803SOL    HW130850   7.239   2.408   2.218 -1.4050  0.9405  0.5740
 9803SOL    HW230851   7.121   2.342   2.284  0.1634 -4.2043 -1.3117
 9804SOL     OW30852   3.196   5.229  12.402  0.1145  0.2594  0.2791
 9804SOL    HW130853   3.159   5.269  12.323 -0.7084 -1.5317 -0.2966
 9804SOL    HW230854   3.275   5.184  12.371 -0.7572 -1.3166  0.2108
 9805SOL     OW30855   3.216   4.793  10.446 -0.6055  0.2221 -0.3271
 9805SOL    HW130856   3.241   4.789  10.354 -0.9024  0.0857 -0.4037
 9805SOL    HW230857   3.121   4.806  10.444 -0.5974  0.3264 -0.0412
 9806SOL     OW30858   3.521   6.496  10.625 -0.5062  0.1084  0.4702
 9806SOL    HW130859   3.596   6.537  10.667  0.2173 -0.3560 -0.3219
 9806SOL    HW230860   3.556   6.464  10.541 -1.6457  0.1047 -0.0201
 9807SOL     OW30861   4.138   4.589   0.722 -0.4019 -0.2745 -0.1567
 9807SOL    HW130862   4.079   4.655   0.759  0.0065  1.5940 -2.5947
 9807SOL    HW230863   4.198   4.639   0.667 -0.4349 -2.7153 -2.6077
 9808SOL     OW30864   4.450   3.029  10.529  0.4485  0.3480 -0.3404
 9808SOL    HW130865   4.427   3.090  10.458  0.3862 -0.2572 -0.8515
 9808SOL    HW230866   4.528   2.984  10.497 -0.4475 -1.0205 -0.7027
 9809SOL     OW30867   2.989   5.852  11.850  0.3094 -0.5982 -0.0102
 9809SOL    HW130868   3.063   5.902  11.816  0.7393 -0.7763  0.6454
 9809SOL    HW230869   2.924   5.919  11.872  0.7048 -0.3490  0.4351
 9810SOL     OW30870   3.515   3.722  10.853  0.7228  0.3060 -0.3642
 9810SOL    HW130871   3.607   3.697  10.844  0.8627  0.7533 -0.1723
 9810SOL    HW230872   3.495   3.773  10.774  0.8297  0.7889 -0.0807
 9811SOL     OW30873   1.761   4.806  11.726 -0.3455 -0.0730 -0.0063
 9811SOL    HW130874   1.675   4.846  11.739  0.3846  1.4523  0.4641
 9811SOL    HW230875   1.823   4.878  11.740  1.0130 -1.1321 -0.3121
 9812SOL     OW30876   0.165   3.085  11.989 -0.6346  0.9325 -0.0282
 9812SOL    HW130877   0.188   3.085  11.896 -0.6716 -0.3078 -0.0533
 9812SOL    HW230878   0.161   3.178  12.012 -0.9966  1.2780 -1.3571
 9813SOL     OW30879   2.664   3.403  12.162  0.3548  0.0684 -0.0698
 9813SOL    HW130880   2.628   3.465  12.098  0.7105  1.0218  0.6365
 9813SOL    HW230881   2.723   3.456  12.216  0.3533 -0.8025  0.8051
 9814SOL     OW30882   4.296   2.999  11.858  0.5937  0.0109 -0.3075
 9814SOL    HW130883   4.368   3.006  11.921  1.6428  2.8979 -1.6479
 9814SOL    HW230884   4.230   3.061  11.889 -0.2941 -0.8462 -0.4131
 9815SOL     OW30885   3.275   3.474   0.214 -0.3555 -0.5926  0.1364
 9815SOL    HW130886   3.224   3.532   0.270  0.4726 -0.1744  0.4544
 9815SOL    HW230887   3.209   3.434   0.156 -0.8770  1.0470 -0.4545
 9816SOL     OW30888   3.693   4.168  12.482  0.0952 -0.2059  0.1947
 9816SOL    HW130889   3.741   4.118  12.416 -0.7130 -0.8884  0.1226
 9816SOL    HW230890   3.648   4.103  12.535  1.6356  0.2422  2.1791
 9817SOL     OW30891   1.416   5.293  10.308 -0.1166 -0.3250 -0.2020
 9817SOL    HW130892   1.375   5.292  10.394  1.4685 -1.7448  0.5638
 9817SOL    HW230893   1.500   5.250  10.320  1.9084  2.8734 -1.6025
 9818SOL     OW30894   3.030   3.706  11.505 -0.0693  0.1646  0.0638
 9818SOL    HW130895   3.102   3.706  11.442 -1.3014 -0.7149 -1.4090
 9818SOL    HW230896   3.072   3.725  11.589  1.6749  1.0399 -0.9449
 9819SOL     OW30897   2.538   3.544  11.596  0.6067  0.8464 -0.0130
 9819SOL    HW130898   2.549   3.494  11.515 -2.5615  0.3836 -0.3061
 9819SOL    HW230899   2.562   3.482  11.665  0.4158  0.2060 -0.5082
 9820SOL     OW30900   2.920   4.164  12.206 -0.4410 -0.4800  0.3678
 9820SOL    HW130901   2.842   4.208  12.172 -0.4005 -2.0105 -1.9500
 9820SOL    HW230902   2.941   4.212  12.286 -3.4900  0.2451  0.8735
 9821SOL     OW30903   2.867   6.335  11.537 -0.0998 -0.6675  0.5455
 9821SOL    HW130904   2.937   6.280  11.573  0.3365 -0.2395  0.3636
 9821SOL    HW230905   2.792   6.276  11.530  0.7649 -1.6667 -1.0765
 9822SOL     OW30906   4.658   4.066  12.025 -0.1040  0.0838  0.3202
 9822SOL    HW130907   4.718   4.047  11.952 -3.1455 -0.6373 -2.2116
 9822SOL    HW230908   4.588   4.119  11.986 -1.2902  0.6900  3.0383
 9823SOL     OW30909   7.889   4.325  12.324  0.1323 -0.0255 -0.1725
 9823SOL    HW130910   7.933   4.272  12.256  0.5257 -0.0785  0.1190
 9823SOL    HW230911   7.813   4.273  12.348  0.5825 -0.5280  0.1989
 9824SOL     OW30912   3.488   1.861   9.186 -0.1469 -0.0534  0.6525
 9824SOL    HW130913   3.508   1.768   9.189  1.1070  0.1071 -0.9626
 9824SOL    HW230914   3.561   1.903   9.231 -1.6607  0.1023  3.1103
 9825SOL     OW30915   1.532   4.973   0.133  0.6866  0.1056 -0.1492
 9825SOL    HW130916   1.442   4.950   0.109  1.4057 -2.5147 -0.6199
 9825SOL    HW230917   1.586   4.934   0.065  2.2131  1.4143  0.2622
 9826SOL     OW30918   3.916   4.596  12.104  0.1455 -0.0622  0.4089
 9826SOL    HW130919   3.864   4.611  12.025 -0.3379 -3.2530 -0.0104
 9826SOL    HW230920   4.000   4.637  12.086 -0.9849  2.0720 -0.3742
 9827SOL     OW30921   4.854   4.067  11.798 -0.1768  0.2393 -0.6310
 9827SOL    HW130922   4.908   4.134  11.840 -0.1277 -0.1548 -0.0361
 9827SOL    HW230923   4.917   3.999  11.773 -0.5893 -1.4587  2.4478
 9828SOL     OW30924   2.376   4.529  11.463  0.4638  0.6318 -0.0364
 9828SOL    HW130925   2.428   4.594  11.511  2.0030  0.5683 -1.5341
 9828SOL    HW230926   2.317   4.581  11.409 -1.2070  0.7046  1.7277
 9829SOL     OW30927   2.303   4.415   0.616 -0.0119  0.2792  0.1460
 9829SOL    HW130928   2.235   4.433   0.681 -0.6100 -1.3944  0.0244
 9829SOL    HW230929   2.334   4.501   0.589 -0.3012  1.0337  2.0693
 9830SOL     OW30930   2.438   3.274   0.147 -0.1596  0.0462 -0.0514
 9830SOL    HW130931   2.401   3.271   0.059 -1.2432 -2.3857  0.3924
 9830SOL    HW230932   2.375   3.325   0.199  0.7680  1.9829 -0.7217
 9831SOL     OW30933   3.381   3.269  11.202 -0.0913 -0.0099  0.3523
 9831SOL    HW130934   3.311   3.203  11.201  1.0221 -1.2476  0.9952
 9831SOL    HW230935   3.361   3.325  11.127 -1.3066 -0.8346  0.0155
 9832SOL     OW30936   3.388   5.016  11.508  0.1063  0.6528  0.0644
 9832SOL    HW130937   3.371   4.986  11.598 -0.2576  0.0800 -0.1920
 9832SOL    HW230938   3.432   4.942  11.467  0.3582  0.9515 -0.2079
 9833SOL     OW30939   3.580   2.820   0.152  0.0698  0.0882 -0.5379
 9833SOL    HW130940   3.606   2.830   0.243  0.8220  0.6267 -0.7984
 9833SOL    HW230941   3.494   2.778   0.155 -0.2854  0.8615  0.4445
 9834SOL     OW30942   2.015   4.803  11.936  0.0509 -0.0279 -0.2285
 9834SOL    HW130943   2.045   4.820  12.025 -0.0156  0.4990 -0.3039
 9834SOL    HW230944   1.995   4.889  11.900 -0.3122 -0.2695 -0.6195
 9835SOL     OW30945   3.801   3.937   1.103  0.2176 -0.3865  0.6248
 9835SOL    HW130946   3.760   3.896   1.027 -1.8091  1.6824  0.4719
 9835SOL    HW230947   3.888   3.962   1.072  0.1005 -1.2035 -0.4221
 9836SOL     OW30948   4.682   4.515   0.175  0.0647  0.4122 -0.1535
 9836SOL    HW130949   4.762   4.495   0.225 -0.7157 -1.1658  0.5302
 9836SOL    HW230950   4.631   4.434   0.180 -2.1409  1.7723  0.4698
 9837SOL     OW30951   2.891   4.647  11.398  0.5551  0.1171  0.1362
 9837SOL    HW130952   2.877   4.626  11.490  1.7514 -0.8070  0.1380
 9837SOL    HW230953   2.803   4.649  11.360  0.0786  0.1486  1.2200
 9838SOL     OW30954   2.999   3.349  11.904  0.3925 -0.0253 -0.6058
 9838SOL    HW130955   2.939   3.413  11.943  1.7088  1.5683 -1.1351
 9838SOL    HW230956   2.995   3.366  11.810  2.2426  0.6213 -0.5872
 9839SOL     OW30957   2.449   3.876  11.547 -0.3977  0.1782  0.0989
 9839SOL    HW130958   2.435   3.790  11.587 -1.4369 -0.1909 -1.0184
 9839SOL    HW230959   2.390   3.878  11.472  1.3690  0.8978 -1.3501
 9840SOL     OW30960   3.211   3.210   9.696 -0.5928 -0.0086  0.4787
 9840SOL    HW130961   3.250   3.191   9.610 -1.4072 -1.7525  0.4641
 9840SOL    HW230962   3.259   3.288   9.726  2.3806 -1.5384  0.1146
 9841SOL     OW30963   3.852   5.261   0.790  0.0866  0.4250  0.5742
 9841SOL    HW130964   3.856   5.224   0.702  2.3965 -0.7412  1.0944
 9841SOL    HW230965   3.819   5.350   0.777  0.0638  0.1714 -1.4075
 9842SOL     OW30966   3.494   5.699   1.008 -0.5381 -0.0762 -0.0403
 9842SOL    HW130967   3.541   5.623   1.043 -0.4472 -0.4212 -0.8771
 9842SOL    HW230968   3.555   5.772   1.019 -1.4851  0.3749  2.8694
 9843SOL     OW30969   2.491   4.183  11.545 -0.2972 -0.1533  0.1910
 9843SOL    HW130970   2.422   4.202  11.482  0.0944 -2.1044 -0.9090
 9843SOL    HW230971   2.463   4.226  11.625 -1.6339  1.0123 -0.8468
 9844SOL     OW30972   1.737   5.992  10.769 -0.3954  0.3727 -0.2273
 9844SOL    HW130973   1.716   5.900  10.753  1.1526 -0.0539 -0.0431
 9844SOL    HW230974   1.811   6.009  10.710  1.3049  0.5919  1.8581
 9845SOL     OW30975   4.256   5.283   0.450  0.2211 -0.1924 -0.6122
 9845SOL    HW130976   4.198   5.358   0.461  0.5432 -0.0326  0.0949
 9845SOL    HW230977   4.338   5.322   0.418  0.1814 -0.3248 -0.8763
 9846SOL     OW30978   4.123   3.910  11.466 -0.1750  0.0268  0.0733
 9846SOL    HW130979   4.171   3.923  11.548  0.8146  0.1162 -0.4998
 9846SOL    HW230980   4.033   3.933  11.487  0.3126  1.4251  0.7834
 9847SOL     OW30981   2.059   4.299  12.208 -0.8513 -0.1951  0.8891
 9847SOL    HW130982   2.100   4.281  12.123 -1.4367  1.5944  0.1903
 9847SOL    HW230983   2.131   4.293  12.271 -0.3432 -1.2101  0.2424
 9848SOL     OW30984   0.669   4.693   0.863  0.2993 -0.1187  0.0708
 9848SOL    HW130985   0.672   4.783   0.832  0.1765 -0.4510 -0.9401
 9848SOL    HW230986   0.579   4.679   0.893  0.7015  0.5561  1.7370
 9849SOL     OW30987   4.869   5.102  11.635  0.3861  0.3734  0.0103
 9849SOL    HW130988   4.848   5.092  11.728 -2.2759 -2.2567 -0.6894
 9849SOL    HW230989   4.961   5.079  11.629  0.5428  0.2561  1.9687
 9850SOL     OW30990   2.790   4.239  11.234 -0.0463 -0.3357 -0.0851
 9850SOL    HW130991   2.713   4.291  11.210  0.0698  0.1837  0.6281
 9850SOL    HW230992   2.788   4.236  11.330 -0.6044 -2.5146 -0.1290
 9851SOL     OW30993   2.827   3.430  12.380 -0.3535 -0.2597  0.1478
 9851SOL    HW130994   2.912   3.385  12.380  0.4372  1.1462 -0.4926
 9851SOL    HW230995   2.849   3.522  12.362 -1.8592  0.4540  1.6311
 9852SOL     OW30996   0.657   4.891   0.319 -0.0889 -0.1402 -0.0993
 9852SOL    HW130997   0.606   4.810   0.319 -1.2601  0.5654 -0.6552
 9852SOL    HW230998   0.725   4.876   0.253 -1.5163  0.0233 -1.6875
 9853SOL     OW30999   2.814   3.667   0.156 -0.4835  0.1614 -0.7672
 9853SOL    HW131000   2.740   3.719   0.188 -0.7722 -2.4886  3.7523
 9853SOL    HW231001   2.782   3.577   0.155  2.2714 -0.9662  0.3689
 9854SOL     OW31002   1.475   1.804  11.360  0.1108  0.0604 -0.2811
 9854SOL    HW131003   1.495   1.898  11.364  0.5883 -0.0399 -0.1553
 9854SOL    HW231004   1.508   1.769  11.443 -1.7577  0.0770  0.5241
 9855SOL     OW31005   4.108   5.359  11.813 -0.8529  0.5751  0.1651
 9855SOL    HW131006   4.094   5.276  11.857 -0.9574  0.5091  0.0100
 9855SOL    HW231007   4.041   5.417  11.850 -1.8293  0.1454 -0.8742
 9856SOL     OW31008   2.166   3.822   0.849  0.4882  0.4544  0.6224
 9856SOL    HW131009   2.251   3.822   0.806 -0.3652 -0.7168 -1.1626
 9856SOL    HW231010   2.120   3.746   0.813 -2.2711  2.4430 -0.4488
 9857SOL     OW31011   5.232   4.910  12.024 -0.5478 -0.2627  0.0258
 9857SOL    HW131012   5.209   4.905  11.931 -1.5484  0.2511  0.2320
 9857SOL    HW231013   5.163   4.862  12.068 -0.4380  0.0647  0.5585
 9858SOL     OW31014   2.528   4.632  11.995  0.3195 -0.0353 -0.1608
 9858SOL    HW131015   2.455   4.688  11.968  1.1183  1.2377  0.2082
 9858SOL    HW231016   2.563   4.675  12.074 -0.2424 -2.1381  1.3174
 9859SOL     OW31017   3.110   3.735   1.085  0.3708  0.0508 -0.0373
 9859SOL    HW131018   3.072   3.660   1.041  0.1111  0.4582 -0.5185
 9859SOL    HW231019   3.073   3.811   1.040  1.4448  0.4622 -0.2619
 9860SOL     OW31020   3.632   3.168  11.743 -0.3100  0.4734 -0.0814
 9860SOL    HW131021   3.652   3.115  11.666  0.1374  0.0883  0.2957
 9860SOL    HW231022   3.717   3.196  11.776 -0.5213  1.0946 -0.0368
 9861SOL     OW31023   1.738   2.502  11.729  1.0323  0.3831 -0.5685
 9861SOL    HW131024   1.806   2.569  11.725  0.4086  0.9838 -1.6529
 9861SOL    HW231025   1.749   2.462  11.815 -0.1186  3.5397  1.2222
 9862SOL     OW31026   1.770   5.601  11.616  0.2869  0.7333 -0.4766
 9862SOL    HW131027   1.749   5.534  11.551 -0.8514  0.4905  0.1101
 9862SOL    HW231028   1.740   5.563  11.699 -0.0057  1.8016 -0.0807
 9863SOL     OW31029   3.764   4.671  12.298 -0.0878 -0.2796  0.0135
 9863SOL    HW131030   3.827   4.676  12.370  1.2822  1.0404 -1.2159
 9863SOL    HW231031   3.817   4.647  12.222 -1.1982  0.1619 -0.9188
 9864SOL     OW31032   2.365   4.672  11.166  0.1106  0.3705 -0.8625
 9864SOL    HW131033   2.323   4.758  11.159 -1.1979  0.0038  1.4918
 9864SOL    HW231034   2.329   4.622  11.093 -1.0009  1.0932 -0.8384
 9865SOL     OW31035   5.417   3.437  11.921  0.7769 -0.2496 -0.4521
 9865SOL    HW131036   5.407   3.376  11.994 -1.6159 -1.4207 -1.6787
 9865SOL    HW231037   5.390   3.522  11.957  0.1959 -0.6937  0.1715
 9866SOL     OW31038   3.175   3.340  11.622 -0.0031  0.8369 -0.0788
 9866SOL    HW131039   3.174   3.253  11.582  0.1597  0.3791  0.8710
 9866SOL    HW231040   3.097   3.383  11.589  0.6223  0.8499 -1.6406
 9867SOL     OW31041   2.894   3.105  11.948 -0.4842  0.1355  0.3375
 9867SOL    HW131042   2.895   3.053  11.868 -1.7192 -0.7454  0.8458
 9867SOL    HW231043   2.925   3.191  11.922 -0.7250 -0.1735 -1.0583
 9868SOL     OW31044   2.603   6.634   0.140 -0.9072  0.0615 -0.0503
 9868SOL    HW131045   2.605   6.571   0.211 -0.8832  0.7728  0.5953
 9868SOL    HW231046   2.510   6.651   0.125 -1.0186 -1.5493 -1.5469
 9869SOL     OW31047   2.370   6.141   0.518  0.1694  0.0162  0.0766
 9869SOL    HW131048   2.354   6.220   0.466  1.1429 -0.6455 -1.3003
 9869SOL    HW231049   2.465   6.129   0.515 -0.0771 -2.3328 -1.5962
 9870SOL     OW31050   2.258   5.005   0.074  0.1485 -0.1734 -0.5988
 9870SOL    HW131051   2.287   4.966  -0.008 -2.6962 -1.7443 -0.9596
 9870SOL    HW231052   2.183   5.059   0.050 -0.3826 -0.2153  0.8885
 9871SOL     OW31053   3.330   3.392   1.131 -0.1727  0.2423  0.0872
 9871SOL    HW131054   3.287   3.308   1.147 -0.6798  0.5135  0.1676
 9871SOL    HW231055   3.344   3.394   1.037  2.2551 -1.0846  0.3461
 9872SOL     OW31056   3.668   3.862   0.885  0.6965  0.1413  0.3498
 9872SOL    HW131057   3.654   3.784   0.832 -0.0212  0.6954 -0.2966
 9872SOL    HW231058   3.583   3.907   0.884  1.2878  1.2856  0.1200
 9873SOL     OW31059   1.351   3.722  11.623  0.0644  0.3175  0.3660
 9873SOL    HW131060   1.385   3.686  11.541  0.1643  1.6310 -0.1892
 9873SOL    HW231061   1.256   3.711  11.616 -0.2501  3.1755 -1.3650
 9874SOL     OW31062   2.566   5.078   9.833  0.2164  0.6989  0.2663
 9874SOL    HW131063   2.659   5.071   9.814  0.2996 -1.4573  1.1733
 9874SOL    HW231064   2.523   5.021   9.769 -0.2848  0.1923  1.0313
 9875SOL     OW31065   2.809   6.516  11.151  0.3246  0.3141  0.3498
 9875SOL    HW131066   2.782   6.607  11.144  0.1306  0.1497 -1.8827
 9875SOL    HW231067   2.863   6.501  11.073  0.4133 -1.4443  0.7061
 9876SOL     OW31068   2.654   3.952  11.308 -0.8372 -0.3366 -0.3399
 9876SOL    HW131069   2.567   3.980  11.279  0.2501  1.9056 -1.7020
 9876SOL    HW231070   2.714   4.018  11.273  1.4051 -1.5878  0.8790
 9877SOL     OW31071   3.447   5.511   0.692 -0.3293 -0.1249  0.3793
 9877SOL    HW131072   3.502   5.489   0.767  0.8174 -1.7497 -0.8561
 9877SOL    HW231073   3.370   5.455   0.702  0.1045 -0.7930  0.0454
 9878SOL     OW31074   2.881   2.357  10.614 -0.2769 -0.3924  0.3471
 9878SOL    HW131075   2.974   2.377  10.599 -0.5845  0.4924 -0.4850
 9878SOL    HW231076   2.882   2.295  10.687  1.0157 -1.0319 -0.1739
 9879SOL     OW31077   4.257   4.768   1.718  0.0219 -0.4400  0.7193
 9879SOL    HW131078   4.339   4.749   1.763 -0.7661 -1.0255  1.9868
 9879SOL    HW231079   4.282   4.819   1.641  1.4067  1.1813  2.1599
 9880SOL     OW31080   3.932   4.226   0.843  0.2142  0.0308  0.6251
 9880SOL    HW131081   3.947   4.135   0.869  0.9542  0.0645  0.3372
 9880SOL    HW231082   4.020   4.261   0.828  0.0092  1.1501  1.9367
 9881SOL     OW31083   2.944   5.099  11.685  0.1218  0.5955 -0.1444
 9881SOL    HW131084   3.031   5.059  11.678  0.1926  0.1520  2.2788
 9881SOL    HW231085   2.956   5.189  11.657  1.7898  0.9794  1.6081
 9882SOL     OW31086   2.404   3.893   1.282 -0.5338  0.1039 -0.3356
 9882SOL    HW131087   2.370   3.812   1.321 -0.0546  0.1214  0.1304
 9882SOL    HW231088   2.470   3.923   1.344  1.1471 -0.5280 -1.7217
 9883SOL     OW31089   3.040   4.726   0.618  0.3691 -0.3979 -0.8312
 9883SOL    HW131090   3.131   4.749   0.639  0.5714 -0.0698 -1.9980
 9883SOL    HW231091   3.015   4.662   0.685  1.4427 -0.4428 -0.4603
 9884SOL     OW31092   3.464   5.347  10.179  0.2432  0.2741 -0.2813
 9884SOL    HW131093   3.512   5.422  10.142  1.6206 -0.3689  0.1125
 9884SOL    HW231094   3.435   5.297  10.103  1.0938  0.1404 -0.5280
 9885SOL     OW31095   3.805   6.567  11.355  0.0342 -0.7465  0.5301
 9885SOL    HW131096   3.880   6.507  11.345  0.3562 -0.3159  0.3430
 9885SOL    HW231097   3.843   6.647  11.391 -0.0137  0.1284 -1.2486
 9886SOL     OW31098   3.045   5.647  11.586  0.1318 -0.3579 -0.2555
 9886SOL    HW131099   2.989   5.664  11.510 -0.7497  3.5870  1.0287
 9886SOL    HW231100   3.132   5.677  11.559 -0.0905  0.6557  0.1310
 9887SOL     OW31101   2.279   4.488  12.070 -0.1547  0.3736  0.2953
 9887SOL    HW131102   2.304   4.512  12.159  0.9420  3.3967 -0.7358
 9887SOL    HW231103   2.351   4.517  12.015 -2.8660  3.3889 -2.0821
 9888SOL     OW31104   2.392   3.386  10.081 -0.3422 -0.2595 -0.3191
 9888SOL    HW131105   2.357   3.342  10.159 -0.2765 -2.4035 -1.4209
 9888SOL    HW231106   2.444   3.458  10.116 -0.0724 -1.3189  1.6431
 9889SOL     OW31107   2.888   4.940   0.767 -0.1559  0.0728 -0.0548
 9889SOL    HW131108   2.943   4.907   0.696  1.3247  0.4176  0.8825
 9889SOL    HW231109   2.798   4.932   0.734  0.1343 -3.7263 -0.3779
 9890SOL     OW31110   3.984   5.440  12.109 -0.1631  0.2190 -0.1271
 9890SOL    HW131111   3.903   5.408  12.068 -0.9507  1.6849  0.2156
 9890SOL    HW231112   3.987   5.394  12.193  0.3387 -1.2030 -0.8944
 9891SOL     OW31113   3.358   5.770  12.302  0.1704  0.8711 -0.1970
 9891SOL    HW131114   3.404   5.696  12.342 -0.3318  0.5077 -0.2874
 9891SOL    HW231115   3.268   5.739  12.291 -0.1113  1.5939  0.0282
 9892SOL     OW31116   3.462   4.347  10.183  0.4699 -0.4994  0.5166
 9892SOL    HW131117   3.489   4.337  10.274  0.9891  0.9885  0.5611
 9892SOL    HW231118   3.531   4.400  10.144 -0.6021  0.3458 -0.2982
 9893SOL     OW31119   1.441   3.676   0.763 -0.0063  0.6171  0.3143
 9893SOL    HW131120   1.426   3.673   0.857  0.1009  1.9345  0.3932
 9893SOL    HW231121   1.519   3.731   0.753  0.5264 -0.2491 -0.5023
 9894SOL     OW31122   4.704   4.690  11.342 -0.3255  0.2221 -0.6388
 9894SOL    HW131123   4.737   4.722  11.426 -2.4192  0.6489  0.0744
 9894SOL    HW231124   4.734   4.754  11.278  1.1418 -0.0105 -0.2302
 9895SOL     OW31125   1.466   4.819  11.466  0.0850 -0.1844 -0.6036
 9895SOL    HW131126   1.412   4.778  11.534 -0.1374  1.3532  0.1948
 9895SOL    HW231127   1.464   4.912  11.487  1.4106  0.1367 -1.7515
 9896SOL     OW31128   3.711   4.719  11.161 -0.2550  0.4391  0.3567
 9896SOL    HW131129   3.643   4.722  11.093  2.4101 -0.3440 -2.6344
 9896SOL    HW231130   3.774   4.785  11.133  1.0067  0.0129  2.0639
 9897SOL     OW31131   3.449   6.914  10.415  0.4491 -0.3217 -0.2100
 9897SOL    HW131132   3.518   6.854  10.386  2.4555  1.0569  1.4953
 9897SOL    HW231133   3.486   7.001  10.402  0.3691  0.4251  3.5903
 9898SOL     OW31134   2.449   5.810  10.705 -0.0351 -0.3180  0.5197
 9898SOL    HW131135   2.409   5.723  10.707 -0.0397 -0.4310 -1.6367
 9898SOL    HW231136   2.499   5.811  10.624  0.8763  1.3254  1.0538
 9899SOL     OW31137   2.348   3.583  12.369  0.0648 -0.2859  0.2020
 9899SOL    HW131138   2.439   3.611  12.368 -0.5472  1.9394  1.1911
 9899SOL    HW231139   2.328   3.564  12.277  1.3605 -0.2971 -0.0984
 9900SOL     OW31140   3.792   2.904  11.849  0.0814 -0.1927  0.1059
 9900SOL    HW131141   3.764   2.918  11.759 -0.7273 -0.1242  0.3657
 9900SOL    HW231142   3.760   2.980  11.897  0.8853 -0.0110  0.3780
 9901SOL     OW31143   2.692   4.333  12.173 -0.4166  0.5674 -0.3344
 9901SOL    HW131144   2.709   4.363  12.083 -0.2341  0.3818 -0.3626
 9901SOL    HW231145   2.674   4.413  12.221 -1.5100  0.5847 -0.7463
 9902SOL     OW31146   2.836   4.165   9.308  0.3670  0.2191 -0.0506
 9902SOL    HW131147   2.881   4.231   9.360 -0.2158  0.4860  0.1348
 9902SOL    HW231148   2.806   4.100   9.372  0.7889 -0.1416 -0.2125
 9903SOL     OW31149   2.338   4.092   9.975 -0.2642 -0.0809 -0.2367
 9903SOL    HW131150   2.378   4.057   9.895 -0.3891  0.1611 -0.4096
 9903SOL    HW231151   2.273   4.026  10.000 -0.8113  0.2264 -0.8136
 9904SOL     OW31152   3.733   6.272  11.372  0.8003 -0.3630 -0.0042
 9904SOL    HW131153   3.722   6.178  11.357  1.7635 -0.6526  0.9822
 9904SOL    HW231154   3.792   6.300  11.302  0.6913 -0.5222 -0.1651
 9905SOL     OW31155   3.160   7.570  11.742 -0.0102 -0.4319  0.1572
 9905SOL    HW131156   3.234   7.592  11.799  0.5233 -2.1437  0.1900
 9905SOL    HW231157   3.086   7.616  11.781  0.9361  1.0399  0.3302
 9906SOL     OW31158   4.666   4.150   0.830 -0.0913  0.3953 -0.2287
 9906SOL    HW131159   4.761   4.143   0.824 -0.1762 -2.7226  0.5119
 9906SOL    HW231160   4.636   4.157   0.739  0.8172  1.1029 -0.4810
 9907SOL     OW31161   2.546   3.572  11.979 -0.2013  0.2635 -0.3906
 9907SOL    HW131162   2.512   3.523  11.904 -0.6798  0.4547 -0.3039
 9907SOL    HW231163   2.546   3.663  11.949  1.0304  0.1806 -0.6812
 9908SOL     OW31164   2.279   3.248  11.926  0.1476 -0.2353  0.0235
 9908SOL    HW131165   2.284   3.230  11.832  1.5344  0.0316  0.0321
 9908SOL    HW231166   2.185   3.249  11.945 -0.3210  2.1965 -1.8703
 9909SOL     OW31167   2.741   5.383   0.350  0.4415  0.2136  0.3193
 9909SOL    HW131168   2.674   5.443   0.317  1.4362  0.7986 -0.6787
 9909SOL    HW231169   2.824   5.419   0.319  1.1279 -1.2519  0.3621
 9910SOL     OW31170   2.795   4.388  11.664 -0.0359 -0.4237  0.0597
 9910SOL    HW131171   2.742   4.411  11.740  1.0292 -0.8533  0.9633
 9910SOL    HW231172   2.823   4.473  11.628  2.3632 -0.1492  2.2901
 9911SOL     OW31173   1.961   3.477   0.214  0.2995  0.3304  0.0830
 9911SOL    HW131174   2.001   3.494   0.129  0.7700  0.4539  0.3249
 9911SOL    HW231175   1.879   3.432   0.194  1.1708 -1.1023 -0.3708
 9912SOL     OW31176   1.473   4.212  12.042  0.1686  0.4090  0.4179
 9912SOL    HW131177   1.449   4.221  12.135 -0.5019  0.1365  0.2806
 9912SOL    HW231178   1.512   4.125  12.036 -1.6122 -0.4186  0.0993
 9913SOL     OW31179   4.461   4.125   9.709 -0.3371 -0.6448  0.2187
 9913SOL    HW131180   4.424   4.065   9.644 -1.2386 -0.8397  0.8929
 9913SOL    HW231181   4.390   4.140   9.771 -0.1246  1.0855  0.1037
 9914SOL     OW31182   3.736   4.944   0.212 -0.3926  0.3658 -0.1962
 9914SOL    HW131183   3.808   4.881   0.208  0.2049  1.0872 -2.1647
 9914SOL    HW231184   3.776   5.024   0.245 -0.7179  0.2554  0.4747
 9915SOL     OW31185   2.374   5.732  11.362 -1.0445 -0.3965  0.3901
 9915SOL    HW131186   2.374   5.673  11.287 -0.0710 -0.3070  0.3123
 9915SOL    HW231187   2.281   5.740  11.386 -1.3002 -0.9581 -0.3737
 9916SOL     OW31188   3.913   2.979   0.185 -0.0129  0.3623 -0.5564
 9916SOL    HW131189   3.872   2.994   0.270  0.9386  0.0611 -0.0227
 9916SOL    HW231190   3.944   3.066   0.158 -0.1263  0.4241 -0.4869
 9917SOL     OW31191   2.184   4.204  11.983 -0.1219 -0.5703  0.3136
 9917SOL    HW131192   2.169   4.167  11.896  1.3561 -4.0341  1.3690
 9917SOL    HW231193   2.251   4.271  11.970  1.1990 -2.0954 -1.0706
 9918SOL     OW31194   5.157   6.390  11.117  1.1099  0.3414  0.2557
 9918SOL    HW131195   5.071   6.369  11.153  1.0355 -1.3222 -0.7766
 9918SOL    HW231196   5.150   6.481  11.089 -0.3547  0.1880  0.0633
 9919SOL     OW31197   3.372   3.936  11.936  0.2076 -0.3548  0.7276
 9919SOL    HW131198   3.436   3.937  11.865  0.3724  1.5124  0.8577
 9919SOL    HW231199   3.309   3.868  11.911  0.2100  0.3173 -1.2629
 9920SOL     OW31200   4.224   3.825  12.399  0.4706 -0.1096  0.8756
 9920SOL    HW131201   4.142   3.842  12.353  0.0940 -0.7126  1.3067
 9920SOL    HW231202   4.291   3.831  12.331  0.2679  1.9603  0.7958
 9921SOL     OW31203   3.718   2.999  11.551  0.0989 -0.1424 -0.3281
 9921SOL    HW131204   3.718   2.915  11.505  0.1412  0.3258 -1.1989
 9921SOL    HW231205   3.765   3.058  11.492 -0.5577  0.6667 -0.0495
 9922SOL     OW31206   4.528   5.416  11.067  0.3204  0.1472 -0.2303
 9922SOL    HW131207   4.605   5.359  11.076 -1.0716 -1.7559  0.2106
 9922SOL    HW231208   4.490   5.391  10.983 -0.7943 -0.2027  0.3680
 9923SOL     OW31209   3.271   4.971  12.028 -0.1010  0.0027  0.2665
 9923SOL    HW131210   3.282   5.065  12.015 -1.0031  0.1774  0.6632
 9923SOL    HW231211   3.336   4.948  12.095 -0.1837  0.4365  0.5007
 9924SOL     OW31212   1.439   4.555   0.324  0.0904  0.5011 -0.1488
 9924SOL    HW131213   1.378   4.523   0.390  1.0221  0.7582  0.8519
 9924SOL    HW231214   1.526   4.539   0.360  0.6594  3.8103  0.3169
 9925SOL     OW31215   3.894   3.496  11.525  0.4250  0.2306  0.0986
 9925SOL    HW131216   3.924   3.466  11.611  1.4319  3.0712  0.8406
 9925SOL    HW231217   3.974   3.523  11.480 -0.1644 -0.5440 -1.5034
 9926SOL     OW31218   2.293   3.959  12.077 -0.0238  0.3719 -0.0153
 9926SOL    HW131219   2.240   4.039  12.075  1.5734  1.6089  2.2475
 9926SOL    HW231220   2.268   3.915  12.158  0.4560 -0.4576 -0.3084
 9927SOL     OW31221   2.714   7.063  10.912 -0.4993  0.3136  0.1689
 9927SOL    HW131222   2.715   7.157  10.895 -1.5779  0.0387 -1.7160
 9927SOL    HW231223   2.789   7.049  10.970  0.3163  2.1856 -0.3324
 9928SOL     OW31224   7.700   5.317  12.478 -0.3753  0.4902 -0.3908
 9928SOL    HW131225   7.787   5.350  12.496  0.8411 -2.8611  0.6802
 9928SOL    HW231226   7.677   5.355  12.393  1.3992  2.6952  0.0290
 9929SOL     OW31227   1.845   5.445   1.555  0.1677  0.3542 -0.0280
 9929SOL    HW131228   1.857   5.366   1.608  1.5514  0.3676 -0.2868
 9929SOL    HW231229   1.755   5.439   1.524  0.0901 -0.8728  0.3728
 9930SOL     OW31230   1.825   7.240  11.993  0.5587  0.3994  0.5957
 9930SOL    HW131231   1.841   7.333  12.010 -1.5104  0.7408  0.8723
 9930SOL    HW231232   1.774   7.211  12.068  0.5083 -0.7829  0.1152
 9931SOL     OW31233   1.039   5.840   1.090  0.0890 -0.1618 -0.9782
 9931SOL    HW131234   0.954   5.883   1.096  0.2507  0.0602 -0.2076
 9931SOL    HW231235   1.079   5.876   1.011  0.3144  1.2973 -0.2430
 9932SOL     OW31236   3.838   1.176   2.223  0.1332 -0.5420  0.1081
 9932SOL    HW131237   3.814   1.209   2.309 -0.4828 -0.3980 -0.1162
 9932SOL    HW231238   3.778   1.104   2.207  1.5813 -1.9420  0.6745
 9933SOL     OW31239   2.461   5.490   1.261  0.4130 -0.3834  0.4956
 9933SOL    HW131240   2.458   5.463   1.353 -0.6313 -0.4826  0.4376
 9933SOL    HW231241   2.431   5.581   1.262  1.3009 -0.0822  0.3569
 9934SOL     OW31242   1.921   6.757   1.357  0.4483  0.3072 -0.5253
 9934SOL    HW131243   2.014   6.743   1.374  0.3730 -0.4876 -0.7591
 9934SOL    HW231244   1.879   6.676   1.383 -0.4323  1.3069  1.3616
 9935SOL     OW31245   1.549   6.414   0.226 -0.0635 -0.0376  0.3408
 9935SOL    HW131246   1.568   6.484   0.289 -0.1995  0.9682 -0.7192
 9935SOL    HW231247   1.596   6.338   0.261  1.8736  1.1112  0.4024
 9936SOL     OW31248   1.418   6.546   1.354  0.1008 -0.4600 -0.2081
 9936SOL    HW131249   1.340   6.549   1.409  0.8305 -1.2503  0.9405
 9936SOL    HW231250   1.445   6.454   1.356  0.2843 -0.4590 -1.7234
 9937SOL     OW31251   2.603   7.032   1.028 -0.0776 -0.2517  0.0442
 9937SOL    HW131252   2.596   7.029   1.123 -0.9151  0.9387  0.0392
 9937SOL    HW231253   2.697   7.034   1.011  0.0728  0.8944  0.9095
 9938SOL     OW31254   3.332   7.315   2.150 -0.2810  0.0494  0.3247
 9938SOL    HW131255   3.345   7.225   2.179  0.3140  0.8244  2.6647
 9938SOL    HW231256   3.408   7.362   2.184 -1.1942  1.6571  0.2169
 9939SOL     OW31257   3.253   0.917   0.397  0.0408  0.0755  0.5189
 9939SOL    HW131258   3.208   0.972   0.461  1.6838  1.0531  0.9124
 9939SOL    HW231259   3.311   0.977   0.351 -1.3673 -0.5221 -2.2199
 9940SOL     OW31260   3.031   7.377   2.705  0.1687 -0.1193  0.2504
 9940SOL    HW131261   3.051   7.392   2.613 -1.6757  1.7190  0.0662
 9940SOL    HW231262   3.021   7.282   2.713 -0.9022 -0.2146 -1.7532
 9941SOL     OW31263   2.121   5.452   0.708  0.4863  0.3213 -0.0716
 9941SOL    HW131264   2.083   5.532   0.745  0.1047 -0.0723  0.4034
 9941SOL    HW231265   2.051   5.386   0.717 -0.3401  0.6087 -3.1216
 9942SOL     OW31266   2.981   7.280   1.869 -1.0867  0.3591 -0.1869
 9942SOL    HW131267   2.994   7.369   1.903 -0.5311  0.4144 -0.5397
 9942SOL    HW231268   2.893   7.256   1.899 -1.8522  1.5912 -1.3377
 9943SOL     OW31269   1.541   0.144   1.746  0.2801 -0.0327 -0.2125
 9943SOL    HW131270   1.624   0.104   1.722 -0.4123 -0.9855 -1.1189
 9943SOL    HW231271   1.527   0.213   1.681 -0.0195 -0.4191 -0.5640
 9944SOL     OW31272   3.547   7.742   2.956  0.6168  0.2578 -0.1996
 9944SOL    HW131273   3.561   7.651   2.929 -0.2399  0.5679 -1.7502
 9944SOL    HW231274   3.607   7.793   2.901  1.0445  0.6555  0.6136
 9945SOL     OW31275   1.898   5.771  11.878  0.1056 -0.3732 -0.5248
 9945SOL    HW131276   1.918   5.849  11.929 -1.0164  0.0948 -0.7833
 9945SOL    HW231277   1.847   5.716  11.937 -0.7654 -0.0515 -0.9712
 9946SOL     OW31278   2.624   6.615  11.541 -0.3239  0.0197 -0.2896
 9946SOL    HW131279   2.614   6.537  11.486 -2.9708  0.3973 -0.4803
 9946SOL    HW231280   2.646   6.685  11.479  0.2859 -0.2258 -0.3566
 9947SOL     OW31281   1.667   6.602   1.543  0.0761  0.4219 -0.3026
 9947SOL    HW131282   1.603   6.660   1.502 -0.5434 -0.6974 -0.9614
 9947SOL    HW231283   1.708   6.556   1.469 -0.0056 -0.5482  0.2434
 9948SOL     OW31284   3.535   5.751  10.794 -0.1220 -0.7275 -0.0734
 9948SOL    HW131285   3.516   5.693  10.720  0.9846 -0.3855 -0.6511
 9948SOL    HW231286   3.576   5.828  10.754  0.9577 -0.7466  0.9259
 9949SOL     OW31287   2.021   6.486   1.118 -0.0230 -0.4695 -0.2354
 9949SOL    HW131288   2.091   6.546   1.142  1.5074 -2.7425  1.3089
 9949SOL    HW231289   1.944   6.519   1.165  0.9385 -0.1025  1.1286
 9950SOL     OW31290   1.692   6.733   0.092 -0.8110  0.6859 -0.1749
 9950SOL    HW131291   1.601   6.760   0.084 -0.1033  3.1619 -0.7934
 9950SOL    HW231292   1.716   6.701   0.005 -1.3953 -1.1712  0.3147
 9951SOL     OW31293   4.009   0.086   1.671 -0.1613  0.1798  0.3473
 9951SOL    HW131294   3.924   0.083   1.627 -1.5098 -0.5558  2.8034
 9951SOL    HW231295   4.025   0.179   1.685 -0.6594  0.3204  0.0348
 9952SOL     OW31296   2.073   7.626   0.920 -0.3976  0.5707 -0.1553
 9952SOL    HW131297   2.160   7.664   0.906 -0.4930  0.2734 -1.8576
 9952SOL    HW231298   2.084   7.566   0.993  0.6054  1.2181  0.2483
 9953SOL     OW31299   3.589   7.384   0.838 -0.4340  0.2888 -0.0821
 9953SOL    HW131300   3.544   7.336   0.768 -0.4281 -1.3789  0.9865
 9953SOL    HW231301   3.519   7.424   0.889 -0.6960 -1.1851  0.7917
 9954SOL     OW31302   4.263   7.703   0.926  0.4686  0.6947 -0.4053
 9954SOL    HW131303   4.275   7.609   0.939  1.8948  0.5890 -2.0980
 9954SOL    HW231304   4.319   7.724   0.851 -0.5947  2.7128 -0.7014
 9955SOL     OW31305   3.444   6.032   1.172  0.6150 -0.4848 -0.0726
 9955SOL    HW131306   3.372   6.037   1.108  0.8371  1.2925 -0.2421
 9955SOL    HW231307   3.523   6.023   1.119  0.7676  0.6387 -0.0654
 9956SOL     OW31308   2.206   7.928   1.108  0.9154  0.7173  0.2851
 9956SOL    HW131309   2.169   8.010   1.076  0.7486  0.3306 -0.5360
 9956SOL    HW231310   2.137   7.863   1.094  1.9939 -0.1006 -1.6935
 9957SOL     OW31311   3.631   7.775   1.692  0.5401  0.3692 -0.1280
 9957SOL    HW131312   3.675   7.717   1.631  1.8849  2.1509 -0.9534
 9957SOL    HW231313   3.701   7.805   1.751 -0.2570  0.5624  0.7411
 9958SOL     OW31314   2.316   5.673  12.170  0.2836 -0.4849  0.0275
 9958SOL    HW131315   2.282   5.598  12.121 -0.1743 -0.7573  0.7467
 9958SOL    HW231316   2.291   5.749  12.118  2.4965 -0.8904 -1.7631
 9959SOL     OW31317   2.299   6.589   1.149  0.0999 -0.0306  0.1788
 9959SOL    HW131318   2.389   6.603   1.179 -0.6033 -0.7477  2.9488
 9959SOL    HW231319   2.282   6.661   1.089  1.7470  1.5890  1.5240
 9960SOL     OW31320   2.395   5.614  11.733  0.1444 -0.0118  0.1501
 9960SOL    HW131321   2.366   5.537  11.684 -0.9163  0.7860 -0.5126
 9960SOL    HW231322   2.390   5.587  11.825 -0.5051 -0.6376 -0.0556
 9961SOL     OW31323   2.795   7.110   0.782  0.0123  0.0181 -0.0409
 9961SOL    HW131324   2.840   7.076   0.860 -1.2891 -1.5821  0.0673
 9961SOL    HW231325   2.842   7.071   0.708 -0.9663 -1.4177  0.0639
 9962SOL     OW31326   1.566   7.061   1.736 -0.2821 -0.2403 -0.1924
 9962SOL    HW131327   1.601   7.132   1.790 -2.2972  0.5083  0.2393
 9962SOL    HW231328   1.565   6.985   1.794 -2.4026  0.5477  0.9132
 9963SOL     OW31329   4.118   4.667  11.686  0.2226 -0.0601 -0.3731
 9963SOL    HW131330   4.050   4.702  11.743  0.8067  1.9098 -0.8020
 9963SOL    HW231331   4.099   4.573  11.680 -1.8380  0.2719  0.3011
 9964SOL     OW31332   2.324   6.414   0.354 -0.1028  0.3474  0.1961
 9964SOL    HW131333   2.410   6.454   0.362  0.5759 -0.9884 -0.1209
 9964SOL    HW231334   2.299   6.428   0.263  0.1445  0.0467  0.0796
 9965SOL     OW31335   3.214   3.867  12.374 -0.3152 -0.4148  0.4343
 9965SOL    HW131336   3.174   3.917  12.303  0.6737 -2.4824 -1.7270
 9965SOL    HW231337   3.143   3.853  12.436 -1.8228 -0.3344 -1.1729
 9966SOL     OW31338   2.235   1.589   0.162  0.2191 -0.1468  0.0881
 9966SOL    HW131339   2.169   1.659   0.162  1.7959  1.4361 -0.5394
 9966SOL    HW231340   2.305   1.623   0.218  0.5792 -1.7198  0.6278
 9967SOL     OW31341   2.358   7.010  11.724  0.1472 -0.3014 -0.1077
 9967SOL    HW131342   2.431   7.049  11.771  0.9451  0.2429 -1.7346
 9967SOL    HW231343   2.383   6.918  11.713  0.4538 -0.1864 -0.3913
 9968SOL     OW31344   3.297   4.809   0.689  0.2952 -0.3062  0.0031
 9968SOL    HW131345   3.371   4.866   0.708 -0.5114  0.9370 -0.4986
 9968SOL    HW231346   3.290   4.753   0.767  2.6728 -1.5104 -0.5693
 9969SOL     OW31347   3.113   6.989   2.967  0.0472 -0.0496  0.0111
 9969SOL    HW131348   3.108   7.047   2.892  2.0917  0.8971  0.5238
 9969SOL    HW231349   3.131   7.047   3.041  1.3716 -1.2132  0.6638
 9970SOL     OW31350   3.188   7.713  12.143 -0.8376 -0.5081 -0.5562
 9970SOL    HW131351   3.130   7.711  12.220 -0.2279  1.2409 -0.0171
 9970SOL    HW231352   3.190   7.622  12.114  2.0067 -2.2012  3.8421
 9971SOL     OW31353   2.665   5.915  11.655 -0.2343 -0.2118 -0.0824
 9971SOL    HW131354   2.753   5.953  11.662 -0.1562 -0.4411  0.2229
 9971SOL    HW231355   2.677   5.824  11.682 -0.8825  0.1879  1.6367
 9972SOL     OW31356   3.282   7.320   0.164 -0.3690  0.1197  0.4357
 9972SOL    HW131357   3.268   7.306   0.071 -1.1807 -1.7923  0.7968
 9972SOL    HW231358   3.346   7.253   0.190 -1.9279 -0.9995  1.6529
 9973SOL     OW31359   2.109   7.456   3.496  0.6341 -0.3827 -0.6474
 9973SOL    HW131360   2.186   7.450   3.552 -0.1386  1.6604  0.7245
 9973SOL    HW231361   2.126   7.532   3.441 -0.1779 -0.2376 -0.7040
 9974SOL     OW31362   3.656   6.993   0.104  0.8927  0.1847  0.3647
 9974SOL    HW131363   3.698   6.931   0.044  2.8465  2.5496 -0.8702
 9974SOL    HW231364   3.588   7.035   0.051 -0.1238 -0.5409  1.0657
 9975SOL     OW31365   3.503   5.992   1.982 -0.4764  0.3561 -0.2746
 9975SOL    HW131366   3.497   5.954   2.069 -0.2410 -0.9437 -0.8021
 9975SOL    HW231367   3.431   5.952   1.933 -0.8021  1.3110 -0.6069
 9976SOL     OW31368   2.628   7.275   1.213  0.3290 -0.2784  0.2774
 9976SOL    HW131369   2.664   7.225   1.286  0.2546 -1.4628 -0.4660
 9976SOL    HW231370   2.705   7.300   1.162  0.2978 -0.5715  0.0808
 9977SOL     OW31371   3.707   5.197   1.587 -0.1327  0.8383 -0.0272
 9977SOL    HW131372   3.639   5.263   1.601  0.4929  1.1696  1.6488
 9977SOL    HW231373   3.755   5.228   1.510 -0.8560  1.4647 -0.2421
 9978SOL     OW31374   2.957   7.475   0.549 -0.2140  0.3056  0.3160
 9978SOL    HW131375   2.992   7.560   0.522 -1.5854  0.5158 -0.9345
 9978SOL    HW231376   3.002   7.456   0.631  0.2886  2.1278  0.5177
 9979SOL     OW31377   1.752   6.856   2.860  0.0820 -0.0110 -0.6612
 9979SOL    HW131378   1.763   6.939   2.908  1.4797  0.3590 -1.5434
 9979SOL    HW231379   1.722   6.883   2.773  0.4820 -0.4231 -0.9320
 9980SOL     OW31380   2.875   7.847   1.123 -0.5882 -0.7186 -0.1515
 9980SOL    HW131381   2.957   7.804   1.148 -0.5773 -0.6151 -0.0036
 9980SOL    HW231382   2.899   7.939   1.113 -0.9536 -0.4480  1.2392
 9981SOL     OW31383   3.224   7.637   1.737  0.1073 -0.0354 -0.2493
 9981SOL    HW131384   3.302   7.583   1.750  0.2979  0.0442 -0.9839
 9981SOL    HW231385   3.160   7.602   1.799  0.7204 -0.1027  0.3597
 9982SOL     OW31386   3.080   4.929   0.218 -0.3411  0.3476 -0.6316
 9982SOL    HW131387   3.158   4.885   0.183  0.1044  0.6375 -0.0148
 9982SOL    HW231388   3.096   4.935   0.312 -1.1691  0.2954 -0.4845
 9983SOL     OW31389   2.900   7.641  11.806  0.3522 -0.2519 -0.7489
 9983SOL    HW131390   2.859   7.707  11.862 -0.8721  0.1739 -2.0899
 9983SOL    HW231391   2.832   7.576  11.792  1.5874 -1.9482  0.6730
 9984SOL     OW31392   3.079   7.119   0.402  0.0314  0.3212 -0.0449
 9984SOL    HW131393   3.096   7.190   0.340 -2.4080  1.2764  0.2727
 9984SOL    HW231394   2.985   7.103   0.394  0.3164 -2.1174  0.7399
 9985SOL     OW31395   1.236   7.088   0.695  0.3640 -0.4278  0.2858
 9985SOL    HW131396   1.273   7.158   0.750  3.5017 -0.0041 -2.0797
 9985SOL    HW231397   1.260   7.007   0.741  1.2557 -0.0346  0.5454
 9986SOL     OW31398   2.102   4.834   3.295  0.1130  0.4173  0.4046
 9986SOL    HW131399   2.100   4.775   3.370  1.4693 -0.2087 -0.0063
 9986SOL    HW231400   2.152   4.910   3.325 -0.6357  0.8454  0.5814
 9987SOL     OW31401   3.102   0.096   0.418  0.3490  0.2033 -0.3695
 9987SOL    HW131402   3.056   0.046   0.485 -2.9179 -0.2485 -2.7160
 9987SOL    HW231403   3.172   0.038   0.388 -0.7368 -1.2717 -0.1562
 9988SOL     OW31404   0.809   5.611  10.880  0.2355 -0.5872 -0.7501
 9988SOL    HW131405   0.834   5.545  10.945  0.2562  0.6511  0.5661
 9988SOL    HW231406   0.870   5.683  10.895 -1.9747  1.1884  0.3473
 9989SOL     OW31407   3.418   4.765   2.475 -0.2120  0.4699 -0.4775
 9989SOL    HW131408   3.373   4.694   2.520 -0.7456  0.2988 -1.2731
 9989SOL    HW231409   3.397   4.753   2.383  0.9604  0.7566 -0.8010
 9990SOL     OW31410   2.297   6.568   1.635 -0.1211 -0.3072 -0.0643
 9990SOL    HW131411   2.245   6.576   1.715  1.6111 -0.1629  1.1006
 9990SOL    HW231412   2.355   6.644   1.637  1.8185 -1.7257 -0.0051
 9991SOL     OW31413   3.709   7.587  12.064 -0.4858  0.3152  0.2696
 9991SOL    HW131414   3.659   7.664  12.091 -1.3153  0.4727 -1.5544
 9991SOL    HW231415   3.673   7.515  12.116  0.0119  1.0672  1.6854
 9992SOL     OW31416   3.737   5.493   2.054 -0.1777  0.2951 -0.3047
 9992SOL    HW131417   3.810   5.432   2.061 -0.9342 -0.5357  0.6330
 9992SOL    HW231418   3.729   5.532   2.141  0.4197  1.9249 -0.9327
 9993SOL     OW31419   3.361   6.696   1.041 -0.1132 -0.4905 -0.4965
 9993SOL    HW131420   3.306   6.621   1.016 -0.5854 -0.7129  1.0647
 9993SOL    HW231421   3.450   6.662   1.038 -0.2748 -0.9297 -0.4400
 9994SOL     OW31422   1.737   6.727  12.297  0.0030 -0.3702  0.2197
 9994SOL    HW131423   1.766   6.773  12.218 -0.0768  0.8390  0.8594
 9994SOL    HW231424   1.796   6.652  12.305  0.3240 -0.2242 -0.7193
 9995SOL     OW31425   2.036   6.200   1.816 -0.0052  0.2574 -0.6553
 9995SOL    HW131426   2.002   6.121   1.859 -0.0235  0.5507 -0.1161
 9995SOL    HW231427   2.116   6.171   1.771  0.6559  0.1660  0.5348
 9996SOL     OW31428   2.887   6.832   0.430 -0.1217  0.6605  0.2853
 9996SOL    HW131429   2.932   6.786   0.360  0.4088  0.2476  0.8884
 9996SOL    HW231430   2.879   6.922   0.399  0.7934  0.6552  0.0138
 9997SOL     OW31431   2.712   6.372   1.042 -0.1707  0.1691  0.0514
 9997SOL    HW131432   2.758   6.337   0.966  0.3679  0.3200  0.3015
 9997SOL    HW231433   2.722   6.467   1.034  0.8028  0.1547  0.8598
 9998SOL     OW31434   2.260   5.887  11.986 -0.4173  0.2628  0.9672
 9998SOL    HW131435   2.321   5.944  11.939 -0.9139  1.6639  1.9312
 9998SOL    HW231436   2.177   5.935  11.983 -1.2545 -1.1691  0.4815
 9999SOL     OW31437   3.699   5.622   0.513 -0.0643  0.1750 -0.4999
 9999SOL    HW131438   3.686   5.651   0.423 -0.2807 -0.0140 -0.5290
 9999SOL    HW231439   3.621   5.571   0.534  0.3303 -0.4216 -0.4607
10000SOL     OW31440   1.616   4.846  12.220 -0.2064 -0.8806  0.2864
10000SOL    HW131441   1.583   4.936  12.210  3.1998  0.4480 -0.1829
10000SOL    HW231442   1.621   4.833  12.315 -2.0108 -1.1639  0.3778
10001SOL     OW31443   2.019   0.155  12.271  0.1767  0.1929  0.5256
10001SOL    HW131444   1.989   0.113  12.351 -0.2028 -0.0417  0.2632
10001SOL    HW231445   2.082   0.094  12.233 -3.0792 -2.0594 -1.8264
10002SOL     OW31446   3.530   4.358  12.303  0.0794  0.0120 -0.0702
10002SOL    HW131447   3.478   4.355  12.223 -0.2566  0.4741  0.1225
10002SOL    HW231448   3.556   4.267  12.318 -2.0791 -0.5499  0.7236
10003SOL     OW31449   1.419   7.661   1.453 -0.9674 -0.1329 -0.7581
10003SOL    HW131450   1.348   7.724   1.461 -1.5079 -0.6617 -1.2864
10003SOL    HW231451   1.472   7.693   1.380 -0.0394  0.8379  0.2964
10004SOL     OW31452   1.897   6.333   2.147 -0.2516  0.1230 -0.0366
10004SOL    HW131453   1.955   6.289   2.085  0.1346  1.5609 -0.7413
10004SOL    HW231454   1.893   6.424   2.116  0.6792  1.1455  2.5115
10005SOL     OW31455   2.467   6.358  12.242 -0.1723 -0.2177  0.3462
10005SOL    HW131456   2.490   6.352  12.150  0.8859 -1.8226  0.6716
10005SOL    HW231457   2.525   6.426  12.277  1.1064 -1.2254  0.2700
10006SOL     OW31458   1.291   0.036   0.212 -0.0803  0.6754 -0.2303
10006SOL    HW131459   1.383   0.034   0.238 -0.3174  1.2228  0.6850
10006SOL    HW231460   1.275   0.126   0.186 -0.3570  0.5782 -0.4025
10007SOL     OW31461   3.643   6.121  10.995  0.0757 -0.0939  0.3795
10007SOL    HW131462   3.649   6.079  10.909 -0.4284 -0.3695  0.4725
10007SOL    HW231463   3.707   6.075  11.049  1.9894  1.5151 -0.3983
10008SOL     OW31464   0.768   4.938   0.772 -0.3616 -0.1239 -0.0781
10008SOL    HW131465   0.825   4.972   0.702  0.3505 -0.2976  0.4058
10008SOL    HW231466   0.829   4.906   0.839 -0.8889 -3.7333 -1.0937
10009SOL     OW31467   2.925   5.261   0.544  0.2986  0.2782  0.6867
10009SOL    HW131468   2.952   5.172   0.522  1.5397  0.9094 -0.5578
10009SOL    HW231469   2.880   5.293   0.465 -0.3915  0.6540  1.2258
10010SOL     OW31470   2.758   6.155  12.115 -0.4325  0.0180  0.1102
10010SOL    HW131471   2.774   6.247  12.092 -0.5941 -0.0154 -0.1399
10010SOL    HW231472   2.698   6.159  12.189 -1.1186  0.0991 -0.4466
10011SOL     OW31473   3.435   4.334   1.656  0.7439  0.0218 -0.4249
10011SOL    HW131474   3.369   4.358   1.591 -0.0397 -0.2543  0.2421
10011SOL    HW231475   3.434   4.406   1.719 -0.5178 -0.9615  0.7560
10012SOL     OW31476   3.015   7.114  11.845  0.0307  0.0439 -0.2430
10012SOL    HW131477   2.974   7.189  11.888  2.7870  1.0490  0.8835
10012SOL    HW231478   3.062   7.152  11.771  0.4430 -0.7309 -0.3874
10013SOL     OW31479   3.273   7.161  11.796 -0.3931 -0.0227 -0.6615
10013SOL    HW131480   3.360   7.199  11.812 -0.3043 -0.5633  0.2223
10013SOL    HW231481   3.272   7.143  11.702  1.1049 -1.5611 -0.4340
10014SOL     OW31482   4.132   6.441   0.504 -0.5721  0.6983 -0.0280
10014SOL    HW131483   4.199   6.426   0.572 -0.9666  0.2884  0.2816
10014SOL    HW231484   4.167   6.398   0.426 -0.5678  0.2982  0.1911
10015SOL     OW31485   1.705   0.421   0.252  0.9050 -0.0257  0.4771
10015SOL    HW131486   1.774   0.355   0.246 -0.4752 -1.4510 -0.6916
10015SOL    HW231487   1.691   0.432   0.346  2.3084 -0.1192  0.7300
10016SOL     OW31488   2.686   0.294  12.383 -0.1917 -0.0683 -0.1910
10016SOL    HW131489   2.775   0.309  12.351 -0.4575 -0.4818 -1.1759
10016SOL    HW231490   2.655   0.220  12.331 -0.8950 -0.3194  0.5746
10017SOL     OW31491   2.682   6.017   0.482 -0.6752  0.6284  0.1946
10017SOL    HW131492   2.693   6.030   0.388 -0.0908  1.7333  0.4006
10017SOL    HW231493   2.669   5.922   0.492  1.4235  0.1815 -0.7864
10018SOL     OW31494   2.002   5.275  11.627 -0.1226 -0.4383 -0.5029
10018SOL    HW131495   2.019   5.293  11.534  0.5024 -0.2915 -0.3663
10018SOL    HW231496   2.080   5.308  11.672  0.5195 -2.3395 -0.1187
10019SOL     OW31497   3.140   7.688   1.495  0.3008  0.1082 -0.4204
10019SOL    HW131498   3.192   7.703   1.574  1.5916 -0.6347 -1.0838
10019SOL    HW231499   3.205   7.687   1.424 -0.8249  0.8202 -1.5023
10020SOL     OW31500   2.865   0.086   1.632  0.1271 -0.0032 -0.1161
10020SOL    HW131501   2.828   0.047   1.711  1.3892 -1.1963 -0.0870
10020SOL    HW231502   2.913   0.015   1.590  0.0088  0.7799 -1.6361
10021SOL     OW31503   2.838   0.198   3.513 -0.6979  0.3323 -0.1383
10021SOL    HW131504   2.822   0.132   3.446 -1.1983 -0.0841  0.3834
10021SOL    HW231505   2.790   0.167   3.590  0.9628  0.1058  0.8489
10022SOL     OW31506   3.485   6.505  11.864  0.0722  0.0087 -0.6474
10022SOL    HW131507   3.412   6.444  11.868 -0.4193  0.5700 -0.8868
10022SOL    HW231508   3.552   6.466  11.920 -1.1899  0.5090  1.3128
10023SOL     OW31509   2.314   7.109   1.055 -0.6516 -0.5505  0.2562
10023SOL    HW131510   2.393   7.066   1.022 -0.2459  0.8552 -0.6888
10023SOL    HW231511   2.245   7.043   1.045  0.2164 -1.4845  0.2402
10024SOL     OW31512   3.519   6.704  12.249  0.2288  0.3086  0.5151
10024SOL    HW131513   3.599   6.693  12.198  0.2070 -0.4148  0.6318
10024SOL    HW231514   3.547   6.697  12.340 -0.0093 -0.3047  0.5492
10025SOL     OW31515   2.382   5.619   0.550 -0.2558  0.1917 -0.2600
10025SOL    HW131516   2.475   5.633   0.530 -0.4707  0.7833 -0.8932
10025SOL    HW231517   2.338   5.697   0.515 -0.7410  1.0124  2.0148
10026SOL     OW31518   0.070   6.313   0.767  0.4763 -0.0365  0.2675
10026SOL    HW131519   0.024   6.334   0.848  1.5947  1.7449  0.5209
10026SOL    HW231520   0.144   6.260   0.794  1.3024  1.2222  0.5761
10027SOL     OW31521   2.432   5.166   0.291  0.0906  0.1478  0.1109
10027SOL    HW131522   2.462   5.245   0.245  0.1398 -0.1993 -0.4643
10027SOL    HW231523   2.373   5.123   0.230 -0.4465  0.0660  0.6766
10028SOL     OW31524   1.230   6.551   0.002 -0.2763 -0.0644  0.2828
10028SOL    HW131525   1.187   6.630   0.035  0.6506  0.4844  0.2200
10028SOL    HW231526   1.176   6.522  -0.071 -0.7617  0.3713  0.4687
10029SOL     OW31527   1.397   7.865   3.628 -0.4508 -0.6008 -0.2327
10029SOL    HW131528   1.454   7.942   3.632 -0.3860 -0.6679  0.2960
10029SOL    HW231529   1.456   7.792   3.607 -0.8297 -0.2069 -3.0862
10030SOL     OW31530   2.197   4.881  11.635 -0.3108 -0.0197  0.3939
10030SOL    HW131531   2.148   4.884  11.553 -0.0464  1.6634  0.2792
10030SOL    HW231532   2.289   4.881  11.608 -0.2191 -0.6235  0.6787
10031SOL     OW31533   3.006   7.156   2.389  0.9298 -0.1905 -0.1530
10031SOL    HW131534   3.043   7.195   2.468 -1.8268 -0.9880  1.6890
10031SOL    HW231535   2.945   7.223   2.356  2.5138  0.3958 -2.0642
10032SOL     OW31536   3.572   6.956   1.254  0.3142 -1.1925  0.1669
10032SOL    HW131537   3.576   6.937   1.347  1.2190  1.6898  0.8073
10032SOL    HW231538   3.478   6.961   1.234  0.1147 -1.8729  0.8903
10033SOL     OW31539   3.844   0.011   1.142  0.2049 -0.1347  0.4022
10033SOL    HW131540   3.878  -0.069   1.101  1.1794  0.0545  0.8164
10033SOL    HW231541   3.892   0.018   1.225  0.7161  1.3094  0.0083
10034SOL     OW31542   3.016   5.144  12.028 -0.1587 -0.3536  0.5577
10034SOL    HW131543   2.932   5.120  11.989  0.7595 -1.0110 -1.1005
10034SOL    HW231544   3.067   5.063  12.025  0.9641  0.3459  0.4037
10035SOL     OW31545   2.905   0.154   1.107  0.0269 -0.5598 -0.1718
10035SOL    HW131546   2.887   0.156   1.201 -0.1590  4.1623 -0.0811
10035SOL    HW231547   3.000   0.155   1.101  0.0388 -0.8353 -0.0618
10036SOL     OW31548   1.555   7.519   3.306 -0.2270 -0.3123 -0.3316
10036SOL    HW131549   1.588   7.444   3.256  1.0989  0.3138 -0.4359
10036SOL    HW231550   1.461   7.503   3.314  0.0720 -2.1621 -0.0560
10037SOL     OW31551   2.790   7.434   1.015  0.1858  0.1439  0.3614
10037SOL    HW131552   2.797   7.389   0.931  0.0107  1.3890 -0.3385
10037SOL    HW231553   2.789   7.527   0.993  0.4269  0.5022  1.7660
10038SOL     OW31554   3.615   4.933   2.205 -0.1858  0.2182 -0.1071
10038SOL    HW131555   3.567   4.860   2.167 -1.2080 -0.2880  1.9853
10038SOL    HW231556   3.701   4.898   2.226 -0.8400 -0.6093  1.3676
10039SOL     OW31557   2.303   7.020   2.135 -0.4605  0.1363  0.8447
10039SOL    HW131558   2.324   6.965   2.059 -0.1542  1.1956  0.1377
10039SOL    HW231559   2.386   7.032   2.181 -0.1138  1.5417 -0.0710
10040SOL     OW31560   1.544   5.528   1.202  0.3401  0.1408  0.5857
10040SOL    HW131561   1.459   5.553   1.238 -0.5146 -1.7508 -0.0276
10040SOL    HW231562   1.577   5.461   1.262 -0.4856 -2.0724 -1.3003
10041SOL     OW31563   2.689   7.700   1.389  0.3881  0.0654  0.2921
10041SOL    HW131564   2.756   7.641   1.354  1.2463  0.2688  1.5121
10041SOL    HW231565   2.610   7.646   1.394  0.3127 -0.0568 -1.5742
10042SOL     OW31566   3.185   3.790  11.762 -0.2401  0.2194  0.1704
10042SOL    HW131567   3.249   3.822  11.699  0.1082  1.3738  1.0712
10042SOL    HW231568   3.115   3.855  11.760 -0.1752  0.3237  1.0455
10043SOL     OW31569   1.224   5.813   1.293  0.1465  0.2071  0.4681
10043SOL    HW131570   1.199   5.722   1.309  0.2179 -0.4909 -2.7208
10043SOL    HW231571   1.168   5.841   1.221  1.9764  1.7994 -0.4215
10044SOL     OW31572   1.578   6.718   0.744  0.5099  0.1898  0.0845
10044SOL    HW131573   1.542   6.736   0.830  0.8717  2.9632 -0.2486
10044SOL    HW231574   1.658   6.669   0.761  0.5410  0.6406  1.3373
10045SOL     OW31575   1.710   5.838   0.749 -0.0598 -0.0499 -0.0914
10045SOL    HW131576   1.769   5.887   0.805 -0.2933  0.7349 -0.5169
10045SOL    HW231577   1.643   5.804   0.808 -0.2346  0.6625  0.1185
10046SOL     OW31578   2.718   7.814   3.055  0.7066 -0.6334  0.2037
10046SOL    HW131579   2.724   7.830   3.150 -0.6870 -0.2245  0.2451
10046SOL    HW231580   2.668   7.888   3.022 -1.1216 -2.0692 -0.4467
10047SOL     OW31581   1.100   7.202   2.809 -0.2581 -0.3467 -0.0168
10047SOL    HW131582   1.180   7.245   2.838  0.4567 -0.1958 -2.0672
10047SOL    HW231583   1.029   7.256   2.845  0.5753  0.5752  0.2686
10048SOL     OW31584   2.986   3.004   0.782  0.0254 -0.4663 -0.0697
10048SOL    HW131585   2.897   2.995   0.816  0.3042 -0.0777  0.7973
10048SOL    HW231586   2.976   3.053   0.700 -0.3279  2.2699  1.4832
10049SOL     OW31587   2.641   6.336   0.565  0.4045 -0.0515 -0.6021
10049SOL    HW131588   2.677   6.276   0.499  0.4996 -0.7523  0.0735
10049SOL    HW231589   2.713   6.354   0.624  0.3643  0.7172 -0.7784
10050SOL     OW31590   3.623   7.054   2.034 -0.8301  0.0845  0.8740
10050SOL    HW131591   3.635   7.093   2.121  1.6150 -0.4640  0.8449
10050SOL    HW231592   3.701   7.079   1.985 -1.7219 -0.4046 -0.8984
10051SOL     OW31593   3.468   7.500   1.757 -0.4451 -0.2988  0.3115
10051SOL    HW131594   3.501   7.481   1.669 -2.0563  0.4157 -0.4835
10051SOL    HW231595   3.533   7.560   1.794  0.1130 -0.3856 -0.4978
10052SOL     OW31596   1.951   6.065   0.850  0.8667  0.0631  0.1344
10052SOL    HW131597   2.012   6.065   0.775  1.3693  0.5156  0.5346
10052SOL    HW231598   1.999   6.019   0.919  0.3456 -0.4774  0.1354
10053SOL     OW31599   2.023   5.079   1.412 -0.0932  0.1248  0.0616
10053SOL    HW131600   2.008   4.989   1.443 -0.0447 -0.4593 -1.4963
10053SOL    HW231601   1.935   5.110   1.387  0.1953 -0.5515 -2.0119
10054SOL     OW31602   3.796   6.489  12.060 -0.2456  0.1463 -0.1006
10054SOL    HW131603   3.817   6.551  11.990  2.6343  0.0184  0.5146
10054SOL    HW231604   3.767   6.410  12.015 -3.4979  1.6265 -0.9140
10055SOL     OW31605   3.023   7.151  12.337 -0.1119 -0.4778 -0.1419
10055SOL    HW131606   3.078   7.224  12.367 -0.5429  0.0576 -0.6185
10055SOL    HW231607   3.074   7.109  12.268  0.1227 -0.6096  0.1097
10056SOL     OW31608   3.348   6.269  11.852  0.2775 -0.1461  0.1285
10056SOL    HW131609   3.374   6.267  11.760 -1.2829 -2.2883 -0.3511
10056SOL    HW231610   3.394   6.195  11.892 -0.9572 -0.7763  0.4428
10057SOL     OW31611   2.873   6.614   1.009  0.5812 -0.1688  0.0419
10057SOL    HW131612   2.882   6.670   1.086  1.2815  0.4190 -0.4449
10057SOL    HW231613   2.841   6.673   0.941  2.4544 -0.0422 -0.7970
10058SOL     OW31614   2.142   7.258   1.270 -0.0577  0.0465  0.3429
10058SOL    HW131615   2.110   7.283   1.357  0.2862  0.5163  0.3376
10058SOL    HW231616   2.071   7.205   1.233 -0.4092  0.2441  0.7220
10059SOL     OW31617   4.117   3.696   2.207 -0.2650 -0.3604  0.0278
10059SOL    HW131618   4.213   3.693   2.202 -0.2600 -1.4300  0.5685
10059SOL    HW231619   4.098   3.697   2.300 -0.7953 -0.8736 -0.0709
10060SOL     OW31620   0.850   6.384   1.021  0.3665  0.0307 -0.0528
10060SOL    HW131621   0.888   6.423   1.100  0.2215 -1.8900  1.0107
10060SOL    HW231622   0.840   6.458   0.960 -0.0906  1.6644  1.9159
10061SOL     OW31623   2.093   0.316   0.076 -0.7223  0.1256  1.0573
10061SOL    HW131624   2.070   0.407   0.091  0.4664  0.9456 -1.5413
10061SOL    HW231625   2.040   0.289   0.001  0.2924 -0.7240  0.6114
10062SOL     OW31626   2.324   6.766  12.126  0.2276  0.5267 -0.1214
10062SOL    HW131627   2.271   6.783  12.048  0.2186 -1.2830 -0.5493
10062SOL    HW231628   2.407   6.734  12.093  0.8622  1.3690  0.6024
10063SOL     OW31629   2.394   7.371   1.944 -0.0883  0.3742 -0.2205
10063SOL    HW131630   2.398   7.282   1.909 -0.1753  0.5072 -0.5659
10063SOL    HW231631   2.376   7.358   2.037 -1.7702  0.0644 -0.5501
10064SOL     OW31632   2.616   0.592   1.902 -0.1640 -0.1714  0.1892
10064SOL    HW131633   2.637   0.665   1.960 -0.2384 -0.0976  0.1239
10064SOL    HW231634   2.650   0.618   1.816  0.3683 -0.4842  0.2969
10065SOL     OW31635   3.313   6.361   0.277  0.2710 -0.2700 -0.0259
10065SOL    HW131636   3.347   6.273   0.259 -0.2200  0.1363 -3.7107
10065SOL    HW231637   3.223   6.358   0.247  0.2198  1.4823 -0.0983
10066SOL     OW31638   4.610   5.097  11.859 -0.0890 -0.2723 -0.5897
10066SOL    HW131639   4.576   5.120  11.773 -0.8239 -1.5311 -0.6620
10066SOL    HW231640   4.536   5.054  11.903  0.7190 -0.9722  0.1174
10067SOL     OW31641   3.485   7.176   0.278  0.9201  0.0848 -0.2554
10067SOL    HW131642   3.560   7.223   0.314  0.1837 -0.5647  2.3116
10067SOL    HW231643   3.519   7.088   0.258  0.6417 -0.6379  2.1537
10068SOL     OW31644   2.781   5.906  11.176  0.0471 -0.1593 -0.7685
10068SOL    HW131645   2.817   5.894  11.088  0.1057 -0.8952 -0.6561
10068SOL    HW231646   2.750   5.818  11.200 -0.0448  0.0603 -0.0921
10069SOL     OW31647   3.469   0.624   0.683  0.0050 -0.1905  0.3084
10069SOL    HW131648   3.514   0.684   0.743 -0.1193  1.2823 -0.9962
10069SOL    HW231649   3.453   0.676   0.604 -2.9829 -0.9825  0.2660
10070SOL     OW31650   2.630   0.718   2.869 -0.2447  0.7201  0.3377
10070SOL    HW131651   2.674   0.801   2.851 -0.5792  1.0377  0.9432
10070SOL    HW231652   2.683   0.652   2.824  0.6890  1.1261  0.8081
10071SOL     OW31653   1.063   6.917   2.509  0.2928 -0.7096  0.2547
10071SOL    HW131654   1.143   6.864   2.510 -0.2581 -1.6116 -1.0023
10071SOL    HW231655   1.031   6.910   2.419 -1.1650 -0.2936  0.7205
10072SOL     OW31656   2.982   5.101   0.025  0.0679  0.3539  0.2280
10072SOL    HW131657   3.002   5.036   0.093 -2.9241 -1.3814 -0.3805
10072SOL    HW231658   3.061   5.104  -0.029  1.7374  0.1932  2.4940
10073SOL     OW31659   4.221   5.413   0.994 -0.5501  0.7251 -0.2617
10073SOL    HW131660   4.237   5.367   0.911 -0.4258 -0.1436  0.2333
10073SOL    HW231661   4.178   5.348   1.049 -0.9775  1.4151  0.2360
10074SOL     OW31662   3.685   0.519   2.914  0.3601  1.5878  0.3473
10074SOL    HW131663   3.668   0.581   2.985  1.5825  0.5898  1.5676
10074SOL    HW231664   3.729   0.445   2.957 -0.5441  0.1225 -1.1503
10075SOL     OW31665   0.505   7.093   0.270  0.1707 -0.1544  1.1242
10075SOL    HW131666   0.547   7.058   0.349 -1.1479 -0.4761  1.7228
10075SOL    HW231667   0.506   7.021   0.208  0.0608 -0.3180  1.3121
10076SOL     OW31668   3.990   0.340   1.422  0.6817  0.2088  0.4791
10076SOL    HW131669   4.039   0.309   1.499  0.0662 -1.6522  0.1783
10076SOL    HW231670   4.009   0.433   1.417  2.8385 -0.1355  1.3482
10077SOL     OW31671   2.555   6.172   1.181  0.0799  0.0829  0.3225
10077SOL    HW131672   2.615   6.243   1.158 -1.4217  1.4783  0.5318
10077SOL    HW231673   2.605   6.116   1.241  0.7123  2.0372  1.7142
10078SOL     OW31674   3.881   5.517   0.685  0.0603 -0.0163 -0.0627
10078SOL    HW131675   3.968   5.531   0.649 -0.8508  0.8917 -2.1143
10078SOL    HW231676   3.823   5.563   0.625 -1.7373  0.6561  2.0612
10079SOL     OW31677   3.311   0.367   1.091  0.0634 -0.3295 -0.4202
10079SOL    HW131678   3.350   0.400   1.010 -0.3236 -0.6367 -0.7337
10079SOL    HW231679   3.244   0.305   1.062 -0.2682 -0.2329  0.1275
10080SOL     OW31680   1.917   7.668   0.173  0.4966 -0.2299 -0.0155
10080SOL    HW131681   1.952   7.681   0.261 -0.9944 -2.8554  1.0691
10080SOL    HW231682   1.988   7.625   0.125  0.5384 -0.8865  0.6212
10081SOL     OW31683   2.003   7.968   1.870 -0.1461  0.3069  0.3015
10081SOL    HW131684   2.001   7.898   1.936 -0.7105 -0.8592 -0.9037
10081SOL    HW231685   2.096   7.982   1.852  0.0116  0.5476  1.2217
10082SOL     OW31686   2.659   6.882   0.261 -0.6085  0.1439  0.6076
10082SOL    HW131687   2.723   6.839   0.319  0.2921 -1.3184 -1.3473
10082SOL    HW231688   2.645   6.819   0.190 -0.3328  2.4757 -1.6830
10083SOL     OW31689   2.923   7.841   1.509 -0.4000 -0.0873 -0.1372
10083SOL    HW131690   2.980   7.766   1.523 -1.2468 -0.7769 -0.2799
10083SOL    HW231691   2.859   7.811   1.444 -0.7031  0.7857 -0.2582
10084SOL     OW31692   3.894   6.379   1.718 -0.0240  0.0537  0.1630
10084SOL    HW131693   3.868   6.339   1.801  0.6266 -0.9283 -0.0930
10084SOL    HW231694   3.940   6.309   1.670 -0.1918  0.6614 -0.9323
10085SOL     OW31695   4.432   6.820   2.060  0.3848 -0.0018 -0.1359
10085SOL    HW131696   4.500   6.884   2.045  0.0293  0.5736  0.6147
10085SOL    HW231697   4.452   6.783   2.146  0.3014 -0.5307 -0.3384
10086SOL     OW31698   3.522   6.644   0.036 -0.0751  0.1402  0.2106
10086SOL    HW131699   3.610   6.677   0.053 -0.5130  0.5229  1.8587
10086SOL    HW231700   3.491   6.610   0.120 -0.7215 -1.9537 -0.8047
10087SOL     OW31701   3.296   7.628   2.466 -0.1886 -0.0036 -0.3116
10087SOL    HW131702   3.379   7.588   2.440 -0.2336 -0.4267  0.1691
10087SOL    HW231703   3.310   7.654   2.557  0.3672  2.5139 -1.0325
10088SOL     OW31704   2.655   6.517  12.381  0.3484 -0.1315 -0.2439
10088SOL    HW131705   2.652   6.561  12.466 -0.7476  0.0550 -0.3639
10088SOL    HW231706   2.695   6.432  12.399 -1.7346 -0.9544  0.8781
10089SOL     OW31707   2.620   1.426   1.842 -0.5148 -0.1112 -0.1145
10089SOL    HW131708   2.649   1.338   1.818 -1.4170 -0.6845  0.8117
10089SOL    HW231709   2.546   1.442   1.783 -1.3620 -0.6397  0.7821
10090SOL     OW31710   2.114   6.592   1.834  0.5894  0.2184 -0.3198
10090SOL    HW131711   2.125   6.563   1.925 -3.3841  2.7200  1.2288
10090SOL    HW231712   2.070   6.519   1.791 -1.1058  0.4363  0.9561
10091SOL     OW31713   3.671   1.153   1.781 -0.3538 -0.2956  0.3404
10091SOL    HW131714   3.608   1.117   1.718 -0.5142  0.7400 -0.1163
10091SOL    HW231715   3.711   1.226   1.735 -0.4262  0.4496  1.4214
10092SOL     OW31716   1.346   5.721   0.296  0.2253  0.3796 -0.4130
10092SOL    HW131717   1.314   5.650   0.240  0.0900  0.6758 -0.7160
10092SOL    HW231718   1.307   5.800   0.258  0.4784  0.6285 -0.1539
10093SOL     OW31719   3.066   7.075   0.688  0.1135  0.1478  0.0595
10093SOL    HW131720   3.081   7.088   0.594  2.0386 -1.1370  0.1375
10093SOL    HW231721   3.131   7.010   0.714 -1.8763 -1.2573  1.8522
10094SOL     OW31722   1.585   7.179   1.264  0.4949 -0.3441  0.1353
10094SOL    HW131723   1.553   7.130   1.339  1.0326 -0.1602  0.4895
10094SOL    HW231724   1.543   7.138   1.188 -1.0520  0.2599  0.6241
10095SOL     OW31725   5.162   6.165   1.430 -0.9825  0.0343  0.2167
10095SOL    HW131726   5.216   6.244   1.438 -0.2381 -0.2222 -1.6236
10095SOL    HW231727   5.094   6.190   1.367 -0.2269 -0.9981 -1.0607
10096SOL     OW31728   3.176   0.385   0.508  0.0605  0.2145  0.1031
10096SOL    HW131729   3.122   0.428   0.574 -0.3542  1.3564 -0.9428
10096SOL    HW231730   3.137   0.298   0.498 -2.1923  1.2826 -1.2278
10097SOL     OW31731   1.018   7.075   1.640  0.7034 -0.1347 -0.3002
10097SOL    HW131732   0.950   7.032   1.691 -1.7156  1.6008 -1.8533
10097SOL    HW231733   1.097   7.067   1.693 -1.4004  0.7401  3.2732
10098SOL     OW31734   2.492   6.020   1.708  0.1733  0.0057 -0.5106
10098SOL    HW131735   2.489   6.015   1.804 -0.4842 -0.5040 -0.5518
10098SOL    HW231736   2.406   5.990   1.680 -0.7019  2.7693 -1.1593
10099SOL     OW31737   1.485   6.481   0.525  0.3581 -0.2529 -0.4218
10099SOL    HW131738   1.477   6.558   0.469  0.4473  0.7881  0.9298
10099SOL    HW231739   1.515   6.516   0.609  0.5505 -1.7928  0.1885
10100SOL     OW31740   2.426   5.241  12.184  0.4006  0.2227 -0.1971
10100SOL    HW131741   2.449   5.329  12.155 -0.3222  0.7409  0.7451
10100SOL    HW231742   2.502   5.188  12.162  1.1318  1.2292 -0.1582
10101SOL     OW31743   2.281   0.418   1.636  0.2852  0.3712 -0.1385
10101SOL    HW131744   2.217   0.374   1.580 -0.0419 -0.9132  1.1834
10101SOL    HW231745   2.314   0.490   1.583  0.6673 -1.3031 -2.3235
10102SOL     OW31746   3.149   6.512   0.928  0.4304 -0.2731 -0.0482
10102SOL    HW131747   3.145   6.472   0.842  0.9535 -0.5555  0.0506
10102SOL    HW231748   3.063   6.496   0.967  0.2556 -0.3035 -0.4402
10103SOL     OW31749   4.254   7.832  11.263  0.2334 -0.5384  0.5000
10103SOL    HW131750   4.277   7.921  11.290 -0.4976 -0.1722 -0.0412
10103SOL    HW231751   4.291   7.824  11.175  1.8390 -1.4090  1.2163
10104SOL     OW31752   1.597   5.258   0.784  0.2486  0.0672 -0.2490
10104SOL    HW131753   1.605   5.353   0.792 -0.4799  0.0393  1.0679
10104SOL    HW231754   1.614   5.225   0.872 -2.3492 -0.7780  0.0301
10105SOL     OW31755   3.675   0.689   1.966 -0.0142 -0.2726 -0.2354
10105SOL    HW131756   3.612   0.732   2.024  0.6131  1.0968 -0.5349
10105SOL    HW231757   3.693   0.754   1.898  1.0304 -0.9882 -0.6638
10106SOL     OW31758   2.013   0.429   3.807 -0.0208 -0.0404  0.1013
10106SOL    HW131759   2.046   0.475   3.884  0.4802  0.0346 -0.1551
10106SOL    HW231760   1.962   0.356   3.843 -1.3309  1.0375  0.5176
10107SOL     OW31761   3.380   3.902   2.678  0.2358 -0.0078  0.1879
10107SOL    HW131762   3.406   3.983   2.722 -1.3471  0.7973 -0.2777
10107SOL    HW231763   3.316   3.930   2.612  1.8531 -1.2747 -2.0626
10108SOL     OW31764   2.804   4.804   0.176  0.3534  0.3649  0.0237
10108SOL    HW131765   2.886   4.851   0.187 -0.2427  1.8568 -1.4804
10108SOL    HW231766   2.822   4.739   0.108  0.5157  0.0998  0.3195
10109SOL     OW31767   4.347   7.824  11.600 -0.4987  0.0102 -0.3733
10109SOL    HW131768   4.440   7.803  11.593 -0.3868  0.7888 -1.4404
10109SOL    HW231769   4.335   7.844  11.693  0.0878 -1.3993  0.0381
10110SOL     OW31770   2.221   6.811   0.970 -0.0426 -0.0693 -0.2576
10110SOL    HW131771   2.137   6.845   0.939  0.3603  0.6176 -0.6028
10110SOL    HW231772   2.255   6.760   0.896 -0.6355 -1.2616  0.2494
10111SOL     OW31773   3.149   7.327   1.065  0.1230  0.4922  0.1071
10111SOL    HW131774   3.118   7.237   1.072  0.1489  0.3482 -1.2658
10111SOL    HW231775   3.226   7.330   1.122  1.9111 -1.2492 -1.9707
10112SOL     OW31776   1.962   7.908  12.385 -0.0558 -0.1270 -0.0184
10112SOL    HW131777   2.008   7.827  12.368  1.0353  0.4491  0.0794
10112SOL    HW231778   1.879   7.899  12.339 -1.1431 -2.3725  2.1368
10113SOL     OW31779   1.825   6.075   1.358  0.6760 -0.1271  0.6062
10113SOL    HW131780   1.830   5.983   1.383 -1.6582 -0.9409 -1.4597
10113SOL    HW231781   1.907   6.092   1.312  0.6472 -1.5633 -0.0259
10114SOL     OW31782   2.023   5.096  12.125 -0.5573 -0.3560  0.4949
10114SOL    HW131783   1.932   5.124  12.131 -0.6908 -0.6095 -0.2396
10114SOL    HW231784   2.071   5.158  12.180 -1.0571  0.3194  0.1808
10115SOL     OW31785   2.394   6.187   0.064  0.0076 -0.3429  0.4421
10115SOL    HW131786   2.478   6.151   0.093 -0.2973 -0.3747  1.3224
10115SOL    HW231787   2.330   6.119   0.085 -0.4755  0.3947  1.4313
10116SOL     OW31788   5.237   6.605   0.585  0.4616  0.2423 -0.0572
10116SOL    HW131789   5.165   6.542   0.583  1.0943 -0.4773 -1.2931
10116SOL    HW231790   5.281   6.589   0.668  0.1369 -0.3857 -0.0021
10117SOL     OW31791   2.615   7.449   2.176 -0.3508  0.8388 -0.5690
10117SOL    HW131792   2.596   7.511   2.106 -0.4578  0.5056 -0.8383
10117SOL    HW231793   2.530   7.419   2.205 -0.3034 -1.4698 -2.5037
10118SOL     OW31794   2.313   5.135  11.873  0.1447 -0.0765 -0.5209
10118SOL    HW131795   2.291   5.201  11.939  2.2040 -0.8629  1.0666
10118SOL    HW231796   2.252   5.063  11.890  0.7617 -0.3384  0.6805
10119SOL     OW31797   3.887   7.776   0.518 -0.8111 -0.0674 -0.0980
10119SOL    HW131798   3.882   7.852   0.576 -1.4061 -0.8922  0.9713
10119SOL    HW231799   3.853   7.703   0.571 -0.3330 -1.0620 -1.1227
10120SOL     OW31800   3.360   6.689   0.570  0.1530 -0.4129 -0.0265
10120SOL    HW131801   3.325   6.691   0.481 -0.5964 -0.5010  0.2621
10120SOL    HW231802   3.451   6.719   0.561 -0.1589  0.3543 -0.7100
10121SOL     OW31803   1.178   5.327  12.213  0.1123 -0.3057  0.1682
10121SOL    HW131804   1.095   5.288  12.186  0.5713 -0.7971 -0.5840
10121SOL    HW231805   1.191   5.401  12.153 -0.0085  0.0718  0.5984
10122SOL     OW31806   5.187   6.727  12.432  0.1431 -0.4222 -0.2462
10122SOL    HW131807   5.212   6.816  12.409 -0.7287 -0.0972  0.0124
10122SOL    HW231808   5.190   6.679  12.350  1.3209 -0.3301 -0.2621
10123SOL     OW31809   3.556   0.235  12.094  0.3744 -0.0007  0.1436
10123SOL    HW131810   3.532   0.205  12.182  2.5760  1.1962  1.2319
10123SOL    HW231811   3.651   0.236  12.094  0.4432 -0.3061 -2.4225
10124SOL     OW31812   1.592   7.267   0.340 -0.5589 -0.0083  0.0112
10124SOL    HW131813   1.539   7.265   0.420  0.1571  1.5147  0.5601
10124SOL    HW231814   1.651   7.341   0.353  1.4304 -1.3945 -0.7509
10125SOL     OW31815   2.124   6.026   0.110 -0.1778  0.0690 -0.1232
10125SOL    HW131816   2.043   6.029   0.162  0.3779  1.6382  0.7200
10125SOL    HW231817   2.166   5.945   0.137 -0.0740  0.6668  1.6988
10126SOL     OW31818   3.166   6.545   0.019  0.6725  0.1206  0.6729
10126SOL    HW131819   3.166   6.450   0.007  0.9345  0.1340  0.5613
10126SOL    HW231820   3.197   6.579  -0.065  0.3105  0.3173  0.6193
10127SOL     OW31821   1.950   7.085  11.817 -0.0283 -0.4265  0.0421
10127SOL    HW131822   1.916   7.116  11.901  0.7072 -0.1695  0.2520
10127SOL    HW231823   2.021   7.146  11.796  0.1525 -0.8182 -0.4994
10128SOL     OW31824   3.022   7.361   0.789  0.2474 -0.2807  0.0715
10128SOL    HW131825   3.070   7.365   0.872  0.9790 -0.3270 -0.3397
10128SOL    HW231826   3.019   7.267   0.768 -0.6324 -0.3422  0.4357
10129SOL     OW31827   2.220   7.112  12.141  0.4077 -0.4652 -0.3707
10129SOL    HW131828   2.294   7.091  12.084  2.2648  0.1586  1.6844
10129SOL    HW231829   2.198   7.203  12.120 -0.4674 -0.9524 -1.6651
10130SOL     OW31830   2.311   5.490  10.766  0.8191 -0.7360  0.4192
10130SOL    HW131831   2.286   5.471  10.675 -0.3755  0.9553  0.3487
10130SOL    HW231832   2.329   5.403  10.804 -0.0356 -1.5984 -1.0364
10131SOL     OW31833   3.182   5.666   1.269 -0.4140  0.0319 -0.8432
10131SOL    HW131834   3.277   5.679   1.264 -0.4737  0.1995 -1.6676
10131SOL    HW231835   3.154   5.662   1.178 -0.8191 -2.8511 -0.6905
10132SOL     OW31836   1.808   5.475   0.393 -0.6761 -0.0652  0.4059
10132SOL    HW131837   1.847   5.475   0.305  0.9734 -0.4797  1.0883
10132SOL    HW231838   1.715   5.492   0.379 -0.1206  1.9262 -1.2780
10133SOL     OW31839   2.450   7.264  12.042 -0.0462 -0.0099  0.1274
10133SOL    HW131840   2.433   7.342  11.988  2.8034  0.9084  0.4090
10133SOL    HW231841   2.508   7.210  11.988 -0.3753 -1.0055  0.7447
10134SOL     OW31842   2.550   5.315   1.062  0.5622  0.0286  0.4799
10134SOL    HW131843   2.538   5.381   1.129 -0.9357 -0.1785  0.4617
10134SOL    HW231844   2.462   5.279   1.047  0.9149 -0.2366 -1.2661
10135SOL     OW31845   1.419   5.666   2.129  0.1964  0.3458  0.2245
10135SOL    HW131846   1.479   5.639   2.200  0.7782 -0.3828 -0.5255
10135SOL    HW231847   1.463   5.638   2.049 -0.8189  0.4615 -0.3865
10136SOL     OW31848   1.662   6.576   1.934 -0.3065 -0.0896  0.1138
10136SOL    HW131849   1.617   6.512   1.989  0.4969  0.3575  1.3393
10136SOL    HW231850   1.737   6.528   1.898  0.6125  0.2717  1.4767
10137SOL     OW31851   4.626   5.972   5.005  0.2084 -0.4092 -0.5345
10137SOL    HW131852   4.642   5.987   4.911  1.0523  0.0169 -0.3334
10137SOL    HW231853   4.582   6.052   5.034 -0.9738 -0.9486 -0.7589
10138SOL     OW31854   4.098   4.874   2.086  0.0059 -0.5879  0.2022
10138SOL    HW131855   4.108   4.924   2.167  0.8800 -0.4909  0.0534
10138SOL    HW231856   4.184   4.882   2.043 -0.5447 -0.3546 -0.8914
10139SOL     OW31857   0.919   5.697   1.496  0.0101  0.4608 -0.5975
10139SOL    HW131858   0.963   5.765   1.548 -0.0379  1.0395 -1.2887
10139SOL    HW231859   0.854   5.746   1.445 -0.3252 -0.1726 -0.7767
10140SOL     OW31860   2.815   7.657   1.948  0.0148 -0.3456  0.2161
10140SOL    HW131861   2.735   7.632   1.902  0.0209  1.0139 -0.5846
10140SOL    HW231862   2.784   7.693   2.031 -0.1574 -0.4705  0.2069
10141SOL     OW31863   2.536   6.802   3.730  0.0593  0.4834  0.2321
10141SOL    HW131864   2.609   6.763   3.682 -0.3942 -0.2885  0.1574
10141SOL    HW231865   2.469   6.818   3.664  0.4055  1.8425  0.1808
10142SOL     OW31866   1.282   6.647   4.574  0.6054  0.1593  0.0622
10142SOL    HW131867   1.259   6.697   4.495  1.3617 -0.0675 -0.3043
10142SOL    HW231868   1.314   6.563   4.541  2.1511  0.5358  0.5505
10143SOL     OW31869   2.044   7.355   1.497  0.1786 -0.1431  0.4185
10143SOL    HW131870   1.955   7.341   1.529  0.0800  2.4044  1.5798
10143SOL    HW231871   2.095   7.377   1.576  1.2454  0.8122 -0.4841
10144SOL     OW31872   1.295   6.326   3.699 -0.0664  0.0771  0.3850
10144SOL    HW131873   1.246   6.395   3.654  2.1076  0.3958 -1.6847
10144SOL    HW231874   1.317   6.362   3.784  0.7000  1.8061 -0.5147
10145SOL     OW31875   2.261   6.659   2.732  0.1810  0.1463 -0.0088
10145SOL    HW131876   2.294   6.607   2.805 -1.6672 -2.8153 -1.1073
10145SOL    HW231877   2.195   6.716   2.771  0.8718  0.3186  0.9512
10146SOL     OW31878   2.501   5.947   3.985 -0.2463 -0.1700 -0.0905
10146SOL    HW131879   2.494   5.968   4.078  0.3202 -0.5447  0.0407
10146SOL    HW231880   2.573   6.002   3.953 -1.1447  0.7663 -0.5569
10147SOL     OW31881   2.893   6.865   1.370 -0.5771  0.4486 -0.0224
10147SOL    HW131882   2.867   6.796   1.430  0.0382  0.8502  0.7176
10147SOL    HW231883   2.913   6.940   1.426 -1.1110  1.1913 -0.8005
10148SOL     OW31884   2.076   7.612   1.356 -0.4770 -0.3130 -0.2236
10148SOL    HW131885   2.060   7.541   1.419 -0.7249 -0.2802 -0.2485
10148SOL    HW231886   2.109   7.684   1.409  1.0455 -0.8632 -0.3562
10149SOL     OW31887   4.446   7.232   3.977 -0.4184  0.0680  0.6726
10149SOL    HW131888   4.408   7.308   3.933  1.3045  0.9860  0.6577
10149SOL    HW231889   4.534   7.262   4.003 -0.6174 -1.1052  2.8952
10150SOL     OW31890   2.794   6.405   0.779  0.0261 -0.1045  0.2724
10150SOL    HW131891   2.832   6.486   0.814 -0.3553 -0.0451  0.5654
10150SOL    HW231892   2.869   6.351   0.757  0.3071  0.7489 -0.9453
10151SOL     OW31893   1.223   5.987   2.975  0.0390  0.2263  0.2506
10151SOL    HW131894   1.223   5.972   3.069  0.0779  1.1048  0.3976
10151SOL    HW231895   1.137   6.025   2.956 -1.1104 -2.5140 -0.5232
10152SOL     OW31896   2.475   6.559   4.254 -0.0533  0.1129  0.0047
10152SOL    HW131897   2.523   6.610   4.320  1.7885 -1.5395  0.0679
10152SOL    HW231898   2.491   6.468   4.279  0.0938 -0.5556 -2.2884
10153SOL     OW31899   3.182   4.554   3.353  0.5998  0.1279 -0.2017
10153SOL    HW131900   3.272   4.546   3.385  0.3891 -0.3964  0.2788
10153SOL    HW231901   3.183   4.510   3.268  0.6864 -0.2953  0.0176
10154SOL     OW31902   2.353   6.047   3.354  0.2372 -0.2285 -0.5739
10154SOL    HW131903   2.438   6.066   3.394  0.8868 -1.3953 -1.3761
10154SOL    HW231904   2.339   6.120   3.293  0.2926  0.3615  0.0968
10155SOL     OW31905   4.256   0.380   2.003 -0.5564  0.4802  0.4991
10155SOL    HW131906   4.310   0.306   1.978 -0.1306  0.4496  1.4794
10155SOL    HW231907   4.313   0.457   1.988 -0.6956  0.5478  0.3101
10156SOL     OW31908   3.937   6.952   3.124  0.0110 -0.0966 -0.0149
10156SOL    HW131909   3.900   6.868   3.098  1.1642 -1.5990  2.8447
10156SOL    HW231910   3.941   6.949   3.219  1.5286  2.5785  0.1119
10157SOL     OW31911   2.444   7.651   2.869  0.0626 -0.0289 -0.1815
10157SOL    HW131912   2.425   7.581   2.805 -2.5219 -2.1239  2.5535
10157SOL    HW231913   2.425   7.732   2.822 -0.3341 -1.3574 -2.4879
10158SOL     OW31914   3.091   5.670   4.056  0.1573  0.4451  0.2131
10158SOL    HW131915   3.081   5.597   3.995 -0.7940 -1.2626  2.2801
10158SOL    HW231916   3.035   5.739   4.021 -1.8732 -1.1818  0.0969
10159SOL     OW31917   1.024   5.547   1.277 -0.4927  0.0250  0.2503
10159SOL    HW131918   1.055   5.458   1.296 -0.4412 -0.0415 -0.1315
10159SOL    HW231919   0.981   5.575   1.358 -0.7143 -0.4362  0.2995
10160SOL     OW31920   2.287   7.141   4.289 -0.1357  0.3736 -0.1413
10160SOL    HW131921   2.350   7.181   4.350  1.4629 -0.2604 -1.2943
10160SOL    HW231922   2.287   7.199   4.213 -0.4797  0.0529 -0.3904
10161SOL     OW31923   3.099   6.272   1.487  0.6923  0.2965  0.4646
10161SOL    HW131924   3.142   6.196   1.527  2.8701  1.4853  0.5430
10161SOL    HW231925   3.169   6.318   1.441 -0.1621  3.0944  1.7003
10162SOL     OW31926   1.583   4.877   3.433 -0.0962  0.0769  0.6373
10162SOL    HW131927   1.656   4.846   3.487 -0.9637 -0.9603  1.2638
10162SOL    HW231928   1.563   4.802   3.376  0.8136  1.1533 -1.2014
10163SOL     OW31929   2.065   6.845   1.735 -0.4343 -0.2219  0.3179
10163SOL    HW131930   2.090   6.769   1.787 -0.8723  0.1841  1.1416
10163SOL    HW231931   1.973   6.829   1.712 -0.3289 -0.2592 -0.0924
10164SOL     OW31932   2.256   5.784   3.474 -0.5746 -0.0616 -0.3733
10164SOL    HW131933   2.252   5.866   3.424 -1.0169 -0.1067 -0.4140
10164SOL    HW231934   2.350   5.767   3.484 -0.4710  0.7165  0.0752
10165SOL     OW31935   1.444   4.931   3.050 -0.1755 -0.8596 -0.0345
10165SOL    HW131936   1.460   4.846   3.009 -0.5206 -1.5094  1.1325
10165SOL    HW231937   1.366   4.917   3.105 -0.0636  0.1254  0.3987
10166SOL     OW31938   3.933   7.388   3.540 -0.4352  0.7559 -0.2290
10166SOL    HW131939   3.880   7.325   3.589 -1.4605  2.6601  1.2746
10166SOL    HW231940   3.923   7.362   3.448 -0.8494 -1.2010  0.3364
10167SOL     OW31941   5.110   5.859   0.545 -0.2639 -0.0317  0.0712
10167SOL    HW131942   5.205   5.871   0.541 -0.1385 -0.8499  0.4549
10167SOL    HW231943   5.075   5.935   0.499  0.5725  0.3336  0.0115
10168SOL     OW31944   2.867   6.393   3.448 -0.2805  0.4941 -0.0868
10168SOL    HW131945   2.855   6.307   3.408 -1.3659  0.4737  0.2701
10168SOL    HW231946   2.939   6.380   3.510 -1.1291 -0.4256  0.7329
10169SOL     OW31947   2.246   5.579   3.840 -0.2662  0.5533 -0.3868
10169SOL    HW131948   2.204   5.498   3.810 -0.6127  0.0559  1.3317
10169SOL    HW231949   2.183   5.616   3.903  0.6449  1.2658  0.1211
10170SOL     OW31950   3.526   6.673   2.346 -0.3957 -0.3617  0.1048
10170SOL    HW131951   3.456   6.621   2.307 -1.1375  0.2445  0.6197
10170SOL    HW231952   3.575   6.707   2.271  0.3622 -2.0996 -0.2619
10171SOL     OW31953   2.665   5.427   3.202  0.7356  0.1005 -0.0380
10171SOL    HW131954   2.725   5.355   3.182 -0.0769 -1.0120  1.4056
10171SOL    HW231955   2.652   5.471   3.117  0.8946 -1.7120 -1.0546
10172SOL     OW31956   4.394   6.316   3.862 -0.0641 -0.1234 -0.6765
10172SOL    HW131957   4.361   6.248   3.920 -0.3547  1.4548  1.1231
10172SOL    HW231958   4.322   6.378   3.853  0.9879  1.2448 -0.1373
10173SOL     OW31959   4.227   7.543   3.275  0.2651  0.2860 -0.6129
10173SOL    HW131960   4.208   7.482   3.203  0.4903  0.8769 -1.1868
10173SOL    HW231961   4.267   7.489   3.343  1.0433 -0.1144 -1.3637
10174SOL     OW31962   3.061   7.308   3.509  0.8205  0.0141 -0.2014
10174SOL    HW131963   3.155   7.305   3.495  0.9531 -1.2549  0.7854
10174SOL    HW231964   3.027   7.229   3.467  0.1284  0.6591 -0.8970
10175SOL     OW31965   2.052   6.931   2.252 -0.2582  0.3253  0.1578
10175SOL    HW131966   1.995   6.897   2.183 -0.7618  0.5165  0.4776
10175SOL    HW231967   2.130   6.963   2.206 -0.8129  0.9303 -0.3782
10176SOL     OW31968   2.320   5.095   2.458 -0.0822 -0.3804 -0.4887
10176SOL    HW131969   2.384   5.166   2.458 -0.9336  0.4507 -1.9949
10176SOL    HW231970   2.268   5.109   2.379 -2.3827 -0.7968  0.8365
10177SOL     OW31971   1.958   5.667   4.532 -0.3097 -0.1141  0.5355
10177SOL    HW131972   1.909   5.644   4.453  0.5245 -0.4142  0.0943
10177SOL    HW231973   1.897   5.718   4.584 -0.9167 -0.0260 -0.2476
10178SOL     OW31974   2.672   7.801   2.145 -0.1076  0.9415  0.3450
10178SOL    HW131975   2.598   7.751   2.110  0.3627  0.8657 -0.5738
10178SOL    HW231976   2.654   7.892   2.119 -0.8608  1.2407  1.8385
10179SOL     OW31977   3.642   6.164   4.862 -0.1801  0.3005 -0.3715
10179SOL    HW131978   3.547   6.173   4.855 -0.2772 -0.1164  0.2563
10179SOL    HW231979   3.655   6.089   4.921  0.5378  0.1916 -0.6494
10180SOL     OW31980   4.286   6.616   3.442 -0.2399  0.4844 -0.3950
10180SOL    HW131981   4.286   6.650   3.531  0.1207  2.2223 -1.0163
10180SOL    HW231982   4.328   6.531   3.449  1.1403  1.2285  0.8816
10181SOL     OW31983   3.150   3.946   2.518  0.7274  0.0867 -0.5933
10181SOL    HW131984   3.108   4.017   2.470 -0.7176  0.5255  1.1765
10181SOL    HW231985   3.111   3.951   2.606  2.2111 -1.5236  0.2109
10182SOL     OW31986   3.457   5.931   3.518  0.0365 -0.2140 -0.7265
10182SOL    HW131987   3.503   5.939   3.434 -1.0029  1.4709 -1.1916
10182SOL    HW231988   3.377   5.882   3.496 -0.0576 -0.0951 -0.6497
10183SOL     OW31989   3.072   0.347   3.635 -0.2121  0.0222  0.2645
10183SOL    HW131990   3.032   0.429   3.606 -1.2761 -1.2722 -2.2202
10183SOL    HW231991   3.021   0.279   3.592  1.9422 -1.8881  0.5425
10184SOL     OW31992   2.029   6.117   2.743 -0.5951  0.1823  0.1141
10184SOL    HW131993   2.010   6.209   2.729 -0.2163  0.0180 -1.7021
10184SOL    HW231994   1.948   6.072   2.720 -0.4973 -0.0070  0.1372
10185SOL     OW31995   3.167   6.405   4.562 -0.0689 -0.0361  0.2257
10185SOL    HW131996   3.250   6.451   4.569 -0.8370  1.3141  0.9571
10185SOL    HW231997   3.151   6.369   4.649  1.7870 -4.2001 -0.8968
10186SOL     OW31998   2.591   7.805   1.642  0.1186  0.9226 -0.0147
10186SOL    HW131999   2.623   7.776   1.557 -0.8437  2.8195 -1.1032
10186SOL    HW232000   2.501   7.772   1.647  0.3018  0.4806  0.4505
10187SOL     OW32001   4.878   7.385   2.843 -0.0811  0.1152  0.8019
10187SOL    HW132002   4.823   7.448   2.796  1.1802  1.5069  1.1397
10187SOL    HW232003   4.968   7.413   2.826  0.4657 -0.4974  2.4475
10188SOL     OW32004   2.588   6.804   3.223  0.0960 -0.1207 -0.2183
10188SOL    HW132005   2.627   6.868   3.164 -2.1537  0.7674 -0.8261
10188SOL    HW232006   2.649   6.730   3.221  0.4731  0.1726 -3.0544
10189SOL     OW32007   4.418   0.387   3.136 -0.6951 -0.2761 -0.2667
10189SOL    HW132008   4.484   0.320   3.151 -0.2105  0.0631 -0.8336
10189SOL    HW232009   4.380   0.404   3.222 -1.3007 -1.7536 -0.2054
10190SOL     OW32010   1.757   6.029   2.680 -0.2471  0.1937  0.4386
10190SOL    HW132011   1.694   6.097   2.657 -2.4342 -1.7211  0.3070
10190SOL    HW232012   1.743   6.014   2.774  0.0568 -0.2232  0.4196
10191SOL     OW32013   1.878   6.424   1.803  0.0368  0.4441 -0.3774
10191SOL    HW132014   1.930   6.349   1.772 -0.3174  0.0368 -0.0122
10191SOL    HW232015   1.788   6.402   1.779  0.0875  1.4506 -1.5951
10192SOL     OW32016   3.155   6.793   1.968  0.6249  0.1017  0.6299
10192SOL    HW132017   3.204   6.872   1.948  0.1846 -0.1690 -1.8206
10192SOL    HW232018   3.222   6.728   1.990  1.2923  0.2001 -0.9836
10193SOL     OW32019   2.105   0.527   3.581  0.9229 -0.3753  0.0351
10193SOL    HW132020   2.063   0.476   3.650 -0.6664  1.8787  0.8550
10193SOL    HW232021   2.196   0.498   3.581  0.3611 -2.3048  1.2382
10194SOL     OW32022   1.663   5.790   4.422  0.1178  0.3380 -0.2108
10194SOL    HW132023   1.687   5.732   4.349 -1.7176  0.3754 -0.9174
10194SOL    HW232024   1.581   5.752   4.456 -0.4091  1.7543  0.1785
10195SOL     OW32025   3.875   6.367   3.316  0.1854 -0.4732  0.0013
10195SOL    HW132026   3.894   6.443   3.262  0.6395 -0.1059  0.6777
10195SOL    HW232027   3.922   6.295   3.273 -0.6397 -0.4917 -0.9171
10196SOL     OW32028   2.187   7.044   3.677  0.7652 -0.0705  0.0468
10196SOL    HW132029   2.200   7.030   3.583 -0.3956 -0.0879 -0.1195
10196SOL    HW232030   2.098   7.014   3.694  0.8114  0.3442  1.0741
10197SOL     OW32031   1.805   6.581   2.380  0.5569 -0.4243 -0.3782
10197SOL    HW132032   1.850   6.612   2.301 -0.6974  1.4847 -0.4114
10197SOL    HW232033   1.716   6.617   2.372  0.0526 -1.1975  1.3459
10198SOL     OW32034   2.056   5.196   3.553 -0.4864  0.4255 -0.1874
10198SOL    HW132035   1.991   5.241   3.499  0.0446  0.6484 -0.6475
10198SOL    HW232036   2.120   5.162   3.491 -0.0293  0.4217  0.2783
10199SOL     OW32037   2.393   6.610   2.951 -0.3374  0.4375 -0.1710
10199SOL    HW132038   2.451   6.685   2.940 -0.7075  0.7885  0.2713
10199SOL    HW232039   2.453   6.535   2.959  0.0515  0.7729  0.1191
10200SOL     OW32040   4.085   6.494   3.801 -0.6014 -0.0598  0.1938
10200SOL    HW132041   3.999   6.480   3.841 -0.5319 -1.1613 -0.0271
10200SOL    HW232042   4.084   6.439   3.723  1.2559 -2.1769  1.5524
10201SOL     OW32043   3.555   0.506   2.676 -0.0153  0.1547 -0.2472
10201SOL    HW132044   3.588   0.524   2.764 -0.4147 -0.3133 -0.0013
10201SOL    HW232045   3.630   0.523   2.619 -0.3714  2.7578 -0.0682
10202SOL     OW32046   1.230   5.294   3.770 -0.3473 -0.0728 -0.5888
10202SOL    HW132047   1.312   5.312   3.816 -0.6607  1.2684 -0.5087
10202SOL    HW232048   1.251   5.307   3.677 -0.9001  2.2914 -0.4473
10203SOL     OW32049   3.770   7.568   0.713  0.2226  0.4715 -0.1796
10203SOL    HW132050   3.703   7.513   0.754 -1.2885  1.6076 -0.9685
10203SOL    HW232051   3.852   7.521   0.725 -0.9963 -1.9943 -0.9190
10204SOL     OW32052   3.860   6.934   0.815  0.1425  0.2366 -0.0429
10204SOL    HW132053   3.829   6.919   0.904 -0.1440  1.3509  0.0644
10204SOL    HW232054   3.845   6.851   0.770 -1.1113  0.1214  0.5418
10205SOL     OW32055   2.289   5.246   1.097 -0.5345 -0.4386 -0.3809
10205SOL    HW132056   2.212   5.238   1.041  0.5209 -1.0194 -1.7905
10205SOL    HW232057   2.266   5.315   1.159 -1.4779  0.7071 -1.9545
10206SOL     OW32058   3.355   5.145   3.433 -0.6831 -0.3567  0.0234
10206SOL    HW132059   3.447   5.137   3.456 -1.5814 -0.7836  4.3438
10206SOL    HW232060   3.328   5.056   3.409 -0.0257 -0.2106 -1.3590
10207SOL     OW32061   2.436   7.096   3.759 -0.5777  0.1373  0.1139
10207SOL    HW132062   2.349   7.069   3.728 -0.5995 -0.9226  1.0525
10207SOL    HW232063   2.462   7.166   3.698 -3.0240  2.0940  1.1202
10208SOL     OW32064   1.493   7.756   2.285 -0.2727  0.0228  0.3405
10208SOL    HW132065   1.553   7.781   2.215  1.4437 -2.0338  0.9553
10208SOL    HW232066   1.497   7.828   2.348  2.1417 -0.3289  0.6851
10209SOL     OW32067   3.666   6.451   3.121 -0.0490  0.5704 -0.7021
10209SOL    HW132068   3.608   6.456   3.197  0.3830 -2.1500 -0.1023
10209SOL    HW232069   3.747   6.414   3.155  0.1954 -0.6028 -2.4643
10210SOL     OW32070   2.869   6.657   2.957  0.3564  0.4127  0.6345
10210SOL    HW132071   2.841   6.717   2.887  1.8799 -0.6782 -0.9701
10210SOL    HW232072   2.840   6.571   2.927  0.0438  0.0501  1.9238
10211SOL     OW32073   2.193   5.883   2.055 -0.3857 -0.0580  0.8269
10211SOL    HW132074   2.150   5.819   2.112  0.6379 -1.1776  0.3790
10211SOL    HW232075   2.271   5.838   2.022 -1.0329  0.4487 -1.6275
10212SOL     OW32076   2.626   5.566   2.698  0.0817 -0.3478 -0.0069
10212SOL    HW132077   2.608   5.638   2.637  0.8961  0.3162  0.5078
10212SOL    HW232078   2.596   5.488   2.652 -1.6114  0.3879 -0.2504
10213SOL     OW32079   1.903   6.599   2.926  0.0198 -0.6812 -0.6684
10213SOL    HW132080   1.858   6.660   2.868 -0.4578  1.3812  1.6846
10213SOL    HW232081   1.993   6.634   2.932  0.5812 -1.9153 -1.5002
10214SOL     OW32082   3.745   6.437   3.575 -0.3298 -0.2087 -0.1526
10214SOL    HW132083   3.743   6.399   3.487 -1.0620 -2.0360  0.6115
10214SOL    HW232084   3.669   6.495   3.578  1.1109  1.9170 -1.5208
10215SOL     OW32085   3.255   7.996   3.401 -0.6248 -0.2487  0.8922
10215SOL    HW132086   3.329   7.939   3.382  0.5141  1.8915 -1.8633
10215SOL    HW232087   3.187   7.967   3.340 -1.0899 -0.4807  1.5149
10216SOL     OW32088   3.892   6.275   0.747 -0.4325 -0.4774 -0.5164
10216SOL    HW132089   3.928   6.230   0.824  1.8452  2.4415  0.3212
10216SOL    HW232090   3.940   6.237   0.674 -2.2378 -2.9009 -0.5764
10217SOL     OW32091   4.141   6.491   2.209 -0.1840  0.2031  0.1806
10217SOL    HW132092   4.117   6.449   2.292  1.3514  0.5754  0.8565
10217SOL    HW232093   4.138   6.585   2.229  1.0832  0.2802  0.1185
10218SOL     OW32094   2.526   5.261   2.173 -0.7390 -0.9001  0.0052
10218SOL    HW132095   2.524   5.284   2.266 -0.9287 -0.7020 -0.0489
10218SOL    HW232096   2.617   5.235   2.157  0.3578  2.7359 -0.6198
10219SOL     OW32097   3.408   6.620   3.139 -0.1441 -0.7675 -0.5113
10219SOL    HW132098   3.342   6.553   3.126 -0.4813 -0.9728  1.8227
10219SOL    HW232099   3.373   6.697   3.094 -0.9752 -1.4405 -1.0416
10220SOL     OW32100   1.639   5.744   1.673 -0.3420 -0.2848 -0.1855
10220SOL    HW132101   1.604   5.714   1.757 -1.0215 -4.6276 -1.8128
10220SOL    HW232102   1.563   5.758   1.618  0.0598  3.2114 -0.0736
10221SOL     OW32103   3.098   5.024   2.519  0.2547  0.1732  0.3492
10221SOL    HW132104   3.073   5.065   2.602 -0.9358 -1.7552  1.0237
10221SOL    HW232105   3.120   4.933   2.543 -0.5359 -0.5529 -1.4843
10222SOL     OW32106   2.994   5.789   5.304 -0.1755 -0.0785  0.6034
10222SOL    HW132107   2.955   5.874   5.321 -0.4506 -0.3496  1.3668
10222SOL    HW232108   2.996   5.746   5.389  0.5638 -0.5859  0.3395
10223SOL     OW32109   3.988   7.301   2.469  0.4077  0.0001 -0.1518
10223SOL    HW132110   3.976   7.208   2.452  1.7977 -0.5413  1.5137
10223SOL    HW232111   3.906   7.330   2.507  0.5491 -0.9837  0.9471
10224SOL     OW32112   4.128   7.825   2.496  0.1367 -0.6695 -0.0114
10224SOL    HW132113   4.055   7.777   2.457 -0.5662  2.3931 -2.9772
10224SOL    HW232114   4.206   7.777   2.468 -0.5826 -1.9352  0.0641
10225SOL     OW32115   4.636   7.570   1.612 -0.0810  0.3861 -0.0665
10225SOL    HW132116   4.726   7.576   1.645 -0.2303  1.4946  0.1822
10225SOL    HW232117   4.585   7.541   1.687 -0.0571  0.5990  0.0334
10226SOL     OW32118   4.527   7.345   2.606 -0.3550 -0.2402 -0.5365
10226SOL    HW132119   4.485   7.282   2.548 -2.6187  1.1914 -0.5582
10226SOL    HW232120   4.600   7.380   2.554 -0.6389 -0.9939 -1.4589
10227SOL     OW32121   2.127   6.085   3.551  0.4585  0.0226 -0.3270
10227SOL    HW132122   2.205   6.080   3.495  0.6665 -0.0023 -0.0345
10227SOL    HW232123   2.107   5.993   3.571  0.3774  0.0316 -0.3674
10228SOL     OW32124   3.052   7.777   5.580  0.2857  0.1154  0.5945
10228SOL    HW132125   3.011   7.836   5.517  1.0428 -1.3975 -1.4615
10228SOL    HW232126   3.145   7.800   5.578  0.4678 -0.6071  0.3543
10229SOL     OW32127   2.515   0.816   3.100 -0.7607  0.1656  0.1702
10229SOL    HW132128   2.439   0.760   3.119  0.7622 -1.5064  1.7452
10229SOL    HW232129   2.560   0.770   3.029 -0.5717  0.4930  0.0820
10230SOL     OW32130   2.206   5.827   4.472 -0.3962  0.2522 -0.1059
10230SOL    HW132131   2.128   5.785   4.507 -0.0877  0.2738  0.6225
10230SOL    HW232132   2.257   5.852   4.549  0.8985 -0.8255 -0.5710
10231SOL     OW32133   3.646   6.955   2.767  0.3626  0.2542 -0.4088
10231SOL    HW132134   3.677   6.876   2.810 -2.1099 -1.3436 -1.3269
10231SOL    HW232135   3.653   7.023   2.834 -0.1968 -1.4005  1.4355
10232SOL     OW32136   1.977   7.963   2.734  0.3298 -0.2438 -0.4383
10232SOL    HW132137   2.043   7.931   2.796 -0.9506  0.3513  1.3060
10232SOL    HW232138   1.989   8.058   2.734  0.4598 -0.2529 -1.3058
10233SOL     OW32139   1.231   7.164   1.037 -0.7777  0.1941 -0.1125
10233SOL    HW132140   1.141   7.159   1.004 -0.2868  0.4437 -1.5626
10233SOL    HW232141   1.227   7.123   1.124 -2.0500 -0.9057 -0.6501
10234SOL     OW32142   2.071   6.716   2.449  0.3009 -0.1119 -0.4757
10234SOL    HW132143   2.051   6.802   2.414 -2.1755 -0.5883 -0.4110
10234SOL    HW232144   2.090   6.731   2.542  0.6316  0.4184 -0.6226
10235SOL     OW32145   3.169   5.070   3.123 -0.1604 -0.2533  0.2326
10235SOL    HW132146   3.145   4.977   3.122 -0.5486 -0.1480 -0.7756
10235SOL    HW232147   3.195   5.086   3.214  0.0443 -1.3784  0.3928
10236SOL     OW32148   3.277   0.187   3.614 -0.0423  0.1975  0.6474
10236SOL    HW132149   3.272   0.122   3.545 -1.3970 -1.3258  2.0908
10236SOL    HW232150   3.195   0.236   3.607  1.9538  3.5987 -1.9972
10237SOL     OW32151   3.761   6.761   1.787  0.0224 -0.1724 -0.3575
10237SOL    HW132152   3.844   6.714   1.784  0.1728  0.1164 -1.9001
10237SOL    HW232153   3.785   6.851   1.809 -0.0522 -0.3905  0.6433
10238SOL     OW32154   2.442   7.686   3.831 -0.1600  0.3625  0.1075
10238SOL    HW132155   2.374   7.749   3.855 -0.2123  1.4216 -2.5544
10238SOL    HW232156   2.523   7.727   3.860 -0.3285  0.9433 -0.2255
10239SOL     OW32157   2.418   6.323   3.802  0.1161  0.3866  0.1133
10239SOL    HW132158   2.482   6.372   3.854  1.3171  1.4110 -2.2114
10239SOL    HW232159   2.402   6.244   3.854  0.6357  1.6708  2.3873
10240SOL     OW32160   4.118   5.570   3.156  0.2422 -0.3190  0.0220
10240SOL    HW132161   4.210   5.547   3.139  0.1266  0.5449 -2.0884
10240SOL    HW232162   4.123   5.649   3.210  0.7488 -0.2912 -0.0583
10241SOL     OW32163   2.263   3.995   3.278  0.2792 -0.3900 -0.1721
10241SOL    HW132164   2.283   3.927   3.342  0.3114 -1.4745 -1.2953
10241SOL    HW232165   2.312   3.970   3.200  0.9557  1.3947 -0.3665
10242SOL     OW32166   2.832   6.212   1.520  0.2255  0.4926 -0.4670
10242SOL    HW132167   2.836   6.231   1.614  0.9948 -1.4826 -0.0456
10242SOL    HW232168   2.924   6.210   1.493  0.1015 -0.6981 -0.8471
10243SOL     OW32169   2.418   5.070   3.708 -0.1052 -0.0760  0.3329
10243SOL    HW132170   2.477   5.032   3.773 -0.2102  0.3159  0.6560
10243SOL    HW232171   2.440   5.023   3.627  0.0113 -0.5756  0.6480
10244SOL     OW32172   3.219   6.131   2.105  0.4826  0.0890  0.3929
10244SOL    HW132173   3.196   6.142   2.198  0.4573  0.1844  0.3747
10244SOL    HW232174   3.286   6.061   2.106  1.3270  0.8769  0.5966
10245SOL     OW32175   2.572   5.768   2.519 -0.1716  0.4241 -0.4966
10245SOL    HW132176   2.533   5.826   2.584  0.9176  0.5426  0.0869
10245SOL    HW232177   2.555   5.811   2.435 -0.8973  0.6863 -0.2184
10246SOL     OW32178   3.052   4.619   2.410 -0.2231  0.2775  0.3472
10246SOL    HW132179   3.094   4.638   2.326 -0.1894 -1.2521 -0.0138
10246SOL    HW232180   3.077   4.692   2.466  0.1763  1.0752 -0.8208
10247SOL     OW32181   3.978   6.593   3.185 -0.2944 -0.1900  0.3029
10247SOL    HW132182   4.057   6.611   3.135 -0.1400  0.5216  0.7935
10247SOL    HW232183   3.997   6.625   3.273 -2.5293  3.9484 -0.4651
10248SOL     OW32184   3.786   0.022   2.410  0.4886 -0.0651 -0.4769
10248SOL    HW132185   3.799   0.113   2.439  2.0817 -0.1952 -0.6943
10248SOL    HW232186   3.811  -0.031   2.486  1.1439 -0.3414 -0.8767
10249SOL     OW32187   4.368   7.392   3.471  0.0726  0.0293  0.4402
10249SOL    HW132188   4.352   7.298   3.463  0.9927 -0.0914 -0.1786
10249SOL    HW232189   4.463   7.399   3.474  0.0803  1.0369 -1.0308
10250SOL     OW32190   4.247   6.943   2.396 -0.4564  0.2445  0.2396
10250SOL    HW132191   4.340   6.949   2.371 -0.4712  0.0079  0.1174
10250SOL    HW232192   4.240   6.993   2.477 -0.3628  0.8611 -0.1246
10251SOL     OW32193   2.481   6.052   2.034  0.0615  0.0895  0.0274
10251SOL    HW132194   2.417   6.124   2.035 -0.1129 -0.0638  0.6892
10251SOL    HW232195   2.560   6.090   2.071 -1.2266 -1.0639  4.6043
10252SOL     OW32196   3.283   6.222   3.432 -0.0577 -0.3877  0.0946
10252SOL    HW132197   3.287   6.135   3.391 -1.5054 -0.1036 -0.7133
10252SOL    HW232198   3.274   6.283   3.359  1.6615  0.5517  0.5990
10253SOL     OW32199   2.517   6.883   2.907  0.8678  0.3238 -0.0081
10253SOL    HW132200   2.453   6.939   2.864  1.7677  2.2584  1.0726
10253SOL    HW232201   2.582   6.943   2.942  1.8468 -1.4006  1.2747
10254SOL     OW32202   4.664   7.357   3.133  0.0073  0.0187  0.0040
10254SOL    HW132203   4.598   7.424   3.145  0.5120  0.7249 -1.0591
10254SOL    HW232204   4.736   7.383   3.191 -0.5644 -0.6770  1.0578
10255SOL     OW32205   2.146   5.320   2.941 -0.1632  0.2563  0.2418
10255SOL    HW132206   2.080   5.378   2.903 -0.2772 -0.4066 -0.6099
10255SOL    HW232207   2.226   5.340   2.893  0.4214  1.4257  1.6243
10256SOL     OW32208   3.321   5.780   1.556  0.1053 -0.1836 -0.4660
10256SOL    HW132209   3.363   5.756   1.474  2.1393  0.3970  0.3422
10256SOL    HW232210   3.372   5.735   1.624 -0.9725  0.0532  0.5417
10257SOL     OW32211   1.822   6.597   2.661  0.0774  0.1914  0.7514
10257SOL    HW132212   1.851   6.577   2.572  0.3201 -0.0953  0.8956
10257SOL    HW232213   1.773   6.679   2.652 -0.9645 -0.4682  0.1590
10258SOL     OW32214   4.368   7.094   2.775  0.2913  0.2146 -0.4884
10258SOL    HW132215   4.281   7.060   2.755  0.0870  0.2996  0.2249
10258SOL    HW232216   4.424   7.060   2.706 -0.0971 -0.7556 -0.3366
10259SOL     OW32217   4.721   5.027   2.593 -0.4243 -0.7927 -0.0160
10259SOL    HW132218   4.759   4.996   2.675 -2.4945 -2.1583  0.5012
10259SOL    HW232219   4.746   5.119   2.588  0.2380 -0.8393  1.8506
10260SOL     OW32220   3.084   6.109   4.041  0.3716  0.3419  0.3813
10260SOL    HW132221   3.080   6.082   3.949  0.9595 -0.3481  0.5476
10260SOL    HW232222   3.097   6.028   4.090 -1.4360  0.5103  1.2240
10261SOL     OW32223   1.116   6.231   1.350  0.1102  0.2407  0.4942
10261SOL    HW132224   1.030   6.197   1.327 -0.5434  1.5048  0.9459
10261SOL    HW232225   1.174   6.202   1.279 -0.8767  0.1172 -0.2755
10262SOL     OW32226   2.107   7.008   2.492  0.3749 -0.0382  0.2570
10262SOL    HW132227   2.107   6.991   2.398 -0.8284  0.4097  0.1680
10262SOL    HW232228   2.021   7.045   2.511  0.9676  0.8730  1.3602
10263SOL     OW32229   4.273   6.233   1.707 -0.1404  0.4424 -0.5207
10263SOL    HW132230   4.265   6.323   1.739  1.9099  0.1933  0.8879
10263SOL    HW232231   4.291   6.242   1.613 -0.0915  1.5018 -0.4193
10264SOL     OW32232   1.983   6.268   3.403  0.0298 -0.6022  0.2828
10264SOL    HW132233   1.936   6.217   3.337  0.1347 -1.7808  1.0975
10264SOL    HW232234   2.042   6.205   3.445 -0.1008  0.0907  1.5627
10265SOL     OW32235   3.172   5.414   1.451  0.0813  0.0763  0.3100
10265SOL    HW132236   3.263   5.390   1.438 -0.7799 -2.9083 -1.1306
10265SOL    HW232237   3.129   5.392   1.368 -2.1321  0.2954  1.3126
10266SOL     OW32238   4.049   6.353   3.576 -0.1134 -0.1650 -0.1574
10266SOL    HW132239   4.083   6.265   3.557  2.0790  0.8969 -1.4087
10266SOL    HW232240   3.971   6.360   3.520 -0.5274 -1.4006  0.2136
10267SOL     OW32241   3.793   5.555   4.421  0.2794 -0.2194  0.7086
10267SOL    HW132242   3.798   5.647   4.395 -1.8413 -0.3417 -0.3394
10267SOL    HW232243   3.835   5.552   4.507  3.3322  1.0738 -0.5833
10268SOL     OW32244   2.752   7.015   3.038 -0.5759  0.1871 -0.0709
10268SOL    HW132245   2.832   6.968   3.017 -0.7828 -0.1363 -0.1480
10268SOL    HW232246   2.781   7.097   3.078 -0.1851  0.5459 -1.0633
10269SOL     OW32247   3.189   6.734   2.993  0.3668 -0.0130  0.0314
10269SOL    HW132248   3.105   6.690   3.004  0.9160 -1.1830 -0.3840
10269SOL    HW232249   3.166   6.824   2.968 -0.7548 -0.1634  0.4761
10270SOL     OW32250   1.373   5.920   4.173  0.0825  0.0757 -0.2184
10270SOL    HW132251   1.451   5.900   4.121  0.5246 -0.5961  0.6799
10270SOL    HW232252   1.309   5.951   4.109  0.6264 -0.6862 -1.1555
10271SOL     OW32253   4.073   7.638   1.742 -0.1467 -0.4947 -0.2333
10271SOL    HW132254   4.102   7.587   1.818  0.7342 -1.7399 -1.3674
10271SOL    HW232255   4.142   7.626   1.677 -1.3032 -0.1899 -1.5657
10272SOL     OW32256   2.277   7.322   3.227  0.0614 -0.3581 -0.0385
10272SOL    HW132257   2.348   7.380   3.256 -0.5061  0.7660 -0.8020
10272SOL    HW232258   2.295   7.306   3.135 -0.0996 -0.9405  0.0315
10273SOL     OW32259   1.890   5.767   2.337  0.0362  0.0564 -0.1520
10273SOL    HW132260   1.835   5.773   2.258  0.5873  0.4435 -0.5105
10273SOL    HW232261   1.970   5.723   2.307 -0.8897 -2.4921  0.8095
10274SOL     OW32262   2.506   5.963   4.524  0.2799  0.9944 -0.0604
10274SOL    HW132263   2.518   5.868   4.529  1.9176  1.1054 -0.9273
10274SOL    HW232264   2.583   5.999   4.568  0.7574  1.8819 -1.5345
10275SOL     OW32265   1.756   6.104   4.081 -0.3571  0.1923  0.1072
10275SOL    HW132266   1.685   6.040   4.085 -0.9249  0.6443 -1.7756
10275SOL    HW232267   1.781   6.107   3.989  0.8285  1.4278  0.4297
10276SOL     OW32268   3.891   7.124   2.700 -0.2059 -0.0957 -0.6505
10276SOL    HW132269   3.826   7.165   2.757  0.3402  0.0805 -0.1359
10276SOL    HW232270   3.841   7.085   2.629 -0.7640  1.4674 -1.1547
10277SOL     OW32271   2.215   7.144   2.859 -0.1547 -0.3045 -0.2802
10277SOL    HW132272   2.176   7.091   2.928 -0.6865 -0.0691 -0.3912
10277SOL    HW232273   2.141   7.190   2.819  0.3641  1.1800  0.3746
10278SOL     OW32274   2.761   7.017   3.708 -0.2020  0.1630 -0.8121
10278SOL    HW132275   2.761   6.965   3.628  0.0044 -0.9767 -0.0842
10278SOL    HW232276   2.841   7.070   3.703  1.8171 -2.5595  0.2849
10279SOL     OW32277   2.046   5.499   2.500 -0.0142 -0.1548 -0.0431
10279SOL    HW132278   2.138   5.519   2.517  0.0917 -1.4280  1.0078
10279SOL    HW232279   2.000   5.580   2.524  0.8512  0.7901 -1.3609
10280SOL     OW32280   2.684   6.417   2.482 -0.1040 -0.6853 -0.4316
10280SOL    HW132281   2.635   6.336   2.466 -0.9582  0.1141 -2.0870
10280SOL    HW232282   2.617   6.485   2.487  0.6859  0.0879 -0.1457
10281SOL     OW32283   2.736   0.194   3.134  0.2300  0.1109  0.0551
10281SOL    HW132284   2.782   0.258   3.189  1.7847  0.5635 -1.6460
10281SOL    HW232285   2.734   0.114   3.187 -1.5782  1.4253  2.1540
10282SOL     OW32286   1.800   7.077   3.093 -0.2535  0.1509 -0.4415
10282SOL    HW132287   1.720   7.124   3.115  0.9156  2.0357  0.0456
10282SOL    HW232288   1.869   7.144   3.098  1.3792 -1.4390 -0.6548
10283SOL     OW32289   4.726   6.550   0.245 -0.0128 -0.2089 -0.0779
10283SOL    HW132290   4.739   6.475   0.187  0.2912 -1.6618  1.7661
10283SOL    HW232291   4.632   6.569   0.238  0.2338  0.4561 -1.9443
10284SOL     OW32292   2.729   5.902   3.767  0.2135 -0.1962  0.0404
10284SOL    HW132293   2.639   5.871   3.781  0.4059 -0.2498  1.2898
10284SOL    HW232294   2.747   5.883   3.675 -1.3782  0.6661 -0.4890
10285SOL     OW32295   3.509   0.568   2.285 -0.0258 -0.0396  0.0153
10285SOL    HW132296   3.492   0.474   2.288  0.6222 -0.1641 -0.1593
10285SOL    HW232297   3.551   0.583   2.200 -0.8541  0.5344 -0.3045
10286SOL     OW32298   1.585   5.911   4.002 -0.0300 -0.2313 -0.1731
10286SOL    HW132299   1.548   5.917   3.914 -1.0906 -2.4126  0.0724
10286SOL    HW232300   1.638   5.832   4.001  0.0677 -0.2121  1.1104
10287SOL     OW32301   1.629   5.481   2.627 -0.1021  0.0182  0.0094
10287SOL    HW132302   1.640   5.553   2.688 -1.6723 -0.1933  0.5891
10287SOL    HW232303   1.707   5.426   2.640  1.2891  1.7430 -0.7040
10288SOL     OW32304   3.952   7.574   2.788 -0.4474  0.0263 -0.2486
10288SOL    HW132305   3.865   7.543   2.813 -0.9740  0.3403 -1.6347
10288SOL    HW232306   4.008   7.497   2.798 -0.9473 -0.2869  0.2633
10289SOL     OW32307   1.327   6.534   4.225 -0.0298  0.6120  0.2519
10289SOL    HW132308   1.235   6.509   4.220 -0.2170  0.3247  3.2714
10289SOL    HW232309   1.326   6.626   4.250  0.6383  1.7423 -3.3001
10290SOL     OW32310   3.147   6.776   1.670 -0.7101 -0.3719 -0.9807
10290SOL    HW132311   3.094   6.791   1.748 -0.8937 -0.4967 -1.0797
10290SOL    HW232312   3.108   6.698   1.629  0.2801 -1.1962 -0.4115
10291SOL     OW32313   3.926   0.002   0.724 -0.3756  0.4658  0.4607
10291SOL    HW132314   3.848   0.038   0.682 -0.7408 -3.4391 -2.7274
10291SOL    HW232315   3.893  -0.034   0.806 -2.1073 -1.3698 -0.9566
10292SOL     OW32316   3.018   7.080   4.165  0.2292 -0.2740 -0.0107
10292SOL    HW132317   3.110   7.062   4.183 -0.0906 -1.3563  0.6046
10292SOL    HW232318   2.991   7.011   4.104  0.3133  1.1874 -1.7985
10293SOL     OW32319   4.276   7.567   2.703  0.2753 -0.3173 -0.2586
10293SOL    HW132320   4.314   7.589   2.618 -2.4537 -0.3749 -1.6097
10293SOL    HW232321   4.247   7.651   2.739 -2.6771 -0.6057 -1.6146
10294SOL     OW32322   1.431   6.428   3.397 -0.0643 -0.4129  0.1248
10294SOL    HW132323   1.451   6.454   3.487  2.2879 -1.8775  0.0954
10294SOL    HW232324   1.513   6.437   3.350 -1.1204 -0.2413 -1.7617
10295SOL     OW32325   2.066   3.853   2.240 -0.3862  0.2392 -0.1443
10295SOL    HW132326   2.007   3.791   2.196 -1.4239  0.9245  0.2341
10295SOL    HW232327   2.092   3.808   2.320  2.8638 -1.7189 -2.1090
10296SOL     OW32328   3.992   7.580   2.494 -0.4307  0.1501 -0.1917
10296SOL    HW132329   4.021   7.490   2.486  0.0708  0.3769 -1.0515
10296SOL    HW232330   3.985   7.595   2.588 -1.3672 -1.0412 -0.0505
10297SOL     OW32331   4.910   5.440   2.341 -0.3620  0.0160 -0.1776
10297SOL    HW132332   4.873   5.390   2.267 -0.4323  1.1189 -0.9041
10297SOL    HW232333   4.903   5.531   2.314  2.4664  0.3364 -0.1836
10298SOL     OW32334   3.922   7.699   0.264 -0.0775 -0.9715  0.0743
10298SOL    HW132335   3.897   7.610   0.289 -0.5453 -0.7892  0.2608
10298SOL    HW232336   3.916   7.750   0.345  0.0264 -0.7323 -0.0647
10299SOL     OW32337   2.318   7.402   1.601 -0.2007 -0.1199 -0.2494
10299SOL    HW132338   2.315   7.332   1.536 -0.6801 -0.5660  0.2462
10299SOL    HW232339   2.412   7.414   1.619 -0.1028 -0.4391 -0.5398
10300SOL     OW32340   2.422   5.911   2.323  0.0670 -0.2836 -0.2470
10300SOL    HW132341   2.340   5.895   2.368  0.1808  0.5027  0.2488
10300SOL    HW232342   2.407   5.991   2.273 -0.3456 -1.5850 -2.3327
10301SOL     OW32343   3.007   7.110   1.230 -0.1839 -0.1643 -0.3049
10301SOL    HW132344   2.965   7.169   1.292 -2.2500  0.3733 -2.0988
10301SOL    HW232345   2.981   7.022   1.258 -1.1167  0.0745 -0.4113
10302SOL     OW32346   1.978   7.254   2.774  0.2932  0.0894 -0.2893
10302SOL    HW132347   1.931   7.206   2.706  1.5877 -0.3899 -0.8782
10302SOL    HW232348   1.910   7.300   2.822 -0.7304 -0.2110 -1.3973
10303SOL     OW32349   2.944   4.857   3.414 -0.8259 -0.2402 -0.5363
10303SOL    HW132350   2.997   4.905   3.477 -0.6731 -2.0853  0.8113
10303SOL    HW232351   2.871   4.915   3.394  0.2581  1.2428 -0.3371
10304SOL     OW32352   4.530   6.771   2.300 -0.5178 -0.6519  0.7950
10304SOL    HW132353   4.558   6.700   2.358  0.3179 -0.9789  0.0094
10304SOL    HW232354   4.561   6.850   2.344 -1.4453 -0.7460  1.6681
10305SOL     OW32355   3.671   6.130   2.466  0.3965 -0.0324 -0.1953
10305SOL    HW132356   3.596   6.158   2.414  0.3254  0.4950  0.1841
10305SOL    HW232357   3.665   6.181   2.547  1.3476  0.2694 -0.2975
10306SOL     OW32358   3.757   6.824   2.532 -0.1783  0.2396  0.0664
10306SOL    HW132359   3.709   6.902   2.559 -0.6642 -0.2752  0.7196
10306SOL    HW232360   3.692   6.771   2.485  0.0253  0.0108  0.0393
10307SOL     OW32361   2.366   4.976   4.160 -0.1998 -0.2465 -0.3935
10307SOL    HW132362   2.417   5.035   4.216 -1.7975 -0.7276  1.7160
10307SOL    HW232363   2.334   5.032   4.089  0.6310  0.7593 -0.0027
10308SOL     OW32364   2.804   7.427   2.514  0.8624  0.2981  0.1179
10308SOL    HW132365   2.726   7.373   2.529 -0.3765  2.0098  0.1596
10308SOL    HW232366   2.843   7.437   2.601  0.5015  0.3161  0.2815
10309SOL     OW32367   7.906   0.385   3.461  0.1734  0.2684  0.2969
10309SOL    HW132368   7.911   0.416   3.552 -1.1699 -0.5143  0.6606
10309SOL    HW232369   7.847   0.447   3.418  2.1276  1.6586 -0.5333
10310SOL     OW32370   3.059   7.670   3.140 -0.1677 -0.4390 -0.2163
10310SOL    HW132371   3.013   7.654   3.057  0.0950 -1.4294 -0.1809
10310SOL    HW232372   3.152   7.669   3.116 -0.1144  0.2299 -0.0604
10311SOL     OW32373   0.694   4.392   4.267 -0.3241  0.2112  0.1039
10311SOL    HW132374   0.603   4.415   4.249 -0.0424 -0.2789 -2.3310
10311SOL    HW232375   0.734   4.384   4.180  1.5632 -1.4860  1.0494
10312SOL     OW32376   2.204   6.705   1.404  0.6283  0.2528 -0.1867
10312SOL    HW132377   2.264   6.680   1.334  1.1578 -1.5344  0.8375
10312SOL    HW232378   2.215   6.637   1.470 -2.4230 -0.0721  0.1327
10313SOL     OW32379   3.216   6.118   3.020 -0.5458 -0.3416  0.5192
10313SOL    HW132380   3.194   6.076   2.938  0.3946 -0.3004  0.2434
10313SOL    HW232381   3.193   6.210   3.006  0.9886 -0.0537 -0.2258
10314SOL     OW32382   2.848   6.685   2.565  0.3483 -0.4212 -0.5568
10314SOL    HW132383   2.891   6.751   2.509 -2.4927 -0.1550 -2.6516
10314SOL    HW232384   2.850   6.605   2.513 -1.3683 -0.4660 -0.5946
10315SOL     OW32385   5.200   7.580   1.212 -0.2674  0.4693  0.2999
10315SOL    HW132386   5.230   7.529   1.136 -1.2389  0.9970 -0.4558
10315SOL    HW232387   5.203   7.518   1.285  0.1681 -0.1990 -0.2705
10316SOL     OW32388   3.034   7.080   4.512  0.0028  0.3632 -0.1809
10316SOL    HW132389   3.066   7.005   4.562  2.3611  0.1812 -1.7611
10316SOL    HW232390   3.110   7.138   4.505 -1.9518  3.4322  1.7187
10317SOL     OW32391   2.521   7.608   3.199  0.5966  0.7497  0.4574
10317SOL    HW132392   2.580   7.596   3.124 -0.4214 -1.4962 -0.0820
10317SOL    HW232393   2.434   7.617   3.159  0.0078 -0.7284  1.3373
10318SOL     OW32394   2.266   0.069   1.830 -0.3768  0.9231  0.2669
10318SOL    HW132395   2.245   0.160   1.853  0.8020  1.4720 -0.6598
10318SOL    HW232396   2.334   0.077   1.762 -2.5188 -0.5827 -2.2627
10319SOL     OW32397   3.885   7.829   1.756  0.3205  0.2960 -0.4095
10319SOL    HW132398   3.927   7.748   1.725  0.7027  0.6919 -0.9284
10319SOL    HW232399   3.930   7.899   1.710  1.6236  0.9980  1.7569
10320SOL     OW32400   2.486   7.075   4.503 -0.0999 -0.0494  0.4165
10320SOL    HW132401   2.564   7.030   4.469 -0.6052 -1.2215  0.7627
10320SOL    HW232402   2.415   7.013   4.489 -0.9035  0.8249  0.5361
10321SOL     OW32403   1.497   6.456   2.207 -0.2811  0.0922 -0.1101
10321SOL    HW132404   1.537   6.539   2.233 -0.0892 -0.3041  0.9099
10321SOL    HW232405   1.405   6.476   2.193  0.3010  1.1850 -3.2049
10322SOL     OW32406   3.084   6.470   3.828 -0.5299 -0.3050 -0.2226
10322SOL    HW132407   3.084   6.427   3.743 -0.4779 -0.0682 -0.3409
10322SOL    HW232408   3.153   6.424   3.877  2.3670  2.1781 -1.6314
10323SOL     OW32409   2.985   5.281   3.092 -0.1799  0.5729 -0.1825
10323SOL    HW132410   3.052   5.213   3.092  0.0923  0.8050 -1.7780
10323SOL    HW232411   2.933   5.264   3.014 -0.4038  1.8968 -0.3478
10324SOL     OW32412   3.022   5.657   2.721 -0.4629  0.9084 -0.5800
10324SOL    HW132413   2.996   5.565   2.719  0.4754  0.6548 -2.0442
10324SOL    HW232414   3.025   5.679   2.814  1.8500 -1.2876 -0.0311
10325SOL     OW32415   3.295   6.230   4.173 -0.1104 -0.1529 -0.2025
10325SOL    HW132416   3.227   6.166   4.152  0.0909 -0.8408  1.1372
10325SOL    HW232417   3.365   6.211   4.110 -0.7761 -0.0318 -1.0029
10326SOL     OW32418   1.053   6.419   3.227  0.4170  0.4628 -0.7527
10326SOL    HW132419   0.993   6.396   3.298  0.9943 -0.7136 -0.6121
10326SOL    HW232420   0.996   6.432   3.151 -0.0337 -0.7731 -0.6578
10327SOL     OW32421   1.907   6.304   2.600  0.1767 -0.2068 -0.5934
10327SOL    HW132422   1.970   6.350   2.545 -0.7944  1.5468 -0.3139
10327SOL    HW232423   1.834   6.284   2.541  0.1875 -0.5331 -0.4975
10328SOL     OW32424   3.779   5.811   2.773 -0.0248  0.4751 -0.1572
10328SOL    HW132425   3.789   5.718   2.753  0.0053  0.5234 -0.3743
10328SOL    HW232426   3.684   5.824   2.777 -0.0268  0.3995  0.0480
10329SOL     OW32427   4.249   6.629   1.972 -0.0552 -0.6568  0.4079
10329SOL    HW132428   4.277   6.709   2.018  0.6686 -0.1155 -0.9190
10329SOL    HW232429   4.169   6.603   2.017  0.1049  0.3902  1.3565
10330SOL     OW32430   1.411   5.992   2.594 -0.1213  0.0257 -0.6346
10330SOL    HW132431   1.387   5.933   2.522  0.1962  0.0039 -0.7221
10330SOL    HW232432   1.478   6.049   2.556  0.1721 -0.0998 -0.3041
10331SOL     OW32433   2.814   0.411   6.075 -0.5012 -0.2155  0.4648
10331SOL    HW132434   2.724   0.386   6.098 -0.7227  1.2063  1.2408
10331SOL    HW232435   2.832   0.363   5.994 -0.8399 -2.9279  1.8668
10332SOL     OW32436   4.266   6.285   2.599  0.3649  0.1886 -0.6280
10332SOL    HW132437   4.272   6.363   2.654 -0.8765  0.2666 -0.5905
10332SOL    HW232438   4.254   6.213   2.661 -0.5255  0.2164 -0.7624
10333SOL     OW32439   2.607   5.734   3.352 -0.2289  0.1624 -0.0417
10333SOL    HW132440   2.663   5.714   3.277  0.0520  1.0791 -0.0822
10333SOL    HW232441   2.578   5.648   3.384 -0.2980 -0.2439 -1.1502
10334SOL     OW32442   2.772   4.355   3.832  0.0911  0.5675 -0.0078
10334SOL    HW132443   2.806   4.319   3.914  2.0409  1.1621 -0.4992
10334SOL    HW232444   2.712   4.424   3.860 -2.3077 -1.7167  0.9169
10335SOL     OW32445   2.339   6.749   3.540  0.1846 -0.2788  0.5176
10335SOL    HW132446   2.270   6.724   3.602  1.4395  0.6008  2.3465
10335SOL    HW232447   2.300   6.821   3.489 -0.8039 -0.8874  0.3873
10336SOL     OW32448   4.244   0.038   1.100 -0.1584  0.4216 -0.2526
10336SOL    HW132449   4.314  -0.013   1.142 -0.9644  0.3150  1.0465
10336SOL    HW232450   4.171  -0.024   1.092 -0.6237  0.9347 -0.1024
10337SOL     OW32451   2.263   5.087   3.941  0.1051  0.4872 -0.0440
10337SOL    HW132452   2.335   5.083   3.878  0.8092  0.9913  0.7169
10337SOL    HW232453   2.203   5.151   3.905 -0.6565 -0.8990 -1.3694
10338SOL     OW32454   0.492   4.639   4.311 -0.0712  0.1105  0.1961
10338SOL    HW132455   0.500   4.596   4.227 -0.5676  0.4157 -0.0176
10338SOL    HW232456   0.399   4.662   4.317 -0.3323 -1.1564  1.4498
10339SOL     OW32457   2.352   6.039   3.772 -0.2438 -0.5424  0.1425
10339SOL    HW132458   2.257   6.042   3.782 -0.2383 -1.5307  0.6316
10339SOL    HW232459   2.379   5.959   3.817  0.6520 -1.1322 -1.3437
10340SOL     OW32460   3.198   6.479   4.277  0.3972 -0.5803  0.2419
10340SOL    HW132461   3.166   6.471   4.367  0.6894  0.3576  0.4412
10340SOL    HW232462   3.227   6.391   4.254 -2.9805 -1.6934 -0.2278
10341SOL     OW32463   4.652   6.039   4.727 -0.6083  0.3935  0.6212
10341SOL    HW132464   4.626   5.958   4.683 -2.5752 -0.0327  2.3944
10341SOL    HW232465   4.745   6.027   4.746 -0.4666 -0.7127 -0.6135
10342SOL     OW32466   1.884   4.880   4.865 -0.5136 -0.5527 -0.2185
10342SOL    HW132467   1.814   4.916   4.920 -1.0336 -0.4762 -0.9072
10342SOL    HW232468   1.840   4.858   4.783  0.0838 -1.4404 -0.3088
10343SOL     OW32469   4.948   6.043   4.851 -0.2970 -0.3066  0.1333
10343SOL    HW132470   4.906   6.018   4.933 -2.0238 -0.4536 -0.7338
10343SOL    HW232471   4.968   5.960   4.808 -0.4770 -0.2301 -0.1024
10344SOL     OW32472   3.100   5.530   4.353  0.6359 -0.3231  0.1262
10344SOL    HW132473   3.059   5.606   4.396 -0.4159 -1.0435  0.4571
10344SOL    HW232474   3.090   5.547   4.260  0.0543 -0.2292  0.2016
10345SOL     OW32475   3.201   6.719   3.895 -0.5201 -0.2492  0.2110
10345SOL    HW132476   3.161   6.634   3.880  2.0554 -1.6569  0.7515
10345SOL    HW232477   3.278   6.720   3.839  1.5790  0.1040  2.8858
10346SOL     OW32478   2.988   5.252   3.362  0.3726 -0.0780 -0.1103
10346SOL    HW132479   2.956   5.283   3.277  0.3918 -1.2120 -0.5459
10346SOL    HW232480   3.050   5.319   3.390  0.1853  0.4303 -0.8717
10347SOL     OW32481   3.408   7.291   4.872  0.1813  0.2140 -0.6589
10347SOL    HW132482   3.375   7.378   4.850 -2.0117 -0.6473 -1.0173
10347SOL    HW232483   3.501   7.305   4.889  0.0144  2.5231 -1.2340
10348SOL     OW32484   1.513   7.463   4.669  0.0825  0.5192  0.5969
10348SOL    HW132485   1.493   7.522   4.743  1.1175  0.1134  1.2307
10348SOL    HW232486   1.585   7.409   4.702 -1.8375 -2.1949  0.6091
10349SOL     OW32487   2.069   0.039   4.247  0.0728 -0.3565 -0.3098
10349SOL    HW132488   2.091  -0.054   4.241 -0.8307 -0.5964 -0.1711
10349SOL    HW232489   2.108   0.078   4.169  0.6609 -0.8075 -0.2477
10350SOL     OW32490   1.760   5.796   5.141 -0.0321  0.2253 -0.0578
10350SOL    HW132491   1.691   5.731   5.156 -1.3801  0.8953 -2.7470
10350SOL    HW232492   1.837   5.759   5.185 -1.7136 -1.2050  1.9078
10351SOL     OW32493   2.235   5.367   5.364  1.0643 -0.3157  0.1820
10351SOL    HW132494   2.189   5.419   5.298  0.3928 -1.1751 -0.0435
10351SOL    HW232495   2.325   5.362   5.332  1.5550  2.0652  1.0360
10352SOL     OW32496   2.815   7.583   4.166  0.3207 -0.3130  0.0553
10352SOL    HW132497   2.850   7.613   4.082 -1.0993  0.7778 -0.1657
10352SOL    HW232498   2.832   7.489   4.166  2.3769 -0.0053 -0.4396
10353SOL     OW32499   3.490   6.049   7.936 -0.3740 -0.2576  0.2070
10353SOL    HW132500   3.410   6.002   7.912 -0.3470 -1.1455  1.7270
10353SOL    HW232501   3.469   6.091   8.019  0.7230 -0.5057  0.6266
10354SOL     OW32502   1.861   6.589   4.982  0.0101  0.0808  0.5564
10354SOL    HW132503   1.773   6.560   4.956  0.8134 -0.7452 -1.4478
10354SOL    HW232504   1.886   6.530   5.052 -0.5554 -0.4967  0.2819
10355SOL     OW32505   3.216   6.909   5.589 -0.2433  0.2370 -0.1561
10355SOL    HW132506   3.309   6.930   5.594 -0.2309  0.0068  0.5854
10355SOL    HW232507   3.177   6.983   5.542  0.0712  1.0788  0.8882
10356SOL     OW32508   3.633   6.800   4.981 -0.1010 -0.2308 -0.2180
10356SOL    HW132509   3.680   6.864   5.034 -1.0542  0.3050 -0.0036
10356SOL    HW232510   3.645   6.830   4.891 -0.6796  0.3479 -0.1078
10357SOL     OW32511   1.887   5.238   3.150 -0.4857  0.1555  0.6397
10357SOL    HW132512   1.814   5.177   3.162 -0.0059 -0.1987  2.0089
10357SOL    HW232513   1.845   5.322   3.130 -1.1491 -0.6036 -1.3596
10358SOL     OW32514   2.258   4.440   5.831  0.3845  0.0664 -0.0175
10358SOL    HW132515   2.224   4.527   5.851 -1.4836 -0.5035 -0.4548
10358SOL    HW232516   2.349   4.454   5.806  0.9995  1.5186  2.7371
10359SOL     OW32517   3.215   6.801   3.277  0.1231  0.1803 -0.3360
10359SOL    HW132518   3.204   6.786   3.183 -0.0071  1.6006 -0.5699
10359SOL    HW232519   3.156   6.738   3.319  0.0677 -0.3578 -1.2049
10360SOL     OW32520   3.528   6.486   3.907 -0.3905  0.2971 -0.3018
10360SOL    HW132521   3.466   6.414   3.897  1.1178 -1.3831  1.5106
10360SOL    HW232522   3.502   6.550   3.841 -3.5087 -0.6491 -0.1187
10361SOL     OW32523   1.216   5.943   3.258 -0.1200  0.2912  0.1451
10361SOL    HW132524   1.122   5.957   3.245  0.2036  0.9186 -1.9286
10361SOL    HW232525   1.249   6.028   3.287  0.1792  0.9192 -1.8556
10362SOL     OW32526   3.885   5.833   4.041  0.5663  0.0222  0.2218
10362SOL    HW132527   3.930   5.789   4.113 -2.0264 -0.1033  1.9153
10362SOL    HW232528   3.889   5.926   4.064 -0.5385 -0.0433  0.7698
10363SOL     OW32529   2.940   7.339   4.172 -0.0067 -0.1541  0.6473
10363SOL    HW132530   2.970   7.351   4.262  3.8272  0.8255 -0.5730
10363SOL    HW232531   2.958   7.247   4.153 -0.5797 -0.2959  0.7596
10364SOL     OW32532   0.894   5.381   4.820 -0.2896 -0.5240  0.0954
10364SOL    HW132533   0.963   5.382   4.753  0.3293  0.5711  0.7119
10364SOL    HW232534   0.941   5.395   4.902 -1.1144 -1.1486  0.6966
10365SOL     OW32535   3.670   7.257   4.123 -0.0298 -0.0950 -0.6649
10365SOL    HW132536   3.641   7.173   4.088  0.0960 -0.3468 -0.1770
10365SOL    HW232537   3.650   7.252   4.217 -1.9977  1.2325 -0.9339
10366SOL     OW32538   4.097   6.704   5.466  0.3917 -0.2960 -0.7358
10366SOL    HW132539   4.044   6.739   5.538 -0.1352  0.5188 -1.4974
10366SOL    HW232540   4.059   6.618   5.448  2.5483 -1.9944  2.0609
10367SOL     OW32541   2.256   6.389   3.601 -0.5094  0.4300  0.2910
10367SOL    HW132542   2.311   6.371   3.677 -0.4017  2.4917  0.7529
10367SOL    HW232543   2.318   6.403   3.530 -0.5001  0.8200  0.3718
10368SOL     OW32544   1.240   7.591   4.369 -0.5197 -0.0366  0.0226
10368SOL    HW132545   1.271   7.516   4.420  0.5323  0.0412 -0.4848
10368SOL    HW232546   1.228   7.557   4.280 -1.6136  0.0121  0.1361
10369SOL     OW32547   3.094   5.102   4.133  0.5242  0.2826 -0.0771
10369SOL    HW132548   3.079   5.175   4.193  0.8855 -0.0806  0.4557
10369SOL    HW232549   3.116   5.028   4.189  1.2785  0.0385 -0.6725
10370SOL     OW32550   3.634   6.836   4.714 -0.0827 -0.0385 -0.6065
10370SOL    HW132551   3.679   6.767   4.666  0.6988  0.5348 -0.7213
10370SOL    HW232552   3.656   6.916   4.667  0.4574  0.5006  0.5261
10371SOL     OW32553   3.028   6.920   3.917 -0.7527  0.4067  0.4389
10371SOL    HW132554   3.034   6.995   3.859  1.5003  1.2345  1.6226
10371SOL    HW232555   3.111   6.873   3.905 -0.5506  0.1684  2.3581
10372SOL     OW32556   2.314   6.739   3.199  0.2298  0.7923 -0.5341
10372SOL    HW132557   2.301   6.709   3.110 -1.0374  1.4119 -0.5827
10372SOL    HW232558   2.405   6.769   3.201  1.1591 -1.7578 -0.8161
10373SOL     OW32559   1.968   4.860   4.498  0.3816 -0.5441  0.3625
10373SOL    HW132560   2.041   4.865   4.436  0.7389  0.2972  0.8243
10373SOL    HW232561   1.973   4.943   4.547 -1.3178 -0.1563 -0.0704
10374SOL     OW32562   3.400   7.672   3.803  0.4709 -0.1082  0.1761
10374SOL    HW132563   3.475   7.663   3.744 -0.1865 -2.3497 -0.3990
10374SOL    HW232564   3.340   7.730   3.757  0.9654  0.0440 -0.2929
10375SOL     OW32565   2.757   5.903   3.493  0.0609 -0.1538  0.0707
10375SOL    HW132566   2.731   5.821   3.451  0.8735 -0.7775  0.7463
10375SOL    HW232567   2.675   5.943   3.520 -0.3676 -0.5911 -0.5419
10376SOL     OW32568   3.527   6.545   4.932 -0.0564 -0.0930  0.2409
10376SOL    HW132569   3.500   6.515   5.018 -4.5565 -0.9544 -1.1797
10376SOL    HW232570   3.537   6.640   4.941  0.1772 -0.2526  1.8053
10377SOL     OW32571   3.725   5.400   5.012 -0.2341  0.0928  0.1075
10377SOL    HW132572   3.650   5.459   5.012  0.5179  1.0881 -0.2127
10377SOL    HW232573   3.763   5.410   5.100 -0.6927 -0.7053  0.4020
10378SOL     OW32574   0.806   4.802   4.044 -0.3025 -0.2084 -0.5012
10378SOL    HW132575   0.785   4.773   4.133  1.8463  0.6384  0.3498
10378SOL    HW232576   0.747   4.876   4.028  0.7268  1.0304  1.1190
10379SOL     OW32577   2.386   6.335   5.963 -0.2647 -0.3602  0.0624
10379SOL    HW132578   2.363   6.279   5.889 -1.4578  3.0267 -2.3848
10379SOL    HW232579   2.362   6.423   5.935  1.6871  1.5033  3.5220
10380SOL     OW32580   1.290   7.228   5.077  0.1528 -0.2538 -0.0785
10380SOL    HW132581   1.362   7.168   5.056  0.3959 -0.2723  0.8006
10380SOL    HW232582   1.239   7.233   4.996  1.4072  0.1413 -0.8616
10381SOL     OW32583   1.052   7.944   5.715 -0.0490  0.1984 -0.1466
10381SOL    HW132584   0.976   7.926   5.769  0.4419  0.8531  0.7867
10381SOL    HW232585   1.070   7.861   5.670 -0.5575 -0.3094  0.5688
10382SOL     OW32586   2.811   4.585   3.603  0.6272 -0.0443 -0.3869
10382SOL    HW132587   2.822   4.497   3.640  0.2176 -0.8991 -2.1830
10382SOL    HW232588   2.746   4.626   3.659 -0.3952 -1.4875 -0.4531
10383SOL     OW32589   5.570   4.809   5.045 -0.2790 -0.3314 -0.5102
10383SOL    HW132590   5.496   4.853   5.003 -0.4025  1.4207  1.4376
10383SOL    HW232591   5.555   4.716   5.026 -2.0881  0.1140 -1.5326
10384SOL     OW32592   2.963   6.287   4.207 -0.7121 -0.8223 -0.2988
10384SOL    HW132593   3.002   6.364   4.167  0.6962 -1.4152 -0.1284
10384SOL    HW232594   3.002   6.213   4.160  1.5074 -1.5770  2.5018
10385SOL     OW32595   2.557   6.774   4.423 -0.0071 -0.2676  0.0869
10385SOL    HW132596   2.632   6.824   4.457  0.5876 -0.0140 -1.5181
10385SOL    HW232597   2.530   6.720   4.497  0.9193  0.6043  1.1097
10386SOL     OW32598   4.300   7.523   4.749  0.7015  0.3473 -0.0037
10386SOL    HW132599   4.232   7.506   4.685 -0.1592 -0.1298  1.0040
10386SOL    HW232600   4.344   7.438   4.760  2.6187  1.0211 -1.8955
10387SOL     OW32601   3.434   0.199   5.192 -0.2052  0.2739 -0.1392
10387SOL    HW132602   3.478   0.253   5.256 -0.4167  0.0820  0.1721
10387SOL    HW232603   3.463   0.110   5.211  1.6620  0.4402 -1.8579
10388SOL     OW32604   4.761   5.390   4.928  0.1734  0.0590 -0.4056
10388SOL    HW132605   4.750   5.313   4.984  0.2831 -0.0204 -0.4916
10388SOL    HW232606   4.774   5.354   4.840 -0.6010  0.1927 -0.5887
10389SOL     OW32607   2.313   6.874   4.944  0.0224  0.4221  0.2765
10389SOL    HW132608   2.328   6.779   4.944  0.2547  0.4076 -1.9404
10389SOL    HW232609   2.395   6.912   4.974  0.0690 -0.0615  0.7689
10390SOL     OW32610   2.773   6.925   4.539  0.0356 -0.1661 -0.5814
10390SOL    HW132611   2.791   6.982   4.614  0.9022 -0.6176 -0.4344
10390SOL    HW232612   2.817   6.843   4.561 -0.9907 -0.8212 -0.8970
10391SOL     OW32613   2.630   4.728   4.875  0.4588 -0.3634 -0.5105
10391SOL    HW132614   2.619   4.645   4.828 -1.3626 -1.1011  1.0862
10391SOL    HW232615   2.580   4.791   4.824  2.3783 -0.0034 -2.0967
10392SOL     OW32616   2.491   7.054   5.093 -0.8172 -0.0822  0.0565
10392SOL    HW132617   2.584   7.048   5.117 -1.0222  0.3201  0.9954
10392SOL    HW232618   2.463   7.138   5.130 -2.1192 -1.2261  1.8308
10393SOL     OW32619   1.461   0.567   5.334 -0.4391  0.0758 -1.0424
10393SOL    HW132620   1.534   0.509   5.354 -1.0623 -0.0257  1.2901
10393SOL    HW232621   1.416   0.525   5.261  0.4349 -1.1542 -0.9058
10394SOL     OW32622   0.832   6.154   4.290  0.1492 -0.2377 -0.5311
10394SOL    HW132623   0.796   6.078   4.336 -0.0407  0.2146  0.0860
10394SOL    HW232624   0.871   6.208   4.360 -0.3105  0.5533 -0.8730
10395SOL     OW32625   4.148   6.150   4.663 -0.3509 -0.5340 -0.1481
10395SOL    HW132626   4.106   6.235   4.655  2.2225  1.1430  2.3630
10395SOL    HW232627   4.081   6.094   4.703 -2.3782 -0.0737 -2.6394
10396SOL     OW32628   1.983   6.869   3.853 -0.5123  0.2593 -0.0790
10396SOL    HW132629   1.996   6.852   3.946  2.9345  2.7708  0.0851
10396SOL    HW232630   1.929   6.948   3.850 -2.1054 -0.7820 -0.3629
10397SOL     OW32631   2.583   5.182   4.701  0.0879  0.4819  0.6273
10397SOL    HW132632   2.605   5.161   4.610 -0.0152 -0.5922  0.8321
10397SOL    HW232633   2.665   5.213   4.739  0.4284 -0.2196  0.4805
10398SOL     OW32634   1.720   6.827   5.044 -0.1763 -0.3515  0.4527
10398SOL    HW132635   1.762   6.758   4.994  0.2415  0.1464  0.1122
10398SOL    HW232636   1.677   6.781   5.117  1.3587 -0.8257  1.0909
10399SOL     OW32637   3.153   5.604   3.495  0.4329 -0.7649  0.5245
10399SOL    HW132638   3.112   5.582   3.412 -0.8469 -1.5694  1.3243
10399SOL    HW232639   3.182   5.521   3.531  0.9175 -0.4328  0.9174
10400SOL     OW32640   2.235   0.129   4.931 -0.8724  0.1218 -0.2008
10400SOL    HW132641   2.298   0.148   5.001 -1.0519  0.7621 -0.2145
10400SOL    HW232642   2.150   0.154   4.967 -1.3317 -2.0161  0.3393
10401SOL     OW32643   2.273   4.763   6.702 -0.2048  0.1549  0.3011
10401SOL    HW132644   2.279   4.836   6.764  1.5599 -0.8435  1.3926
10401SOL    HW232645   2.292   4.802   6.617 -1.6295  1.3630  0.5044
10402SOL     OW32646   2.089   4.482   3.805  0.2765 -0.1323 -0.3611
10402SOL    HW132647   2.129   4.427   3.737 -1.1000 -0.2243 -1.1149
10402SOL    HW232648   2.145   4.560   3.807  1.1800 -0.7481 -0.5673
10403SOL     OW32649   2.540   4.194   4.365 -0.3724 -0.4988  0.3729
10403SOL    HW132650   2.539   4.142   4.284  1.1306 -0.3978  0.2588
10403SOL    HW232651   2.633   4.206   4.384 -0.6905 -0.8284  2.3262
10404SOL     OW32652   3.960   7.902   3.092 -0.3382 -0.1000  0.2268
10404SOL    HW132653   3.947   7.987   3.135 -0.1852 -0.4197  0.9145
10404SOL    HW232654   4.006   7.849   3.157  1.7195  0.0335 -1.0360
10405SOL     OW32655   1.909   5.932   5.580 -0.1930  0.4515 -0.3508
10405SOL    HW132656   1.983   5.910   5.522 -0.5238  0.3353 -0.7357
10405SOL    HW232657   1.948   5.942   5.666 -0.0387 -2.0239 -0.0584
10406SOL     OW32658   3.316   6.328   3.850 -0.4054 -0.3173  0.1637
10406SOL    HW132659   3.334   6.237   3.873  2.1360 -0.1294 -0.7655
10406SOL    HW232660   3.346   6.336   3.760  0.3801  1.6495  0.5460
10407SOL     OW32661   2.771   5.791   4.235 -0.2906 -0.4890  0.4790
10407SOL    HW132662   2.841   5.758   4.290 -1.9453 -1.8449  1.8727
10407SOL    HW232663   2.727   5.713   4.201 -1.1416  0.3113 -0.3416
10408SOL     OW32664   3.450   6.332   3.618 -0.1674  0.1691  0.4575
10408SOL    HW132665   3.438   6.427   3.627  1.4197  0.4369 -0.0414
10408SOL    HW232666   3.417   6.313   3.530  1.2133  0.5997 -0.1885
10409SOL     OW32667   1.965   5.602   3.411  0.2540 -0.1749 -0.0576
10409SOL    HW132668   1.934   5.515   3.434  0.1486  0.0215  0.5873
10409SOL    HW232669   2.057   5.589   3.386 -0.2865 -0.7422 -1.8967
10410SOL     OW32670   3.239   6.412   2.936 -0.3836 -0.7995  0.3924
10410SOL    HW132671   3.311   6.461   2.897 -0.5013 -0.0263  1.1192
10410SOL    HW232672   3.174   6.406   2.866 -0.3421  0.0317  0.2736
10411SOL     OW32673   3.105   5.310   5.307  0.0711 -0.2308  0.6445
10411SOL    HW132674   3.169   5.315   5.378  0.8858 -1.0850 -0.0086
10411SOL    HW232675   3.028   5.268   5.347 -0.2590  1.1758  1.5368
10412SOL     OW32676   2.631   6.570   4.885 -0.6771 -0.2941  0.3120
10412SOL    HW132677   2.670   6.657   4.888 -1.0931  0.1366 -2.7625
10412SOL    HW232678   2.562   6.571   4.952 -0.2715  1.5182  0.7381
10413SOL     OW32679   3.755   7.787   4.093  0.0145 -0.1883  0.5180
10413SOL    HW132680   3.750   7.787   3.997 -1.0962 -0.1722  0.5550
10413SOL    HW232681   3.757   7.880   4.116  3.8445 -0.1081  0.4288
10414SOL     OW32682   3.895   6.174   4.783  0.0938 -0.1845 -0.1017
10414SOL    HW132683   3.932   6.190   4.871 -1.6237  3.4976  0.1409
10414SOL    HW232684   3.803   6.154   4.799 -0.2551  0.6047 -1.0326
10415SOL     OW32685   3.035   6.581   3.180  0.3620  0.4531  0.1329
10415SOL    HW132686   2.967   6.589   3.112 -0.3565 -0.7916  0.6616
10415SOL    HW232687   2.986   6.568   3.261  1.2320 -0.7467  0.4876
10416SOL     OW32688   1.350   4.429   5.686  0.1836  0.0361  0.5569
10416SOL    HW132689   1.270   4.481   5.698 -1.9346 -2.5633 -1.1002
10416SOL    HW232690   1.402   4.480   5.625 -0.6069  1.3621  0.9361
10417SOL     OW32691   1.990   6.156   4.182 -0.7026 -0.1478 -0.2901
10417SOL    HW132692   1.998   6.184   4.091  1.1248  0.9377  0.1673
10417SOL    HW232693   1.904   6.112   4.186 -0.7051 -0.4611 -2.5684
10418SOL     OW32694   2.655   5.555   4.146 -0.2633 -0.0890 -0.0196
10418SOL    HW132695   2.678   5.527   4.057  1.0098 -0.3062  0.3538
10418SOL    HW232696   2.685   5.483   4.202  2.3937  1.5819  0.9066
10419SOL     OW32697   3.536   5.176   4.680  0.0982 -0.1287 -0.3501
10419SOL    HW132698   3.610   5.235   4.690 -0.5851  0.8613 -0.8923
10419SOL    HW232699   3.567   5.091   4.712  1.0038  0.5917  0.7350
10420SOL     OW32700   4.313   6.529   4.244 -0.4771  0.7150 -0.2961
10420SOL    HW132701   4.386   6.575   4.286  0.9914 -0.8492 -1.0446
10420SOL    HW232702   4.290   6.460   4.306 -0.9782  0.8669 -0.3076
10421SOL     OW32703   5.445   7.516   3.811 -0.0873  0.5196 -0.1507
10421SOL    HW132704   5.444   7.426   3.779  0.9672  0.5382 -0.2660
10421SOL    HW232705   5.371   7.521   3.871 -0.1742 -0.4168 -0.1682
10422SOL     OW32706   3.563   6.619   5.978 -0.3229  0.2175  0.3476
10422SOL    HW132707   3.649   6.625   6.019 -0.1615  0.7628 -0.0565
10422SOL    HW232708   3.521   6.545   6.021  1.8402 -2.7860 -2.2571
10423SOL     OW32709   2.401   7.059   5.999  0.0520 -0.0787 -0.0733
10423SOL    HW132710   2.351   7.085   5.921  0.4084 -0.5558 -0.4637
10423SOL    HW232711   2.338   7.067   6.071 -0.7786 -1.2434 -0.6349
10424SOL     OW32712   4.114   6.437   4.934 -0.1829  0.2386  0.5892
10424SOL    HW132713   4.175   6.509   4.953 -1.1331  1.1433  0.2806
10424SOL    HW232714   4.154   6.393   4.858 -0.0975  1.0611  0.1400
10425SOL     OW32715   3.406   6.072   4.542  0.4124  0.2136  0.1291
10425SOL    HW132716   3.389   6.132   4.615 -0.6019 -1.2320  1.1503
10425SOL    HW232717   3.320   6.058   4.502  0.8810  0.5867 -1.0430
10426SOL     OW32718   2.757   5.167   5.185  0.1675 -0.2131 -0.0132
10426SOL    HW132719   2.840   5.170   5.137  0.9347 -0.5983  1.2556
10426SOL    HW232720   2.760   5.242   5.244  1.2079 -2.1142  2.5231
10427SOL     OW32721   2.719   5.988   2.796  0.0609 -0.8685  0.0660
10427SOL    HW132722   2.649   5.924   2.787  0.4441 -1.4261  0.9346
10427SOL    HW232723   2.764   5.986   2.711 -1.2852 -0.1067 -0.6902
10428SOL     OW32724   4.499   6.692   4.383  0.1587 -0.0853 -0.0376
10428SOL    HW132725   4.535   6.623   4.439  0.9756  0.6313  0.3516
10428SOL    HW232726   4.559   6.766   4.396 -0.7618  0.7284 -0.3626
10429SOL     OW32727   4.071   5.963   6.720 -0.0197 -0.2394  0.0809
10429SOL    HW132728   3.993   5.977   6.774  0.5808  1.4480  0.5868
10429SOL    HW232729   4.110   6.050   6.712  1.2852 -0.8897 -0.9823
10430SOL     OW32730   3.428   5.686   4.079  0.0429 -0.6966 -0.4663
10430SOL    HW132731   3.447   5.780   4.077  0.8045 -0.8588 -1.2332
10430SOL    HW232732   3.337   5.679   4.053 -0.5967 -0.0401  1.4475
10431SOL     OW32733   2.240   4.767   4.898 -0.2754 -0.2841 -0.2979
10431SOL    HW132734   2.257   4.824   4.822 -2.0575  0.6762 -0.0171
10431SOL    HW232735   2.194   4.692   4.861 -0.3181 -0.2599 -0.2937
10432SOL     OW32736   3.530   6.343   6.336 -0.0511  0.3781 -0.0671
10432SOL    HW132737   3.615   6.382   6.357  0.3226 -0.7492  0.5869
10432SOL    HW232738   3.527   6.343   6.240  1.0140 -0.2500 -0.1143
10433SOL     OW32739   3.609   5.666   6.281  0.0392 -0.3369  0.3926
10433SOL    HW132740   3.660   5.747   6.285  0.3305 -0.4990  0.0376
10433SOL    HW232741   3.585   5.657   6.189 -1.3507  0.1624  0.6801
10434SOL     OW32742   3.614   5.328   5.358 -0.0740 -0.6238 -0.6434
10434SOL    HW132743   3.687   5.344   5.418 -0.8299 -1.8629  0.6569
10434SOL    HW232744   3.599   5.413   5.317  1.4052 -0.0902 -0.1694
10435SOL     OW32745   1.437   6.598   7.533 -0.3791  0.2834 -0.2558
10435SOL    HW132746   1.359   6.616   7.480 -0.0048  1.3095 -0.4868
10435SOL    HW232747   1.505   6.653   7.494  0.4829 -0.6473 -0.0928
10436SOL     OW32748   4.231   7.000   3.117 -0.0033  0.4925 -0.5228
10436SOL    HW132749   4.258   6.914   3.149 -1.3674  0.4864  0.7075
10436SOL    HW232750   4.143   6.986   3.082 -0.0668  1.3045 -0.7042
10437SOL     OW32751   2.545   5.864   5.203  0.6793 -0.2798 -1.1272
10437SOL    HW132752   2.614   5.914   5.248 -1.1309  1.1747  0.2370
10437SOL    HW232753   2.569   5.867   5.111  3.0709 -0.9317 -0.5918
10438SOL     OW32754   3.491   7.399   3.147  0.5063 -0.3484 -0.4441
10438SOL    HW132755   3.518   7.312   3.178  1.1994  0.1579  0.4190
10438SOL    HW232756   3.508   7.397   3.053  0.5405 -1.1345 -0.4283
10439SOL     OW32757   3.679   7.788   5.479  0.2383 -0.3077  0.3769
10439SOL    HW132758   3.696   7.707   5.430 -1.5854 -1.5354  1.6196
10439SOL    HW232759   3.653   7.851   5.413 -1.4158 -1.6946 -0.3785
10440SOL     OW32760   4.768   6.032   2.114  0.0578  0.1212  0.4894
10440SOL    HW132761   4.794   6.119   2.144  0.5597 -0.0473  0.5446
10440SOL    HW232762   4.793   6.031   2.021 -1.6244  0.6976 -0.0129
10441SOL     OW32763   3.640   7.155   4.998  0.1966  0.0274 -0.4581
10441SOL    HW132764   3.635   7.234   4.944 -0.6622 -0.2557 -0.8019
10441SOL    HW232765   3.730   7.125   4.988  0.3713  0.6446 -0.7827
10442SOL     OW32766   2.270   7.374   6.461  0.3990  0.1056  0.2522
10442SOL    HW132767   2.202   7.356   6.526 -0.0938  1.2739  0.0901
10442SOL    HW232768   2.350   7.388   6.511  0.1968  0.1964  0.5484
10443SOL     OW32769   4.129   6.241   6.716 -0.2580 -0.3811  0.1184
10443SOL    HW132770   4.148   6.334   6.727  1.2054 -0.4083 -1.6944
10443SOL    HW232771   4.061   6.238   6.648  0.6614 -0.6324 -0.8267
10444SOL     OW32772   3.264   4.772   6.610  0.7251 -0.0806 -0.3349
10444SOL    HW132773   3.275   4.706   6.678  1.9380  0.4444  0.0202
10444SOL    HW232774   3.333   4.752   6.546  0.3307  0.1207 -0.8270
10445SOL     OW32775   2.286   4.328   5.203  0.6098 -0.4868 -0.1597
10445SOL    HW132776   2.292   4.333   5.108 -0.4799  0.9775 -0.1735
10445SOL    HW232777   2.205   4.280   5.220  0.7317 -0.6256  0.0405
10446SOL     OW32778   3.311   5.280   4.573  0.2810  0.4666 -0.4583
10446SOL    HW132779   3.385   5.226   4.599 -0.2444 -0.0039  0.0832
10446SOL    HW232780   3.237   5.219   4.567 -0.2148  1.0352 -0.3192
10447SOL     OW32781   3.366   7.645   3.126 -0.7779  0.3192  0.0176
10447SOL    HW132782   3.404   7.558   3.134 -0.2083  0.6230  0.7765
10447SOL    HW232783   3.429   7.694   3.073  0.0931  0.9029  1.5044
10448SOL     OW32784   3.050   5.100   3.593  0.0372  0.7459  0.1352
10448SOL    HW132785   3.120   5.142   3.644  0.9864 -0.8884  0.2372
10448SOL    HW232786   3.041   5.156   3.515  2.7258  0.0875 -0.7530
10449SOL     OW32787   2.055   6.313   5.064  0.4121  0.1563  0.1069
10449SOL    HW132788   2.080   6.297   4.973  0.3264  0.5662  0.0076
10449SOL    HW232789   2.109   6.387   5.091 -0.5684  0.9618 -0.0675
10450SOL     OW32790   1.093   7.014   6.536  0.1399 -0.3338  0.0635
10450SOL    HW132791   1.103   7.010   6.441 -2.7886  2.0362 -0.5115
10450SOL    HW232792   1.145   6.941   6.569  0.2524 -2.0456 -3.4422
10451SOL     OW32793   2.936   6.321   5.238  0.4512 -0.6866 -0.1929
10451SOL    HW132794   2.862   6.327   5.299  1.9932  0.0680  1.7195
10451SOL    HW232795   2.897   6.335   5.152 -1.6292 -0.2501  0.7537
10452SOL     OW32796   2.674   6.203   5.758  0.2411 -0.4882 -0.2069
10452SOL    HW132797   2.617   6.248   5.696 -0.2638  0.8055  1.1304
10452SOL    HW232798   2.615   6.152   5.814  0.4209  0.3438  0.7753
10453SOL     OW32799   2.550   6.309   4.337 -0.0344  0.4698  0.1333
10453SOL    HW132800   2.585   6.356   4.412 -0.9640  1.2242  0.1094
10453SOL    HW232801   2.594   6.224   4.339  3.1912  1.9412 -0.9265
10454SOL     OW32802   2.254   0.343   4.155 -0.0433  0.0664 -0.2912
10454SOL    HW132803   2.241   0.276   4.088  2.0174  0.7792 -1.4884
10454SOL    HW232804   2.210   0.421   4.119  0.1652  0.1663 -0.3314
10455SOL     OW32805   3.366   5.044   5.420 -0.0692  0.2144  0.1968
10455SOL    HW132806   3.326   5.010   5.340 -0.6869  1.5878 -0.1067
10455SOL    HW232807   3.451   5.001   5.425  0.1950  0.5039 -1.4951
10456SOL     OW32808   2.539   6.566   3.951 -0.2211  0.6177  0.1004
10456SOL    HW132809   2.507   6.612   4.028 -0.1769  0.5886  0.1363
10456SOL    HW232810   2.539   6.631   3.881  0.6415  0.8997  0.3493
10457SOL     OW32811   1.831   5.966   6.647 -0.1593  0.0040  0.0812
10457SOL    HW132812   1.868   5.986   6.561 -0.2975 -0.4205 -0.0805
10457SOL    HW232813   1.809   5.873   6.642 -4.5853  0.8764 -1.0951
10458SOL     OW32814   4.221   6.392   5.241 -0.6617  0.5210 -0.1896
10458SOL    HW132815   4.126   6.402   5.230 -1.0058 -1.4793  0.6215
10458SOL    HW232816   4.231   6.350   5.326  1.0826  2.0445  0.4364
10459SOL     OW32817   1.990   7.136   5.079  0.1975  0.4006 -0.2804
10459SOL    HW132818   1.999   7.092   4.995 -0.0427  2.3192 -1.3593
10459SOL    HW232819   2.003   7.066   5.144  2.0902 -0.8223 -1.8635
10460SOL     OW32820   4.969   5.936   5.118  0.3104  0.3908 -0.6180
10460SOL    HW132821   5.059   5.914   5.140 -0.5143 -1.9601  0.6322
10460SOL    HW232822   4.938   5.988   5.192  0.6274  1.2542 -1.0775
10461SOL     OW32823   1.095   6.313   4.432 -0.3114 -0.4633  0.0940
10461SOL    HW132824   1.169   6.255   4.411  0.4920  0.0618  1.3493
10461SOL    HW232825   1.080   6.362   4.351  0.6987 -0.6079 -0.2038
10462SOL     OW32826   1.291   5.332   3.458  0.7194  0.4129  0.2761
10462SOL    HW132827   1.385   5.321   3.449  0.4259 -1.0190 -1.9385
10462SOL    HW232828   1.270   5.405   3.400  0.1998 -1.1217 -1.5875
10463SOL     OW32829   3.147   5.065   4.549  0.4519  0.1935  0.5777
10463SOL    HW132830   3.106   5.140   4.506  3.3444  1.4315 -0.3344
10463SOL    HW232831   3.149   4.997   4.481 -0.8801 -0.2233  0.9383
10464SOL     OW32832   4.567   5.800   4.638 -0.1037  0.1598  0.4801
10464SOL    HW132833   4.568   5.814   4.543 -0.8409 -1.4968  0.1761
10464SOL    HW232834   4.510   5.724   4.650  0.6664 -0.2005  2.1852
10465SOL     OW32835   3.167   7.076   5.295 -0.2624 -0.6647  0.0717
10465SOL    HW132836   3.096   7.093   5.357 -1.7127  2.9170 -2.2735
10465SOL    HW232837   3.229   7.146   5.309  0.3705 -0.9503 -1.1627
10466SOL     OW32838   3.526   7.187   3.603 -0.1716 -0.4773  0.7378
10466SOL    HW132839   3.593   7.179   3.671 -0.4723  0.0204  1.0917
10466SOL    HW232840   3.450   7.224   3.647 -0.0755  0.7273 -0.0602
10467SOL     OW32841   2.668   7.612   5.105 -0.3465  1.2149 -0.1685
10467SOL    HW132842   2.639   7.691   5.058  0.2806  0.5127 -1.7901
10467SOL    HW232843   2.718   7.646   5.179  0.2318  2.3552 -1.0494
10468SOL     OW32844   2.883   4.862   5.007  0.5520 -0.2946 -0.2471
10468SOL    HW132845   2.935   4.781   5.015 -0.6680 -1.0671  0.2453
10468SOL    HW232846   2.835   4.851   4.924  1.3033  0.4979 -0.7949
10469SOL     OW32847   0.947   5.002   4.293  0.3756 -0.2699 -0.2196
10469SOL    HW132848   0.872   4.942   4.298  1.0364 -1.0781  0.2144
10469SOL    HW232849   0.952   5.042   4.380  0.5450 -0.3328 -0.2006
10470SOL     OW32850   2.851   4.333   5.316 -0.0113  0.1825 -0.1870
10470SOL    HW132851   2.884   4.294   5.235 -1.2569 -1.9760  0.2861
10470SOL    HW232852   2.909   4.300   5.384 -0.3277  0.1646  0.0750
10471SOL     OW32853   5.647   6.405   7.355 -0.8048 -0.0505  0.1141
10471SOL    HW132854   5.686   6.491   7.340 -0.1614 -0.8950 -4.5710
10471SOL    HW232855   5.722   6.347   7.366 -1.1864 -0.3388  1.3402
10472SOL     OW32856   1.755   6.102   3.801 -0.0240  0.0302 -0.3361
10472SOL    HW132857   1.715   6.016   3.803 -1.2309  0.5788  1.7932
10472SOL    HW232858   1.700   6.152   3.740  1.7398 -1.0613 -3.0543
10473SOL     OW32859   4.061   6.403   4.600  0.2879 -0.2813  0.3203
10473SOL    HW132860   3.966   6.394   4.588 -0.0633  2.2513  0.7056
10473SOL    HW232861   4.077   6.497   4.595  2.5294 -0.4927  2.1679
10474SOL     OW32862   1.302   7.109   4.633 -0.0799 -0.5409 -0.2037
10474SOL    HW132863   1.312   7.173   4.704 -0.0006  0.2083 -0.8770
10474SOL    HW232864   1.246   7.040   4.670 -1.7950  0.8604 -0.0817
10475SOL     OW32865   3.643   5.450   5.994 -0.4899 -0.2484 -0.6531
10475SOL    HW132866   3.600   5.395   6.060  0.9079  0.1280  0.6162
10475SOL    HW232867   3.728   5.472   6.032 -0.7370  2.2753 -1.3949
10476SOL     OW32868   2.767   6.992   5.068  0.5464  0.2988  0.1119
10476SOL    HW132869   2.810   7.077   5.058 -1.3340  1.2575 -0.2722
10476SOL    HW232870   2.817   6.948   5.137  1.6009  1.6646  0.2710
10477SOL     OW32871   1.031   5.377   3.134  0.1862  0.5280  0.2594
10477SOL    HW132872   1.039   5.331   3.218 -0.7467 -1.7562 -0.8032
10477SOL    HW232873   0.948   5.424   3.141  0.5493  1.0773  0.9378
10478SOL     OW32874   2.700   7.095   5.683 -0.5877  0.2331 -0.5276
10478SOL    HW132875   2.771   7.034   5.704 -1.1677 -0.1089  0.5079
10478SOL    HW232876   2.657   7.056   5.607 -0.6671 -0.4208 -0.1594
10479SOL     OW32877   1.444   6.402   4.006  0.4202 -0.4036 -0.0153
10479SOL    HW132878   1.504   6.463   3.962 -1.2385  1.6492  0.4072
10479SOL    HW232879   1.439   6.434   4.096 -1.6518 -0.1758 -0.1647
10480SOL     OW32880   1.854   5.308   3.435  0.2795 -0.0527  0.1312
10480SOL    HW132881   1.767   5.322   3.471 -0.1225  1.9365 -1.4574
10480SOL    HW232882   1.839   5.287   3.343  1.4603 -0.6142  0.0412
10481SOL     OW32883   4.348   7.010   5.023  0.1315  0.2059  0.2639
10481SOL    HW132884   4.305   6.963   4.952 -0.5883  1.5666 -0.2427
10481SOL    HW232885   4.348   6.948   5.097 -1.5208 -0.2988 -0.1220
10482SOL     OW32886   1.642   5.856   5.606 -0.2030 -0.1625  0.3248
10482SOL    HW132887   1.729   5.896   5.608  0.4095 -1.4539  0.9630
10482SOL    HW232888   1.622   5.836   5.697 -1.1768  0.1135  0.1820
10483SOL     OW32889   3.460   0.579   6.300  0.2551  0.3242  0.1331
10483SOL    HW132890   3.451   0.558   6.393  0.6903 -0.0121  0.1005
10483SOL    HW232891   3.474   0.674   6.299  0.8193  0.2463  0.4502
10484SOL     OW32892   4.701   5.616   4.091 -0.0141  0.3618  0.3592
10484SOL    HW132893   4.776   5.675   4.087 -0.1575  0.4690 -1.7855
10484SOL    HW232894   4.624   5.673   4.092 -0.1600  0.2945 -1.9187
10485SOL     OW32895   3.346   6.046   4.953 -0.4763  0.2579 -0.1035
10485SOL    HW132896   3.427   6.002   4.979 -0.8105 -0.1434  0.2751
10485SOL    HW232897   3.281   6.016   5.016 -1.1702 -0.2731 -1.0281
10486SOL     OW32898   1.814   7.149   5.548  0.1592  0.1618  0.1914
10486SOL    HW132899   1.802   7.149   5.643  0.3128  1.4082  0.2287
10486SOL    HW232900   1.783   7.063   5.520 -1.5617  0.4200  1.1746
10487SOL     OW32901   3.786   7.090   4.670  0.5231  0.0089  0.3108
10487SOL    HW132902   3.745   7.173   4.694 -2.6531 -1.3329  0.0027
10487SOL    HW232903   3.839   7.067   4.746 -0.9358  0.9307  1.6766
10488SOL     OW32904   4.262   0.061   5.849  0.1050  0.1369  0.1234
10488SOL    HW132905   4.337   0.120   5.861 -0.7121  0.9185  1.9042
10488SOL    HW232906   4.284  -0.016   5.901 -0.0909  0.1635  0.2484
10489SOL     OW32907   1.883   5.319   5.539 -0.1694  0.7722  0.3324
10489SOL    HW132908   1.959   5.268   5.512 -0.9735  0.7053 -2.0444
10489SOL    HW232909   1.912   5.410   5.537 -0.0061  0.7130 -0.0913
10490SOL     OW32910   3.552   5.796   4.783 -0.1153 -0.1160  0.3866
10490SOL    HW132911   3.619   5.818   4.718 -0.2785 -0.8513 -0.0436
10490SOL    HW232912   3.575   5.848   4.860  0.5587  0.1479  0.0154
10491SOL     OW32913   5.250   6.112   5.021 -0.5359  0.1826 -0.1711
10491SOL    HW132914   5.293   6.114   5.106 -1.9552 -0.7729  0.6164
10491SOL    HW232915   5.295   6.043   4.972  0.6452  1.1029 -0.4394
10492SOL     OW32916   2.371   6.577   4.986 -0.1167 -0.1322 -0.0232
10492SOL    HW132917   2.282   6.573   4.952 -0.1346 -0.8165  0.1000
10492SOL    HW232918   2.371   6.518   5.062  0.5941 -0.5948 -0.3728
10493SOL     OW32919   1.217   1.582   4.861  0.2842  0.4170 -0.2909
10493SOL    HW132920   1.203   1.491   4.888 -0.6712  1.2230  2.2736
10493SOL    HW232921   1.311   1.588   4.844  0.2759 -1.1562 -1.0651
10494SOL     OW32922   3.374   6.230   4.759 -0.2649 -0.1255  0.4081
10494SOL    HW132923   3.301   6.289   4.777  0.3588  1.6573 -2.3225
10494SOL    HW232924   3.356   6.153   4.813 -2.5430  1.4422  2.0875
10495SOL     OW32925   2.575   5.706   4.499  0.4747 -0.0741  0.0180
10495SOL    HW132926   2.565   5.633   4.560 -0.4816  0.9513  1.1586
10495SOL    HW232927   2.669   5.713   4.484  0.5422 -1.8298 -0.5075
10496SOL     OW32928   3.044   5.509   3.217  0.4687  0.9244 -0.7569
10496SOL    HW132929   3.043   5.570   3.142 -2.8307  0.8326 -0.9343
10496SOL    HW232930   3.030   5.423   3.178 -0.2857  0.7488 -0.1197
10497SOL     OW32931   1.853   4.250   5.306 -0.2917 -0.3099 -0.0766
10497SOL    HW132932   1.837   4.280   5.217 -0.5389  0.2082  0.1338
10497SOL    HW232933   1.767   4.224   5.339 -0.1372 -0.8935 -0.1249
10498SOL     OW32934   4.340   0.150   4.457  0.1923 -0.1161  0.0515
10498SOL    HW132935   4.315   0.071   4.505 -1.5600 -0.1934 -0.8859
10498SOL    HW232936   4.308   0.222   4.511 -0.9526 -0.1793 -0.4930
10499SOL     OW32937   2.956   6.473   5.754 -0.3218 -0.2085  0.3892
10499SOL    HW132938   2.905   6.416   5.811 -1.6413  1.1426  0.6117
10499SOL    HW232939   3.038   6.487   5.803 -0.7325 -0.4297  1.1674
10500SOL     OW32940   2.510   6.677   5.221  0.0860  0.0710  0.1714
10500SOL    HW132941   2.537   6.755   5.270  2.1568 -0.2508 -0.3887
10500SOL    HW232942   2.420   6.661   5.251  0.2103  1.6513  1.5758
10501SOL     OW32943   2.782   7.448   4.432 -0.1971  0.1074  0.4511
10501SOL    HW132944   2.750   7.534   4.404 -0.6116  0.0694  0.7961
10501SOL    HW232945   2.749   7.438   4.521  0.2014 -0.2348  0.5658
10502SOL     OW32946   3.581   5.912   5.062 -0.2082 -0.0419 -0.4406
10502SOL    HW132947   3.589   5.887   5.154  1.8631 -1.0658 -0.8311
10502SOL    HW232948   3.661   5.878   5.022 -0.4164  1.5845 -2.3497
10503SOL     OW32949   2.783   6.330   5.018 -0.9217  0.1887  0.0381
10503SOL    HW132950   2.778   6.387   4.941 -2.0641  0.5151  0.3354
10503SOL    HW232951   2.692   6.305   5.034 -0.5651 -0.7411  0.6457
10504SOL     OW32952   2.277   6.143   5.754 -0.4954 -0.1402  0.8010
10504SOL    HW132953   2.319   6.197   5.687 -1.2826 -0.7179 -0.1840
10504SOL    HW232954   2.288   6.053   5.722 -0.7318 -0.4327  1.5381
10505SOL     OW32955   1.799   5.172   5.785 -0.2406 -0.1810  0.2211
10505SOL    HW132956   1.847   5.236   5.732 -1.2349  0.1775 -0.2600
10505SOL    HW232957   1.867   5.131   5.839  0.5933  0.3989 -0.3552
10506SOL     OW32958   1.675   5.059   3.209 -0.0997 -0.1672 -0.0298
10506SOL    HW132959   1.669   5.007   3.289 -0.4424 -0.7862 -0.4571
10506SOL    HW232960   1.584   5.074   3.183  0.0231 -0.6583 -0.7483
10507SOL     OW32961   3.433   5.953   4.193 -0.1362  0.2215 -0.1504
10507SOL    HW132962   3.338   5.945   4.201 -0.0699  0.8734  1.6014
10507SOL    HW232963   3.468   5.894   4.260  0.6464  1.3062  0.4254
10508SOL     OW32964   2.266   5.850   3.129  0.2558 -0.4517 -0.0704
10508SOL    HW132965   2.210   5.776   3.107 -0.6778 -0.1834  1.3002
10508SOL    HW232966   2.283   5.840   3.223  0.9280  0.5443 -0.0719
10509SOL     OW32967   3.891   5.162   4.837 -0.0557 -0.4246  0.0505
10509SOL    HW132968   3.959   5.126   4.779  0.2055 -0.4435  0.3689
10509SOL    HW232969   3.849   5.084   4.874  1.7309 -0.4484  2.1877
10510SOL     OW32970   2.633   4.898   5.531 -0.6164 -0.4666  0.4239
10510SOL    HW132971   2.670   4.837   5.467 -1.8534 -1.0206  0.1942
10510SOL    HW232972   2.542   4.869   5.542 -0.9626  0.7575  1.0374
10511SOL     OW32973   2.413   0.766   5.359  0.4812 -0.2844 -0.1024
10511SOL    HW132974   2.432   0.724   5.275 -1.4587 -0.5017 -0.4806
10511SOL    HW232975   2.425   0.697   5.424  1.3733 -0.2825 -0.2538
10512SOL     OW32976   3.934   7.583   6.276 -0.5570  0.5324  0.1530
10512SOL    HW132977   4.028   7.592   6.262 -0.6456 -2.0700 -3.3999
10512SOL    HW232978   3.899   7.671   6.261  1.0270  0.8022 -2.7342
10513SOL     OW32979   3.777   6.928   5.211  0.0082  0.0093  0.0988
10513SOL    HW132980   3.780   6.863   5.281 -0.9687  0.1225  0.2598
10513SOL    HW232981   3.713   6.992   5.241  0.7992  0.9485 -0.1483
10514SOL     OW32982   3.978   6.469   5.617  0.6818 -0.2606  0.6935
10514SOL    HW132983   3.982   6.534   5.687 -0.4678 -1.3606  1.8279
10514SOL    HW232984   4.017   6.390   5.655  2.8761 -0.0662 -0.9418
10515SOL     OW32985   3.295   5.752   4.429 -0.0660  0.0401  0.1651
10515SOL    HW132986   3.383   5.789   4.427 -0.6014  1.3699  0.2060
10515SOL    HW232987   3.247   5.806   4.492 -0.6498 -1.3211  0.9391
10516SOL     OW32988   0.520   6.052   5.033  0.0703  0.9343  0.0383
10516SOL    HW132989   0.492   6.066   4.943  0.3352  0.3209 -0.1464
10516SOL    HW232990   0.457   6.101   5.086 -1.0700 -0.0475 -0.3850
10517SOL     OW32991   5.333   7.411   3.477  1.1252  0.0979  0.2633
10517SOL    HW132992   5.291   7.325   3.471  2.1167 -0.5373  1.8396
10517SOL    HW232993   5.260   7.472   3.487  0.4947 -0.8484  1.7000
10518SOL     OW32994   4.515   6.153   5.568 -0.1208  0.0613  0.2988
10518SOL    HW132995   4.576   6.168   5.496  0.2940 -0.1580  0.6018
10518SOL    HW232996   4.502   6.058   5.568 -0.8044  0.1476 -0.0401
10519SOL     OW32997   4.450   5.264   4.044  0.1116  0.0338  0.6757
10519SOL    HW132998   4.411   5.242   3.959  1.0981  0.8536 -0.0152
10519SOL    HW232999   4.473   5.179   4.082 -0.5376 -0.3534  0.2165
10520SOL     OW33000   2.473   6.640   4.662  0.0061 -0.0697  0.7053
10520SOL    HW133001   2.527   6.585   4.719 -1.1105 -0.6360  1.2464
10520SOL    HW233002   2.416   6.689   4.722 -0.4030  0.1773  0.1286
10521SOL     OW33003   0.239   5.201   4.107 -0.1205 -0.7575  0.0293
10521SOL    HW133004   0.208   5.174   4.194 -2.7715 -1.0171 -0.9096
10521SOL    HW233005   0.183   5.275   4.084  0.6682 -0.5834 -1.4134
10522SOL     OW33006   1.592   5.554   2.330 -0.1749  1.1366  0.0943
10522SOL    HW133007   1.625   5.583   2.415 -0.9382  1.4035  0.3067
10522SOL    HW233008   1.671   5.530   2.280  0.2090 -1.2160  1.6397
10523SOL     OW33009   2.498   7.886   4.636 -0.1064  0.3300  0.4829
10523SOL    HW133010   2.550   7.962   4.664  0.6813 -0.6251  1.6865
10523SOL    HW233011   2.446   7.919   4.562 -0.1874  2.1771  1.3097
10524SOL     OW33012   3.020   6.829   4.286 -0.4905 -0.1838 -0.2297
10524SOL    HW133013   2.962   6.753   4.284  0.4413 -0.9029 -0.8507
10524SOL    HW233014   3.104   6.796   4.253  0.5611  0.5831  1.5321
10525SOL     OW33015   2.138   7.030   6.379 -0.1332  0.2211  0.4842
10525SOL    HW133016   2.211   7.059   6.325 -0.2838  0.4909  0.4278
10525SOL    HW233017   2.061   7.068   6.338 -0.3524 -0.4125  0.2949
10526SOL     OW33018   3.375   7.053   5.016 -0.1617  0.4369  0.4092
10526SOL    HW133019   3.467   7.044   4.993 -0.5903 -0.5015 -1.1254
10526SOL    HW233020   3.346   7.131   4.969 -0.5537 -0.3155 -0.6491
10527SOL     OW33021   3.614   5.955   5.713 -0.2569  0.0530 -0.6250
10527SOL    HW133022   3.525   5.983   5.734 -1.0897 -1.4959 -1.8752
10527SOL    HW233023   3.655   6.032   5.673 -0.7833  0.9852  0.5595
10528SOL     OW33024   2.028   5.575   4.997 -0.4638  0.4009 -0.4891
10528SOL    HW133025   2.033   5.642   4.928  0.1764 -0.9274 -1.8118
10528SOL    HW233026   2.052   5.621   5.077  0.9080  1.5636 -1.5104
10529SOL     OW33027   3.263   0.516   4.517 -0.0135 -0.3221  0.3741
10529SOL    HW133028   3.187   0.459   4.524  0.4331 -1.0131 -0.2832
10529SOL    HW233029   3.338   0.458   4.527  0.4346  0.4701  1.7838
10530SOL     OW33030   2.285   6.610   5.365 -0.4356  0.2189 -0.0924
10530SOL    HW133031   2.328   6.570   5.441  1.3869  0.4453 -0.9653
10530SOL    HW233032   2.205   6.648   5.401 -1.5229 -2.8529  1.0670
10531SOL     OW33033   2.655   6.406   3.616 -0.1607 -0.1723  0.3423
10531SOL    HW133034   2.736   6.390   3.568 -0.2679 -2.1398  0.7087
10531SOL    HW233035   2.674   6.375   3.705 -1.2755 -0.6088  0.4464
10532SOL     OW33036   3.658   5.884   7.042 -0.2263  0.3174  0.5044
10532SOL    HW133037   3.583   5.942   7.024  0.5220  0.8840 -0.9283
10532SOL    HW233038   3.622   5.796   7.034 -1.0036  0.5714  1.0251
10533SOL     OW33039   2.348   5.006   5.267  0.1240 -0.4541  0.2024
10533SOL    HW133040   2.313   5.007   5.356 -1.2364  2.2729 -0.2504
10533SOL    HW233041   2.281   4.961   5.215 -0.0462 -0.2447  0.2395
10534SOL     OW33042   1.951   6.046   2.331 -0.4139  0.3114 -0.1900
10534SOL    HW133043   1.871   6.093   2.356 -1.0972 -0.8129 -0.1950
10534SOL    HW233044   1.930   5.954   2.346  1.0341  0.0260  0.2012
10535SOL     OW33045   2.720   7.195   4.354  0.1528  0.2258 -0.0159
10535SOL    HW133046   2.750   7.286   4.359 -0.6975  0.6574 -1.8293
10535SOL    HW233047   2.642   7.192   4.408 -0.2690  0.7994 -0.5738
10536SOL     OW33048   2.123   5.623   3.136  0.2619  0.0122 -0.2741
10536SOL    HW133049   2.133   5.564   3.211  0.6263 -0.3050 -0.5672
10536SOL    HW233050   2.066   5.576   3.076 -1.8402  1.1617  0.7060
10537SOL     OW33051   2.815   5.254   4.798  0.2403 -0.5460  0.0666
10537SOL    HW133052   2.827   5.311   4.722  1.3235  0.5358  1.0025
10537SOL    HW233053   2.891   5.197   4.797  0.9617  0.3628  1.0512
10538SOL     OW33054   3.211   4.927   5.188 -0.2097  0.0719 -0.1463
10538SOL    HW133055   3.295   4.941   5.145  0.1633  0.0524  0.5547
10538SOL    HW233056   3.178   4.846   5.149  0.6399 -0.5487  0.3877
10539SOL     OW33057   4.647   6.013   3.894 -0.0258 -0.4222  0.0416
10539SOL    HW133058   4.582   5.975   3.953  0.2666 -2.1207 -0.6768
10539SOL    HW233059   4.670   5.942   3.834  0.4508  0.9410 -1.4733
10540SOL     OW33060   0.813   6.012   5.081 -0.7791 -0.4796 -0.7361
10540SOL    HW133061   0.721   6.031   5.095 -0.7020 -0.6828  0.1243
10540SOL    HW233062   0.818   5.916   5.083 -0.2852 -0.4456  1.1775
10541SOL     OW33063   2.832   5.631   5.138  0.2082 -0.5254  0.0919
10541SOL    HW133064   2.754   5.684   5.159  0.5778  0.2291 -0.4084
10541SOL    HW233065   2.902   5.672   5.188  0.3564 -1.0035  0.2777
10542SOL     OW33066   2.146   6.327   6.137  0.3699 -0.2572 -0.7214
10542SOL    HW133067   2.242   6.320   6.133  0.5209  0.3599  1.0293
10542SOL    HW233068   2.114   6.239   6.117  1.4385 -1.2979  1.8328
10543SOL     OW33069   2.623   6.168   7.693 -0.3255 -0.2633  0.2002
10543SOL    HW133070   2.627   6.242   7.753 -0.4997 -1.8297  2.2641
10543SOL    HW233071   2.702   6.176   7.640 -0.2513  1.2788  0.4944
10544SOL     OW33072   3.936   6.782   7.019 -0.2538  0.3842 -0.1030
10544SOL    HW133073   3.978   6.830   7.091 -0.0466  0.8821 -0.5571
10544SOL    HW233074   3.845   6.809   7.023 -0.0575  1.1428 -0.6196
10545SOL     OW33075   3.299   6.000   6.520 -0.2103 -0.3725 -0.3456
10545SOL    HW133076   3.282   5.917   6.476 -1.1860 -0.4576  0.1553
10545SOL    HW233077   3.388   5.991   6.554  1.0942  0.1967 -3.3462
10546SOL     OW33078   3.400   6.058   5.377  0.2132  0.3453  0.2181
10546SOL    HW133079   3.308   6.076   5.361  0.2754  0.7094  0.2596
10546SOL    HW233080   3.438   6.144   5.400  0.5657  0.2045  0.1689
10547SOL     OW33081   2.397   6.319   6.311  0.7626  0.4375  0.1541
10547SOL    HW133082   2.366   6.409   6.318  1.1122  0.5199  0.6885
10547SOL    HW233083   2.461   6.310   6.382  1.8684  0.2354 -0.8314
10548SOL     OW33084   3.440   6.018   8.478 -0.0956 -0.5830  0.1240
10548SOL    HW133085   3.463   6.107   8.503 -0.1972 -0.7394  0.7803
10548SOL    HW233086   3.513   5.989   8.422 -0.1198 -0.0531 -0.1836
10549SOL     OW33087   3.241   5.614   5.634  0.5733  0.0101  0.5984
10549SOL    HW133088   3.306   5.662   5.583 -0.5729 -0.2983 -1.2702
10549SOL    HW233089   3.292   5.558   5.692  1.9875 -0.1971 -0.7772
10550SOL     OW33090   2.916   5.258   8.167  0.3801 -0.4728  0.1610
10550SOL    HW133091   2.882   5.279   8.080  2.4420 -0.5207 -0.7197
10550SOL    HW233092   2.914   5.341   8.215 -0.0508 -0.2799 -0.1934
10551SOL     OW33093   3.129   7.029   7.700 -0.3253 -0.1106 -0.2766
10551SOL    HW133094   3.105   7.094   7.633 -0.9307  0.5153  0.5192
10551SOL    HW233095   3.076   6.952   7.679 -0.1859 -0.0767 -0.7686
10552SOL     OW33096   2.104   6.744   6.425  0.2765  0.3871 -0.5274
10552SOL    HW133097   2.148   6.673   6.378 -0.0131 -0.0504 -0.1408
10552SOL    HW233098   2.133   6.824   6.380  1.3692  0.1059 -0.3541
10553SOL     OW33099   1.324   6.097   8.341 -0.4473 -0.2269  0.0693
10553SOL    HW133100   1.294   6.013   8.377  0.4265 -0.9517 -0.8159
10553SOL    HW233101   1.416   6.082   8.320 -0.2182  1.0437  0.1183
10554SOL     OW33102   2.492   6.028   6.573 -0.0575  0.0640  0.0121
10554SOL    HW133103   2.478   5.983   6.489  1.1931  0.9716 -0.7235
10554SOL    HW233104   2.524   6.115   6.548  3.4556 -0.6849  1.3818
10555SOL     OW33105   0.254   7.612   6.039 -0.4558  0.5253  0.3983
10555SOL    HW133106   0.228   7.605   5.947 -1.9049  3.0818  0.5464
10555SOL    HW233107   0.264   7.705   6.055  1.2099  0.0813  2.5156
10556SOL     OW33108   4.188   7.664   6.825  0.0767 -0.0466 -0.0949
10556SOL    HW133109   4.213   7.612   6.901 -1.1506 -0.6312 -0.0727
10556SOL    HW233110   4.261   7.653   6.764  0.4299 -0.7231  0.4338
10557SOL     OW33111   1.994   7.462   5.203 -0.1077 -0.6275  0.2464
10557SOL    HW133112   1.998   7.482   5.297 -0.2601  0.3163  0.0648
10557SOL    HW233113   1.915   7.410   5.193 -0.1341 -0.6672  0.6366
10558SOL     OW33114   0.607   5.874   7.240 -0.5796 -0.1838 -0.0951
10558SOL    HW133115   0.573   5.789   7.214  1.9085 -1.1780 -0.4206
10558SOL    HW233116   0.656   5.857   7.321 -1.0769  1.1996  0.5365
10559SOL     OW33117   2.373   7.870   7.405  0.3433  0.5086 -0.1890
10559SOL    HW133118   2.415   7.892   7.488 -0.2877  1.2886 -0.0662
10559SOL    HW233119   2.419   7.923   7.340  0.0983  0.7410 -0.1736
10560SOL     OW33120   4.152   5.758   6.545  0.2909 -0.2857 -0.3281
10560SOL    HW133121   4.125   5.833   6.597 -1.6751 -0.6431 -0.7237
10560SOL    HW233122   4.103   5.684   6.582  2.3134 -1.4511  0.1821
10561SOL     OW33123   1.931   5.229   8.164  0.6380 -0.2912 -0.2139
10561SOL    HW133124   1.918   5.320   8.137  1.5253 -0.0623  0.0848
10561SOL    HW233125   1.981   5.235   8.245 -0.7902 -1.0113  0.7571
10562SOL     OW33126   5.005   6.563   6.588 -0.7490  0.0056  0.0469
10562SOL    HW133127   5.080   6.504   6.581  0.7087  1.7911 -0.4556
10562SOL    HW233128   4.973   6.551   6.677  0.3659 -0.5662  0.3942
10563SOL     OW33129   1.821   7.336   6.463  0.0866  0.1691 -0.5316
10563SOL    HW133130   1.855   7.283   6.391  2.1018  1.1057 -0.3309
10563SOL    HW233131   1.814   7.424   6.427 -3.8940 -0.1778 -1.0833
10564SOL     OW33132   4.264   6.853   5.282  0.2125 -0.2507  0.3159
10564SOL    HW133133   4.191   6.846   5.221 -0.9289  1.8220  1.3246
10564SOL    HW233134   4.226   6.829   5.367  1.2460 -1.0882  0.5665
10565SOL     OW33135   4.745   6.423   5.390  0.3166  0.3243  0.3773
10565SOL    HW133136   4.828   6.445   5.347  0.8179  0.5856  1.4187
10565SOL    HW233137   4.764   6.343   5.438 -0.3669 -0.2264 -0.2528
10566SOL     OW33138   2.068   6.495   7.472 -0.2372 -0.0611 -0.2264
10566SOL    HW133139   2.124   6.422   7.498 -0.2439  0.0944  0.2422
10566SOL    HW233140   2.010   6.509   7.547  0.1868  0.8362 -0.0520
10567SOL     OW33141   3.078   6.946   4.990  0.3282 -0.3359 -0.3448
10567SOL    HW133142   3.049   6.899   4.912  0.8385 -0.9551 -0.1689
10567SOL    HW233143   3.027   7.027   4.989 -1.6954 -1.5301  0.1480
10568SOL     OW33144   1.903   5.875   7.232 -0.4275  0.2404 -0.5655
10568SOL    HW133145   1.885   5.858   7.140 -0.0306  1.6826 -0.9226
10568SOL    HW233146   1.820   5.856   7.276 -1.2285  1.4805 -1.4859
10569SOL     OW33147   3.248   4.683   5.434  0.2254  0.4705  0.0648
10569SOL    HW133148   3.329   4.634   5.449  1.1076  1.7963 -0.2026
10569SOL    HW233149   3.225   4.663   5.343  0.3327  0.2102  0.0921
10570SOL     OW33150   3.128   7.321   9.088 -0.3899 -0.3201 -0.3905
10570SOL    HW133151   3.096   7.324   8.998  0.2384  0.7222 -0.6012
10570SOL    HW233152   3.063   7.372   9.137 -0.6647 -0.7823 -0.2652
10571SOL     OW33153   3.455   5.754   5.501  0.2139  0.6131 -0.2335
10571SOL    HW133154   3.460   5.842   5.539 -0.4177  0.7777 -0.5155
10571SOL    HW233155   3.536   5.711   5.530  0.0380  0.9339  0.7776
10572SOL     OW33156   3.041   5.859   6.796 -0.1692  0.1579  0.2857
10572SOL    HW133157   3.108   5.868   6.863 -0.8031 -0.8408  1.0816
10572SOL    HW233158   3.088   5.826   6.719  0.2768 -0.4287  0.8037
10573SOL     OW33159   2.988   6.023   8.460  0.5006 -0.0794 -0.1658
10573SOL    HW133160   2.912   5.970   8.480 -0.4173  0.9829 -0.7175
10573SOL    HW233161   2.959   6.082   8.390  2.1158 -0.3104 -1.0804
10574SOL     OW33162   1.984   6.634   7.115  0.4086  0.6069  0.3335
10574SOL    HW133163   2.069   6.632   7.071  0.4854 -1.5562  0.5006
10574SOL    HW233164   1.930   6.689   7.059  1.8639  2.0005  0.2026
10575SOL     OW33165   3.298   0.850   5.239  0.3594 -0.2819 -0.6266
10575SOL    HW133166   3.310   0.932   5.285 -0.0197  0.3555 -1.6219
10575SOL    HW233167   3.382   0.836   5.194 -0.1353  0.4774 -1.8419
10576SOL     OW33168   1.897   4.906   8.760  0.2317 -0.4381  0.1492
10576SOL    HW133169   1.908   4.844   8.689 -0.9547 -1.8688  1.1639
10576SOL    HW233170   1.948   4.869   8.832 -1.1584 -0.7071  1.0271
10577SOL     OW33171   2.468   5.977   6.325 -0.1687 -0.3277  0.0775
10577SOL    HW133172   2.491   5.901   6.272  0.7697 -0.3821  0.5397
10577SOL    HW233173   2.502   6.052   6.276  1.5511 -0.4426  0.9947
10578SOL     OW33174   4.082   7.330   6.577 -0.3245  0.5358  0.2173
10578SOL    HW133175   4.080   7.310   6.671 -1.6357 -1.2214 -0.1268
10578SOL    HW233176   4.174   7.321   6.553  0.1678  1.8508  1.4673
10579SOL     OW33177   4.290   5.861   8.618 -0.1059 -0.0285  0.0803
10579SOL    HW133178   4.347   5.933   8.645  0.8749 -0.1904 -1.4901
10579SOL    HW233179   4.349   5.790   8.595 -0.9428 -0.3603 -1.1325
10580SOL     OW33180   6.331   6.048   7.026 -0.3440  0.3936 -0.1301
10580SOL    HW133181   6.255   6.087   7.069 -0.4555  1.3849 -1.1964
10580SOL    HW233182   6.296   5.972   6.980 -0.3095 -0.3767  1.0493
10581SOL     OW33183   2.693   7.460   9.029 -0.3461 -0.4165 -0.2636
10581SOL    HW133184   2.673   7.419   9.113 -0.6248 -0.6378 -0.4364
10581SOL    HW233185   2.620   7.435   8.973  0.7106 -1.7707 -1.1065
10582SOL     OW33186   3.452   5.269   8.464  0.0761  0.4680  0.2586
10582SOL    HW133187   3.394   5.263   8.388  1.3240  2.1609 -0.9086
10582SOL    HW233188   3.467   5.363   8.476  2.9809  0.1414  0.0956
10583SOL     OW33189   3.161   5.571   4.717  0.1309  0.1904 -0.0874
10583SOL    HW133190   3.202   5.635   4.774  0.2533  0.5300 -0.5523
10583SOL    HW233191   3.088   5.618   4.676 -1.9341 -0.8842  2.0982
10584SOL     OW33192   2.862   5.535   6.077 -0.3927  0.2077 -0.3452
10584SOL    HW133193   2.940   5.581   6.046 -1.3273  0.1540 -2.9981
10584SOL    HW233194   2.894   5.447   6.098  0.7440  0.9783  1.4560
10585SOL     OW33195   2.397   7.791   9.036  0.1480 -0.6014 -0.1340
10585SOL    HW133196   2.435   7.864   9.085 -0.7846 -1.5911  2.2380
10585SOL    HW233197   2.384   7.824   8.948  2.0948  1.2542  0.2086
10586SOL     OW33198   1.309   5.504   6.286  0.4554  0.2581  1.0390
10586SOL    HW133199   1.364   5.578   6.261 -1.5590  1.6124  0.4236
10586SOL    HW233200   1.243   5.498   6.216  0.7849 -2.3936  0.8540
10587SOL     OW33201   4.889   7.792   6.479  0.8480 -0.2068 -0.0705
10587SOL    HW133202   4.886   7.763   6.570  1.2043 -1.8269 -0.5592
10587SOL    HW233203   4.982   7.802   6.460  0.7597  0.5854 -0.1366
10588SOL     OW33204   2.514   0.119   5.413 -0.3570  0.2174 -0.1847
10588SOL    HW133205   2.554   0.171   5.483 -0.3910  0.0608 -0.0477
10588SOL    HW233206   2.561   0.145   5.334  1.7924 -1.7899  0.3238
10589SOL     OW33207   3.906   7.086   4.948 -0.1540  0.3714 -0.0821
10589SOL    HW133208   3.945   7.162   4.906 -0.0021  0.8616  0.9042
10589SOL    HW233209   3.967   7.064   5.019  1.1155 -2.1956 -1.7866
10590SOL     OW33210   3.251   6.681   5.133  0.1493  0.0719 -0.2031
10590SOL    HW133211   3.267   6.629   5.054 -1.9244 -0.3697 -0.3762
10590SOL    HW233212   3.221   6.617   5.197  0.0289  0.7075  0.3776
10591SOL     OW33213   2.256   6.685   7.030  0.1677 -0.5936 -0.2615
10591SOL    HW133214   2.297   6.771   7.041 -1.1692 -0.0217  0.5399
10591SOL    HW233215   2.291   6.652   6.948 -1.0921  1.8111 -1.8999
10592SOL     OW33216   3.662   5.624   5.276 -0.0412 -0.3981 -0.2482
10592SOL    HW133217   3.694   5.691   5.337 -1.1490  0.6475 -0.7588
10592SOL    HW233218   3.589   5.667   5.231  0.5204 -1.2558 -2.0619
10593SOL     OW33219   4.625   6.206   7.152 -0.3432  0.8765  0.0582
10593SOL    HW133220   4.642   6.164   7.068 -0.5059  1.3349 -0.2051
10593SOL    HW233221   4.530   6.212   7.158 -0.3083  2.4432 -0.5339
10594SOL     OW33222   3.590   5.736   6.009 -0.3616  0.3358 -0.1903
10594SOL    HW133223   3.658   5.803   5.997 -0.0163 -0.0579 -0.4676
10594SOL    HW233224   3.613   5.667   5.947 -0.6328 -0.1044  0.1856
10595SOL     OW33225   4.022   7.044   5.882  0.3787 -0.4949 -0.1132
10595SOL    HW133226   4.109   7.018   5.913 -0.0706 -1.2482  0.5523
10595SOL    HW233227   3.969   6.965   5.892 -0.6456  0.2602  0.4979
10596SOL     OW33228   2.363   6.951   8.560  0.2882  0.5687 -0.1891
10596SOL    HW133229   2.343   6.859   8.579 -1.0261  0.5221 -1.6225
10596SOL    HW233230   2.365   6.993   8.646 -0.4271 -0.5565  0.4039
10597SOL     OW33231   3.410   7.718   6.720 -0.0843  0.6037  0.7404
10597SOL    HW133232   3.390   7.804   6.683 -2.6852  0.3442  1.3945
10597SOL    HW233233   3.352   7.657   6.674  0.0710 -0.4593  1.8858
10598SOL     OW33234   1.251   7.183   7.135  0.3101  0.4364  0.2553
10598SOL    HW133235   1.155   7.184   7.142  0.2417  0.9371 -0.5590
10598SOL    HW233236   1.282   7.209   7.222 -0.2666 -0.7048  0.8204
10599SOL     OW33237   4.399   7.433   5.119 -0.0588 -0.0731  0.0497
10599SOL    HW133238   4.327   7.417   5.180 -0.6559  2.6046  0.1385
10599SOL    HW233239   4.461   7.487   5.168  1.0818 -0.6538 -0.6916
10600SOL     OW33240   3.203   4.948   7.636 -0.3391  0.3181 -0.2894
10600SOL    HW133241   3.112   4.967   7.659 -0.6221  1.3823 -2.1311
10600SOL    HW233242   3.198   4.888   7.562  0.5134 -0.9863  0.6630
10601SOL     OW33243   2.125   5.763   5.484  0.8241  0.6072 -0.4493
10601SOL    HW133244   2.220   5.776   5.472  0.7538  2.3310  0.5358
10601SOL    HW233245   2.118   5.704   5.559  1.1074  0.0735 -0.8333
10602SOL     OW33246   2.954   6.630   9.621  0.6607  0.1754  0.1569
10602SOL    HW133247   2.892   6.559   9.638  0.7963 -0.1888 -0.8190
10602SOL    HW233248   2.940   6.692   9.693 -1.6138  0.6275 -0.5961
10603SOL     OW33249   4.315   5.913   7.552  0.2256  0.2410 -0.0291
10603SOL    HW133250   4.313   6.005   7.525  0.4334  0.3711  0.3868
10603SOL    HW233251   4.245   5.872   7.501  0.0915  0.6415 -0.1751
10604SOL     OW33252   2.238   5.808   4.734 -0.0795 -0.2744  0.2910
10604SOL    HW133253   2.152   5.823   4.774 -0.2074 -0.9597  0.2819
10604SOL    HW233254   2.259   5.717   4.756 -0.9251 -1.2954 -2.6221
10605SOL     OW33255   3.754   5.910   7.412  0.1311 -0.5172 -0.4946
10605SOL    HW133256   3.810   5.960   7.352  1.0976  0.7913  1.3916
10605SOL    HW233257   3.665   5.924   7.378  0.1850  3.6454  0.5569
10606SOL     OW33258   2.133   4.518   4.813  0.1518 -0.3959  0.0827
10606SOL    HW133259   2.170   4.490   4.729  1.1843  0.8719  0.0799
10606SOL    HW233260   2.151   4.445   4.872 -0.6534 -1.3374 -0.7977
10607SOL     OW33261   2.771   4.997   8.789  0.3410 -0.4123  0.3791
10607SOL    HW133262   2.680   4.996   8.758  0.8915  2.3308 -1.6506
10607SOL    HW233263   2.772   5.066   8.856  1.1836  0.5402 -0.5992
10608SOL     OW33264   3.790   6.643   5.514 -0.4034 -0.1925 -0.1259
10608SOL    HW133265   3.853   6.576   5.540  2.8029  1.8879 -1.9556
10608SOL    HW233266   3.753   6.609   5.432 -0.8505 -0.9040  0.3564
10609SOL     OW33267   3.255   6.652   8.144  0.2988  0.1608  0.6094
10609SOL    HW133268   3.175   6.603   8.130  0.9652 -0.8438  0.1838
10609SOL    HW233269   3.324   6.586   8.148  1.5828  1.0872 -2.5199
10610SOL     OW33270   2.520   5.581   5.262 -0.0092 -0.0969 -0.1471
10610SOL    HW133271   2.504   5.656   5.205  0.9510  1.0206  0.9912
10610SOL    HW233272   2.521   5.618   5.351  3.6320 -0.8247  0.2789
10611SOL     OW33273   2.710   2.424   5.289 -0.3637  0.0544  0.5594
10611SOL    HW133274   2.712   2.449   5.196  1.3742  0.2784  0.6376
10611SOL    HW233275   2.716   2.329   5.288  2.7091  0.1654  0.4538
10612SOL     OW33276   1.834   5.118   6.504  0.1574  0.1329  0.3657
10612SOL    HW133277   1.906   5.181   6.508 -1.2088  1.7050  1.4563
10612SOL    HW233278   1.777   5.142   6.576 -1.3884 -1.1783 -0.3593
10613SOL     OW33279   2.597   5.339   6.043 -0.1185  0.2503 -0.1532
10613SOL    HW133280   2.625   5.252   6.070  0.2078  0.6809  0.9781
10613SOL    HW233281   2.676   5.393   6.053  0.2052  0.3408 -2.6225
10614SOL     OW33282   2.058   5.578   7.958  0.3966  0.0015  0.1198
10614SOL    HW133283   1.964   5.558   7.961  0.8639 -2.4482  0.5679
10614SOL    HW233284   2.094   5.533   8.035  1.9227  1.1325  0.1094
10615SOL     OW33285   3.259   5.249   7.500  0.2828  0.0076  0.0700
10615SOL    HW133286   3.243   5.164   7.459  1.8440  0.0055 -0.6166
10615SOL    HW233287   3.172   5.282   7.521 -0.3560 -1.7085  0.2624
10616SOL     OW33288   2.940   6.611   7.117 -0.5710  0.3827  0.2146
10616SOL    HW133289   2.871   6.652   7.169 -1.9402  0.3915 -1.5478
10616SOL    HW233290   3.014   6.605   7.178 -1.3440  2.4799  1.4832
10617SOL     OW33291   2.845   7.253   5.945  0.3183 -0.2081 -0.1738
10617SOL    HW133292   2.858   7.348   5.946 -2.8804  0.3466  1.7573
10617SOL    HW233293   2.912   7.219   6.004  0.1623  1.1165  0.8084
10618SOL     OW33294   3.255   0.571   5.472  0.0085 -0.1273  0.0099
10618SOL    HW133295   3.314   0.633   5.515 -0.4981  0.3747 -0.0039
10618SOL    HW233296   3.290   0.485   5.494 -1.1214  0.0231  2.7866
10619SOL     OW33297   2.920   5.273   6.106  0.6285 -0.0184  0.5136
10619SOL    HW133298   3.004   5.231   6.086  0.0240 -0.1742 -2.0158
10619SOL    HW233299   2.858   5.201   6.115  0.4590  0.1687  0.8888
10620SOL     OW33300   3.108   4.896   7.957 -0.3452 -0.1003 -0.2172
10620SOL    HW133301   3.036   4.879   7.896 -0.4909  0.3333 -0.1714
10620SOL    HW233302   3.103   4.825   8.021  0.4102 -1.1048 -1.2504
10621SOL     OW33303   3.496   6.121   7.020 -0.2181 -0.4800 -0.1619
10621SOL    HW133304   3.486   6.151   6.930  0.0108  0.3780  0.0833
10621SOL    HW233305   3.578   6.161   7.050 -0.7577  0.0147  0.7100
10622SOL     OW33306   2.386   6.564   7.310  0.8873  0.3409  0.3440
10622SOL    HW133307   2.449   6.543   7.241  0.3447 -2.2307  0.5183
10622SOL    HW233308   2.391   6.489   7.370 -1.1191  0.8847  1.2669
10623SOL     OW33309   3.757   6.109   7.905  0.5494  0.2791  0.2899
10623SOL    HW133310   3.753   6.105   7.810 -0.7391  0.9671  0.2916
10623SOL    HW233311   3.672   6.075   7.934  0.4495  1.2015  1.1432
10624SOL     OW33312   3.115   6.329   4.838 -0.2130  0.9213  0.0373
10624SOL    HW133313   3.032   6.376   4.842 -2.2965 -2.3930  0.0173
10624SOL    HW233314   3.146   6.325   4.929 -1.0283  0.7209  0.3151
10625SOL     OW33315   3.750   6.113   6.347  0.2250  0.1479 -0.3711
10625SOL    HW133316   3.706   6.053   6.408  0.0983  0.3626 -0.2467
10625SOL    HW233317   3.801   6.171   6.404  0.2255  0.2541 -0.4794
10626SOL     OW33318   4.306   5.473   5.098 -0.3299 -0.1925  0.0098
10626SOL    HW133319   4.239   5.411   5.126  0.8075 -1.2998  0.3966
10626SOL    HW233320   4.377   5.461   5.161 -0.0647  1.4965  0.0676
10627SOL     OW33321   2.699   4.958   3.404 -0.0148 -0.6928  0.2241
10627SOL    HW133322   2.714   4.927   3.315  1.6099 -0.9804  0.5720
10627SOL    HW233323   2.604   4.972   3.409 -0.0074  0.5390 -1.9276
10628SOL     OW33324   3.123   7.191   7.452  0.2857 -0.0533  0.1639
10628SOL    HW133325   3.134   7.191   7.357  0.2658  0.0637  0.1606
10628SOL    HW233326   3.071   7.270   7.469 -0.2175 -0.3879  0.2133
10629SOL     OW33327   2.747   6.798   7.252 -0.2166  0.4643 -0.7307
10629SOL    HW133328   2.658   6.821   7.279 -0.0700  0.9121 -0.6163
10629SOL    HW233329   2.803   6.860   7.299  0.1154  0.5786 -1.2666
10630SOL     OW33330   3.279   6.859   7.923  0.3015  0.5223  0.1094
10630SOL    HW133331   3.193   6.876   7.884  0.7233 -1.1340 -1.7300
10630SOL    HW233332   3.259   6.809   8.003 -0.4784 -1.1429 -1.0520
10631SOL     OW33333   1.874   5.589   5.584  0.8412  0.3511  0.3968
10631SOL    HW133334   1.840   5.594   5.674  0.1224  0.5768  0.1241
10631SOL    HW233335   1.862   5.678   5.549 -0.7445 -0.1949 -0.5565
10632SOL     OW33336   2.636   6.058   8.328 -0.6757 -0.8401  0.1249
10632SOL    HW133337   2.687   6.109   8.265 -1.0347 -2.2634 -1.3985
10632SOL    HW233338   2.684   6.067   8.411 -0.4974  1.5395 -0.1559
10633SOL     OW33339   3.852   5.246   6.057  0.0458  0.1350  0.5279
10633SOL    HW133340   3.799   5.167   6.045 -1.2289  0.5726  2.7366
10633SOL    HW233341   3.924   5.236   5.995 -1.3033 -1.6572 -0.8526
10634SOL     OW33342   1.782   7.580   8.191  0.7127  0.0749 -0.1991
10634SOL    HW133343   1.821   7.574   8.279  1.3567  0.1686 -0.4724
10634SOL    HW233344   1.759   7.672   8.182  0.0032 -0.0619  0.1353
10635SOL     OW33345   3.318   0.368   5.884  0.0390 -0.1426 -0.2436
10635SOL    HW133346   3.268   0.385   5.805  1.5326 -0.2951 -1.2543
10635SOL    HW233347   3.306   0.447   5.937  0.0784  0.5099 -1.1927
10636SOL     OW33348   3.299   6.996   6.269  0.1919  0.7979  0.4238
10636SOL    HW133349   3.324   6.929   6.205  1.4707  3.1423 -1.7133
10636SOL    HW233350   3.345   6.972   6.349  0.4293 -0.9646 -0.1980
10637SOL     OW33351   2.250   4.959   7.681 -0.0029  0.6051  0.0668
10637SOL    HW133352   2.180   4.902   7.712 -0.6235  1.0437 -0.5045
10637SOL    HW233353   2.325   4.901   7.668 -0.6534 -0.0954 -0.6087
10638SOL     OW33354   3.221   7.408   6.476 -0.2891 -0.3588 -0.1974
10638SOL    HW133355   3.128   7.404   6.495 -0.3764 -0.0977 -0.5500
10638SOL    HW233356   3.239   7.501   6.463  0.0691 -0.3806  0.1000
10639SOL     OW33357   1.884   6.647   6.239  0.0856 -0.1197  0.4408
10639SOL    HW133358   1.968   6.649   6.283  0.7539  0.5834 -0.8237
10639SOL    HW233359   1.861   6.738   6.224 -1.0316 -0.2921  0.9905
10640SOL     OW33360   2.216   5.583   5.748  0.0092 -0.7806  0.2003
10640SOL    HW133361   2.281   5.513   5.737 -0.1238 -0.7277 -1.0237
10640SOL    HW233362   2.142   5.539   5.791  0.6430 -0.9553  1.1372
10641SOL     OW33363   3.395   7.775   5.264 -0.3108  0.4892 -0.2969
10641SOL    HW133364   3.353   7.858   5.242 -2.7137 -0.4623  0.3980
10641SOL    HW233365   3.389   7.770   5.359 -0.4914 -0.6142 -0.3533
10642SOL     OW33366   1.177   5.661   6.519 -0.4144  0.4481  0.1656
10642SOL    HW133367   1.186   5.686   6.427 -0.4093  1.1033  0.3429
10642SOL    HW233368   1.229   5.581   6.527 -1.7391 -0.5572 -0.7807
10643SOL     OW33369   3.582   6.328   6.063 -0.1825  0.5854 -0.2938
10643SOL    HW133370   3.559   6.307   5.973  0.7521  0.4521 -0.5109
10643SOL    HW233371   3.652   6.266   6.085  0.4532  1.4143  0.0974
10644SOL     OW33372   3.069   5.685   8.251 -0.1342  0.2916 -0.4028
10644SOL    HW133373   3.005   5.616   8.269  0.5989 -0.1279  0.6962
10644SOL    HW233374   3.154   5.640   8.254  0.3790  1.2862  0.6878
10645SOL     OW33375   2.647   5.304   7.088  0.0070 -0.1586  0.0456
10645SOL    HW133376   2.662   5.218   7.125 -0.3453  0.5352  1.9156
10645SOL    HW233377   2.587   5.289   7.015  1.1424 -1.6356 -0.6239
10646SOL     OW33378   3.489   6.164   9.096 -0.9679  0.3053 -0.2267
10646SOL    HW133379   3.479   6.254   9.067 -0.8181  0.2396 -0.4841
10646SOL    HW233380   3.456   6.111   9.024  0.5716  0.1049 -0.8388
10647SOL     OW33381   2.463   5.601   6.633 -0.1472  0.9785 -0.7063
10647SOL    HW133382   2.558   5.608   6.635  0.2252 -2.5952 -1.1469
10647SOL    HW233383   2.438   5.591   6.725  0.0821  0.2795 -0.7181
10648SOL     OW33384   2.925   6.616   6.389 -0.3844  0.3313  1.1189
10648SOL    HW133385   2.969   6.654   6.465 -0.5484  2.2172  0.3416
10648SOL    HW233386   2.996   6.597   6.327 -0.3631  0.1381  1.2048
10649SOL     OW33387   1.979   6.325   3.714  0.2962 -0.3734  0.3217
10649SOL    HW133388   2.067   6.359   3.699 -0.0636  0.7174  0.5700
10649SOL    HW233389   1.959   6.274   3.636  0.4434  0.9325 -0.5977
10650SOL     OW33390   3.328   5.186   5.854 -0.8096  0.1317  0.4203
10650SOL    HW133391   3.316   5.129   5.778  1.7233  0.1503 -0.0962
10650SOL    HW233392   3.395   5.142   5.907  2.0396  2.9289 -0.5060
10651SOL     OW33393   1.680   6.283   8.496  0.1118 -0.3015  0.3096
10651SOL    HW133394   1.682   6.302   8.590 -0.0828  0.0900  0.2397
10651SOL    HW233395   1.712   6.193   8.489 -3.2552 -1.7274  1.1079
10652SOL     OW33396   2.450   5.780   9.960  0.1832 -0.4696 -0.3985
10652SOL    HW133397   2.510   5.818  10.024  1.5625 -1.1767 -1.2272
10652SOL    HW233398   2.437   5.690   9.990  0.1326 -0.5413 -0.6326
10653SOL     OW33399   4.772   6.073   8.775  0.4136  0.3584  0.4173
10653SOL    HW133400   4.718   6.013   8.723  1.3992  0.9389 -1.3515
10653SOL    HW233401   4.744   6.160   8.748  0.6313  0.6866  1.2162
10654SOL     OW33402   1.493   7.282   5.750 -0.4224  0.2635 -0.0576
10654SOL    HW133403   1.562   7.221   5.776 -0.4035  0.6360  0.7814
10654SOL    HW233404   1.455   7.243   5.671  0.3895 -0.2139 -0.2207
10655SOL     OW33405   3.259   5.362   4.872  1.0591 -0.0349  0.1666
10655SOL    HW133406   3.243   5.435   4.813 -0.1073  0.6081  1.2399
10655SOL    HW233407   3.265   5.285   4.814 -1.9647  0.2733 -0.7058
10656SOL     OW33408   2.508   7.465   4.023  0.2860  0.1936  0.4536
10656SOL    HW133409   2.495   7.548   3.978 -0.0004 -1.0692 -1.9531
10656SOL    HW233410   2.598   7.440   4.002  0.3028 -0.2131  0.9857
10657SOL     OW33411   3.833   7.705   8.857 -0.3147 -0.2300  0.0020
10657SOL    HW133412   3.838   7.683   8.764  0.0519  0.3429 -0.1180
10657SOL    HW233413   3.913   7.668   8.895 -1.6663 -2.7804  0.6151
10658SOL     OW33414   6.075   5.586   7.354 -0.3532 -0.1296 -0.5245
10658SOL    HW133415   6.056   5.492   7.345 -1.0343  0.0158 -0.6077
10658SOL    HW233416   6.111   5.611   7.269  0.3239 -0.4224 -0.3362
10659SOL     OW33417   4.490   6.198   5.076  0.2130  0.5554  0.0802
10659SOL    HW133418   4.514   6.277   5.124 -1.0762  1.3411 -0.5355
10659SOL    HW233419   4.439   6.229   5.001  0.1438 -0.8208 -0.4729
10660SOL     OW33420   4.776   6.077   6.645 -0.1579  0.2280 -0.1641
10660SOL    HW133421   4.808   6.123   6.568  0.3909 -0.0227 -0.0989
10660SOL    HW233422   4.856   6.042   6.686 -0.3700  0.8779  0.8490
10661SOL     OW33423   3.855   7.379   5.111 -0.2437  0.0547  0.1051
10661SOL    HW133424   3.829   7.312   5.174 -0.5943 -1.8235 -1.8912
10661SOL    HW233425   3.785   7.378   5.045 -0.6671  3.0071  0.3652
10662SOL     OW33426   2.835   6.248   7.545 -0.3422 -0.0746  0.0400
10662SOL    HW133427   2.861   6.340   7.549 -0.5558  0.0639 -1.3057
10662SOL    HW233428   2.854   6.222   7.455 -0.1759 -1.3820  0.4392
10663SOL     OW33429   4.004   7.481   5.536  0.0683 -0.2433 -0.6083
10663SOL    HW133430   3.967   7.394   5.531 -1.8878  0.4985  0.0967
10663SOL    HW233431   4.026   7.493   5.629  0.8052 -0.1540 -0.7863
10664SOL     OW33432   3.966   6.854   8.702  0.0686  0.2199  0.2782
10664SOL    HW133433   4.037   6.806   8.744 -0.7875 -0.0353  1.4952
10664SOL    HW233434   3.901   6.867   8.772 -1.9825 -1.2751 -1.2194
10665SOL     OW33435   2.846   6.101   6.480 -0.3479 -0.1300 -0.3131
10665SOL    HW133436   2.866   6.170   6.417  2.0391 -0.7362 -0.3012
10665SOL    HW233437   2.868   6.019   6.435 -2.4091 -0.8881 -0.0584
10666SOL     OW33438   2.879   0.229   6.292 -0.6266 -0.1915  0.0464
10666SOL    HW133439   2.942   0.262   6.356 -1.2543 -0.4563  0.8197
10666SOL    HW233440   2.838   0.307   6.255  0.3105 -0.0084 -0.6387
10667SOL     OW33441   2.396   7.594   5.787 -0.3176  0.2095  0.0290
10667SOL    HW133442   2.359   7.580   5.700  1.0048 -2.8029 -0.1763
10667SOL    HW233443   2.466   7.659   5.773 -2.3324  2.4309 -0.3955
10668SOL     OW33444   3.752   6.269   6.958 -0.1868 -0.3086 -0.1091
10668SOL    HW133445   3.738   6.261   6.864 -0.7447  0.9934 -0.1549
10668SOL    HW233446   3.700   6.345   6.984 -0.5476 -1.0206  1.3629
10669SOL     OW33447   2.512   6.126   7.047  0.3970  0.1672 -0.2263
10669SOL    HW133448   2.506   6.100   7.139  0.0092  1.7767  0.2177
10669SOL    HW233449   2.545   6.047   7.003 -1.4544 -1.3622  0.9248
10670SOL     OW33450   1.181   6.998   5.700  1.1093 -0.3704 -0.1240
10670SOL    HW133451   1.274   6.974   5.698  0.8682 -1.3182 -1.1683
10670SOL    HW233452   1.145   6.947   5.772  1.4568  0.2684  0.5114
10671SOL     OW33453   1.800   7.670   8.743 -0.3689  0.3949 -0.2011
10671SOL    HW133454   1.758   7.602   8.691  1.5786 -0.5870 -0.6190
10671SOL    HW233455   1.868   7.624   8.793  0.3828  1.8925  0.2470
10672SOL     OW33456   2.957   6.294   6.312  0.6130 -0.3950 -0.1092
10672SOL    HW133457   3.021   6.357   6.344 -1.2967  1.1750  0.8547
10672SOL    HW233458   2.989   6.267   6.226  2.2227  0.7942  0.0856
10673SOL     OW33459   3.481   6.330   6.759  0.2277 -0.2776  0.6165
10673SOL    HW133460   3.387   6.341   6.744  0.1924 -0.7080  0.4965
10673SOL    HW233461   3.507   6.409   6.805  0.1347  0.6410 -0.8445
10674SOL     OW33462   3.168   5.153   8.245  0.6581  0.4491 -0.2550
10674SOL    HW133463   3.099   5.215   8.219  0.9117  1.3618  1.1284
10674SOL    HW233464   3.123   5.091   8.303  1.0458  1.3375  1.0558
10675SOL     OW33465   3.659   6.398   5.591 -0.4043 -0.0293  0.4183
10675SOL    HW133466   3.657   6.492   5.610  0.2898 -0.3859  2.5015
10675SOL    HW233467   3.614   6.358   5.666  0.5642 -1.4532  0.2716
10676SOL     OW33468   2.129   4.940   7.062  0.3960 -0.3666  0.2625
10676SOL    HW133469   2.042   4.933   7.100  0.2683 -0.1444  0.0217
10676SOL    HW233470   2.189   4.941   7.137  0.1600 -0.0773  0.4485
10677SOL     OW33471   2.776   7.642   7.873 -0.2784  1.0960 -0.5082
10677SOL    HW133472   2.754   7.590   7.950  0.6725  1.4157 -0.0120
10677SOL    HW233473   2.871   7.646   7.872 -0.3043  1.9280 -1.1422
10678SOL     OW33474   1.146   6.805   5.382  0.0694  0.1916 -0.1269
10678SOL    HW133475   1.153   6.814   5.477 -1.6693 -1.1248  0.1622
10678SOL    HW233476   1.115   6.891   5.352 -0.0334  0.3964  0.5548
10679SOL     OW33477   3.188   6.738   8.769 -0.4379  0.6221  0.0517
10679SOL    HW133478   3.267   6.695   8.801 -0.4382 -1.2139 -2.1659
10679SOL    HW233479   3.161   6.795   8.841  2.2153  0.4171  1.3190
10680SOL     OW33480   3.551   5.163   7.051  0.2691  0.3522  0.3405
10680SOL    HW133481   3.641   5.141   7.075  0.7637  1.4805 -0.3925
10680SOL    HW233482   3.557   5.192   6.960 -0.7125  1.1604  0.5098
10681SOL     OW33483   4.168   7.046   5.523  0.3118  0.0395 -0.2444
10681SOL    HW133484   4.244   7.100   5.549 -1.0745  1.8441  0.2662
10681SOL    HW233485   4.174   6.969   5.579  0.6172  1.1696  1.3635
10682SOL     OW33486   2.704   5.722   8.247 -0.0090  0.2507  0.0101
10682SOL    HW133487   2.684   5.652   8.310 -1.4369  0.1113 -0.5700
10682SOL    HW233488   2.777   5.770   8.287  1.0598 -1.5924  0.4002
10683SOL     OW33489   2.723   7.553   6.946  0.7475  0.1171 -0.0498
10683SOL    HW133490   2.758   7.572   6.859  0.3178  0.9588 -0.0479
10683SOL    HW233491   2.629   7.543   6.931  0.7163 -0.0584  0.2678
10684SOL     OW33492   1.319   6.518   6.431  0.1592 -0.1928 -0.6824
10684SOL    HW133493   1.369   6.582   6.380 -1.2624  1.1804 -0.4300
10684SOL    HW233494   1.271   6.468   6.365 -1.0327  1.0271 -0.7794
10685SOL     OW33495   2.287   7.606   7.544 -0.3300 -0.2928 -0.2711
10685SOL    HW133496   2.294   7.699   7.521  0.5062 -0.0972  0.7597
10685SOL    HW233497   2.298   7.603   7.639  1.6829 -1.6436 -0.4928
10686SOL     OW33498   3.460   4.584   6.350 -0.6635 -0.1806 -0.5737
10686SOL    HW133499   3.476   4.496   6.383 -0.6638 -0.3537 -1.0339
10686SOL    HW233500   3.366   4.599   6.366 -0.1053  0.9418  2.3860
10687SOL     OW33501   3.948   6.334   8.556 -0.3527 -0.0759  0.6226
10687SOL    HW133502   3.908   6.248   8.541 -0.3972  0.4699 -3.1271
10687SOL    HW233503   3.878   6.386   8.596 -1.3957 -0.8844 -0.0889
10688SOL     OW33504   2.451   6.828   6.581 -0.1918  0.0887  0.2204
10688SOL    HW133505   2.448   6.899   6.645 -1.0958  1.2892 -1.1041
10688SOL    HW233506   2.543   6.802   6.579 -0.0633  0.3446  1.6330
10689SOL     OW33507   2.529   6.404   7.523 -0.2342  0.0086  0.1593
10689SOL    HW133508   2.555   6.456   7.599 -2.1703  1.0205  0.1937
10689SOL    HW233509   2.598   6.419   7.459  1.5540 -1.0441  1.7552
10690SOL     OW33510   2.905   7.822   8.258 -0.3580 -0.4659  0.3795
10690SOL    HW133511   2.883   7.729   8.248  1.3242 -0.6740 -2.1957
10690SOL    HW233512   2.937   7.829   8.348 -1.5231 -2.1279  0.9784
10691SOL     OW33513   3.095   5.496   7.513 -0.1817  0.6476 -0.0563
10691SOL    HW133514   3.001   5.498   7.498 -0.2207 -0.4118 -0.0281
10691SOL    HW233515   3.104   5.476   7.606  0.0743  0.8563 -0.0338
10692SOL     OW33516   3.016   5.377   6.415  0.2573  0.5955 -0.3471
10692SOL    HW133517   3.065   5.398   6.335 -0.8949  0.2101 -1.1849
10692SOL    HW233518   2.999   5.283   6.409  0.4144  0.5064  0.5112
10693SOL     OW33519   2.922   5.924   2.581 -0.3334  0.3191  0.0394
10693SOL    HW133520   2.931   5.849   2.639 -1.0747 -0.8852 -1.3342
10693SOL    HW233521   2.982   5.906   2.509 -1.5392  0.3134 -1.0016
10694SOL     OW33522   3.295   5.503   8.232 -0.0236 -0.0181  0.2352
10694SOL    HW133523   3.257   5.494   8.145  2.3543 -0.6837 -0.8053
10694SOL    HW233524   3.383   5.537   8.217  0.4796 -0.2156  2.3743
10695SOL     OW33525   2.644   5.782   5.511  0.0103 -0.2116  0.2904
10695SOL    HW133526   2.675   5.810   5.597  1.3759 -1.4842  0.2410
10695SOL    HW233527   2.671   5.853   5.452 -2.6042  1.6298  1.0751
10696SOL     OW33528   3.013   6.553   5.490 -0.0212 -0.4126  0.1896
10696SOL    HW133529   2.980   6.525   5.576 -1.8413  1.5445  0.2304
10696SOL    HW233530   2.934   6.573   5.440  1.0428 -0.2852 -1.5097
10697SOL     OW33531   3.575   7.119   5.263 -0.3399 -0.0631 -0.1333
10697SOL    HW133532   3.587   7.137   5.170  1.5534 -0.1414  0.0585
10697SOL    HW233533   3.596   7.202   5.306  0.0377 -0.3627  0.2744
10698SOL     OW33534   2.615   7.198   7.825  0.4346 -0.0175 -0.4127
10698SOL    HW133535   2.615   7.288   7.856 -0.7290 -0.6486  1.6147
10698SOL    HW233536   2.565   7.200   7.743  0.3732  1.1722 -0.3559
10699SOL     OW33537   3.396   6.990   6.538  0.3260  0.2395  0.3006
10699SOL    HW133538   3.489   6.969   6.540  1.0228  2.9612  0.1846
10699SOL    HW233539   3.379   7.030   6.623 -0.6735  0.0194  0.2136
10700SOL     OW33540   3.136   6.619   6.235  0.0939 -0.0113 -0.5003
10700SOL    HW133541   3.190   6.559   6.286  0.4203  0.0419 -0.7810
10700SOL    HW233542   3.190   6.697   6.225  0.2950 -0.2749 -1.5034
10701SOL     OW33543   3.219   5.836   6.974 -0.2290  0.4205  0.1398
10701SOL    HW133544   3.180   5.877   7.051  0.2160  1.1459 -0.0104
10701SOL    HW233545   3.238   5.746   7.002 -2.3343 -0.0814  0.0954
10702SOL     OW33546   2.719   6.979   5.992  0.1467  0.2553 -0.2375
10702SOL    HW133547   2.804   6.936   5.977 -0.4594 -1.0460 -0.1205
10702SOL    HW233548   2.714   6.990   6.086  0.1113  0.1759 -0.2305
10703SOL     OW33549   3.289   4.971   6.807 -0.2295 -0.0273 -0.4138
10703SOL    HW133550   3.297   4.911   6.733  0.3269 -2.0911  1.2513
10703SOL    HW233551   3.350   4.938   6.872 -1.0633  1.4411  1.1997
10704SOL     OW33552   2.941   6.733   6.850 -0.0047  0.0156  0.0963
10704SOL    HW133553   2.850   6.745   6.879  0.0382  0.2620  0.1286
10704SOL    HW233554   2.979   6.672   6.914 -0.1137  0.0036  0.1499
10705SOL     OW33555   0.889   6.687   6.307 -0.4688 -0.2084  0.6033
10705SOL    HW133556   0.834   6.667   6.231  0.4784 -1.2075  0.1599
10705SOL    HW233557   0.852   6.768   6.342 -0.2822  0.8724 -1.5498
10706SOL     OW33558   2.795   5.842   8.511 -0.3086  0.0130  0.0777
10706SOL    HW133559   2.736   5.767   8.500 -0.0072 -0.1252 -0.6306
10706SOL    HW233560   2.741   5.907   8.557 -0.5829 -0.6149  0.6606
10707SOL     OW33561   1.103   5.109   4.975  0.9076 -0.0724 -0.4909
10707SOL    HW133562   1.067   5.164   5.044 -0.0104  0.4286 -1.3285
10707SOL    HW233563   1.071   5.021   4.994  0.5134  0.0962 -0.3636
10708SOL     OW33564   2.811   5.946   6.076  0.2500 -0.3144  0.0403
10708SOL    HW133565   2.876   5.971   6.011 -0.2928  0.2651 -0.2798
10708SOL    HW233566   2.847   5.866   6.116  0.0207 -1.3742 -1.7827
10709SOL     OW33567   2.001   5.817   4.844  0.3319  0.0307 -0.6762
10709SOL    HW133568   1.955   5.843   4.764  1.6314  1.2606 -1.0689
10709SOL    HW233569   1.979   5.885   4.908  1.4961  0.5670 -0.8364
10710SOL     OW33570   3.583   6.791   6.264  0.3999 -0.2851  0.3360
10710SOL    HW133571   3.613   6.820   6.351 -0.0844 -2.4066  1.2588
10710SOL    HW233572   3.661   6.752   6.224  1.0421  2.0257 -0.8989
10711SOL     OW33573   3.879   6.536   9.163 -1.0998  0.0687 -0.8158
10711SOL    HW133574   3.967   6.508   9.189 -0.8899  0.1841 -1.4090
10711SOL    HW233575   3.869   6.504   9.074 -1.1941  1.1273 -1.1897
10712SOL     OW33576   3.952   7.929   5.926  0.1767 -0.4670  0.0066
10712SOL    HW133577   3.966   7.908   6.018 -0.3734 -1.3106 -0.0958
10712SOL    HW233578   3.862   7.902   5.908  0.4710 -0.8780 -0.9332
10713SOL     OW33579   3.170   6.009   9.659 -0.0928 -0.6741 -0.1010
10713SOL    HW133580   3.122   6.036   9.581  1.9817 -2.4710 -2.1825
10713SOL    HW233581   3.151   5.915   9.668  0.5977 -0.7390  0.8488
10714SOL     OW33582   3.602   5.946   8.250 -0.2167  0.1483  0.3331
10714SOL    HW133583   3.650   5.929   8.169  1.1510  0.7016  0.9824
10714SOL    HW233584   3.529   6.001   8.223  0.4270  0.6337 -0.4891
10715SOL     OW33585   1.860   6.959   8.574 -0.3554  0.4464  0.0324
10715SOL    HW133586   1.765   6.953   8.586 -0.3677 -2.0512 -0.6185
10715SOL    HW233587   1.876   7.049   8.547 -2.2260  1.6027  2.4228
10716SOL     OW33588   2.818   6.330   5.968  0.7621 -0.6869  0.3571
10716SOL    HW133589   2.758   6.370   6.031  1.2452 -0.5996  0.7675
10716SOL    HW233590   2.763   6.268   5.919 -0.5464  1.9289 -1.7695
10717SOL     OW33591   3.729   6.169   5.461  0.6296 -0.3747 -0.0380
10717SOL    HW133592   3.698   6.255   5.491  0.4428 -0.3182 -0.3807
10717SOL    HW233593   3.806   6.152   5.513 -0.5328 -0.9740  1.5587
10718SOL     OW33594   2.833   5.543   6.528 -0.1399 -0.1022  0.1905
10718SOL    HW133595   2.891   5.481   6.486 -1.4276 -1.0241 -0.3030
10718SOL    HW233596   2.793   5.592   6.456 -0.0045  0.5073  0.5148
10719SOL     OW33597   3.843   5.877   6.068  0.1381  0.3196  0.1417
10719SOL    HW133598   3.871   5.894   6.158  0.0080  0.0941  0.2260
10719SOL    HW233599   3.873   5.789   6.049 -0.7832 -0.0524  0.3481
10720SOL     OW33600   4.271   6.444   7.239  0.2502  0.1252 -0.3735
10720SOL    HW133601   4.269   6.426   7.333  1.1678 -0.7479 -0.5154
10720SOL    HW233602   4.322   6.525   7.231 -2.6145  2.1615  0.1280
10721SOL     OW33603   2.788   7.450   5.540  0.0242  0.3607 -0.1905
10721SOL    HW133604   2.704   7.408   5.557  0.3006 -0.0844  0.1095
10721SOL    HW233605   2.836   7.387   5.487  0.9664 -0.3324  1.4177
10722SOL     OW33606   2.613   7.666   6.203 -0.2067 -0.4138 -0.5973
10722SOL    HW133607   2.549   7.670   6.131  0.1604 -0.8109 -0.9471
10722SOL    HW233608   2.657   7.582   6.191  0.3580 -0.1569 -0.3330
10723SOL     OW33609   3.799   6.496   6.431  0.3167 -0.5266  0.2945
10723SOL    HW133610   3.812   6.548   6.351 -1.7218 -1.3011 -0.6137
10723SOL    HW233611   3.782   6.561   6.499 -1.6887  0.1099 -0.7144
10724SOL     OW33612   3.217   5.018   5.659  0.3915  0.8224  0.4263
10724SOL    HW133613   3.174   4.936   5.632  1.6162 -0.2502  1.5689
10724SOL    HW233614   3.260   5.050   5.580  2.3100 -1.2342  0.5319
10725SOL     OW33615   3.318   6.752   6.690  0.4577  0.3060 -0.0001
10725SOL    HW133616   3.404   6.769   6.728  1.2194 -0.3762 -1.3299
10725SOL    HW233617   3.305   6.824   6.628  1.1015 -0.7440 -1.4166
10726SOL     OW33618   2.329   6.117   8.164 -0.9204 -0.9904 -0.2967
10726SOL    HW133619   2.367   6.030   8.151  0.0138 -0.3533 -2.0968
10726SOL    HW233620   2.276   6.133   8.086 -1.3471 -0.0793  0.1615
10727SOL     OW33621   0.882   7.795   6.307  0.3815 -0.4724  0.4181
10727SOL    HW133622   0.847   7.730   6.367 -1.6833 -1.0160 -1.2654
10727SOL    HW233623   0.915   7.744   6.233  0.7292  0.2916  0.0330
10728SOL     OW33624   2.876   5.970   8.843  0.4830 -0.3588 -0.2529
10728SOL    HW133625   2.924   5.899   8.886  2.4010  0.7859 -0.3918
10728SOL    HW233626   2.906   6.049   8.887 -3.2605  0.3298  1.4338
10729SOL     OW33627   3.945   5.362   7.045 -0.0640 -0.3361 -0.1476
10729SOL    HW133628   3.910   5.283   7.003 -0.1595 -0.5723  0.3696
10729SOL    HW233629   3.953   5.338   7.137  0.5746  0.0289 -0.1071
10730SOL     OW33630   2.075   5.726   5.217 -0.0828  0.2460  0.0085
10730SOL    HW133631   2.112   5.812   5.197  1.3674 -0.3366  0.0492
10730SOL    HW233632   2.087   5.716   5.312  0.5749 -0.3453 -0.1238
10731SOL     OW33633   3.829   6.985   4.147  0.5940  0.2101 -0.1636
10731SOL    HW133634   3.783   6.965   4.229  0.6308 -0.6964 -0.3479
10731SOL    HW233635   3.918   7.008   4.175  0.6559 -0.2648  0.0543
10732SOL     OW33636   3.272   7.590   6.054  0.6571 -0.5714  0.6934
10732SOL    HW133637   3.241   7.621   6.139 -0.4966  0.0313  0.0759
10732SOL    HW233638   3.254   7.496   6.054  0.0545 -0.4553  0.8596
10733SOL     OW33639   2.685   7.661   5.682 -0.1318 -0.1599 -0.4717
10733SOL    HW133640   2.743   7.589   5.655 -0.8452 -0.9333 -0.0070
10733SOL    HW233641   2.642   7.688   5.602 -0.0180 -0.4053 -0.6187
10734SOL     OW33642   3.490   5.761   7.869 -0.2574 -0.7745 -0.2276
10734SOL    HW133643   3.402   5.757   7.905 -0.2348 -1.6254 -0.2495
10734SOL    HW233644   3.487   5.830   7.804 -0.1811  1.1815  1.7130
10735SOL     OW33645   3.477   5.868   7.583 -0.5094 -0.4337  0.1359
10735SOL    HW133646   3.495   5.878   7.490  0.6047 -1.1098  0.2607
10735SOL    HW233647   3.409   5.800   7.587  0.6211 -1.6320 -0.1347
10736SOL     OW33648   2.596   6.864   5.439  0.2921 -0.3225 -0.0576
10736SOL    HW133649   2.505   6.894   5.431  0.6877  0.3733 -3.1829
10736SOL    HW233650   2.595   6.809   5.517 -3.1983 -1.6021 -0.7905
10737SOL     OW33651   1.439   0.216   7.712  0.1823  0.0963  0.3749
10737SOL    HW133652   1.477   0.150   7.770  0.4039 -1.0227 -0.9958
10737SOL    HW233653   1.512   0.246   7.658 -0.1391  0.6428  0.2423
10738SOL     OW33654   2.336   4.980   6.838  0.0119  0.4219  0.2541
10738SOL    HW133655   2.431   4.968   6.841 -0.0288 -0.1806 -0.4725
10738SOL    HW233656   2.310   4.994   6.929  0.7971  0.5721  0.4553
10739SOL     OW33657   2.078   5.373   6.090  0.5863 -0.1131 -0.6520
10739SOL    HW133658   2.106   5.352   6.002 -0.1462 -1.0309 -0.6791
10739SOL    HW233659   1.983   5.369   6.087  0.5692 -1.7911  0.5449
10740SOL     OW33660   1.616   4.992   5.916 -0.0318 -0.3299  0.3475
10740SOL    HW133661   1.685   4.928   5.902 -0.2159 -0.1201 -2.0765
10740SOL    HW233662   1.654   5.075   5.885 -1.0620 -0.0527 -0.2286
10741SOL     OW33663   4.120   6.669   6.060  0.0470 -0.0675 -0.0371
10741SOL    HW133664   4.030   6.682   6.091  0.9013  1.0489  2.2301
10741SOL    HW233665   4.135   6.575   6.069 -0.8923 -0.2643 -0.4293
10742SOL     OW33666   3.181   6.575   6.886  0.2978  0.3370  0.0274
10742SOL    HW133667   3.261   6.626   6.870  0.6370  0.1664  1.0971
10742SOL    HW233668   3.210   6.483   6.885  0.0766  0.2630  0.2061
10743SOL     OW33669   2.035   6.815   8.061  0.0454 -0.3563 -0.4985
10743SOL    HW133670   1.992   6.822   8.146 -0.7548  0.4037 -0.9447
10743SOL    HW233671   1.967   6.841   7.998  1.3365  1.5216 -1.1997
10744SOL     OW33672   2.087   7.888   8.376  0.7232 -0.1408 -0.6787
10744SOL    HW133673   2.154   7.877   8.445  1.0485 -0.4181 -1.0370
10744SOL    HW233674   2.137   7.915   8.299  0.3779 -0.0249 -0.8620
10745SOL     OW33675   3.064   5.726   9.536 -0.1041  0.5228  0.6756
10745SOL    HW133676   2.977   5.690   9.554  0.4649 -0.1685  2.2274
10745SOL    HW233677   3.116   5.650   9.510  0.2704  0.7900  0.6427
10746SOL     OW33678   4.751   7.781   8.668 -0.1576  0.0843 -0.0044
10746SOL    HW133679   4.792   7.714   8.723  0.2343  1.3219  1.2613
10746SOL    HW233680   4.770   7.753   8.579 -0.4071 -1.7417  0.4606
10747SOL     OW33681   2.798   5.545   9.655  0.2646 -0.0701 -0.2731
10747SOL    HW133682   2.827   5.546   9.746  0.4464 -0.4143 -0.3232
10747SOL    HW233683   2.796   5.452   9.632 -1.2424 -0.0910 -0.1536
10748SOL     OW33684   3.155   5.965   9.962 -0.4905  0.4861 -0.8362
10748SOL    HW133685   3.123   5.958  10.052 -1.1326 -1.4336 -1.1592
10748SOL    HW233686   3.228   6.025   9.967 -0.4930  0.4006  0.9819
10749SOL     OW33687   2.376   4.801   8.377  0.2621 -0.3157  0.1000
10749SOL    HW133688   2.457   4.834   8.339 -0.7275  0.2627 -1.6441
10749SOL    HW233689   2.317   4.792   8.302 -1.6431  0.3626  1.4604
10750SOL     OW33690   4.562   6.644  10.410  0.8117 -0.0261  0.4638
10750SOL    HW133691   4.473   6.647  10.445  1.0094  1.5420  0.8767
10750SOL    HW233692   4.552   6.663  10.317  0.4135 -3.0772 -0.2398
10751SOL     OW33693   4.046   5.928   8.497  0.3442  0.0964  0.5636
10751SOL    HW133694   4.128   5.931   8.546 -0.2616 -2.1823  1.8397
10751SOL    HW233695   4.068   5.880   8.417  0.5735  0.8759  0.1446
10752SOL     OW33696   1.890   7.552   9.349  0.2289  0.1988 -0.0133
10752SOL    HW133697   1.973   7.506   9.363  1.3585  2.3914  0.9915
10752SOL    HW233698   1.829   7.509   9.408  0.1535 -2.4238 -1.8170
10753SOL     OW33699   2.961   6.488   7.545 -0.3352  0.2584 -0.6135
10753SOL    HW133700   3.022   6.450   7.480 -1.5131 -0.0739 -1.5563
10753SOL    HW233701   3.017   6.509   7.620  0.5631 -2.5046 -0.3874
10754SOL     OW33702   2.706   7.039  10.090 -0.4274  0.4326 -0.1802
10754SOL    HW133703   2.685   6.974  10.158 -2.0064  0.9730 -0.1131
10754SOL    HW233704   2.655   7.011  10.014  0.1338  0.7013 -0.6615
10755SOL     OW33705   2.203   5.914   8.547  0.4820  0.0180 -0.1884
10755SOL    HW133706   2.257   5.937   8.623 -2.1422 -2.5172  2.7647
10755SOL    HW233707   2.137   5.983   8.543  0.6556  0.1859 -0.1931
10756SOL     OW33708   3.280   6.909   7.022 -0.0088 -0.9196 -0.0812
10756SOL    HW133709   3.347   6.970   6.992  0.7956 -2.2746 -1.1406
10756SOL    HW233710   3.228   6.890   6.944 -0.1501 -1.6976  0.1859
10757SOL     OW33711   1.356   7.554   7.622 -0.2915 -0.2853  0.7762
10757SOL    HW133712   1.351   7.467   7.583  1.2749 -0.7699  1.5832
10757SOL    HW233713   1.338   7.539   7.715  3.5517 -0.3936  1.6345
10758SOL     OW33714   3.646   7.494  10.237 -0.1317  0.2274 -0.1075
10758SOL    HW133715   3.617   7.568  10.290  0.5447  2.8131 -3.0652
10758SOL    HW233716   3.567   7.441  10.224 -1.1318  1.5560  0.3944
10759SOL     OW33717   1.416   6.750   8.179  0.0629  0.9762 -0.5951
10759SOL    HW133718   1.446   6.708   8.099 -2.4099 -1.6903 -0.2588
10759SOL    HW233719   1.331   6.710   8.198  0.4822  1.4974  3.3253
10760SOL     OW33720   3.262   6.779   9.207 -0.1767  0.0897  0.0643
10760SOL    HW133721   3.208   6.805   9.132  0.7745  2.3969  0.0774
10760SOL    HW233722   3.207   6.797   9.284 -1.2469 -2.5135  0.0055
10761SOL     OW33723   3.310   7.446   8.820 -0.0059 -0.0857 -0.7151
10761SOL    HW133724   3.329   7.469   8.729 -0.1755  1.4656 -0.3837
10761SOL    HW233725   3.216   7.428   8.821 -0.4156  1.8323 -0.5096
10762SOL     OW33726   2.151   6.854   7.318 -0.8553 -0.6539  0.1397
10762SOL    HW133727   2.180   6.945   7.325 -0.9118 -0.6331  0.1027
10762SOL    HW233728   2.058   6.856   7.341 -1.0726 -0.5637 -0.7097
10763SOL     OW33729   2.120   6.665   9.208  0.3250  0.0125  0.0843
10763SOL    HW133730   2.211   6.646   9.186  0.4874  0.3662  0.4491
10763SOL    HW233731   2.075   6.581   9.199  0.4798  0.0487 -1.1145
10764SOL     OW33732   1.016   7.802   8.281  0.2290  0.0784  0.1441
10764SOL    HW133733   0.945   7.858   8.314  0.5315  1.8508 -2.0074
10764SOL    HW233734   0.971   7.724   8.248 -0.9379  1.6036 -2.1088
10765SOL     OW33735   4.522   7.591   8.059 -0.1131 -0.0759 -0.0058
10765SOL    HW133736   4.475   7.552   7.985 -1.3978 -0.5440  1.0058
10765SOL    HW233737   4.455   7.599   8.128  0.8973  0.9218  0.8952
10766SOL     OW33738   0.818   6.799   5.668  0.0256 -0.0404  0.3703
10766SOL    HW133739   0.777   6.714   5.652  1.2703 -1.4277  3.5943
10766SOL    HW233740   0.911   6.783   5.655  0.2099  0.9944  0.3985
10767SOL     OW33741   5.797   5.604   6.406 -0.1326 -0.4502 -0.6176
10767SOL    HW133742   5.792   5.566   6.493 -1.9921 -0.0951 -0.5325
10767SOL    HW233743   5.867   5.669   6.412 -1.2026  0.6012  1.0447
10768SOL     OW33744   4.112   5.753   8.225 -0.2451  0.8592 -0.3923
10768SOL    HW133745   4.041   5.706   8.181 -0.1029 -0.6374  0.9027
10768SOL    HW233746   4.182   5.758   8.159 -0.8731  0.6951 -1.0760
10769SOL     OW33747   2.577   6.249   9.060  0.4835 -0.2721 -0.2573
10769SOL    HW133748   2.627   6.167   9.067  0.2855 -0.3869 -0.1859
10769SOL    HW233749   2.614   6.293   8.984  2.3200  0.7476  1.1347
10770SOL     OW33750   3.132   6.244   8.534 -0.1935 -0.5714  0.0365
10770SOL    HW133751   3.103   6.153   8.532  0.2730 -0.7671  1.6298
10770SOL    HW233752   3.148   6.263   8.626  1.4348  0.5791 -0.4351
10771SOL     OW33753   4.131   5.788   9.119 -0.7971  0.4413  0.2067
10771SOL    HW133754   4.116   5.705   9.075 -1.9988  0.6426  0.2190
10771SOL    HW233755   4.091   5.853   9.063  3.0287  1.5323 -1.6163
10772SOL     OW33756   2.242   4.747   9.475  0.5607  0.0547 -0.6572
10772SOL    HW133757   2.269   4.664   9.513 -1.0384 -0.7170 -1.0959
10772SOL    HW233758   2.188   4.722   9.400 -1.3657  1.4089  0.1776
10773SOL     OW33759   3.679   6.479   9.354  0.4642 -0.0824 -0.3004
10773SOL    HW133760   3.755   6.524   9.316  1.0053 -0.2695  0.5398
10773SOL    HW233761   3.697   6.386   9.337  0.6681 -0.1615  0.3216
10774SOL     OW33762   2.224   5.902  10.205  0.0078  0.7443  0.1921
10774SOL    HW133763   2.227   5.908  10.109  0.5769  0.0576  0.1532
10774SOL    HW233764   2.245   5.810  10.223 -1.8436  0.4160  0.9127
10775SOL     OW33765   5.088   6.501   9.313 -0.3391  0.0803  0.7581
10775SOL    HW133766   5.058   6.493   9.223 -2.4458  0.8848  1.3423
10775SOL    HW233767   5.110   6.593   9.324 -1.2309  0.2354  1.3744
10776SOL     OW33768   1.450   7.620   8.805 -0.0358 -0.2931  0.3975
10776SOL    HW133769   1.385   7.627   8.736 -0.4132 -0.2062  0.7571
10776SOL    HW233770   1.479   7.529   8.802  0.3576 -0.1494 -0.2377
10777SOL     OW33771   2.409   5.814   9.189 -0.3207  0.6742 -0.2677
10777SOL    HW133772   2.446   5.737   9.146 -1.7763  0.3307 -0.9694
10777SOL    HW233773   2.476   5.882   9.179  0.9761 -0.4829  0.3503
10778SOL     OW33774   3.812   7.243   8.654 -0.8674 -0.1237 -0.5914
10778SOL    HW133775   3.900   7.213   8.676  0.0354  2.3192 -0.5521
10778SOL    HW233776   3.762   7.231   8.735 -0.5170 -1.2731 -0.5313
10779SOL     OW33777   4.378   6.145   8.677  0.2743  0.5675  0.0530
10779SOL    HW133778   4.401   6.192   8.758 -0.9980  1.5309 -0.1027
10779SOL    HW233779   4.359   6.214   8.614  1.1077 -0.1809 -1.0396
10780SOL     OW33780   4.677   6.758   8.446  0.1629 -0.2803  0.0995
10780SOL    HW133781   4.757   6.727   8.404  0.8104  1.6251 -0.2015
10780SOL    HW233782   4.692   6.747   8.540  1.2136  0.9218  0.1017
10781SOL     OW33783   4.042   7.811   7.654  0.6841  0.0266 -0.3922
10781SOL    HW133784   4.118   7.784   7.705  0.4590  0.3925  0.1509
10781SOL    HW233785   4.057   7.904   7.635  0.1079  0.2580  0.2230
10782SOL     OW33786   0.681   6.696   8.834 -0.0516 -0.0969 -0.1697
10782SOL    HW133787   0.604   6.687   8.778  0.7241 -2.8787 -0.9525
10782SOL    HW233788   0.722   6.610   8.832  2.1892  0.8304  1.5698
10783SOL     OW33789   2.647   7.811   8.153  0.1968  0.8099  0.5462
10783SOL    HW133790   2.696   7.891   8.133  1.5800  0.0522  0.7485
10783SOL    HW233791   2.710   7.741   8.138 -1.2885 -0.3412 -0.6470
10784SOL     OW33792   1.641   6.914  10.268  0.3283 -0.6320 -0.3886
10784SOL    HW133793   1.670   6.951  10.184  1.1188 -1.6215 -0.5673
10784SOL    HW233794   1.664   6.821  10.262  0.5135 -0.6847  0.9787
10785SOL     OW33795   3.670   4.861   9.458 -0.1152  0.1280 -0.2546
10785SOL    HW133796   3.685   4.910   9.377 -1.9313  1.4631  0.1827
10785SOL    HW233797   3.682   4.769   9.432 -1.8566  0.4233 -2.3706
10786SOL     OW33798   2.046   7.277   6.643 -0.1342 -0.1297 -0.0747
10786SOL    HW133799   2.067   7.187   6.668 -0.0043  0.5200  2.3810
10786SOL    HW233800   1.972   7.269   6.583 -0.5548 -1.8362  0.6337
10787SOL     OW33801   1.865   6.526   9.213  0.2418 -0.4145  0.6273
10787SOL    HW133802   1.848   6.620   9.203  0.0041 -0.5975 -1.0725
10787SOL    HW233803   1.801   6.497   9.278 -2.2742 -0.0233 -1.4816
10788SOL     OW33804   1.730   0.662   9.133  0.6443 -0.0285  0.0338
10788SOL    HW133805   1.674   0.660   9.211  0.4610  0.4126 -0.0829
10788SOL    HW233806   1.670   0.679   9.061  0.7448 -0.9490 -0.2813
10789SOL     OW33807   3.638   5.923   6.501 -0.2738  0.0546 -0.1299
10789SOL    HW133808   3.607   5.929   6.592 -1.1106 -0.2066 -0.3891
10789SOL    HW233809   3.597   5.844   6.467  1.5938 -0.9700 -0.1618
10790SOL     OW33810   2.096   7.306   9.974  0.4379  0.5083  0.1766
10790SOL    HW133811   2.038   7.328  10.047  1.2805 -0.6947  1.2608
10790SOL    HW233812   2.053   7.233   9.931  1.4080 -0.8396  1.3963
10791SOL     OW33813   4.811   6.154   9.041  0.2829  0.0934  0.3592
10791SOL    HW133814   4.733   6.116   9.082  0.1518  0.1540  0.1672
10791SOL    HW233815   4.805   6.127   8.949  1.9812 -2.3949  0.8743
10792SOL     OW33816   2.410   5.794   9.696 -0.0924  0.5603 -0.0645
10792SOL    HW133817   2.420   5.778   9.790 -1.1749  0.4794  0.0506
10792SOL    HW233818   2.499   5.808   9.665  0.5910 -1.9995  0.4961
10793SOL     OW33819   4.475   7.205   8.110 -0.5537 -0.3822 -0.1418
10793SOL    HW133820   4.487   7.298   8.090  0.7806 -0.5830 -0.3613
10793SOL    HW233821   4.400   7.179   8.058  0.2045  0.1488 -1.5519
10794SOL     OW33822   2.893   6.931   8.802  0.1421  0.0653  0.2414
10794SOL    HW133823   2.848   7.015   8.793  3.1951  1.9486  0.9927
10794SOL    HW233824   2.882   6.888   8.717 -2.1018  0.8283  0.0739
10795SOL     OW33825   3.372   6.002   9.260 -0.1394  0.5393  0.3258
10795SOL    HW133826   3.411   5.915   9.249 -1.1397  0.1408 -0.1449
10795SOL    HW233827   3.405   6.052   9.185  0.7256  0.6960  0.7899
10796SOL     OW33828   3.718   7.212   9.738 -0.0807  0.3829 -0.5795
10796SOL    HW133829   3.735   7.295   9.781  0.8734  0.4029 -0.9709
10796SOL    HW233830   3.639   7.227   9.686  0.5775  1.3139 -1.3314
10797SOL     OW33831   2.046   5.692   5.991 -0.3208  0.7536 -0.4643
10797SOL    HW133832   2.142   5.689   5.993 -0.3484 -0.0216 -0.0015
10797SOL    HW233833   2.019   5.628   6.057 -1.1827 -0.5000 -1.9762
10798SOL     OW33834   4.256   6.181   7.992 -0.6829 -0.2954  0.3470
10798SOL    HW133835   4.166   6.163   7.966 -1.2140  1.4472  0.8312
10798SOL    HW233836   4.259   6.158   8.085 -0.0828 -2.0797 -0.0725
10799SOL     OW33837   2.120   4.682   8.724 -0.1600 -0.2362  0.1505
10799SOL    HW133838   2.121   4.724   8.810  0.2284  0.3364 -0.1312
10799SOL    HW233839   2.126   4.754   8.661 -2.0299 -0.5116 -0.4119
10800SOL     OW33840   2.694   0.175   8.662  0.2153 -0.1034  0.2205
10800SOL    HW133841   2.738   0.204   8.582  2.3072 -0.8487  1.0019
10800SOL    HW233842   2.691   0.079   8.653 -0.5411 -0.1113  0.5525
10801SOL     OW33843   0.491   5.885   7.710 -0.2663 -0.7035  0.4867
10801SOL    HW133844   0.439   5.880   7.630 -0.5583 -0.7554  0.6776
10801SOL    HW233845   0.576   5.918   7.681 -0.9782  1.1795  0.4226
10802SOL     OW33846   5.787   5.614   7.717  0.0943 -0.6951  0.0322
10802SOL    HW133847   5.845   5.546   7.753  1.2794 -0.7803 -1.9153
10802SOL    HW233848   5.813   5.694   7.762  0.9119 -0.9551  0.0384
10803SOL     OW33849   1.012   6.950   8.904 -0.3134 -0.1326 -0.0575
10803SOL    HW133850   0.960   6.887   8.954 -0.9262 -0.2883 -0.8780
10803SOL    HW233851   0.951   6.987   8.841  0.4886 -0.0575 -0.8057
10804SOL     OW33852   4.815   5.324   7.344 -0.1328 -0.3259 -0.2591
10804SOL    HW133853   4.728   5.286   7.336 -0.5419  0.5951 -0.2399
10804SOL    HW233854   4.869   5.272   7.284 -0.9963 -0.0042 -1.3494
10805SOL     OW33855   2.193   7.797   6.188  0.1334 -0.0744 -0.4494
10805SOL    HW133856   2.281   7.825   6.165 -0.9068  1.5708 -2.8807
10805SOL    HW233857   2.202   7.704   6.211  2.6109  0.3573  0.5756
10806SOL     OW33858   3.000   0.299  10.761 -0.1838  0.0125  0.2695
10806SOL    HW133859   2.949   0.275  10.838  0.7376  0.1242  0.9285
10806SOL    HW233860   3.050   0.376  10.788 -0.2229  0.3618 -0.6071
10807SOL     OW33861   2.283   5.252   8.548 -0.2731 -0.2166  0.4412
10807SOL    HW133862   2.332   5.307   8.488 -1.8859  1.2829  0.4482
10807SOL    HW233863   2.348   5.226   8.614  1.1406 -0.6139 -1.0251
10808SOL     OW33864   3.275   4.225   9.583  0.6909 -0.2159  0.0242
10808SOL    HW133865   3.312   4.139   9.601  0.3626 -0.3096  0.2670
10808SOL    HW233866   3.290   4.239   9.490  2.1500  0.1445  0.2815
10809SOL     OW33867   1.944   4.950  10.318  0.3779 -0.0353 -0.3287
10809SOL    HW133868   1.993   4.981  10.394  0.6493 -3.3424  0.9909
10809SOL    HW233869   1.858   4.992  10.326  0.4584 -0.1665  1.7378
10810SOL     OW33870   3.992   7.162   9.017  0.0781  0.0894  0.0327
10810SOL    HW133871   3.970   7.249   9.050  1.1626  1.3247 -2.3280
10810SOL    HW233872   4.073   7.140   9.062 -0.1038  0.3570  0.5065
10811SOL     OW33873   2.846   1.509   9.618  0.2848  0.1387  0.5082
10811SOL    HW133874   2.856   1.510   9.713  0.8029 -1.3119  0.4918
10811SOL    HW233875   2.751   1.516   9.604  0.1707 -0.0788  1.1448
10812SOL     OW33876   3.396   5.498   9.261 -0.7117 -0.1292 -0.3384
10812SOL    HW133877   3.377   5.423   9.205  1.0942 -2.0555  1.4304
10812SOL    HW233878   3.483   5.478   9.298 -0.3631  2.6394  0.5554
10813SOL     OW33879   1.389   0.199   8.266 -0.2263 -0.5230  0.2668
10813SOL    HW133880   1.328   0.147   8.319 -1.7227  2.2327  1.4849
10813SOL    HW233881   1.464   0.214   8.324 -0.5961  0.1230  0.5895
10814SOL     OW33882   4.134   5.518   8.392  0.5210 -0.1627  0.0523
10814SOL    HW133883   4.127   5.606   8.354  0.7632  0.0264  0.4387
10814SOL    HW233884   4.126   5.459   8.317 -2.6460  0.0503  0.0583
10815SOL     OW33885   2.481   3.680   8.409  0.0098 -0.1278 -0.1372
10815SOL    HW133886   2.459   3.597   8.367  1.2363 -0.0129 -1.0370
10815SOL    HW233887   2.547   3.658   8.474 -0.1409  0.0585  0.0826
10816SOL     OW33888   4.286   6.720   8.205 -0.2512  0.3107  0.0717
10816SOL    HW133889   4.342   6.747   8.133 -1.3800  0.7568 -0.6707
10816SOL    HW233890   4.221   6.661   8.165 -0.2893 -0.2539  0.9157
10817SOL     OW33891   1.295   4.351   7.285 -0.2148 -0.0181 -0.1717
10817SOL    HW133892   1.215   4.317   7.327 -0.3367 -0.3651 -0.6695
10817SOL    HW233893   1.366   4.321   7.342 -0.4629  0.6509  0.5059
10818SOL     OW33894   2.829   5.198   8.581 -0.3365 -0.0518  0.4128
10818SOL    HW133895   2.897   5.228   8.641  0.0264 -0.4235  0.1897
10818SOL    HW233896   2.806   5.111   8.613 -1.5203  0.4970  1.1742
10819SOL     OW33897   3.549   7.311   7.261 -0.8189  0.2598  0.1743
10819SOL    HW133898   3.545   7.248   7.333 -2.7080 -0.3518 -0.4083
10819SOL    HW233899   3.502   7.387   7.293  0.2756  0.8676  0.3759
10820SOL     OW33900   3.728   5.849   9.048  0.3684 -0.0239  0.1971
10820SOL    HW133901   3.775   5.835   9.130  0.2313 -0.6026  0.1824
10820SOL    HW233902   3.742   5.769   8.998 -1.4449 -0.6423  0.5984
10821SOL     OW33903   2.578   6.537   7.067  0.0182 -0.3717 -0.2886
10821SOL    HW133904   2.595   6.618   7.019 -1.3159  1.2255  1.8014
10821SOL    HW233905   2.522   6.486   7.009  1.7255 -0.3547 -2.0742
10822SOL     OW33906   3.669   7.787  10.245  0.0881 -0.0948 -0.0403
10822SOL    HW133907   3.680   7.875  10.281  0.7275 -0.1891  0.0042
10822SOL    HW233908   3.758   7.758  10.226 -0.0739 -0.9662  0.5022
10823SOL     OW33909   2.530   5.515   7.485 -0.4597 -0.3379 -0.7302
10823SOL    HW133910   2.621   5.535   7.505 -0.2312 -1.3133 -0.7448
10823SOL    HW233911   2.485   5.518   7.570 -0.1007 -1.4074 -0.4928
10824SOL     OW33912   3.174   6.455   9.640 -0.0516 -0.0776  0.1027
10824SOL    HW133913   3.103   6.517   9.625 -0.1463 -0.7230 -2.5854
10824SOL    HW233914   3.229   6.496   9.707 -1.7829  1.4024  0.6863
10825SOL     OW33915   2.642   5.906   9.512  0.0106  0.0751  0.2662
10825SOL    HW133916   2.605   5.982   9.467  0.2217  0.1900  0.2856
10825SOL    HW233917   2.730   5.934   9.538  0.1030 -0.1863  0.2412
10826SOL     OW33918   2.594   6.497   9.569 -0.1453  0.5502  0.8813
10826SOL    HW133919   2.679   6.458   9.589 -0.3821 -0.1772  0.5306
10826SOL    HW233920   2.531   6.429   9.594 -0.5612  0.6527  0.1232
10827SOL     OW33921   2.868   5.215   9.044 -0.4063  0.4122 -0.0849
10827SOL    HW133922   2.795   5.164   9.078 -0.6153  0.4622 -0.4542
10827SOL    HW233923   2.896   5.269   9.118  0.6263 -1.1164  0.6940
10828SOL     OW33924   3.886   5.164   9.424 -0.7281  0.2452 -0.0955
10828SOL    HW133925   3.828   5.149   9.498 -1.6452 -0.5655 -0.9591
10828SOL    HW233926   3.842   5.124   9.349  1.1808 -0.8846 -0.6869
10829SOL     OW33927   4.945   6.917   7.084 -0.4415  0.2808 -0.3634
10829SOL    HW133928   4.948   6.990   7.146  1.3753  0.4354 -0.5524
10829SOL    HW233929   4.960   6.959   6.999 -0.3658 -0.1986 -0.5877
10830SOL     OW33930   5.176   5.402   6.604  0.0138 -0.1561  0.2651
10830SOL    HW133931   5.170   5.479   6.548 -2.3332  1.1303  2.1062
10830SOL    HW233932   5.086   5.382   6.627  0.7088 -2.2822  1.4463
10831SOL     OW33933   3.106   6.200   7.635  0.2677 -0.4943  0.5284
10831SOL    HW133934   3.144   6.226   7.719 -0.2103  0.2647  0.5227
10831SOL    HW233935   3.012   6.215   7.646  0.3007  0.5430 -0.4511
10832SOL     OW33936   2.944   6.393   8.417 -0.1266 -0.0747  0.1230
10832SOL    HW133937   3.002   6.337   8.467 -0.1066 -0.1490  0.0145
10832SOL    HW233938   2.933   6.349   8.333 -0.9409 -0.4491  0.4130
10833SOL     OW33939   4.524   6.210   8.302 -0.2737 -0.0719  0.1581
10833SOL    HW133940   4.504   6.303   8.307 -2.4629 -0.3780 -1.2332
10833SOL    HW233941   4.439   6.168   8.285  0.7181 -2.2751  0.2357
10834SOL     OW33942   3.233   4.628   8.584  0.2260 -0.5632 -0.2979
10834SOL    HW133943   3.285   4.615   8.663  0.8924 -0.7447 -0.7597
10834SOL    HW233944   3.195   4.542   8.566 -1.1064 -0.2059  0.6194
10835SOL     OW33945   3.867   5.823   8.694  0.2539 -0.4527  0.0569
10835SOL    HW133946   3.872   5.741   8.645  1.7492 -0.6050  0.4005
10835SOL    HW233947   3.933   5.880   8.654 -0.1170  0.2538  0.4159
10836SOL     OW33948   4.466   5.970   9.532  0.3160  0.4639  0.4233
10836SOL    HW133949   4.502   5.884   9.557  1.1879  0.7944  0.3385
10836SOL    HW233950   4.468   6.021   9.614  1.3208  0.9141  0.1329
10837SOL     OW33951   5.001   6.987   8.692 -0.4778  0.3451 -0.4933
10837SOL    HW133952   5.083   7.027   8.664 -0.0002 -0.0349  0.3321
10837SOL    HW233953   5.017   6.893   8.687 -0.2699  0.2632  1.3117
10838SOL     OW33954   2.560   7.686  10.338  0.0890 -0.1459 -0.5899
10838SOL    HW133955   2.642   7.689  10.289  0.1809 -0.5437 -0.4601
10838SOL    HW233956   2.549   7.594  10.361 -1.5132 -0.4941 -2.5067
10839SOL     OW33957   3.794   5.178   7.764  0.1891 -0.6163 -0.3640
10839SOL    HW133958   3.782   5.085   7.780  0.0450 -0.7928 -1.4212
10839SOL    HW233959   3.884   5.185   7.732  0.0134 -0.4692 -0.8277
10840SOL     OW33960   2.786   6.458  10.233  0.3220 -0.3490 -0.6412
10840SOL    HW133961   2.837   6.531  10.197 -0.7389  0.2623 -0.9379
10840SOL    HW233962   2.830   6.380  10.200  1.4714  0.1398 -0.3260
10841SOL     OW33963   2.811   7.624   9.861  0.0216 -1.1435  0.3821
10841SOL    HW133964   2.903   7.648   9.858 -0.0689 -0.6576  1.2471
10841SOL    HW233965   2.796   7.596   9.951 -0.7886 -0.7732  0.3709
10842SOL     OW33966   2.543   6.773   8.013  0.0043  0.1543  0.3236
10842SOL    HW133967   2.448   6.763   8.019  0.0400  0.0084  0.6717
10842SOL    HW233968   2.578   6.694   8.055  0.2769  0.0406 -0.1197
10843SOL     OW33969   1.829   7.052   9.025 -0.1932 -0.1821 -0.1637
10843SOL    HW133970   1.756   6.990   9.032 -0.8943  0.6739  0.3299
10843SOL    HW233971   1.787   7.137   9.014  0.7362  0.3218  0.0915
10844SOL     OW33972   2.693   5.647   9.436 -0.4090  0.0682 -0.3066
10844SOL    HW133973   2.665   5.737   9.454 -0.0799 -0.1271  1.3989
10844SOL    HW233974   2.724   5.615   9.521 -0.1521 -1.5268 -0.9757
10845SOL     OW33975   1.407   7.403   8.113 -0.4416 -0.0318  0.1051
10845SOL    HW133976   1.345   7.430   8.182  1.4312  3.0172  0.7953
10845SOL    HW233977   1.463   7.338   8.155 -0.8770 -0.0587  0.6653
10846SOL     OW33978   2.514   6.027   5.916 -0.0093  0.1024 -0.1172
10846SOL    HW133979   2.545   6.082   5.988 -0.8277 -0.3148  0.5798
10846SOL    HW233980   2.421   6.049   5.908  0.2014  0.6136 -1.4977
10847SOL     OW33981   1.439   5.582   7.199  0.5274  0.0619  0.7067
10847SOL    HW133982   1.510   5.635   7.235  1.9465 -0.7792 -0.7097
10847SOL    HW233983   1.404   5.635   7.127  2.6855 -1.2166 -1.4475
10848SOL     OW33984   3.352   7.202   7.585 -0.2775 -0.1739 -0.0854
10848SOL    HW133985   3.354   7.297   7.599  0.7561  0.1603 -2.1053
10848SOL    HW233986   3.273   7.188   7.533  0.3717 -0.1801 -1.0957
10849SOL     OW33987   2.787   7.087   9.406  0.1087  0.2439  0.1788
10849SOL    HW133988   2.769   7.048   9.321  2.2019 -2.4028  0.8125
10849SOL    HW233989   2.856   7.151   9.389 -1.5755  2.0066 -0.4696
10850SOL     OW33990   5.745   6.681   7.248  0.6454 -0.0845  0.2445
10850SOL    HW133991   5.674   6.705   7.189  0.1915 -1.8261  0.0417
10850SOL    HW233992   5.820   6.663   7.191  1.2892  1.7014  0.4552
10851SOL     OW33993   2.364   6.246  10.357 -0.2459  0.4279 -0.6050
10851SOL    HW133994   2.337   6.159  10.330  1.3727  0.0732 -1.1775
10851SOL    HW233995   2.315   6.305  10.300 -0.8778 -0.1164 -0.6378
10852SOL     OW33996   3.952   6.394   9.583  0.3058  0.6020 -0.2610
10852SOL    HW133997   3.908   6.465   9.630  0.7266  1.3106 -0.9093
10852SOL    HW233998   3.881   6.347   9.539 -0.4370 -1.7003  3.0625
10853SOL     OW33999   6.235   0.395   7.865  0.3120  0.2762  0.1903
10853SOL    HW134000   6.324   0.398   7.829  0.3665 -0.3857  0.2638
10853SOL    HW234001   6.178   0.400   7.788  0.3762  1.9859  0.2071
10854SOL     OW34002   2.966   6.561  11.402 -0.0250  0.0642  0.3813
10854SOL    HW134003   2.943   6.564  11.309  0.2974 -0.2318  0.2926
10854SOL    HW234004   2.900   6.502  11.440 -0.2091  0.2533  0.3540
10855SOL     OW34005   2.507   6.467  10.190  0.2818  0.1716 -0.5028
10855SOL    HW134006   2.448   6.463  10.265 -1.4582 -1.6670 -1.8677
10855SOL    HW234007   2.594   6.472  10.229 -0.6510  1.8778  1.5929
10856SOL     OW34008   3.235   5.735   7.566  0.2092 -0.6092  0.0855
10856SOL    HW134009   3.167   5.677   7.531  0.5516  0.5047 -2.7265
10856SOL    HW234010   3.187   5.814   7.593  0.2484 -0.1558 -1.1066
10857SOL     OW34011   2.442   7.324   8.280  0.3437 -0.1911  0.2337
10857SOL    HW134012   2.370   7.342   8.340 -0.8323  0.2830 -1.2700
10857SOL    HW234013   2.448   7.403   8.225  1.1037 -0.7798 -0.5525
10858SOL     OW34014   4.604   5.182   6.990 -0.2712  0.0101  0.2588
10858SOL    HW134015   4.689   5.156   7.024  0.9638  0.9560 -1.8605
10858SOL    HW234016   4.546   5.108   7.008  0.9036 -0.5373  1.9892
10859SOL     OW34017   2.524   5.376   9.181 -0.5094 -0.2252 -0.0849
10859SOL    HW134018   2.568   5.327   9.251 -0.0971 -0.3316 -0.4146
10859SOL    HW234019   2.573   5.459   9.177 -1.3462  0.3276  0.6285
10860SOL     OW34020   2.038   6.190  10.181  0.3333 -0.0241 -0.2185
10860SOL    HW134021   2.036   6.170  10.274 -2.4360 -0.9475 -0.3843
10860SOL    HW234022   2.031   6.285  10.176  2.5830  0.2302  0.4748
10861SOL     OW34023   2.773   0.511   8.462 -0.1409  0.0708 -0.0566
10861SOL    HW134024   2.744   0.446   8.397  0.7142 -0.6643  0.2667
10861SOL    HW234025   2.693   0.541   8.504 -0.4840 -1.8803  0.8042
10862SOL     OW34026   3.359   6.919   9.469 -0.7147  0.2913 -0.0845
10862SOL    HW134027   3.429   6.926   9.404 -1.2693 -0.0529 -0.7380
10862SOL    HW234028   3.308   6.843   9.441 -0.2588 -0.6129  1.4780
10863SOL     OW34029   1.748   6.066   8.953 -0.0280 -0.1902  0.5368
10863SOL    HW134030   1.771   6.158   8.957 -0.4875 -0.1146  1.6742
10863SOL    HW234031   1.831   6.021   8.933  0.4240  0.3672  1.1386
10864SOL     OW34032   2.764   7.047   9.099  0.5956 -0.2232 -0.1647
10864SOL    HW134033   2.729   6.975   9.046 -1.2041 -0.2995  1.0446
10864SOL    HW234034   2.744   7.126   9.048  2.9864 -0.5163 -1.7186
10865SOL     OW34035   4.000   6.759  10.812 -0.3608 -0.6323 -0.3600
10865SOL    HW134036   4.051   6.718  10.742  0.0776 -0.6345 -0.0395
10865SOL    HW234037   4.065   6.799  10.870 -0.6726 -1.4330  0.5640
10866SOL     OW34038   1.817   5.696  10.901 -0.3237 -0.4666 -0.1332
10866SOL    HW134039   1.886   5.732  10.844  0.8511 -1.1955  0.7711
10866SOL    HW234040   1.810   5.759  10.973 -2.0936  0.6638 -1.2206
10867SOL     OW34041   4.596   7.054   9.879  0.7079 -0.4656  0.1650
10867SOL    HW134042   4.643   7.108   9.816  0.7677 -1.3535 -0.5804
10867SOL    HW234043   4.595   6.966   9.840  1.7891 -1.3354  1.9351
10868SOL     OW34044   2.049   6.496   8.636 -0.1493  0.6904 -0.4014
10868SOL    HW134045   1.958   6.518   8.659  0.2251  2.1082 -0.1445
10868SOL    HW234046   2.084   6.451   8.713 -0.8939 -0.7297 -0.8622
10869SOL     OW34047   4.552   5.317   7.649 -0.0013  0.0814  0.2237
10869SOL    HW134048   4.551   5.289   7.558 -1.2097 -1.6566  0.7048
10869SOL    HW234049   4.519   5.241   7.697  5.8882 -1.4221  2.8334
10870SOL     OW34050   3.703   6.174   6.682  0.1672 -0.5469 -0.3392
10870SOL    HW134051   3.760   6.242   6.645 -0.9283  1.9088  2.1332
10870SOL    HW234052   3.614   6.202   6.659 -0.3155 -1.2142  0.6500
10871SOL     OW34053   2.402   7.266   9.969  0.1025  0.4824 -0.6652
10871SOL    HW134054   2.311   7.283   9.993  0.0173 -1.0709  0.2810
10871SOL    HW234055   2.399   7.241   9.877 -0.4052  0.5639 -0.6728
10872SOL     OW34056   2.736   6.099   8.596  0.1846  0.4638 -0.5251
10872SOL    HW134057   2.800   6.071   8.661 -1.1773  1.4085  1.3331
10872SOL    HW234058   2.702   6.181   8.630 -1.2116  0.5586 -2.0231
10873SOL     OW34059   4.299   5.685   9.464  0.5478 -0.2388 -0.7472
10873SOL    HW134060   4.328   5.595   9.479  2.1378 -0.2970 -3.4598
10873SOL    HW234061   4.343   5.736   9.532 -0.1889 -1.4311  0.6794
10874SOL     OW34062   3.801   6.118   9.492 -0.6267  0.0744  0.0712
10874SOL    HW134063   3.761   6.124   9.405 -1.0478 -1.9524  0.0788
10874SOL    HW234064   3.834   6.028   9.497  0.4123  0.4991  1.5909
10875SOL     OW34065   2.599   5.623   7.837 -0.4394 -0.1126  0.1168
10875SOL    HW134066   2.594   5.717   7.819 -1.0682 -0.1347  0.1593
10875SOL    HW234067   2.677   5.614   7.892  0.2407  0.2406 -0.7559
10876SOL     OW34068   1.462   7.753   7.192  0.4044 -0.1428 -0.3765
10876SOL    HW134069   1.491   7.827   7.245  2.1237 -0.0945 -1.3171
10876SOL    HW234070   1.380   7.725   7.233  0.3131  1.5324  0.6950
10877SOL     OW34071   3.312   5.482   9.983  0.5595  0.2239 -0.3974
10877SOL    HW134072   3.352   5.563   9.952 -0.7908  1.5384  1.0891
10877SOL    HW234073   3.282   5.438   9.904 -1.2229  2.5848 -1.1664
10878SOL     OW34074   2.223   4.314   9.395 -0.5133 -0.3890 -0.6849
10878SOL    HW134075   2.275   4.244   9.434 -0.5824 -0.2969 -0.4264
10878SOL    HW234076   2.235   4.303   9.301 -0.0148 -0.3586 -0.6254
10879SOL     OW34077   3.203   5.067  11.324  0.2207 -0.0160  0.1265
10879SOL    HW134078   3.119   5.087  11.365  0.7775  1.5447  0.5938
10879SOL    HW234079   3.258   5.035  11.395  0.6081  0.8625  0.2335
10880SOL     OW34080   2.001   7.087  10.365  0.3460 -0.0902  0.3331
10880SOL    HW134081   1.976   7.140  10.440  1.1651  0.2802  0.3630
10880SOL    HW234082   2.003   6.997  10.397 -0.3149 -0.0559  0.4790
10881SOL     OW34083   3.816   5.331   8.053 -0.3701  0.2032 -0.1299
10881SOL    HW134084   3.835   5.310   7.962  1.2488  0.2769  0.1525
10881SOL    HW234085   3.867   5.410   8.071  1.4317 -1.2327  1.5005
10882SOL     OW34086   1.140   7.530  10.526 -0.0573 -0.2615 -0.5327
10882SOL    HW134087   1.112   7.447  10.487 -1.5886  0.0343 -0.1269
10882SOL    HW234088   1.215   7.557  10.473 -1.1784 -0.5789 -2.3952
10883SOL     OW34089   1.948   6.823   9.608 -0.3550 -0.3327  0.6846
10883SOL    HW134090   1.918   6.911   9.584 -0.1060  0.0667  1.7373
10883SOL    HW234091   2.043   6.826   9.594 -0.6347 -1.3466 -1.9098
10884SOL     OW34092   4.242   6.743   9.323  0.6640 -0.0329  0.1297
10884SOL    HW134093   4.201   6.670   9.367  1.1224 -0.3057  0.1125
10884SOL    HW234094   4.247   6.812   9.389 -2.7247  1.1929 -0.6914
10885SOL     OW34095   1.820   5.118   8.935 -0.2139  0.0376  0.4521
10885SOL    HW134096   1.876   5.080   8.867 -0.8533  0.6898 -0.4653
10885SOL    HW234097   1.804   5.207   8.905 -1.0040  0.1422  1.1631
10886SOL     OW34098   0.624   5.781   9.614 -0.5157  0.2602 -0.8071
10886SOL    HW134099   0.668   5.848   9.562  0.2759 -0.2286 -0.7640
10886SOL    HW234100   0.620   5.819   9.702  0.3189  0.0785 -0.6863
10887SOL     OW34101   4.121   6.282  10.011 -0.3084 -0.5196  0.2757
10887SOL    HW134102   4.192   6.345   9.996 -0.7747  0.0580  0.4951
10887SOL    HW234103   4.074   6.278   9.927 -0.3131 -0.5372  0.2788
10888SOL     OW34104   1.828   5.286   8.589  0.1586  0.3548  0.2271
10888SOL    HW134105   1.915   5.324   8.576  0.3102 -0.6830 -2.6054
10888SOL    HW234106   1.792   5.277   8.500 -2.6063  0.1523  1.2477
10889SOL     OW34107   2.813   5.762  10.017  0.0860  0.0903 -0.1314
10889SOL    HW134108   2.823   5.673   9.984  0.5931 -0.3650  1.1813
10889SOL    HW234109   2.859   5.816   9.953 -0.5852 -0.5247 -1.1636
10890SOL     OW34110   3.509   1.057   9.239 -0.0793  0.5215 -0.0609
10890SOL    HW134111   3.521   1.138   9.190  0.5653  0.8100  0.5595
10890SOL    HW234112   3.582   1.056   9.301 -1.4969  0.7406  1.6754
10891SOL     OW34113   0.886   6.735   9.072 -0.2366  0.0294 -0.0882
10891SOL    HW134114   0.906   6.642   9.075  1.5183  0.2854 -1.6046
10891SOL    HW234115   0.815   6.743   9.008  0.7287 -0.1668 -1.2279
10892SOL     OW34116   2.819   7.255  10.157 -0.4642 -0.9815  0.2021
10892SOL    HW134117   2.773   7.182  10.117 -0.6330 -0.8938  0.2342
10892SOL    HW234118   2.758   7.288  10.223 -1.6520  1.0060 -1.7144
10893SOL     OW34119   5.156   7.319   6.955 -0.3480 -0.4192 -0.1263
10893SOL    HW134120   5.217   7.246   6.968 -0.2843 -0.1114  1.5162
10893SOL    HW234121   5.210   7.388   6.917  0.3165 -0.2267  1.1053
10894SOL     OW34122   4.483   7.750   8.997 -0.0296 -0.1134 -0.0453
10894SOL    HW134123   4.486   7.657   8.973 -1.0050 -0.4003  0.8528
10894SOL    HW234124   4.405   7.757   9.054  0.3757  1.1318  0.3759
10895SOL     OW34125   1.176   0.002   7.796  0.1468  0.3055  0.3299
10895SOL    HW134126   1.160  -0.054   7.873 -0.8089  0.3062  0.1488
10895SOL    HW234127   1.223  -0.054   7.735  1.5270  0.5032  1.1572
10896SOL     OW34128   1.633   5.613   7.810  0.4310  0.4553 -0.0773
10896SOL    HW134129   1.542   5.602   7.838  0.4822 -0.3863 -0.2044
10896SOL    HW234130   1.629   5.675   7.737  0.0639  1.0868  0.4677
10897SOL     OW34131   2.284   6.388   7.855 -0.1954 -0.7328  0.6799
10897SOL    HW134132   2.342   6.401   7.930 -1.3944 -0.5317  1.5988
10897SOL    HW234133   2.218   6.327   7.886 -1.1252 -0.0821  0.0295
10898SOL     OW34134   3.095   6.611   7.801  0.4680 -0.4453  0.1813
10898SOL    HW134135   3.125   6.554   7.871 -0.8305 -0.1950  0.9683
10898SOL    HW234136   3.048   6.682   7.845  0.8516  0.5007 -0.8588
10899SOL     OW34137   2.416   7.849  10.827 -0.1794 -0.5702  0.3974
10899SOL    HW134138   2.471   7.922  10.855  0.3359 -0.5313 -0.7029
10899SOL    HW234139   2.470   7.799  10.767 -1.4715 -0.2924 -1.0546
10900SOL     OW34140   4.349   5.338   6.989 -0.1401  0.2654 -0.5698
10900SOL    HW134141   4.320   5.280   6.919 -1.8698 -0.2667  0.5374
10900SOL    HW234142   4.442   5.317   7.001 -0.8663 -3.0027  0.3965
10901SOL     OW34143   1.721   4.440   9.847  0.5625 -0.7509 -0.2086
10901SOL    HW134144   1.703   4.521   9.800  0.3507 -0.4881  0.3116
10901SOL    HW234145   1.672   4.448   9.929  0.0415 -1.6734 -0.4115
10902SOL     OW34146   3.399   0.542   9.483 -0.0479  0.0727 -0.0929
10902SOL    HW134147   3.421   0.573   9.395  1.7177  1.3458  0.7180
10902SOL    HW234148   3.308   0.569   9.496 -0.0222  0.7377 -1.1694
10903SOL     OW34149   2.654   6.780   6.967  0.3787  0.2093 -0.1368
10903SOL    HW134150   2.570   6.823   6.985  0.3000 -0.6440  1.7486
10903SOL    HW234151   2.718   6.831   7.018  1.0903  1.0036 -1.7511
10904SOL     OW34152   2.447   4.844   9.716 -0.2159 -0.0610 -0.2437
10904SOL    HW134153   2.395   4.799   9.649 -1.1260  1.3299 -0.5087
10904SOL    HW234154   2.405   4.819   9.798 -0.2448 -0.3123 -0.3333
10905SOL     OW34155   4.420   0.095   7.375  0.3266 -0.1298 -0.3424
10905SOL    HW134156   4.384   0.175   7.412  3.1125  0.4878  1.3075
10905SOL    HW234157   4.469   0.124   7.298  1.9768 -0.0733  0.6919
10906SOL     OW34158   2.954   5.278   8.795  0.1103  0.2823 -0.1806
10906SOL    HW134159   2.993   5.364   8.807 -1.8798  1.1609  0.4540
10906SOL    HW234160   2.905   5.262   8.876 -3.3604  0.6890 -1.9990
10907SOL     OW34161   3.801   5.636   8.908 -0.5439 -0.2539  0.2998
10907SOL    HW134162   3.811   5.544   8.882  2.0500  0.1644 -0.4794
10907SOL    HW234163   3.834   5.685   8.834 -0.2154  1.2623  1.4110
10908SOL     OW34164   2.876   1.130   9.812 -0.2281 -0.4321 -0.6628
10908SOL    HW134165   2.939   1.184   9.764 -0.8646  0.2326 -0.7668
10908SOL    HW234166   2.878   1.164   9.902  0.0936 -0.8940 -0.4905
10909SOL     OW34167   2.991   4.880   8.625 -0.2810 -0.2144  0.4826
10909SOL    HW134168   3.033   4.807   8.671 -1.3169 -0.5051  0.9841
10909SOL    HW234169   2.918   4.905   8.681 -1.4532 -0.4343 -0.8828
10910SOL     OW34170   2.900   7.976   6.432  0.3794  0.1883  0.2276
10910SOL    HW134171   2.823   7.922   6.412  0.3883  0.3573 -0.2765
10910SOL    HW234172   2.885   8.058   6.385  1.0489  0.0786 -0.2031
10911SOL     OW34173   2.756   4.576   8.546  0.1800 -0.1508 -0.0114
10911SOL    HW134174   2.742   4.601   8.455  0.1757 -1.7676 -0.4818
10911SOL    HW234175   2.695   4.632   8.595 -0.2585  0.3162 -1.0468
10912SOL     OW34176   2.201   6.991   6.662 -1.1770 -0.2676  0.4781
10912SOL    HW134177   2.185   7.006   6.569 -1.7886  1.9867  0.9029
10912SOL    HW234178   2.293   7.014   6.675 -1.7362  1.9601  0.8516
10913SOL     OW34179   1.565   7.701  10.394  0.4359  0.1989  0.2903
10913SOL    HW134180   1.573   7.754  10.315  0.4810  0.6725  0.6103
10913SOL    HW234181   1.646   7.718  10.442  0.3534  0.0077  0.5003
10914SOL     OW34182   2.917   6.339   7.912 -0.1393 -0.4771 -0.2793
10914SOL    HW134183   2.904   6.328   8.006  0.1893 -0.4273 -0.2271
10914SOL    HW234184   3.011   6.322   7.898 -0.0193  0.3030 -0.4785
10915SOL     OW34185   3.442   5.490   7.941  0.0023  0.4234 -0.2381
10915SOL    HW134186   3.470   5.580   7.927 -0.1265  0.3512 -1.0093
10915SOL    HW234187   3.473   5.443   7.863 -0.3186 -0.1042 -0.0522
10916SOL     OW34188   2.790   5.500   9.917 -0.2889  0.0624 -0.9070
10916SOL    HW134189   2.857   5.450   9.965 -0.8086  0.0338 -0.1893
10916SOL    HW234190   2.725   5.435   9.891 -1.8084  0.5062  1.4474
10917SOL     OW34191   5.098   7.803   9.280 -0.3228 -0.1048 -0.3985
10917SOL    HW134192   5.099   7.814   9.185 -0.0078  1.2032 -0.2676
10917SOL    HW234193   5.027   7.860   9.310  0.4483  0.5454  0.2508
10918SOL     OW34194   2.907   7.863   9.507  0.5587 -0.1918  0.1299
10918SOL    HW134195   3.003   7.857   9.500  0.5425  0.3983 -0.7687
10918SOL    HW234196   2.875   7.801   9.441  0.3582  1.7825 -1.7290
10919SOL     OW34197   3.731   6.525   8.651  0.7450 -0.9791 -0.0345
10919SOL    HW134198   3.783   6.601   8.624 -0.0017  0.3334  2.0530
10919SOL    HW234199   3.642   6.546   8.625 -0.0332  0.3945  3.2344
10920SOL     OW34200   1.400   2.687   9.670  0.0154  0.2059  0.3657
10920SOL    HW134201   1.330   2.743   9.704  0.0448  1.1374 -1.0333
10920SOL    HW234202   1.471   2.748   9.648 -0.4154 -0.1500 -2.3829
10921SOL     OW34203   4.778   7.324   9.477 -0.8562 -0.3453 -0.2043
10921SOL    HW134204   4.786   7.387   9.405 -1.4747  0.0840  0.0941
10921SOL    HW234205   4.740   7.246   9.436 -0.1508 -0.5043 -0.5622
10922SOL     OW34206   2.169   4.316  10.761 -0.7722 -0.1207  0.2275
10922SOL    HW134207   2.263   4.307  10.751 -0.6722  0.5099  0.5548
10922SOL    HW234208   2.148   4.400  10.720 -0.8678  0.7859  2.0351
10923SOL     OW34209   5.600   6.263   8.233 -0.0078 -0.1637 -0.1747
10923SOL    HW134210   5.681   6.224   8.268 -1.3895 -1.3888  1.8956
10923SOL    HW234211   5.569   6.200   8.168  0.5873  0.2016 -0.8147
10924SOL     OW34212   2.593   6.186   9.334 -0.1223  0.4372 -0.1221
10924SOL    HW134213   2.571   6.225   9.250  0.6379 -0.1667 -0.6083
10924SOL    HW234214   2.516   6.203   9.389 -1.7794 -1.4347 -1.7022
10925SOL     OW34215   3.552   6.914   9.279  0.2107 -0.0072 -0.6113
10925SOL    HW134216   3.637   6.871   9.268  1.0016  0.8786  1.5788
10925SOL    HW234217   3.553   6.986   9.217  0.7521 -0.4219 -1.0941
10926SOL     OW34218   2.460   6.678  10.439  0.3307  0.2433 -0.5747
10926SOL    HW134219   2.377   6.653  10.396  0.7737 -0.6673 -0.9424
10926SOL    HW234220   2.469   6.616  10.511  0.5610  0.5053 -0.3778
10927SOL     OW34221   3.479   6.660   9.099  0.1488  0.2682 -0.0289
10927SOL    HW134222   3.412   6.709   9.147  0.2368  1.1585 -0.7857
10927SOL    HW234223   3.560   6.677   9.147 -0.1125 -0.6639  0.7842
10928SOL     OW34224   3.393   6.852   7.669 -0.3170  1.0254  0.1733
10928SOL    HW134225   3.377   6.944   7.647 -1.4868  0.6497 -0.6559
10928SOL    HW234226   3.355   6.842   7.757 -0.4076  1.2771  0.1641
10929SOL     OW34227   2.917   7.473   9.175 -0.3553  0.2701 -0.2163
10929SOL    HW134228   2.850   7.475   9.107 -0.7547 -0.1071  0.1601
10929SOL    HW234229   2.938   7.565   9.190  0.0103  0.3418 -1.1083
10930SOL     OW34230   2.190   6.795  10.747  0.9357 -0.3488 -0.5304
10930SOL    HW134231   2.235   6.879  10.756 -0.7922  0.4067  2.8232
10930SOL    HW234232   2.258   6.729  10.764  1.6789  0.5337  0.0009
10931SOL     OW34233   4.726   6.275   7.921 -0.4905  0.4040 -0.0178
10931SOL    HW134234   4.704   6.291   7.830  1.0130 -0.4191 -0.5596
10931SOL    HW234235   4.697   6.184   7.937 -1.2900  0.7352  0.5278
10932SOL     OW34236   5.053   5.108   8.356  0.0060 -0.4854  0.5943
10932SOL    HW134237   4.969   5.144   8.384 -0.0720  0.0489 -0.2738
10932SOL    HW234238   5.034   5.067   8.271  0.6197 -0.3285  0.3770
10933SOL     OW34239   1.733   7.436  10.902  0.1572 -0.3226 -0.0441
10933SOL    HW134240   1.664   7.376  10.932  0.9762 -1.3378 -0.1579
10933SOL    HW234241   1.808   7.416  10.957  0.6918  0.0357 -0.6334
10934SOL     OW34242   3.538   7.196   9.141 -0.8345  0.4179  0.3499
10934SOL    HW134243   3.624   7.192   9.182 -0.6524  2.6676  0.2792
10934SOL    HW234244   3.477   7.208   9.214 -0.7690  1.7642  0.2066
10935SOL     OW34245   3.608   5.873   9.492  0.5393 -1.1292  0.4331
10935SOL    HW134246   3.544   5.835   9.552 -0.4145  0.2176  0.2869
10935SOL    HW234247   3.612   5.812   9.419 -1.5367 -0.6168 -0.1556
10936SOL     OW34248   2.946   5.217   7.744 -0.0348 -0.2662 -0.4197
10936SOL    HW134249   2.872   5.238   7.802 -0.2638  0.7217 -1.0443
10936SOL    HW234250   2.921   5.136   7.700 -0.1911 -0.6132  0.2960
10937SOL     OW34251   2.675   6.447   8.474  0.4659  0.1231  0.1417
10937SOL    HW134252   2.767   6.422   8.463 -0.0718 -1.6110 -0.9570
10937SOL    HW234253   2.646   6.398   8.551  0.4267  0.6258  0.4533
10938SOL     OW34254   3.943   7.132   8.148  0.1980  0.6796  0.3858
10938SOL    HW134255   3.941   7.105   8.240 -1.5549  1.1087  0.5208
10938SOL    HW234256   3.922   7.052   8.099 -2.3249  1.1116  0.6223
10939SOL     OW34257   1.187   5.014   9.416  0.0823  0.0334  0.3493
10939SOL    HW134258   1.170   5.042   9.326  0.5315 -0.0958  0.2207
10939SOL    HW234259   1.270   5.057   9.439  1.0086 -1.4890  0.0034
10940SOL     OW34260   0.764   7.561   8.830 -0.5126 -0.1629 -0.1552
10940SOL    HW134261   0.766   7.635   8.891 -0.1136  0.2890 -0.7000
10940SOL    HW234262   0.780   7.601   8.744  0.9130 -1.0209 -0.3202
10941SOL     OW34263   1.831   6.097   9.946 -0.4004  0.2404  0.0508
10941SOL    HW134264   1.892   6.171   9.951  1.2026 -1.0104 -0.2419
10941SOL    HW234265   1.848   6.046  10.026 -0.2294 -0.7235 -0.5822
10942SOL     OW34266   3.773   6.781   9.181  1.1713 -0.4227 -0.1508
10942SOL    HW134267   3.797   6.689   9.171  0.0589 -0.9828  1.8415
10942SOL    HW234268   3.830   6.815   9.250  0.9599  0.1311 -0.2364
10943SOL     OW34269   2.212   7.702  10.672  0.1847  0.0375  0.1508
10943SOL    HW134270   2.255   7.749  10.743  0.5219  0.1168 -0.1061
10943SOL    HW234271   2.251   7.737  10.592 -0.4205  0.1757 -0.0892
10944SOL     OW34272   4.804   5.475   7.569  0.3147 -0.4065  0.4154
10944SOL    HW134273   4.829   5.411   7.501 -2.0152 -0.7581 -0.1990
10944SOL    HW234274   4.853   5.554   7.546  0.0911 -0.7226 -1.3066
10945SOL     OW34275   2.199   6.424   8.412  0.4444 -0.1722  0.4774
10945SOL    HW134276   2.128   6.438   8.475  0.3894  0.9085  0.1914
10945SOL    HW234277   2.183   6.489   8.344  1.4706 -0.2066  0.1969
10946SOL     OW34278   2.206   6.643   9.884 -0.7341 -0.1432  0.1442
10946SOL    HW134279   2.188   6.735   9.903 -0.2285  0.1167 -0.5807
10946SOL    HW234280   2.124   6.610   9.847 -0.8462  0.0761  0.1940
10947SOL     OW34281   5.756   5.926   7.865  0.6354  0.1353 -0.1822
10947SOL    HW134282   5.793   5.879   7.941 -0.6114  2.9754  2.3840
10947SOL    HW234283   5.831   5.971   7.827  0.9785  0.2851  0.6425
10948SOL     OW34284   2.045   5.463   9.462 -0.3740 -0.0562 -0.4231
10948SOL    HW134285   2.110   5.415   9.513 -1.5034 -1.9182 -0.6640
10948SOL    HW234286   2.067   5.443   9.371 -1.4027 -0.8841 -0.4969
10949SOL     OW34287   0.324   6.012   9.649 -0.3256  0.0067  0.0657
10949SOL    HW134288   0.307   6.034   9.557 -0.8865 -0.0507  0.1516
10949SOL    HW234289   0.417   5.991   9.652 -0.8931 -3.5500 -1.2735
10950SOL     OW34290   1.935   7.139   9.798  0.2336  0.0510 -0.3567
10950SOL    HW134291   1.859   7.196   9.812 -2.1783 -2.4492 -2.2184
10950SOL    HW234292   1.948   7.140   9.704  2.8164  0.6311 -0.0659
10951SOL     OW34293   3.599   7.574  10.521 -0.1153  0.0880  0.7526
10951SOL    HW134294   3.686   7.615  10.525 -0.3068  1.0112 -2.1384
10951SOL    HW234295   3.538   7.648  10.525 -0.5662 -0.0794 -1.6744
10952SOL     OW34296   2.838   7.832  10.253  0.2358 -0.3325  0.2827
10952SOL    HW134297   2.808   7.873  10.335 -0.9519  0.1583 -0.3817
10952SOL    HW234298   2.933   7.825  10.264  0.1942  0.5118  1.3554
10953SOL     OW34299   3.258   6.299   9.444 -0.0116 -0.6138  0.5209
10953SOL    HW134300   3.314   6.351   9.386  1.1633 -1.7757  0.5737
10953SOL    HW234301   3.223   6.363   9.506 -2.1215  0.8893 -1.9754
10954SOL     OW34302   4.251   6.986   9.788 -0.1192 -0.0374  0.2653
10954SOL    HW134303   4.156   6.990   9.805 -0.5500  1.6135 -2.0324
10954SOL    HW234304   4.290   6.968   9.874 -2.4128  0.9703  1.6240
10955SOL     OW34305   3.537   7.061  11.193 -0.2294 -0.4218  0.0614
10955SOL    HW134306   3.608   7.004  11.220 -0.8284 -1.0797  0.2553
10955SOL    HW234307   3.538   7.057  11.097 -0.2134 -0.6927  0.0724
10956SOL     OW34308   2.524   6.275  10.995  0.0556  0.0125 -0.3399
10956SOL    HW134309   2.561   6.234  11.073 -0.2546  1.6503  0.7033
10956SOL    HW234310   2.516   6.203  10.932  3.8865 -0.6782 -0.2877
10957SOL     OW34311   2.649   5.771  11.408 -0.2745  0.1395 -0.4189
10957SOL    HW134312   2.553   5.773  11.407 -0.2878 -0.0156  0.1574
10957SOL    HW234313   2.672   5.792  11.499  0.2659  1.1516 -0.7775
10958SOL     OW34314   1.000   5.394  11.483 -0.5430 -0.3600 -0.2533
10958SOL    HW134315   0.994   5.483  11.449 -1.7990 -0.5302 -0.5152
10958SOL    HW234316   1.094   5.378  11.492 -0.3189  1.6132  1.5126
10959SOL     OW34317   4.092   0.940  10.284 -0.7097 -0.4420  0.2721
10959SOL    HW134318   4.072   0.870  10.221 -0.0510 -1.5809  1.2735
10959SOL    HW234319   4.058   1.019  10.244  1.7921 -0.6870 -2.6980
10960SOL     OW34320   1.062   5.466   9.407  0.4247  0.2864 -0.2095
10960SOL    HW134321   1.035   5.486   9.497  0.1604  1.9766 -0.6498
10960SOL    HW234322   0.983   5.479   9.355  0.9453  0.7453 -0.8843
10961SOL     OW34323   1.059   6.547  10.789  0.0705 -0.1909  0.2045
10961SOL    HW134324   1.019   6.628  10.820 -1.7107 -0.3369 -1.5304
10961SOL    HW234325   1.058   6.554  10.694  1.4147 -1.5611  0.0375
10962SOL     OW34326   3.560   7.642  10.808  0.1093 -0.3473  0.1707
10962SOL    HW134327   3.622   7.612  10.875  0.6507 -2.7675 -1.3052
10962SOL    HW234328   3.610   7.642  10.727 -0.9876  0.8430 -0.5280
10963SOL     OW34329   0.787   1.607  10.867  0.0545  0.0304 -0.5200
10963SOL    HW134330   0.759   1.526  10.824  1.0041 -0.5426 -0.0862
10963SOL    HW234331   0.793   1.670  10.796 -1.0895 -0.1575 -0.8058
10964SOL     OW34332   1.622   6.630  11.632  0.3132  0.5065 -0.3397
10964SOL    HW134333   1.591   6.720  11.618  0.4197  0.6330  0.2063
10964SOL    HW234334   1.714   6.632  11.608  0.3269  0.5576 -0.2838
10965SOL     OW34335   3.085   0.855  11.285  0.2805 -0.1791  0.4975
10965SOL    HW134336   2.998   0.876  11.320 -0.0274 -0.4544 -0.0707
10965SOL    HW234337   3.082   0.760  11.272 -0.6079  0.1696 -2.7196
10966SOL     OW34338   1.177   5.785  10.200 -0.0146  0.3408 -0.0046
10966SOL    HW134339   1.148   5.732  10.274  0.7754 -2.0536 -1.3159
10966SOL    HW234340   1.252   5.737  10.164 -0.6268  1.1856 -2.6154
10967SOL     OW34341   3.426   5.703  11.175 -0.8984 -0.5017  0.0374
10967SOL    HW134342   3.404   5.719  11.267 -0.7854  0.5563 -0.1062
10967SOL    HW234343   3.361   5.753  11.126 -0.5959 -0.5782 -0.4425
10968SOL     OW34344   1.515   6.621  11.292  0.1043  0.0945  0.8474
10968SOL    HW134345   1.547   6.561  11.360  0.4182  0.0976  0.7068
10968SOL    HW234346   1.506   6.566  11.214 -1.2526 -0.1288  1.1495
10969SOL     OW34347   3.308   7.809   8.786 -0.4719  0.0616  0.0201
10969SOL    HW134348   3.235   7.810   8.723  0.2008 -0.5745 -0.8005
10969SOL    HW234349   3.384   7.837   8.734 -0.4119  2.4366  1.2772
10970SOL     OW34350   1.103   6.045  10.445  0.8538 -0.0414 -0.1768
10970SOL    HW134351   1.158   6.045  10.367  2.4584 -1.8450  0.8952
10970SOL    HW234352   1.164   6.051  10.518 -0.5108  0.0234  1.0042
10971SOL     OW34353   2.827   5.582   9.021 -0.3482 -0.4676 -0.4448
10971SOL    HW134354   2.878   5.591   9.101 -0.7052  1.1144 -0.3646
10971SOL    HW234355   2.892   5.563   8.953  0.3618  1.2319 -0.2962
10972SOL     OW34356   3.126   0.183  11.490  0.0717 -0.3529  0.2557
10972SOL    HW134357   3.080   0.242  11.430  0.1524 -0.6911 -0.1412
10972SOL    HW234358   3.187   0.135  11.435  1.6603  0.8118  0.9374
10973SOL     OW34359   1.847   5.740  12.261 -0.0059  0.1197 -0.2497
10973SOL    HW134360   1.785   5.811  12.278  0.7844  1.7520 -3.4173
10973SOL    HW234361   1.934   5.781  12.270  0.6884 -1.5826  1.9122
10974SOL     OW34362   1.721   6.814  10.768 -0.8706  0.5057  0.1808
10974SOL    HW134363   1.679   6.900  10.774 -0.9280  0.4269  1.1442
10974SOL    HW234364   1.791   6.825  10.705 -0.8604  1.2722  0.3219
10975SOL     OW34365   2.046   5.987  10.742  0.2810  0.6698  0.4624
10975SOL    HW134366   2.061   6.027  10.657 -0.4381  0.6890  0.3392
10975SOL    HW234367   2.100   5.908  10.742  2.3550  2.0169  1.0198
10976SOL     OW34368   3.048   5.640  10.263 -0.3691  0.0665 -0.5196
10976SOL    HW134369   2.969   5.588  10.253 -2.2478  2.3340  1.2808
10976SOL    HW234370   3.046   5.669  10.354  0.5364  3.1467 -1.3529
10977SOL     OW34371   2.455   4.224  10.797 -0.4543 -0.2373 -0.2024
10977SOL    HW134372   2.529   4.181  10.840 -1.7237 -1.4296  0.8470
10977SOL    HW234373   2.492   4.305  10.762  1.9355 -1.8703 -1.8379
10978SOL     OW34374   3.176   7.314  10.343 -0.0151 -0.3650 -0.0326
10978SOL    HW134375   3.116   7.244  10.316  0.0745 -0.3754 -0.2092
10978SOL    HW234376   3.247   7.309  10.279 -0.9908  1.2094 -1.3149
10979SOL     OW34377   1.357   6.949   9.614  0.5919  0.2439  0.1144
10979SOL    HW134378   1.276   6.908   9.584 -0.0024  1.9975 -0.7736
10979SOL    HW234379   1.424   6.916   9.553  0.2228  0.2099 -0.2771
10980SOL     OW34380   1.244   0.466  10.891  0.2345  0.6039 -0.0095
10980SOL    HW134381   1.182   0.395  10.877 -0.8671  1.8020 -1.5302
10980SOL    HW234382   1.291   0.441  10.971 -1.8670 -0.5642  0.9462
10981SOL     OW34383   2.950   6.208   8.939 -0.8047 -0.1785  0.6176
10981SOL    HW134384   2.910   6.261   8.870  0.7894  1.2478  0.7511
10981SOL    HW234385   2.932   6.255   9.020 -1.8952 -1.3904  1.1256
10982SOL     OW34386   1.326   6.207   9.857  0.1983  0.6173  0.2779
10982SOL    HW134387   1.419   6.208   9.877  0.6881  1.6759 -1.8190
10982SOL    HW234388   1.303   6.115   9.849  1.4853  0.3710 -0.8655
10983SOL     OW34389   3.395   6.518   8.638 -0.0933 -1.2599  0.5521
10983SOL    HW134390   3.331   6.537   8.570  1.4748 -1.2737 -0.9987
10983SOL    HW234391   3.397   6.598   8.691 -0.9483 -1.0342  0.2578
10984SOL     OW34392   4.289   6.987  10.062  0.3281 -0.1554  0.3391
10984SOL    HW134393   4.235   6.960  10.137 -0.0128 -0.3508  0.0269
10984SOL    HW234394   4.328   7.070  10.090 -0.7101  0.3663  0.3097
10985SOL     OW34395   3.075   6.189  11.639  0.1589  0.5179  0.3211
10985SOL    HW134396   3.110   6.101  11.627  0.8915  0.8785 -0.2659
10985SOL    HW234397   3.151   6.244  11.658  0.0383  1.4029 -1.5199
10986SOL     OW34398   3.883   4.943  11.114  0.3330  0.2332 -0.3962
10986SOL    HW134399   3.970   4.975  11.138  0.0695 -0.1825  1.1877
10986SOL    HW234400   3.841   5.018  11.072  1.0299  0.8092 -0.0791
10987SOL     OW34401   3.950   1.025  11.125 -0.2762 -0.0367  0.3871
10987SOL    HW134402   3.908   0.979  11.197 -0.6910  0.8226  0.7109
10987SOL    HW234403   3.913   1.113  11.128 -0.6075 -0.0873 -1.1194
10988SOL     OW34404   2.930   2.625  10.966  0.0025  0.8442  0.1529
10988SOL    HW134405   2.931   2.594  11.057  0.3931  0.5284  0.0486
10988SOL    HW234406   3.010   2.677  10.958 -0.4048  1.4805  0.1887
10989SOL     OW34407   4.190   6.027  10.074  0.4774  0.1094 -0.2400
10989SOL    HW134408   4.242   6.032  10.154  1.9451  0.0559 -1.1555
10989SOL    HW234409   4.185   6.118  10.044 -1.5259  0.3805  0.7686
10990SOL     OW34410   1.559   5.846  10.387  0.4929  0.1986 -0.2476
10990SOL    HW134411   1.646   5.872  10.417 -0.4298  1.5798  1.4254
10990SOL    HW234412   1.566   5.752  10.372  2.4937  0.4236 -1.0549
10991SOL     OW34413   6.934   7.532  10.353 -0.6543  0.0065  0.1427
10991SOL    HW134414   7.017   7.577  10.367 -0.4580 -0.3313  0.0787
10991SOL    HW234415   6.869   7.602  10.344 -0.4527  0.2633  0.6612
10992SOL     OW34416   2.453   5.532   0.285  0.4014  0.8231 -0.6708
10992SOL    HW134417   2.403   5.574   0.355 -0.4618  0.4238 -1.0240
10992SOL    HW234418   2.496   5.604   0.239  0.2733  1.1671 -0.2569
10993SOL     OW34419   3.195   7.570   0.174  0.1837  0.0566 -0.1143
10993SOL    HW134420   3.220   7.481   0.150  0.4103  0.6216 -2.1231
10993SOL    HW234421   3.263   7.626   0.136 -0.3692  1.1510  0.4424
10994SOL     OW34422   3.150   7.741  10.309 -0.4817  0.7240 -0.2277
10994SOL    HW134423   3.242   7.715  10.310 -0.5961  0.3229 -0.0730
10994SOL    HW234424   3.144   7.804  10.237 -0.0729  0.8069 -0.1927
10995SOL     OW34425   2.422   4.504  10.737 -0.0305 -0.4813 -0.4457
10995SOL    HW134426   2.393   4.550  10.658 -2.0944  0.2429  0.6672
10995SOL    HW234427   2.496   4.555  10.769  2.1939 -1.8872 -2.8881
10996SOL     OW34428   2.606   6.930   9.795  0.4483  0.3582 -0.4947
10996SOL    HW134429   2.589   7.023   9.780  0.7425  0.5388  0.2699
10996SOL    HW234430   2.644   6.899   9.712  0.7412  1.0073 -0.6051
10997SOL     OW34431   2.683   0.143  10.751 -0.8741  0.3932  0.3272
10997SOL    HW134432   2.693   0.225  10.799  0.9864 -0.1150  0.8811
10997SOL    HW234433   2.651   0.169  10.665 -0.8980  1.6245  0.6990
10998SOL     OW34434   2.014   7.000  12.271 -0.0083  0.1123  0.3489
10998SOL    HW134435   1.989   7.088  12.245  0.0712  0.2426  0.7148
10998SOL    HW234436   2.106   6.992  12.245 -0.7068 -0.8103 -2.1878
10999SOL     OW34437   2.091   6.134  11.504  0.1795 -0.2736 -0.3375
10999SOL    HW134438   2.092   6.104  11.413  0.9517 -0.8612 -0.1500
10999SOL    HW234439   2.180   6.117  11.535  0.5353  1.8141 -0.0737
11000SOL     OW34440   2.817   7.531  10.132 -0.0792  0.4296  0.2473
11000SOL    HW134441   2.811   7.437  10.113  1.3247  0.7242 -2.1450
11000SOL    HW234442   2.881   7.538  10.203 -0.6984 -0.4320  0.9070
11001SOL     OW34443   3.321   6.711  10.243 -0.1230  0.2735  0.0746
11001SOL    HW134444   3.364   6.626  10.228 -0.9697 -0.0542 -0.6017
11001SOL    HW234445   3.372   6.751  10.313  1.0524 -0.2539 -0.4438
11002SOL     OW34446   4.089   7.303   9.377 -0.2776  0.7062  0.0188
11002SOL    HW134447   4.009   7.293   9.428 -0.5091 -0.2176 -0.4986
11002SOL    HW234448   4.157   7.323   9.442 -0.8553  1.1244  0.4983
11003SOL     OW34449   3.013   3.897  11.259 -0.3302  0.2320 -0.3277
11003SOL    HW134450   3.074   3.967  11.240 -0.7084  1.1567  1.6535
11003SOL    HW234451   2.997   3.903  11.353  0.4638 -3.2090  0.1578
11004SOL     OW34452   3.281   7.536   9.557  0.1539  1.2516 -0.0973
11004SOL    HW134453   3.193   7.500   9.563  0.3885  0.3351 -1.5632
11004SOL    HW234454   3.319   7.522   9.644  0.6082 -3.2816 -0.7431
11005SOL     OW34455   1.600   6.496  10.104 -0.6235  0.8801  0.2807
11005SOL    HW134456   1.545   6.522  10.030  0.0366 -0.9885 -0.9122
11005SOL    HW234457   1.562   6.415  10.136  0.3412  0.5536  0.6413
11006SOL     OW34458   4.004   7.669   8.469  0.5957 -0.4466 -0.1900
11006SOL    HW134459   4.095   7.687   8.492  0.4538  0.8616 -0.5590
11006SOL    HW234460   3.958   7.750   8.489 -0.2654 -0.6777 -1.1504
11007SOL     OW34461   3.640   6.422  10.397 -0.9044  0.5008 -0.0063
11007SOL    HW134462   3.714   6.451  10.344 -0.5510  0.3396  0.3968
11007SOL    HW234463   3.644   6.327  10.394 -1.5023  0.4824 -0.5427
11008SOL     OW34464   2.545   7.288  11.477 -0.3299  0.5164 -0.3218
11008SOL    HW134465   2.478   7.314  11.540 -0.6383 -0.2141 -0.3383
11008SOL    HW234466   2.591   7.215  11.520  0.4744  1.0178 -0.3013
11009SOL     OW34467   4.742   5.791   9.072  0.5733 -0.7560 -0.6934
11009SOL    HW134468   4.698   5.837   9.144 -0.8900 -1.7716 -0.8965
11009SOL    HW234469   4.820   5.844   9.054  0.6291 -0.1271  1.1882
11010SOL     OW34470   4.069   5.433  11.396  0.2474 -0.2871  0.1787
11010SOL    HW134471   4.077   5.344  11.430  0.0726 -0.3331  0.1018
11010SOL    HW234472   4.159   5.460  11.377  0.1298 -1.7246 -3.1115
11011SOL     OW34473   1.478   5.222   9.107 -0.4828 -0.1827 -0.3863
11011SOL    HW134474   1.436   5.252   9.188  0.8471 -1.4032  0.8358
11011SOL    HW234475   1.564   5.265   9.108 -0.4543 -0.2228 -1.1360
11012SOL     OW34476   1.988   5.638  11.226 -0.1693 -0.6295  0.1894
11012SOL    HW134477   2.016   5.636  11.318 -1.9224 -1.5992  0.7665
11012SOL    HW234478   2.027   5.560  11.187  1.6358  0.4474 -0.2902
11013SOL     OW34479   3.526   5.785   9.235 -0.0309 -0.8214  0.2346
11013SOL    HW134480   3.495   5.710   9.185  0.7334 -0.2814 -1.0924
11013SOL    HW234481   3.585   5.831   9.176 -1.6850  1.7284  0.4016
11014SOL     OW34482   4.770   6.036  11.198 -0.0749 -0.3481  0.4898
11014SOL    HW134483   4.855   6.031  11.153 -1.1437  2.1951 -2.1548
11014SOL    HW234484   4.789   6.084  11.278  1.1315 -0.6993  0.4439
11015SOL     OW34485   1.618   5.900  11.113  0.0856 -0.1441  0.7316
11015SOL    HW134486   1.711   5.877  11.106 -0.0592 -0.6780  0.5017
11015SOL    HW234487   1.584   5.841  11.180 -0.2351 -0.4304  0.3265
11016SOL     OW34488   2.072   6.172  10.485  0.0857  0.0661  0.1307
11016SOL    HW134489   2.146   6.112  10.483  0.5972  0.6324  1.1257
11016SOL    HW234490   2.112   6.258  10.497 -0.6780  0.5080 -0.4168
11017SOL     OW34491   1.969   5.826  11.553 -0.1700 -0.1887  0.2694
11017SOL    HW134492   2.047   5.882  11.545  1.1882 -2.0486 -0.3178
11017SOL    HW234493   2.002   5.738  11.535 -2.2125 -1.1932  1.2080
11018SOL     OW34494   2.345   4.485   9.872  0.1635 -0.1592  0.1785
11018SOL    HW134495   2.330   4.570   9.913 -0.4331  0.2489 -0.8601
11018SOL    HW234496   2.415   4.445   9.925 -0.2549  0.5353  1.2872
11019SOL     OW34497   1.538   6.965   9.225  0.2117  0.5007  0.0341
11019SOL    HW134498   1.516   6.978   9.133  1.0874  2.1257  0.0080
11019SOL    HW234499   1.456   6.939   9.267  0.2979 -2.8932 -1.5896
11020SOL     OW34500   2.901   4.663  10.164  0.1008 -0.0313  0.7409
11020SOL    HW134501   2.951   4.606  10.107  1.1172  0.1625  1.4056
11020SOL    HW234502   2.836   4.606  10.205 -0.8834 -0.1039 -0.8381
11021SOL     OW34503   3.230   7.375  10.605  0.6508 -0.7877  0.5079
11021SOL    HW134504   3.213   7.388  10.511  0.9241 -0.1492  0.5424
11021SOL    HW234505   3.227   7.280  10.617  1.3951 -0.9266 -0.2996
11022SOL     OW34506   3.895   6.898   9.383  0.4172  0.1588 -0.2265
11022SOL    HW134507   3.986   6.896   9.416  0.0441 -1.1074  0.8250
11022SOL    HW234508   3.842   6.901   9.462 -0.4831 -0.5349 -0.7952
11023SOL     OW34509   1.616   6.551  10.531  0.3140  0.8072  0.4145
11023SOL    HW134510   1.535   6.594  10.558  0.4089  1.8324 -0.8806
11023SOL    HW234511   1.587   6.469  10.490 -0.2630  2.0870 -1.8951
11024SOL     OW34512   4.503   6.530   9.701  0.6271  0.0647  0.0701
11024SOL    HW134513   4.579   6.472   9.706  0.4225 -0.1708  5.3062
11024SOL    HW234514   4.428   6.475   9.723  0.1356  1.6918  2.9093
11025SOL     OW34515   4.439   6.931   7.418  0.4020  0.2357 -0.2363
11025SOL    HW134516   4.414   6.966   7.332  0.0853  0.7146  0.0484
11025SOL    HW234517   4.356   6.927   7.466  0.6131  0.1657  0.1194
11026SOL     OW34518   2.775   4.062   0.554  0.6177  0.5885 -0.7752
11026SOL    HW134519   2.860   4.020   0.563  0.0215 -0.5548 -0.2201
11026SOL    HW234520   2.727   4.036   0.633 -0.3692  0.9141 -1.2479
11027SOL     OW34521   1.526   6.413  11.120  0.5872 -0.1077  0.0043
11027SOL    HW134522   1.492   6.333  11.080  0.1406  0.4385 -0.7541
11027SOL    HW234523   1.617   6.417  11.093  0.4333 -0.0247 -0.5137
11028SOL     OW34524   3.944   6.809  10.214 -0.3611  0.1291  0.2332
11028SOL    HW134525   4.034   6.836  10.232 -0.7311 -0.6244  3.9792
11028SOL    HW234526   3.894   6.890  10.213  0.0659  0.3960  0.1957
11029SOL     OW34527   3.469   5.380  11.745 -0.1667 -0.5284 -0.7390
11029SOL    HW134528   3.562   5.388  11.728 -0.2771 -2.0330 -2.4175
11029SOL    HW234529   3.435   5.469  11.741  0.9455 -0.1314 -1.8431
11030SOL     OW34530   3.025   5.169  10.367 -0.0187 -0.1725 -0.5161
11030SOL    HW134531   3.028   5.192  10.274  0.0259 -2.2611 -1.0851
11030SOL    HW234532   3.089   5.098  10.376  0.2260  0.2260  1.1923
11031SOL     OW34533   4.804   4.232  11.470 -0.1660 -0.5542 -0.1189
11031SOL    HW134534   4.815   4.283  11.389  1.4089 -1.2870 -0.4122
11031SOL    HW234535   4.709   4.224  11.481 -0.4213  0.8927 -1.0335
11032SOL     OW34536   4.747   5.248  11.015  0.1715 -0.0653  0.6874
11032SOL    HW134537   4.714   5.164  10.982  3.4238 -1.0094 -0.5925
11032SOL    HW234538   4.762   5.300  10.936  0.6026  0.7303  1.2785
11033SOL     OW34539   3.159   6.954  10.414  0.1302 -0.3198 -0.4028
11033SOL    HW134540   3.149   6.868  10.374  0.6141 -0.9791  0.8362
11033SOL    HW234541   3.253   6.971  10.414  0.4530 -1.4841  2.6270
11034SOL     OW34542   4.544   7.035   8.458  0.8911 -0.4396 -0.2852
11034SOL    HW134543   4.537   6.941   8.476 -0.2546 -0.3644 -0.2725
11034SOL    HW234544   4.553   7.040   8.363  1.8343 -0.5885 -0.2182
11035SOL     OW34545   0.866   4.999  10.149 -0.1785 -0.4175 -0.0545
11035SOL    HW134546   0.920   5.070  10.115  0.3580 -0.9568 -0.3611
11035SOL    HW234547   0.926   4.924  10.153 -0.9869 -1.1185 -0.7078
11036SOL     OW34548   3.462   6.962  12.194  0.0852  0.0768  0.1631
11036SOL    HW134549   3.460   6.869  12.217 -0.4851 -0.5048 -2.0482
11036SOL    HW234550   3.548   6.992  12.224  0.8069 -1.4758 -0.2242
11037SOL     OW34551   4.025   0.412  10.463 -0.2681 -0.0235 -0.1309
11037SOL    HW134552   4.116   0.434  10.440 -0.0213 -0.5794  0.2895
11037SOL    HW234553   4.032   0.330  10.513 -0.9258  0.3923  0.6527
11038SOL     OW34554   4.754   0.448   9.820 -0.7771 -0.8640 -0.4868
11038SOL    HW134555   4.765   0.492   9.904  0.0213  2.2698 -2.0691
11038SOL    HW234556   4.837   0.401   9.807 -0.5930 -0.7208  0.1360
11039SOL     OW34557   5.733   4.529  10.777  0.5270  0.4708 -0.0247
11039SOL    HW134558   5.708   4.621  10.790 -0.6702  0.1180  0.3369
11039SOL    HW234559   5.675   4.498  10.708  0.5305 -0.1647  0.2516
11040SOL     OW34560   3.403   7.508  12.440  0.8983  0.0786  0.1577
11040SOL    HW134561   3.375   7.488  12.350  0.7755 -1.5498  0.5412
11040SOL    HW234562   3.498   7.519  12.433  0.8818  0.0372 -0.1812
11041SOL     OW34563   3.769   5.496  11.668 -0.4298  0.2974  0.6352
11041SOL    HW134564   3.853   5.499  11.713 -1.7026  1.5652  3.1861
11041SOL    HW234565   3.791   5.496  11.575  2.3618  0.2504  1.2160
11042SOL     OW34566   1.595   7.208  11.002  0.3393 -0.0423 -0.0085
11042SOL    HW134567   1.610   7.163  10.919  0.8269 -1.8287  0.9910
11042SOL    HW234568   1.581   7.138  11.065 -1.0220  1.2853  1.2675
11043SOL     OW34569   1.068   5.357  10.221 -0.7434 -0.2686  0.1849
11043SOL    HW134570   1.128   5.285  10.202  0.0284  0.0789  1.2153
11043SOL    HW234571   1.124   5.426  10.257 -1.6682  0.3043  0.5565
11044SOL     OW34572   1.762   5.355  10.000  0.3223 -0.4458  0.2633
11044SOL    HW134573   1.764   5.261   9.982  0.9616 -0.3602 -0.1086
11044SOL    HW234574   1.814   5.394   9.930  1.1828  0.0623  1.1719
11045SOL     OW34575   2.406   6.915  12.336  0.4191  0.3404 -0.0029
11045SOL    HW134576   2.394   6.905  12.241 -1.7185  0.6512  0.1808
11045SOL    HW234577   2.339   6.859  12.375  1.6597 -0.2533  1.3636
11046SOL     OW34578   1.697   0.026  12.282 -0.2076 -0.2736 -0.1243
11046SOL    HW134579   1.699   0.081  12.203  2.7974  0.4169  0.3143
11046SOL    HW234580   1.722   0.085  12.353 -0.8820 -1.3381  1.0354
11047SOL     OW34581   1.993   7.418   9.675 -0.4533  0.3185  0.2136
11047SOL    HW134582   2.000   7.513   9.659  0.5812  0.2129  0.0070
11047SOL    HW234583   1.907   7.408   9.716 -0.2041  1.4733  1.0911
11048SOL     OW34584   5.435   6.501   9.951  0.1394  0.2378  0.3397
11048SOL    HW134585   5.478   6.586   9.941 -1.2202  1.3696  3.0201
11048SOL    HW234586   5.362   6.519  10.010 -2.0537 -2.2358 -1.4422
11049SOL     OW34587   3.851   6.660   9.701  0.3361 -0.3202  0.5786
11049SOL    HW134588   3.861   6.663   9.796 -0.1537  2.1740  0.6167
11049SOL    HW234589   3.848   6.752   9.675  1.3795 -0.9456 -1.9709
11050SOL     OW34590   3.808   7.076  10.252  0.8596  0.0309 -0.1575
11050SOL    HW134591   3.717   7.072  10.282 -0.0929 -1.0701 -2.9330
11050SOL    HW234592   3.815   7.159  10.206  1.3785  0.2311  0.2615
11051SOL     OW34593   3.650   5.677  11.877 -0.1069  0.0656  0.2658
11051SOL    HW134594   3.689   5.616  11.814 -0.6458  0.2896 -0.2879
11051SOL    HW234595   3.598   5.621  11.935  0.1404 -0.1050  0.3263
11052SOL     OW34596   1.827   1.513  10.489  0.3441 -0.4019 -0.3957
11052SOL    HW134597   1.830   1.605  10.466  1.5159 -0.0123  1.1218
11052SOL    HW234598   1.747   1.480  10.448 -1.3540  1.8247  0.9089
11053SOL     OW34599   3.033   5.950  10.636  0.2515 -0.0070 -0.1503
11053SOL    HW134600   3.037   6.038  10.600 -1.4929  0.5469  0.8756
11053SOL    HW234601   3.072   5.958  10.723  0.5417 -0.3675 -0.2434
11054SOL     OW34602   4.030   5.110  11.882 -0.6171  0.8688 -0.0827
11054SOL    HW134603   4.081   5.030  11.896  0.7237  1.4022 -1.4684
11054SOL    HW234604   3.951   5.081  11.837 -0.0129  0.3283 -0.8286
11055SOL     OW34605   3.270   6.267  11.234 -0.2353 -0.3676 -0.1734
11055SOL    HW134606   3.243   6.321  11.308  1.5130 -0.7660  0.7986
11055SOL    HW234607   3.241   6.315  11.157 -0.8789  0.7265  0.7259
11056SOL     OW34608   1.594   5.386  11.440  0.7630  0.1212  0.4227
11056SOL    HW134609   1.645   5.386  11.359  2.3542 -1.1600  1.3384
11056SOL    HW234610   1.555   5.473  11.444 -0.3784 -0.1669 -2.2920
11057SOL     OW34611   1.367   6.009  10.257  0.0424 -0.0892 -0.3610
11057SOL    HW134612   1.316   5.941  10.213  1.8133 -0.4868 -1.8844
11057SOL    HW234613   1.419   5.961  10.322  1.8528 -0.3817 -1.9406
11058SOL     OW34614   4.287   6.056   8.246 -0.5450 -0.2174 -0.3270
11058SOL    HW134615   4.322   5.990   8.186 -0.1671  0.9922 -1.4685
11058SOL    HW234616   4.274   6.008   8.328  1.6481 -1.2555 -0.5081
11059SOL     OW34617   3.049   7.436   9.603 -0.3868  0.0599  0.0310
11059SOL    HW134618   2.976   7.373   9.604  0.2410 -0.6779  0.8263
11059SOL    HW234619   3.051   7.472   9.691  1.0474 -0.9485  0.4594
11060SOL     OW34620   3.144   4.992  10.711 -0.2586 -0.2068  0.3912
11060SOL    HW134621   3.163   4.952  10.626  1.8340  2.3060 -0.4168
11060SOL    HW234622   3.223   4.978  10.763 -1.0971 -0.7335  1.5811
11061SOL     OW34623   2.114   0.992  11.256 -0.0452  0.1439 -0.3077
11061SOL    HW134624   2.086   0.913  11.209  2.2300  1.0751 -3.4994
11061SOL    HW234625   2.055   1.061  11.226 -2.3405 -0.1963  2.8326
11062SOL     OW34626   1.982   5.585  10.306 -0.0168  0.6313  0.5487
11062SOL    HW134627   1.965   5.588  10.212  1.0060  1.0554  0.3664
11062SOL    HW234628   1.959   5.496  10.332 -1.6616  0.9172  0.1741
11063SOL     OW34629   3.856   7.766  11.691  0.0089 -0.4130  0.1479
11063SOL    HW134630   3.904   7.699  11.643  0.5965 -0.1380  0.3395
11063SOL    HW234631   3.922   7.808  11.747 -0.2195  0.7127 -0.3951
11064SOL     OW34632   2.570   4.774  10.761  0.0853 -0.0938 -0.1077
11064SOL    HW134633   2.552   4.860  10.724  1.1151 -0.1623 -0.8044
11064SOL    HW234634   2.610   4.725  10.689  1.7896 -0.3575  0.9654
11065SOL     OW34635   2.203   7.115  10.770 -0.3729 -0.1159 -0.1210
11065SOL    HW134636   2.244   7.128  10.684 -0.4429 -0.7619 -0.2647
11065SOL    HW234637   2.208   7.200  10.813  1.8001 -0.3168  0.1760
11066SOL     OW34638   2.326   7.812  10.458 -0.2355  0.0586  0.1187
11066SOL    HW134639   2.396   7.754  10.426 -1.0353 -1.9842  1.7935
11066SOL    HW234640   2.284   7.845  10.378  2.4370  1.1865 -0.9359
11067SOL     OW34641   2.713   6.784  11.089  0.2734 -0.6344 -0.2520
11067SOL    HW134642   2.791   6.798  11.035  0.5424 -1.0893  0.0051
11067SOL    HW234643   2.640   6.789  11.028  0.4912 -0.0003 -0.4606
11068SOL     OW34644   5.910   0.027   7.585  0.0909 -0.6990 -0.6547
11068SOL    HW134645   5.952   0.025   7.672  0.7880 -1.4412 -0.9978
11068SOL    HW234646   5.850  -0.047   7.586 -0.7293 -0.0521 -0.4228
11069SOL     OW34647   1.804   7.123  11.560  0.2293  0.0269 -0.5791
11069SOL    HW134648   1.846   7.110  11.646 -1.5819  0.5539  0.4496
11069SOL    HW234649   1.866   7.086  11.497  1.2720 -1.0917  1.0179
11070SOL     OW34650   2.959   6.109   6.727 -0.1425 -0.0838  0.0377
11070SOL    HW134651   2.903   6.118   6.650 -2.1429 -1.1812  1.2647
11070SOL    HW234652   2.984   6.017   6.728  0.2302  0.0190  0.4623
11071SOL     OW34653   4.382   7.069  10.873  0.1617 -0.0750  0.2571
11071SOL    HW134654   4.456   7.072  10.813  0.2003  1.2204  0.3309
11071SOL    HW234655   4.336   7.152  10.858 -1.1818 -0.7868  0.3262
11072SOL     OW34656   3.113   6.071   9.372 -0.5208 -0.6257 -0.6693
11072SOL    HW134657   3.154   6.157   9.363 -0.3696 -0.7518 -1.2240
11072SOL    HW234658   3.168   6.012   9.320 -0.4981 -1.1023 -0.1190
11073SOL     OW34659   0.604   5.602  11.794 -0.2618  0.0538  1.4052
11073SOL    HW134660   0.654   5.573  11.870  2.1697 -0.5320 -0.2889
11073SOL    HW234661   0.635   5.691  11.777  1.7235 -0.9438 -0.7276
11074SOL     OW34662   2.747   7.092  11.271 -0.1909 -0.0561 -0.3479
11074SOL    HW134663   2.658   7.126  11.266 -0.9326 -1.7973  0.5014
11074SOL    HW234664   2.782   7.105  11.183 -0.7010  2.0853 -0.2874
11075SOL     OW34665   2.438   7.511  11.916  0.4536  0.0454 -0.6007
11075SOL    HW134666   2.524   7.553  11.915  0.1555  0.6663 -2.0585
11075SOL    HW234667   2.409   7.512  11.825  0.7744 -4.0713 -0.9584
11076SOL     OW34668   4.622   6.966  11.268  0.1267 -0.1253  0.3691
11076SOL    HW134669   4.541   6.996  11.226 -0.0980  0.0659  0.9299
11076SOL    HW234670   4.660   7.044  11.307  0.7727 -0.1524 -0.1993
11077SOL     OW34671   1.681   7.095  10.771  0.3678 -0.4030 -0.0996
11077SOL    HW134672   1.668   7.111  10.678 -0.0580  1.3712  0.2372
11077SOL    HW234673   1.768   7.129  10.790 -0.6494  1.9677  0.6777
11078SOL     OW34674   1.182   7.108   9.819  0.3130  0.1826  0.0843
11078SOL    HW134675   1.207   7.163   9.745 -0.4271 -0.0313 -0.3430
11078SOL    HW234676   1.179   7.019   9.783  1.4430 -0.1439  0.7537
11079SOL     OW34677   2.992   0.466  10.505 -0.4101 -0.6041  0.2506
11079SOL    HW134678   2.988   0.436  10.596 -0.1609 -2.0030 -0.1728
11079SOL    HW234679   2.992   0.385  10.453 -1.4331  0.1878 -1.0407
11080SOL     OW34680   0.715   7.336  11.020  0.3940 -0.9185  0.2544
11080SOL    HW134681   0.676   7.300  11.100  0.0501 -1.3969 -0.1187
11080SOL    HW234682   0.646   7.392  10.984  0.4324 -0.9487  0.1349
11081SOL     OW34683   2.151   7.006   9.921  0.4953 -0.0536  0.0062
11081SOL    HW134684   2.219   7.047   9.867 -0.2826  2.3636  0.7057
11081SOL    HW234685   2.069   7.029   9.878  0.0184 -0.9627  0.4112
11082SOL     OW34686   7.629   4.542  10.168 -0.2771 -0.7574 -0.8142
11082SOL    HW134687   7.691   4.581  10.228 -2.0480  1.9166 -0.5175
11082SOL    HW234688   7.557   4.512  10.223 -1.0122 -0.1409 -1.4112
11083SOL     OW34689   2.242   0.764  11.083 -0.0245  0.1806  0.4519
11083SOL    HW134690   2.181   0.821  11.036  0.1466  0.6670  0.8110
11083SOL    HW234691   2.325   0.812  11.083  0.5820 -0.8292 -0.7215
11084SOL     OW34692   3.623   5.947   8.784  0.8107  0.7596 -0.1184
11084SOL    HW134693   3.633   5.944   8.880 -0.3906  0.0243  0.0068
11084SOL    HW234694   3.703   5.907   8.750  1.0708  0.6584  0.5941
11085SOL     OW34695   4.173   6.931  10.306 -0.3469 -0.0538 -0.0678
11085SOL    HW134696   4.166   7.022  10.334 -3.0831  0.0358 -0.7735
11085SOL    HW234697   4.173   6.881  10.387 -0.5268  0.5093  0.2850
11086SOL     OW34698   2.190   7.349  10.917 -0.1093  0.3497  0.8048
11086SOL    HW134699   2.153   7.387  10.997  0.0234  0.3221  0.8807
11086SOL    HW234700   2.262   7.408  10.894 -0.9562  1.0886 -0.0205
11087SOL     OW34701   2.327   0.198  10.976 -0.0323 -0.3396 -0.0655
11087SOL    HW134702   2.333   0.234  10.887 -1.5792 -0.4025 -0.2243
11087SOL    HW234703   2.417   0.187  11.003  0.4747 -0.0302 -1.5245
11088SOL     OW34704   2.780   6.739   9.234  0.0809 -0.0318  0.1751
11088SOL    HW134705   2.716   6.794   9.188 -1.8944 -0.8260  1.7858
11088SOL    HW234706   2.839   6.800   9.277 -0.0579  0.7567 -0.7426
11089SOL     OW34707   1.039   6.605  10.519  0.2448 -0.0471 -0.1533
11089SOL    HW134708   0.994   6.665  10.459 -0.7719  0.6840  1.2811
11089SOL    HW234709   1.036   6.520  10.475 -3.1709 -0.1912  0.1120
11090SOL     OW34710   4.303   6.610  10.540  0.3551  0.0942 -0.0630
11090SOL    HW134711   4.254   6.691  10.557 -0.7782 -0.9295  1.9299
11090SOL    HW234712   4.318   6.573  10.627  1.2656 -1.6046 -0.9039
11091SOL     OW34713   2.607   5.841  10.205 -0.4310  0.5717 -0.3272
11091SOL    HW134714   2.668   5.823  10.134 -0.0616 -0.5183  0.2500
11091SOL    HW234715   2.639   5.922  10.246  0.9962 -0.3093  0.3490
11092SOL     OW34716   2.165   1.020  11.528  0.2542  0.4579  0.0219
11092SOL    HW134717   2.231   1.088  11.516 -1.5800  2.1781 -1.1114
11092SOL    HW234718   2.144   0.990  11.440  0.6729 -1.2558  0.4787
11093SOL     OW34719   3.105   7.248  11.208  0.1222 -0.4802  0.3160
11093SOL    HW134720   3.172   7.264  11.275 -0.4098 -0.4659  0.8469
11093SOL    HW234721   3.154   7.244  11.126  0.5074  2.5236  0.2729
11094SOL     OW34722   2.460   7.013  10.313 -0.5544 -0.5125 -0.0671
11094SOL    HW134723   2.458   7.086  10.374 -0.0425  0.5931 -1.3172
11094SOL    HW234724   2.371   7.009  10.277 -0.4311 -0.1219 -0.4210
11095SOL     OW34725   0.982   7.415  11.219 -0.3775  0.3198  0.0417
11095SOL    HW134726   0.942   7.390  11.303 -1.0513  0.9693 -0.0808
11095SOL    HW234727   0.991   7.332  11.172  0.4658 -0.1289  0.9329
11096SOL     OW34728   3.730   5.240   8.394  0.1839 -0.3963 -0.1873
11096SOL    HW134729   3.658   5.278   8.445 -0.3932 -1.4747 -0.1726
11096SOL    HW234730   3.808   5.283   8.428 -0.5314  1.6698 -1.0089
11097SOL     OW34731   5.116   7.922   9.676  0.1021 -0.5618 -0.6297
11097SOL    HW134732   5.039   7.970   9.707  0.1469 -1.5243  1.0624
11097SOL    HW234733   5.080   7.855   9.618 -0.2975 -0.6970 -0.2319
11098SOL     OW34734   1.423   7.988  10.288  0.0472 -0.1677 -0.1620
11098SOL    HW134735   1.426   8.074  10.245  0.5102  0.1196  0.4230
11098SOL    HW234736   1.510   7.950  10.271  0.0808 -0.2314  0.1587
11099SOL     OW34737   4.102   6.170  11.175 -0.7138 -0.2309 -0.2486
11099SOL    HW134738   4.086   6.075  11.169 -0.1710 -0.4640  1.4236
11099SOL    HW234739   4.133   6.194  11.088 -1.2096 -1.5235 -0.8138
11100SOL     OW34740   3.055   4.747   9.731  0.6953  0.3152 -0.5835
11100SOL    HW134741   3.006   4.672   9.766  0.3994  0.1599 -1.2884
11100SOL    HW234742   2.988   4.812   9.710  0.7663  0.1051 -1.5475
11101SOL     OW34743   3.394   7.501   9.816  0.3334 -0.5221  0.0903
11101SOL    HW134744   3.337   7.504   9.892 -1.2915 -2.0665 -0.9900
11101SOL    HW234745   3.478   7.467   9.849 -0.6854 -2.2494  1.0237
11102SOL     OW34746   4.782   7.388   8.566  0.0253 -0.1936 -0.3715
11102SOL    HW134747   4.722   7.317   8.543  0.0023 -0.3948  0.2849
11102SOL    HW234748   4.749   7.421   8.649  0.2007  0.4059 -0.5383
11103SOL     OW34749   4.454   4.654   9.672  0.4512  0.0558 -0.3025
11103SOL    HW134750   4.539   4.615   9.694  0.4354  0.7220  1.0290
11103SOL    HW234751   4.400   4.580   9.643  0.4583 -0.9467  2.0524
11104SOL     OW34752   3.192   7.909   9.749  0.0659 -0.6936 -0.1908
11104SOL    HW134753   3.128   7.980   9.753  0.8403  0.0248 -0.1704
11104SOL    HW234754   3.200   7.889   9.655  0.7923  0.1505 -0.3230
11105SOL     OW34755   1.502   7.268  11.521  0.9433  0.2136 -0.2388
11105SOL    HW134756   1.449   7.270  11.441  1.1353  1.1665 -0.3590
11105SOL    HW234757   1.444   7.304  11.589  1.4967  1.5462 -0.4331
11106SOL     OW34758   2.556   6.225  10.024  0.4006 -0.0492  0.2030
11106SOL    HW134759   2.509   6.275   9.957  1.3660  0.8941  0.2037
11106SOL    HW234760   2.510   6.245  10.105  0.1299 -0.0135  0.0428
11107SOL     OW34761   2.661   5.274   9.404  0.7196 -0.3091  0.2139
11107SOL    HW134762   2.596   5.309   9.464 -0.9016 -1.0110 -1.0573
11107SOL    HW234763   2.744   5.279   9.452 -0.3010  0.3793  1.9711
11108SOL     OW34764   2.353   0.530  10.687 -0.0486 -0.1969  0.1278
11108SOL    HW134765   2.326   0.615  10.723  0.2243  0.5429 -1.3476
11108SOL    HW234766   2.449   0.534  10.689 -0.0354 -0.5708  0.2644
11109SOL     OW34767   4.408   0.618  10.799  0.6165  0.5035  0.4525
11109SOL    HW134768   4.489   0.567  10.795  1.9238  2.5443 -0.6063
11109SOL    HW234769   4.405   0.652  10.888  0.0706 -0.8133  0.9682
11110SOL     OW34770   3.271   0.064  11.073 -0.8978  0.1483 -0.1121
11110SOL    HW134771   3.257  -0.013  11.018  1.9393 -0.8826  0.4040
11110SOL    HW234772   3.278   0.029  11.162 -1.8599  1.3272  0.4543
11111SOL     OW34773   3.190   7.176  11.520 -0.2413  0.4927 -0.0606
11111SOL    HW134774   3.248   7.232  11.470  0.2281  0.7260  0.7234
11111SOL    HW234775   3.109   7.226  11.528  0.1127  0.9892  0.4775
11112SOL     OW34776   1.823   6.502  10.710  0.2974  0.0641  0.1515
11112SOL    HW134777   1.872   6.428  10.672 -0.6601 -0.1386 -0.7605
11112SOL    HW234778   1.756   6.522  10.644  0.9299  2.1885  0.0790
11113SOL     OW34779   2.865   7.038  10.638 -0.3880  0.5430  0.7050
11113SOL    HW134780   2.946   7.076  10.672 -0.3825  0.6347  0.5924
11113SOL    HW234781   2.806   7.033  10.713  0.6298 -2.0673  1.4230
11114SOL     OW34782   1.917   6.405  10.347 -0.1381 -0.3688  0.0326
11114SOL    HW134783   1.841   6.355  10.378 -0.1635 -0.8103 -0.7208
11114SOL    HW234784   1.992   6.365  10.392 -0.1508 -1.1515 -0.6117
11115SOL     OW34785   2.157   6.724  11.917 -0.0449 -0.3443  0.5976
11115SOL    HW134786   2.128   6.757  11.832  0.0489  0.2904  0.8124
11115SOL    HW234787   2.207   6.644  11.895  0.8540  0.3691 -0.0340
11116SOL     OW34788   3.018   5.775  11.257  0.2273 -0.0044 -0.1804
11116SOL    HW134789   2.966   5.855  11.261 -0.8651 -0.6263 -1.2599
11116SOL    HW234790   3.098   5.796  11.304  0.3752  2.0333 -1.2371
11117SOL     OW34791   2.476   6.730   9.484  0.4123  0.2061  0.2580
11117SOL    HW134792   2.494   6.643   9.519  0.3832  0.1479  0.1298
11117SOL    HW234793   2.558   6.779   9.494  1.2601 -0.6360 -2.0945
11118SOL     OW34794   3.203   4.473  10.406  0.0093 -0.0734  0.4789
11118SOL    HW134795   3.218   4.507  10.318  2.2125 -2.2500 -0.1080
11118SOL    HW234796   3.208   4.550  10.463  1.3585  1.0436 -1.0580
11119SOL     OW34797   1.540   5.764   9.676  0.1153 -0.4121 -0.0948
11119SOL    HW134798   1.484   5.745   9.752 -0.3146 -1.2911 -0.6026
11119SOL    HW234799   1.580   5.848   9.695 -0.6197 -0.2401  0.7409
11120SOL     OW34800   4.024   0.147  10.546  0.0469  0.2018  0.1760
11120SOL    HW134801   3.937   0.143  10.586  0.2286  0.7801  0.6404
11120SOL    HW234802   4.082   0.109  10.612 -0.0724 -1.9450 -0.8606
11121SOL     OW34803   2.666   6.145  11.199  0.2611  0.2478 -0.2362
11121SOL    HW134804   2.720   6.194  11.137 -0.5107 -0.8790 -1.8709
11121SOL    HW234805   2.715   6.065  11.216  0.3793  0.4670  0.4822
11122SOL     OW34806   5.630   7.491  10.274 -0.0961  0.1772  0.0470
11122SOL    HW134807   5.540   7.482  10.305 -0.1697  2.3418  0.5775
11122SOL    HW234808   5.632   7.575  10.228  1.8102  0.5091  0.6556
11123SOL     OW34809   1.472   6.054  10.811  0.0828 -0.0804  0.1417
11123SOL    HW134810   1.544   6.070  10.750 -0.4186  0.0055 -0.4393
11123SOL    HW234811   1.478   6.125  10.874  0.6902 -0.2458  0.2801
11124SOL     OW34812   3.576   7.875  11.419  0.1645 -0.0927 -0.3039
11124SOL    HW134813   3.595   7.916  11.503 -0.1163 -1.2877  0.3697
11124SOL    HW234814   3.493   7.915  11.391  0.3655  0.4594 -0.1133
11125SOL     OW34815   1.203   6.778  11.248 -0.2343 -0.4675  0.4610
11125SOL    HW134816   1.202   6.733  11.163 -2.4701  1.0915 -0.4383
11125SOL    HW234817   1.223   6.869  11.226  5.6589 -0.8477  2.3599
11126SOL     OW34818   5.346   4.863  11.087 -0.4296 -0.3345 -0.0338
11126SOL    HW134819   5.354   4.771  11.110 -0.0264 -0.6415 -1.3238
11126SOL    HW234820   5.322   4.863  10.994 -1.1698  0.8516  0.1304
11127SOL     OW34821   3.211   6.198   8.784 -0.2477 -0.9209  0.3298
11127SOL    HW134822   3.259   6.116   8.784 -0.0882 -0.8372 -0.3518
11127SOL    HW234823   3.144   6.187   8.851  1.4908 -0.5604  2.1993
11128SOL     OW34824   2.707   7.556  11.423  0.4401  0.4564 -0.0034
11128SOL    HW134825   2.664   7.632  11.383  0.0196  0.5788  0.6702
11128SOL    HW234826   2.638   7.491  11.432  1.0489 -0.5154 -1.7324
11129SOL     OW34827   3.686   7.480  12.380 -0.5309 -0.0085  0.4776
11129SOL    HW134828   3.722   7.442  12.299  0.7694  0.1145  0.9664
11129SOL    HW234829   3.696   7.411  12.445 -0.4162  0.3206  0.8133
11130SOL     OW34830   2.643   6.384  11.316 -0.0480  0.4498  0.2428
11130SOL    HW134831   2.662   6.290  11.314 -1.4267  0.1742 -1.1575
11130SOL    HW234832   2.712   6.423  11.262  1.6115  0.5225  2.2589
11131SOL     OW34833   3.547   7.163  10.374  0.5228  0.3471 -0.1770
11131SOL    HW134834   3.553   7.228  10.444 -1.9862 -0.4338  0.8836
11131SOL    HW234835   3.508   7.210  10.301  0.0806  0.4089  0.0931
11132SOL     OW34836   2.924   6.872  10.269  0.7624 -0.1604  0.3299
11132SOL    HW134837   2.932   6.793  10.324  0.6852 -0.8320 -0.5974
11132SOL    HW234838   2.866   6.930  10.318 -2.4910 -2.2854 -0.7031
11133SOL     OW34839   2.220   5.673  10.499 -0.3055  0.8209 -0.7312
11133SOL    HW134840   2.142   5.627  10.468  0.0484 -0.5958  0.3374
11133SOL    HW234841   2.289   5.648  10.437  0.1397 -1.0848  0.4265
11134SOL     OW34842   2.928   6.421  10.859  0.2515 -0.1835  0.7036
11134SOL    HW134843   3.023   6.408  10.854  0.3892  0.6998  0.8661
11134SOL    HW234844   2.894   6.338  10.892  1.0988 -0.0942  1.8578
11135SOL     OW34845   3.579   5.347  11.117  0.0239 -0.1460  0.3215
11135SOL    HW134846   3.499   5.357  11.169 -0.3764 -2.1622  0.1956
11135SOL    HW234847   3.646   5.323  11.180  0.5213  1.3427  0.3960
11136SOL     OW34848   1.417   7.833  12.064  0.4030 -0.6982 -0.5059
11136SOL    HW134849   1.460   7.760  12.109  1.2869  0.3068  0.3189
11136SOL    HW234850   1.335   7.846  12.113 -0.7796 -2.4228 -1.9021
11137SOL     OW34851   1.031   0.784  10.818  0.4089 -0.2410 -0.0280
11137SOL    HW134852   1.038   0.856  10.881  0.0020 -0.6184  0.4608
11137SOL    HW234853   1.119   0.750  10.811  0.6352  0.4068 -0.3813
11138SOL     OW34854   2.746   5.104  11.150  0.5833 -0.1870 -0.0886
11138SOL    HW134855   2.809   5.069  11.212  0.8333  0.3695 -0.0210
11138SOL    HW234856   2.668   5.120  11.203  0.5984 -0.2683 -0.0407
11139SOL     OW34857   5.004   4.999  10.736 -0.0182  0.2081 -0.9466
11139SOL    HW134858   5.070   5.064  10.715  0.8164 -0.5518 -0.7181
11139SOL    HW234859   5.003   4.940  10.660  0.5532 -0.5690 -0.3598
11140SOL     OW34860   1.309   5.682  10.855  0.0165  0.2521  0.3237
11140SOL    HW134861   1.241   5.631  10.901  0.3091 -0.4436  0.0036
11140SOL    HW234862   1.344   5.740  10.922  2.0476 -2.3266  1.7165
11141SOL     OW34863   4.012   0.231   9.966  0.4286  0.2502 -0.2362
11141SOL    HW134864   4.040   0.140   9.951 -1.0046 -0.2462 -0.0773
11141SOL    HW234865   3.917   0.226   9.970  0.3859  1.3711  2.2589
11142SOL     OW34866   4.152   5.748  11.271  0.0994  0.1462 -0.2533
11142SOL    HW134867   4.103   5.686  11.217 -0.6624  1.1551 -0.7720
11142SOL    HW234868   4.217   5.695  11.316 -1.3168 -1.2323  0.2790
11143SOL     OW34869   2.709   6.036  10.597  0.1883  0.0014 -0.4430
11143SOL    HW134870   2.788   6.085  10.572  0.8575 -0.9064 -0.1915
11143SOL    HW234871   2.739   5.945  10.602 -0.9573 -0.3973 -0.6327
11144SOL     OW34872   4.238   4.390  10.956 -0.0776  0.7860 -0.0735
11144SOL    HW134873   4.178   4.382  11.030 -0.3753 -2.3732 -0.4980
11144SOL    HW234874   4.198   4.338  10.887  1.1942  1.9712 -1.8001
11145SOL     OW34875   3.858   5.239  11.235  0.2189 -0.1881 -0.1952
11145SOL    HW134876   3.880   5.330  11.216  0.6467 -0.3413 -0.4604
11145SOL    HW234877   3.884   5.226  11.326  1.3520 -0.3871 -0.5232
11146SOL     OW34878   2.651   6.791  10.191  0.5048  0.3376  0.2578
11146SOL    HW134879   2.569   6.806  10.144  0.2165  0.2092  0.7070
11146SOL    HW234880   2.703   6.735  10.134 -0.1771 -0.5036  0.4483
11147SOL     OW34881   2.769   7.319  10.861  0.4509  0.3013  0.1408
11147SOL    HW134882   2.828   7.363  10.922  1.0283 -1.9960  1.3414
11147SOL    HW234883   2.804   7.340  10.774  1.7503  0.7598  0.7517
11148SOL     OW34884   3.224   5.308   9.051 -0.6070 -0.4737  0.1417
11148SOL    HW134885   3.288   5.267   8.993 -0.6523 -0.7995  0.3186
11148SOL    HW234886   3.231   5.401   9.033  0.2321 -0.4672  0.4795
11149SOL     OW34887   4.066   5.912  11.062  0.0647  0.2033  0.2375
11149SOL    HW134888   4.097   5.897  10.973 -1.4721 -2.1629 -0.0057
11149SOL    HW234889   4.123   5.857  11.116 -1.8685 -2.1743  0.0656
11150SOL     OW34890   3.838   5.549  11.152 -0.3814  0.1265  0.1422
11150SOL    HW134891   3.912   5.552  11.092 -0.0613  2.8601  0.5570
11150SOL    HW234892   3.765   5.586  11.103 -0.4470  1.1777  1.0053
11151SOL     OW34893   1.346   7.539  10.884 -0.7364  0.2246  0.0984
11151SOL    HW134894   1.314   7.626  10.858  1.7566  0.6663 -1.8976
11151SOL    HW234895   1.297   7.478  10.830 -1.4266  0.4835  0.4138
11152SOL     OW34896   3.262   7.575  10.058 -0.7628  0.1850  0.1106
11152SOL    HW134897   3.262   7.500  10.117 -1.7473  0.8461  0.9930
11152SOL    HW234898   3.333   7.631  10.089 -0.5363 -0.0084 -0.0571
11153SOL     OW34899   0.903   4.885   0.225 -0.3566  0.2998  0.4974
11153SOL    HW134900   0.901   4.792   0.206 -1.2387  0.4683 -0.3686
11153SOL    HW234901   0.989   4.901   0.262  0.5834 -0.5238 -1.1966
11154SOL     OW34902   3.762   4.475   1.188 -0.4312 -0.0921  0.1287
11154SOL    HW134903   3.716   4.558   1.200  0.1008  0.1338  0.6586
11154SOL    HW234904   3.798   4.481   1.099 -1.8080 -0.4806 -0.4809
11155SOL     OW34905   0.928   7.386   9.632 -0.3864  0.4387  0.3177
11155SOL    HW134906   0.845   7.338   9.628 -0.6546  0.9553 -0.3998
11155SOL    HW234907   0.970   7.354   9.712 -0.4815 -1.1089 -0.2236
11156SOL     OW34908   1.077   5.594  12.226 -0.1022  0.0435  0.4112
11156SOL    HW134909   1.020   5.654  12.177 -0.2962  0.4730  1.1377
11156SOL    HW234910   1.027   5.513  12.232  0.4404 -0.4522 -1.1732
11157SOL     OW34911   3.903   7.184   0.172  0.0416  0.2596 -0.1281
11157SOL    HW134912   3.914   7.154   0.263 -0.4564 -0.1345 -0.1958
11157SOL    HW234913   3.972   7.138   0.124  0.1960  0.3348  0.0183
11158SOL     OW34914   2.669   5.661  11.730 -0.1657  0.4511 -0.1564
11158SOL    HW134915   2.706   5.576  11.706  0.1131 -0.2303  2.3812
11158SOL    HW234916   2.574   5.647  11.727 -0.1183 -0.1650  0.8613
11159SOL     OW34917   3.987   7.320  12.032  0.2352 -0.2486 -0.1311
11159SOL    HW134918   3.992   7.331  12.127  0.9251  0.2597 -0.2118
11159SOL    HW234919   3.961   7.406  11.999  0.4040 -0.3082 -0.4267
11160SOL     OW34920   2.775   6.417  10.506 -0.0891  0.5477 -0.0057
11160SOL    HW134921   2.764   6.436  10.413  1.2399 -0.4400 -0.4020
11160SOL    HW234922   2.708   6.351  10.525  0.8009 -0.6331 -0.7653
11161SOL     OW34923   2.023   6.314  10.867 -0.1979 -0.0383 -0.5012
11161SOL    HW134924   2.020   6.366  10.947 -2.0275 -1.3353  0.3510
11161SOL    HW234925   2.099   6.348  10.819 -0.0405  1.8993  0.9843
11162SOL     OW34926   2.743   5.623  12.428  0.2859  0.2349 -0.3916
11162SOL    HW134927   2.726   5.529  12.429  0.6397  0.1630 -0.8693
11162SOL    HW234928   2.673   5.659  12.373 -0.9848  0.4983  1.2899
11163SOL     OW34929   1.488   7.898  11.646 -0.0972 -0.3952  0.1909
11163SOL    HW134930   1.537   7.931  11.570  0.7256 -1.4353  0.2567
11163SOL    HW234931   1.526   7.812  11.664 -1.6422 -1.0477  0.5281
11164SOL     OW34932   1.935   6.537  12.389 -0.2328  0.0192 -0.1206
11164SOL    HW134933   1.955   6.460  12.441 -1.3398  0.3155  0.7965
11164SOL    HW234934   1.962   6.515  12.300  2.7490 -0.1076  0.7013
11165SOL     OW34935   0.434   7.101  10.996  0.3948 -0.1111  0.2046
11165SOL    HW134936   0.504   7.110  10.932 -0.0535 -0.6841 -0.3910
11165SOL    HW234937   0.431   7.185  11.041  1.5522 -0.1273  0.3451
11166SOL     OW34938   3.750   6.520  10.802 -0.3138  0.2159 -0.2087
11166SOL    HW134939   3.689   6.469  10.855  0.1730 -0.6849 -0.4981
11166SOL    HW234940   3.781   6.589  10.861 -1.7967  0.8678 -0.1350
11167SOL     OW34941   2.551   6.054  10.824  0.4998  0.1872 -0.1822
11167SOL    HW134942   2.529   5.965  10.796 -1.5287  0.5407  0.1135
11167SOL    HW234943   2.628   6.078  10.772 -0.0737 -1.0428 -1.6634
11168SOL     OW34944   1.777   5.194  12.080 -0.7027 -0.0691  0.0076
11168SOL    HW134945   1.710   5.146  12.129  0.3858 -1.1194  0.5131
11168SOL    HW234946   1.728   5.236  12.009 -1.8657 -1.0058  0.2138
11169SOL     OW34947   3.251   7.975  11.712 -0.2654 -0.0567 -0.5326
11169SOL    HW134948   3.323   7.935  11.762 -1.6174 -2.4632 -0.3589
11169SOL    HW234949   3.263   7.942  11.623 -0.0284  1.1952 -0.9894
11170SOL     OW34950   3.322   7.363  11.399 -0.0833  0.1531 -0.1506
11170SOL    HW134951   3.319   7.450  11.438 -0.2776  0.1283 -0.1115
11170SOL    HW234952   3.391   7.369  11.333 -0.7882  0.6300 -0.8649
11171SOL     OW34953   3.375   6.807  11.964  0.0017  0.0506  0.2923
11171SOL    HW134954   3.391   6.764  11.880  1.0553 -1.1295  1.0588
11171SOL    HW234955   3.459   6.804  12.009 -0.5769  0.5480  1.4488
11172SOL     OW34956   4.549   5.689   9.618  0.5449  0.5049  0.5667
11172SOL    HW134957   4.621   5.712   9.676  2.6786  0.6604 -1.9529
11172SOL    HW234958   4.551   5.594   9.615 -0.1146  0.4544  1.3305
11173SOL     OW34959   1.825   5.427  11.856  0.1504 -0.1865 -0.0094
11173SOL    HW134960   1.754   5.448  11.917 -1.1641  1.0155 -1.8668
11173SOL    HW234961   1.795   5.349  11.810 -0.2982  0.7019 -1.2568
11174SOL     OW34962   1.088   6.576  10.246 -0.4735 -0.3643  0.0395
11174SOL    HW134963   0.995   6.598  10.250 -0.1343  1.1738  0.0127
11174SOL    HW234964   1.112   6.587  10.154 -0.1962 -0.4125  0.1033
11175SOL     OW34965   2.622   6.180  11.531  0.3105  0.3647 -0.2145
11175SOL    HW134966   2.571   6.127  11.471 -1.1927  2.4518 -0.9109
11175SOL    HW234967   2.611   6.137  11.616 -0.5492 -0.6091 -0.7924
11176SOL     OW34968   3.654   5.784  11.431  0.8760  0.0566 -0.0890
11176SOL    HW134969   3.570   5.743  11.454  0.2086  0.2220 -2.0815
11176SOL    HW234970   3.720   5.720  11.455  0.1176 -0.5029  0.5522
11177SOL     OW34971   1.308   5.970  10.615 -0.0724  0.0431  0.0559
11177SOL    HW134972   1.371   5.994  10.683 -0.4519 -0.1411  0.4768
11177SOL    HW234973   1.334   5.882  10.588  1.1956  0.8094 -1.3435
11178SOL     OW34974   3.341   5.297  11.518  0.1858  0.0873  0.5769
11178SOL    HW134975   3.353   5.205  11.495 -0.0030  0.1490  0.2400
11178SOL    HW234976   3.399   5.309  11.594 -0.0111 -0.3810  0.8090
11179SOL     OW34977   4.310   0.421  11.087 -0.0829  0.9116 -0.0780
11179SOL    HW134978   4.346   0.379  11.009  0.3507  0.3858  0.4010
11179SOL    HW234979   4.384   0.427  11.148 -0.5609  0.7598  0.5259
11180SOL     OW34980   3.238   6.432  11.022  0.4352 -0.2664  0.1521
11180SOL    HW134981   3.234   6.517  11.065 -2.1817 -0.6478  0.8288
11180SOL    HW234982   3.248   6.452  10.929 -1.7574  0.9008  0.1117
11181SOL     OW34983   3.332   6.902  10.690 -0.2683 -0.2380 -0.0875
11181SOL    HW134984   3.382   6.883  10.769  0.2150  1.0378 -0.0531
11181SOL    HW234985   3.396   6.895  10.618 -0.0501  1.1682 -0.0667
11182SOL     OW34986   4.637   7.818  11.211  0.3962 -0.6534  0.2765
11182SOL    HW134987   4.577   7.805  11.138  0.3800 -1.0473  0.3578
11182SOL    HW234988   4.581   7.815  11.289  0.2742  0.6884  0.2665
11183SOL     OW34989   3.446   6.041  11.421  0.2645 -0.5157  0.5044
11183SOL    HW134990   3.365   6.018  11.375 -0.4806  0.6058  1.2249
11183SOL    HW234991   3.497   5.960  11.420 -0.9302 -1.2999  0.1912
11184SOL     OW34992   1.790   6.479  11.311  0.2439  0.3683 -0.3850
11184SOL    HW134993   1.775   6.389  11.341 -2.2109  0.8819  0.1843
11184SOL    HW234994   1.821   6.526  11.388  0.1865  0.3014 -0.3211
11185SOL     OW34995   2.265   7.390  12.332  0.3556 -0.4664 -0.4668
11185SOL    HW134996   2.259   7.420  12.241 -0.4154 -0.2516 -0.3561
11185SOL    HW234997   2.347   7.342  12.336  0.6828  0.0149 -1.1325
11186SOL     OW34998   1.876   6.634  11.538  0.6331  0.1928  0.5552
11186SOL    HW134999   1.935   6.708  11.524 -0.6991  1.1443 -0.2570
11186SOL    HW235000   1.935   6.559  11.551  2.0219  1.3690  1.4804
11187SOL     OW35001   3.591   4.458  11.382  0.3412 -0.1301  0.1933
11187SOL    HW135002   3.549   4.432  11.300  1.8570  2.2284 -1.4652
11187SOL    HW235003   3.634   4.379  11.413  0.5997 -0.8680 -1.8911
11188SOL     OW35004   3.167   1.568  11.547 -0.5086  0.5409  0.0478
11188SOL    HW135005   3.196   1.506  11.613 -0.8273  1.6904  1.3233
11188SOL    HW235006   3.244   1.580  11.490 -0.3965 -0.8541 -0.1307
11189SOL     OW35007   2.684   7.901  11.866 -0.1565  0.5186  0.0573
11189SOL    HW135008   2.603   7.868  11.827 -0.9135  0.0483  1.8956
11189SOL    HW235009   2.658   7.984  11.908  0.3038  0.3822  0.6332
11190SOL     OW35010   7.081   6.246  11.037  0.3222  0.1233  0.4242
11190SOL    HW135011   7.035   6.309  11.092  1.4810  0.6046  0.8532
11190SOL    HW235012   7.089   6.290  10.952 -0.0566  0.0046  0.3218
11191SOL     OW35013   3.798   5.997  11.372 -0.3039 -0.4804 -0.2629
11191SOL    HW135014   3.797   5.985  11.277  0.8160 -1.1028 -0.2137
11191SOL    HW235015   3.758   5.918  11.407  1.3351 -1.3180 -0.1650
11192SOL     OW35016   3.403   0.500  11.507 -0.6314 -0.3877 -1.3212
11192SOL    HW135017   3.478   0.449  11.478  2.3161  1.6263  1.9227
11192SOL    HW235018   3.421   0.589  11.477 -1.4181  0.2276 -0.0562
11193SOL     OW35019   2.935   7.658  11.533  0.3180 -0.3308  0.0132
11193SOL    HW135020   2.844   7.645  11.505  0.5282  1.2252 -1.5972
11193SOL    HW235021   2.932   7.646  11.628 -2.2945  2.7475  0.5278
11194SOL     OW35022   4.092   6.237  11.899  0.1938 -0.6328  0.0570
11194SOL    HW135023   4.113   6.159  11.848  1.6390  0.1730 -0.6545
11194SOL    HW235024   4.041   6.292  11.839  1.5306  0.1314 -0.4181
11195SOL     OW35025   0.593   6.397  11.529  1.1420  0.4603  0.1484
11195SOL    HW135026   0.612   6.328  11.594  1.3052 -2.5577 -2.8304
11195SOL    HW235027   0.680   6.423  11.497  0.9884 -0.7470 -1.3419
11196SOL     OW35028   0.083   5.811  10.344  0.0588 -0.3685  0.2284
11196SOL    HW135029   0.057   5.834  10.255 -0.6801  1.0218  0.7670
11196SOL    HW235030   0.177   5.792  10.338  0.3430  1.1606 -0.6034
11197SOL     OW35031   0.867   5.675  11.878 -0.0968  0.1193  0.0988
11197SOL    HW135032   0.891   5.724  11.799  0.2648  0.7320  0.5803
11197SOL    HW235033   0.869   5.740  11.948 -0.4938 -0.4021  0.6046
11198SOL     OW35034   1.693   4.512  11.036 -0.0717  0.6071 -0.6506
11198SOL    HW135035   1.650   4.524  11.120  1.2671  1.5263 -0.0508
11198SOL    HW235036   1.684   4.419  11.017  1.2156 -0.0235  1.4607
11199SOL     OW35037   2.353   7.088  11.151  0.2000 -0.2411 -0.5045
11199SOL    HW135038   2.419   7.158  11.150 -1.1687  1.1498 -2.8160
11199SOL    HW235039   2.304   7.103  11.231 -0.7020  2.2116 -1.3992
11200SOL     OW35040   2.028   7.086   0.186  0.6069 -1.1618  0.0989
11200SOL    HW135041   2.096   7.048   0.130  0.1584 -1.0615 -0.5320
11200SOL    HW235042   2.073   7.107   0.268  1.9556  1.1241 -1.1079
11201SOL     OW35043   3.269   4.565  10.825 -0.1166  0.0227 -0.2155
11201SOL    HW135044   3.315   4.481  10.825 -0.6715 -0.3724  2.5148
11201SOL    HW235045   3.212   4.561  10.902  0.8767  3.4638  0.8669
11202SOL     OW35046   3.493   6.810  10.885 -0.2484  0.2427 -0.0635
11202SOL    HW135047   3.496   6.758  10.965 -0.0058  1.0785  0.4872
11202SOL    HW235048   3.581   6.847  10.877 -0.3545  0.3951 -0.5567
11203SOL     OW35049   2.861   5.436  11.759  0.0494  0.2633  0.2798
11203SOL    HW135050   2.937   5.417  11.704  0.6751 -0.4743  1.3807
11203SOL    HW235051   2.791   5.380  11.723  0.1687  0.5137 -0.3649
11204SOL     OW35052   3.491   6.756   9.925 -0.0582  0.2391  0.5031
11204SOL    HW135053   3.499   6.821   9.855 -0.8263  0.3958  0.5482
11204SOL    HW235054   3.444   6.802   9.995 -1.9271 -0.7571 -0.0262
11205SOL     OW35055   2.610   6.389  11.753  0.1661  0.3785  0.2680
11205SOL    HW135056   2.645   6.425  11.671  0.3034 -0.1688  0.0819
11205SOL    HW235057   2.675   6.410  11.819 -0.5495  2.0197  0.5252
11206SOL     OW35058   2.776   6.715  11.744 -0.6276  0.0047 -0.0482
11206SOL    HW135059   2.815   6.791  11.700 -1.6731  0.7253  0.2196
11206SOL    HW235060   2.707   6.687  11.684  0.2982 -1.2818 -0.5429
11207SOL     OW35061   3.228   6.745   0.324 -0.0910 -0.2654  0.2449
11207SOL    HW135062   3.281   6.792   0.259 -1.1071 -0.0998 -0.4912
11207SOL    HW235063   3.144   6.731   0.280  0.3231 -3.2443  0.2365
11208SOL     OW35064   4.093   7.197  11.660 -0.0020  0.0698 -0.1608
11208SOL    HW135065   4.150   7.264  11.696  1.3868 -1.0954 -0.0992
11208SOL    HW235066   4.140   7.115  11.674  0.3049 -0.5758 -3.9538
11209SOL     OW35067   3.386   5.039  12.315 -0.2671 -0.1751  0.3763
11209SOL    HW135068   3.431   5.013  12.234  1.0766  1.2806  0.6125
11209SOL    HW235069   3.445   5.010  12.385 -0.5679  0.1396  0.7626
11210SOL     OW35070   4.726   6.405  11.733  0.0313 -0.3101  0.0560
11210SOL    HW135071   4.671   6.349  11.678 -1.1959 -0.6282  1.5173
11210SOL    HW235072   4.664   6.467  11.773  0.7381 -0.5657  1.6261
11211SOL     OW35073   3.495   4.494   0.104 -0.1299  0.5340 -0.3903
11211SOL    HW135074   3.447   4.415   0.126 -1.6458  1.4669 -0.1876
11211SOL    HW235075   3.435   4.566   0.127  0.8101  1.7095 -1.4655
11212SOL     OW35076   2.285   6.092  10.919  0.3843 -1.3069  0.1526
11212SOL    HW135077   2.308   6.072  11.010  1.1890  0.9727  0.5254
11212SOL    HW235078   2.355   6.051  10.868  1.1831 -0.7255  0.7456
11213SOL     OW35079   2.411   6.101  11.329 -0.5763  0.7234  0.2525
11213SOL    HW135080   2.343   6.110  11.262 -0.0055  1.1741 -0.2715
11213SOL    HW235081   2.490   6.135  11.288  0.1687 -0.5821  0.5644
11214SOL     OW35082   3.269   0.331  11.726 -0.0538 -0.2698 -0.2038
11214SOL    HW135083   3.296   0.367  11.641 -0.4102  2.5935  0.7886
11214SOL    HW235084   3.344   0.346  11.784 -0.9828  0.9145  0.7566
11215SOL     OW35085   3.002   7.399  11.538 -0.0993 -0.6357  0.2893
11215SOL    HW135086   3.063   7.412  11.610 -0.3840 -2.0240  0.8266
11215SOL    HW235087   2.993   7.485  11.497  0.6495  0.0160  1.4475
11216SOL     OW35088   3.996   7.085  12.355  0.0028 -0.0670 -0.4319
11216SOL    HW135089   4.021   7.038  12.434 -0.2358  0.6995  0.1111
11216SOL    HW235090   3.994   7.018  12.287  0.5933 -0.6644  0.1279
11217SOL     OW35091   4.095   5.536  11.041 -0.1690  0.0038  0.0480
11217SOL    HW135092   4.121   5.451  11.076 -0.8091 -1.2656 -2.3081
11217SOL    HW235093   4.162   5.555  10.975 -0.4289  0.9857  0.0560
11218SOL     OW35094   3.434   3.722   0.223 -0.0178 -0.1224  0.2558
11218SOL    HW135095   3.432   3.734   0.318 -0.7977  1.6547  0.0601
11218SOL    HW235096   3.381   3.645   0.207 -0.3969 -0.0713  1.2226
11219SOL     OW35097   1.558   5.559   0.359 -0.2802  0.8860 -0.4958
11219SOL    HW135098   1.492   5.490   0.347 -0.2526  0.5223  1.2217
11219SOL    HW235099   1.507   5.639   0.367 -0.3657  0.9430 -1.4247
11220SOL     OW35100   2.390   0.021  11.304 -0.8016 -0.1732 -0.2653
11220SOL    HW135101   2.405   0.057  11.217 -1.9623 -1.5596 -1.0954
11220SOL    HW235102   2.447   0.071  11.362 -0.7065  1.4262 -1.6720
11221SOL     OW35103   2.701   4.962  10.161 -0.1453 -0.4745 -0.0627
11221SOL    HW135104   2.708   4.897  10.091 -1.2646 -1.6974  0.9032
11221SOL    HW235105   2.612   4.953  10.192 -0.0818  1.0304  0.6105
11222SOL     OW35106   2.151   6.435  11.786  0.3610  0.0080  0.2765
11222SOL    HW135107   2.233   6.435  11.737  0.6243  1.7642  0.6360
11222SOL    HW235108   2.085   6.410  11.722  1.1303 -1.2516 -0.0630
11223SOL     OW35109   3.379   5.659  11.760  0.2134  0.2146 -0.1700
11223SOL    HW135110   3.436   5.730  11.787 -1.1862  1.4875 -0.3932
11223SOL    HW235111   3.360   5.677  11.668 -0.6792 -0.0770 -0.0565
11224SOL     OW35112   2.543   5.026  10.644 -0.1726 -0.3905  0.1449
11224SOL    HW135113   2.527   5.070  10.727 -1.3935  0.1924 -0.3803
11224SOL    HW235114   2.628   5.060  10.614 -0.0902 -0.0342  0.7801
11225SOL     OW35115   2.125   4.943  10.587  0.9325 -0.3751 -0.5823
11225SOL    HW135116   2.123   4.998  10.665  0.9838 -1.1715 -0.0013
11225SOL    HW235117   2.043   4.894  10.591  1.2274 -0.8814 -0.6880
11226SOL     OW35118   2.059   6.873  11.707  0.2390 -0.0463 -0.2500
11226SOL    HW135119   2.067   6.889  11.612  1.1108 -1.8405 -0.5081
11226SOL    HW235120   2.033   6.958  11.743 -0.3013  0.6318 -2.1174
11227SOL     OW35121   2.538   5.693  10.960 -0.4901 -0.2576  0.7507
11227SOL    HW135122   2.525   5.727  10.871 -1.0622 -0.6503  0.6838
11227SOL    HW235123   2.497   5.759  11.016  1.3883  0.9041  0.8746
11228SOL     OW35124   4.083   7.069  11.976 -0.1864  0.5111 -0.0531
11228SOL    HW135125   4.129   7.059  11.893 -0.2791  1.3143 -0.2043
11228SOL    HW235126   4.052   7.159  11.977 -1.8150 -0.0065  0.0263
11229SOL     OW35127   2.753   5.575  11.067 -0.0215 -0.1243 -0.2028
11229SOL    HW135128   2.676   5.615  11.026 -0.1731 -1.7190 -1.5888
11229SOL    HW235129   2.737   5.481  11.060  0.3385 -0.5184  2.9024
11230SOL     OW35130   1.547   5.708  11.297 -0.3057  0.0597 -0.0210
11230SOL    HW135131   1.456   5.678  11.297 -0.3007 -0.2266 -2.9848
11230SOL    HW235132   1.595   5.636  11.256  1.4790 -0.1449  2.2132
11231SOL     OW35133   1.958   7.406  11.468 -0.0887 -0.0340  0.2918
11231SOL    HW135134   1.994   7.493  11.452 -0.0271 -0.2337 -0.7375
11231SOL    HW235135   2.026   7.345  11.440 -0.4921 -0.4099  0.1012
11232SOL     OW35136   1.877   6.840  12.065 -0.7054 -0.2152 -0.5579
11232SOL    HW135137   1.935   6.863  12.137 -2.0883  1.5267  0.0885
11232SOL    HW235138   1.935   6.805  11.997  0.5402 -2.5660  1.6009
11233SOL     OW35139   3.067   5.633  10.977 -0.3181  0.4577  0.3005
11233SOL    HW135140   3.069   5.590  10.891 -0.7066  0.7217  0.1558
11233SOL    HW235141   3.147   5.685  10.979  0.0634 -0.1128  0.3999
11234SOL     OW35142   2.065   5.954  12.303  0.7538 -0.0737  0.4823
11234SOL    HW135143   2.047   5.986  12.391  0.6745 -0.2431  0.5282
11234SOL    HW235144   2.128   6.016  12.267 -1.0536  1.4498 -0.2469
11235SOL     OW35145   1.805   0.463  10.878  0.3461  0.3063  0.3451
11235SOL    HW135146   1.727   0.410  10.888  0.1908  0.1861 -1.2541
11235SOL    HW235147   1.877   0.406  10.906  0.1256 -0.5729 -0.8201
11236SOL     OW35148   0.449   5.519   0.114 -0.1741 -0.1532 -0.2900
11236SOL    HW135149   0.365   5.517   0.160  0.4688 -0.4913  0.9075
11236SOL    HW235150   0.507   5.465   0.168  0.6489 -0.4676 -1.4462
11237SOL     OW35151   3.536   0.219  11.532  0.1269  0.2544 -0.5860
11237SOL    HW135152   3.466   0.209  11.467  0.1096  0.9006 -0.6718
11237SOL    HW235153   3.520   0.148  11.595  0.3001 -0.5422 -1.4118
11238SOL     OW35154   7.709   6.716  10.975 -0.2468  0.0214 -0.3473
11238SOL    HW135155   7.647   6.786  10.953  0.3779 -0.3624 -3.9232
11238SOL    HW235156   7.759   6.751  11.048 -2.5075  1.6560  0.5668
11239SOL     OW35157   1.186   6.040  10.848  0.0990 -0.5418 -0.0344
11239SOL    HW135158   1.187   6.036  10.752  1.9276  0.2307 -0.0746
11239SOL    HW235159   1.274   6.014  10.874 -0.1928 -0.1394  1.4314
11240SOL     OW35160   0.729   7.008  10.345  0.3970 -0.2408  0.0593
11240SOL    HW135161   0.753   6.999  10.253 -0.1503  0.9848 -0.2135
11240SOL    HW235162   0.658   6.945  10.357  0.4065 -0.3372 -0.3762
11241SOL     OW35163   2.028   6.789  10.384 -0.5836  0.0088  0.4578
11241SOL    HW135164   2.120   6.762  10.379 -0.0499  1.8926 -1.1251
11241SOL    HW235165   2.012   6.799  10.478  1.6494  2.0435  0.7311
11242SOL     OW35166   2.964   5.500   0.194  0.4347 -0.3668 -0.0317
11242SOL    HW135167   2.988   5.571   0.135 -0.7950 -0.5080 -0.7318
11242SOL    HW235168   3.042   5.444   0.196  0.0886 -1.1319 -2.7063
11243SOL     OW35169   2.382   3.129  12.160  0.6864  0.2179  0.1413
11243SOL    HW135170   2.475   3.124  12.135  0.6460 -0.3905  0.0942
11243SOL    HW235171   2.339   3.164  12.082  0.6229 -1.2779 -0.5498
11244SOL     OW35172   2.564   4.309   0.802  0.9059  0.0345 -0.4259
11244SOL    HW135173   2.592   4.319   0.711  0.3234 -2.5540 -0.9672
11244SOL    HW235174   2.487   4.252   0.798  0.7323  0.0208  1.6780
11245SOL     OW35175   2.075   5.284  11.932  0.3104 -0.2234 -0.0445
11245SOL    HW135176   2.073   5.208  11.990  1.1742 -0.2535 -0.0526
11245SOL    HW235177   1.984   5.314  11.929  0.1723 -0.5202  0.9242
11246SOL     OW35178   1.635   7.138  12.205 -0.4507  0.3434 -0.3937
11246SOL    HW135179   1.549   7.163  12.237 -0.7258 -1.1670  0.1236
11246SOL    HW235180   1.696   7.169  12.272 -0.5656  1.4668 -0.7904
11247SOL     OW35181   2.854   1.057   0.851 -0.0202 -0.6708  0.4952
11247SOL    HW135182   2.879   0.983   0.796 -0.1013 -0.5457  0.2906
11247SOL    HW235183   2.760   1.066   0.840  0.2431  0.7560 -1.1263
11248SOL     OW35184   3.848   5.581  11.416  0.3580 -0.3782  0.8177
11248SOL    HW135185   3.843   5.570  11.321 -0.6371  1.2751  0.6424
11248SOL    HW235186   3.934   5.546  11.440  0.7435 -0.5480 -0.7281
11249SOL     OW35187   2.009   6.577   0.870  0.1876 -0.4962 -0.4030
11249SOL    HW135188   2.031   6.529   0.950 -1.1192 -0.9303 -0.2724
11249SOL    HW235189   2.092   6.612   0.838  0.7406 -0.4464  1.0582
11250SOL     OW35190   0.651   4.707  10.941  0.2538 -0.0245 -0.2382
11250SOL    HW135191   0.704   4.628  10.942  0.0664 -0.1470  0.0653
11250SOL    HW235192   0.578   4.689  11.000  1.3224  1.1379  1.5236
11251SOL     OW35193   1.689   3.994   0.200  0.5556 -0.3846 -0.1305
11251SOL    HW135194   1.618   4.045   0.239 -0.1153 -1.4410  0.0400
11251SOL    HW235195   1.731   3.951   0.275  2.4067  1.4199 -0.0125
11252SOL     OW35196   2.555   6.085  12.341 -0.1853  0.2442  0.2567
11252SOL    HW135197   2.573   6.090  12.435  2.5955  1.9675 -0.2452
11252SOL    HW235198   2.496   6.159  12.324  0.7993  1.0952  0.4206
11253SOL     OW35199   2.135   7.859  11.832 -0.0900  0.2224  0.6024
11253SOL    HW135200   2.048   7.821  11.824 -0.4224  1.2185 -0.8469
11253SOL    HW235201   2.189   7.807  11.772  0.5824 -0.9996  2.1748
11254SOL     OW35202   2.559   5.713  10.454 -0.2487  0.1833  0.0918
11254SOL    HW135203   2.583   5.764  10.376 -1.2944 -0.0405 -0.3845
11254SOL    HW235204   2.637   5.662  10.474  0.2056  0.6353 -0.4963
11255SOL     OW35205   3.000   7.507  10.329  0.3229  0.0324 -0.4616
11255SOL    HW135206   3.060   7.579  10.311 -1.1348  0.9061 -2.0966
11255SOL    HW235207   3.054   7.428  10.321  1.7167  0.8492  0.3706
11256SOL     OW35208   2.042   6.552  12.107 -0.1047 -0.3794  0.0057
11256SOL    HW135209   2.116   6.497  12.081 -0.9884 -1.7649  0.2749
11256SOL    HW235210   2.065   6.640  12.077  0.3491 -1.3018 -2.5953
11257SOL     OW35211   5.189   7.240  12.357  0.4568  0.2800 -0.1407
11257SOL    HW135212   5.133   7.238  12.435 -0.4016 -0.0380 -0.7474
11257SOL    HW235213   5.246   7.164  12.367  2.6436  2.0305  1.7813
11258SOL     OW35214   3.013   6.709  12.262  0.1606  0.2852  0.0522
11258SOL    HW135215   3.025   6.766  12.338 -1.0196  1.1326 -0.3617
11258SOL    HW235216   3.101   6.688  12.234  0.6519  1.8526  0.2829
11259SOL     OW35217   3.355   6.074  11.062 -0.3076  0.7249  0.2978
11259SOL    HW135218   3.331   6.140  11.127 -0.5311  2.0803 -1.1046
11259SOL    HW235219   3.451   6.076  11.059 -0.3046  0.7874  0.4412
11260SOL     OW35220   3.974   7.277   0.658  0.1786  0.2157 -0.1358
11260SOL    HW135221   3.895   7.242   0.698  0.7112 -2.1193 -0.9834
11260SOL    HW235222   4.028   7.305   0.732 -0.9044  0.6837  0.4983
11261SOL     OW35223   4.187   6.841  11.175  0.6049  0.3402 -0.6001
11261SOL    HW135224   4.162   6.768  11.232  2.4201  1.9517  2.5120
11261SOL    HW235225   4.132   6.914  11.204  0.6611  0.9010 -1.8480
11262SOL     OW35226   2.511   6.974  10.611  0.6715  0.0802  0.3698
11262SOL    HW135227   2.494   7.066  10.589  0.9136 -0.1341 -0.7892
11262SOL    HW235228   2.494   6.968  10.705 -0.4809  1.0572  0.2517
11263SOL     OW35229   2.735   6.626  12.157 -0.3224  0.4545 -0.7966
11263SOL    HW135230   2.698   6.591  12.238 -0.4149 -0.4573 -1.2207
11263SOL    HW235231   2.815   6.671  12.184 -0.7572  0.8276 -0.1109
11264SOL     OW35232   3.939   4.721   0.231 -0.3215  0.2699  0.2182
11264SOL    HW135233   4.017   4.764   0.266  0.1876 -1.3098  1.1321
11264SOL    HW235234   3.973   4.654   0.172 -1.0603  0.4630 -0.4397
11265SOL     OW35235   0.735   4.993  10.401  0.2085  0.0969 -0.4812
11265SOL    HW135236   0.811   4.956  10.446 -0.6340 -0.8506  0.2112
11265SOL    HW235237   0.765   5.009  10.312  1.1453 -0.4980 -0.2830
11266SOL     OW35238   2.904   6.129   0.585 -0.5632  0.1848 -0.3528
11266SOL    HW135239   2.825   6.082   0.558 -0.7984  0.3957 -0.0493
11266SOL    HW235240   2.943   6.159   0.504 -1.6361  1.4250 -0.4508
11267SOL     OW35241   1.279   6.408  10.844 -0.7019  0.3337 -0.0245
11267SOL    HW135242   1.199   6.448  10.810 -0.4454 -0.0503 -1.1258
11267SOL    HW235243   1.249   6.344  10.908 -1.3346 -0.3456 -0.9770
11268SOL     OW35244   2.115   7.468   1.130  0.0322 -0.1813 -0.1378
11268SOL    HW135245   2.111   7.386   1.179 -0.2016  0.8556  1.6731
11268SOL    HW235246   2.102   7.536   1.196  2.2063  1.4213 -1.2256
11269SOL     OW35247   2.829   4.954  12.289 -0.2733 -0.5393  0.0547
11269SOL    HW135248   2.807   4.964  12.382 -1.6969 -2.8200  0.0400
11269SOL    HW235249   2.924   4.963  12.285 -0.1708 -0.6242  1.7684
11270SOL     OW35250   2.362   5.192  10.222  0.4500  0.0358  0.4232
11270SOL    HW135251   2.438   5.250  10.215  0.0095  0.5573 -0.0803
11270SOL    HW235252   2.351   5.179  10.317 -0.3688  2.0330  0.6445
11271SOL     OW35253   3.677   6.394   0.592 -0.2127 -0.5056 -0.1420
11271SOL    HW135254   3.748   6.444   0.551  0.3663 -2.2397 -1.3811
11271SOL    HW235255   3.714   6.365   0.675  0.0697 -0.3109 -0.1947
11272SOL     OW35256   2.529   5.491  12.087  0.6299 -0.5682  0.2310
11272SOL    HW135257   2.578   5.499  12.005  0.0795  0.2526 -0.0391
11272SOL    HW235258   2.489   5.577  12.099 -0.4742 -1.1061  0.5958
11273SOL     OW35259   2.636   5.342  11.615  0.0475  0.2005 -0.0199
11273SOL    HW135260   2.592   5.345  11.530  2.0908  0.7081 -1.1494
11273SOL    HW235261   2.606   5.261  11.655 -0.7132 -0.2342 -1.3941
11274SOL     OW35262   4.059   7.328  10.939 -0.3156 -0.0824  0.2483
11274SOL    HW135263   4.134   7.305  10.884 -0.2235 -0.5335  0.5552
11274SOL    HW235264   3.995   7.260  10.920  0.1269 -0.8848  1.5022
11275SOL     OW35265   1.703   5.454  10.942 -0.0018  0.1163 -0.3362
11275SOL    HW135266   1.673   5.417  10.859  0.6427  0.6175 -0.8075
11275SOL    HW235267   1.742   5.538  10.917  1.3684 -0.3026  0.2974
11276SOL     OW35268   4.517   7.718  12.075  0.2543  0.5221  0.4653
11276SOL    HW135269   4.560   7.635  12.092  1.9794  1.8016  3.0245
11276SOL    HW235270   4.426   7.704  12.101  0.2227 -0.8702 -0.3210
11277SOL     OW35271   4.054   7.068  11.142  0.0216  0.7574 -0.1534
11277SOL    HW135272   4.026   7.103  11.058  1.8421  0.5948 -0.8748
11277SOL    HW235273   4.126   7.125  11.169 -0.3029  0.5879  1.1187
11278SOL     OW35274   1.895   7.710  11.706  0.2156  0.2787 -0.6674
11278SOL    HW135275   1.897   7.795  11.661 -0.5165  1.2829  1.0768
11278SOL    HW235276   1.806   7.678  11.691  0.5369 -0.2608 -1.4456
11279SOL     OW35277   0.900   5.887  11.230  0.0192  0.2032 -0.0315
11279SOL    HW135278   0.862   5.952  11.290 -1.6012  0.3420 -1.1496
11279SOL    HW235279   0.955   5.938  11.171  0.4146  0.2623  0.3800
11280SOL     OW35280   2.822   6.113  11.781  0.2853  0.1789  0.9751
11280SOL    HW135281   2.789   6.139  11.867  1.2310  1.2887  1.0242
11280SOL    HW235282   2.900   6.167  11.768 -0.2637  0.6102 -0.9096
11281SOL     OW35283   2.704   7.482  12.022 -0.1165  0.1401 -0.0373
11281SOL    HW135284   2.639   7.413  12.009  0.8951 -1.0667  1.0873
11281SOL    HW235285   2.757   7.452  12.096  0.1071  2.3179  0.7596
11282SOL     OW35286   2.551   7.591   1.950 -0.2636  0.1825  0.6275
11282SOL    HW135287   2.470   7.640   1.948 -0.8632 -0.8059 -0.5591
11282SOL    HW235288   2.528   7.504   1.917  1.2694 -0.1141  0.2470
11283SOL     OW35289   2.243   5.987  10.460 -0.1813 -0.8572  0.5082
11283SOL    HW135290   2.306   5.936  10.511  1.8482  0.3470 -0.6422
11283SOL    HW235291   2.231   5.937  10.380  0.1166 -0.5997  0.3000
11284SOL     OW35292   2.341   1.504  10.745 -0.0414  0.6840  0.0641
11284SOL    HW135293   2.384   1.433  10.697 -0.5448 -0.3451  1.0995
11284SOL    HW235294   2.248   1.494  10.724 -0.2229  0.4494  0.9727
11285SOL     OW35295   4.738   5.887  10.827  0.0906  0.0030 -0.0744
11285SOL    HW135296   4.770   5.821  10.766  1.4829 -0.0597  0.6865
11285SOL    HW235297   4.647   5.862  10.843  0.3476 -1.2507 -0.4459
11286SOL     OW35298   2.468   6.932  10.906 -0.3036  0.2047 -0.3247
11286SOL    HW135299   2.429   7.006  10.952  0.3588  0.2861  0.1228
11286SOL    HW235300   2.559   6.959  10.890 -0.0666 -0.4851 -0.1939
11287SOL     OW35301   3.926   4.349  12.232  0.3662 -0.7720 -0.1859
11287SOL    HW135302   3.948   4.436  12.196  1.2631 -0.5936  0.7322
11287SOL    HW235303   3.849   4.322  12.183 -0.6201  1.0373  0.2549
11288SOL     OW35304   7.314   5.892  10.852 -0.4796  0.4000 -0.2181
11288SOL    HW135305   7.325   5.797  10.858 -1.1062  0.3944  1.2378
11288SOL    HW235306   7.337   5.913  10.761 -2.3205 -1.4315 -1.1961
11289SOL     OW35307   3.472   0.403   0.485  0.1607 -1.0335 -0.2996
11289SOL    HW135308   3.380   0.428   0.493  0.3398 -0.1465 -0.7769
11289SOL    HW235309   3.519   0.471   0.533  0.6158 -1.0036 -0.7812
11290SOL     OW35310   2.650   7.539  11.695 -0.3389 -0.2523  0.7341
11290SOL    HW135311   2.555   7.524  11.693 -0.0058 -2.8438  1.0481
11290SOL    HW235312   2.680   7.513  11.608  0.0937  0.6825  0.5923
11291SOL     OW35313   2.549   5.767   0.146 -0.1983 -0.1914  0.6314
11291SOL    HW135314   2.559   5.754   0.051 -0.9250  0.3363  0.4738
11291SOL    HW235315   2.562   5.860   0.159 -3.0548  0.3152  0.6076
11292SOL     OW35316   3.670   5.670   0.215 -0.4010 -0.1815  0.0634
11292SOL    HW135317   3.642   5.713   0.134  0.0801 -0.0360 -0.0315
11292SOL    HW235318   3.751   5.716   0.239 -0.5588 -0.2030  0.6439
11293SOL     OW35319   2.060   0.925  10.962 -0.0325 -0.2559  0.9754
11293SOL    HW135320   1.994   0.858  10.944 -0.7689  0.0530  2.3805
11293SOL    HW235321   2.069   0.973  10.880 -1.2640 -0.5700  0.6456
11294SOL     OW35322   2.484   7.499  11.090  0.3792 -0.1212 -0.2429
11294SOL    HW135323   2.556   7.545  11.046 -0.1203  0.2166 -0.7159
11294SOL    HW235324   2.405   7.544  11.060  0.0989  1.7054  2.8198
11295SOL     OW35325   3.666   5.712  11.032 -0.0745  0.6990 -0.0990
11295SOL    HW135326   3.584   5.689  11.076 -0.1618 -3.6613 -2.0148
11295SOL    HW235327   3.639   5.744  10.946  0.1250 -1.2750 -0.9447
11296SOL     OW35328   3.746   6.871  10.942 -0.1287 -0.1555 -0.0455
11296SOL    HW135329   3.773   6.880  11.033 -0.1395 -0.2207 -0.0357
11296SOL    HW235330   3.817   6.821  10.901 -0.8331 -1.4441  0.2704
11297SOL     OW35331   2.663   6.822  11.375 -0.5953  0.2599  0.3602
11297SOL    HW135332   2.680   6.915  11.390  0.2430  0.1388  0.2231
11297SOL    HW235333   2.665   6.812  11.280 -0.4223  0.0628  0.3820
11298SOL     OW35334   3.305   7.657  11.475  0.3004 -0.3325  0.8532
11298SOL    HW135335   3.283   7.749  11.460 -1.4522 -0.7926  0.3259
11298SOL    HW235336   3.269   7.638  11.562 -0.4696 -0.8285  0.4351
11299SOL     OW35337   1.968   0.195   2.409  0.3923  0.2692 -0.1137
11299SOL    HW135338   1.976   0.207   2.314  0.7848 -1.2879 -0.3122
11299SOL    HW235339   2.013   0.270   2.447  1.3753  0.2472 -1.1833
11300SOL     OW35340   2.218   6.670  12.356  0.0935 -0.1168 -0.3804
11300SOL    HW135341   2.209   6.579  12.383 -2.6655 -0.2406 -1.5105
11300SOL    HW235342   2.261   6.666  12.271 -0.0322 -0.3461 -0.4330
11301SOL     OW35343   5.094   1.198   2.317 -0.0110  0.4252  0.0967
11301SOL    HW135344   5.121   1.159   2.400  1.1272  0.5982 -0.1681
11301SOL    HW235345   5.125   1.289   2.322  0.5483  0.2931 -0.7195
11302SOL     OW35346   2.873   0.342   0.571 -0.1118 -0.3456  0.2501
11302SOL    HW135347   2.931   0.381   0.637  0.8895  1.0435 -1.3790
11302SOL    HW235348   2.798   0.401   0.568  0.8465  0.8669 -1.3468
11303SOL     OW35349   3.553   0.508   0.161 -0.5156 -0.2344 -0.4283
11303SOL    HW135350   3.563   0.530   0.069  0.5276 -0.2600 -0.3353
11303SOL    HW235351   3.576   0.588   0.208  0.8911 -0.7542 -0.1562
11304SOL     OW35352   3.302   7.209   1.435  0.0598  0.3521  0.1464
11304SOL    HW135353   3.288   7.135   1.377 -3.4947  1.1513 -0.2418
11304SOL    HW235354   3.237   7.198   1.505  1.4029  1.6094  1.6777
11305SOL     OW35355   3.689   0.066   0.380  0.1541 -0.1597  0.2166
11305SOL    HW135356   3.659   0.088   0.292 -0.8002 -1.5312  0.1717
11305SOL    HW235357   3.741   0.142   0.407  0.3981  0.3188 -1.4802
11306SOL     OW35358   1.864   6.938   1.133  0.0724  0.1944  0.0577
11306SOL    HW135359   1.874   7.029   1.161  0.0475  0.1969  0.0573
11306SOL    HW235360   1.861   6.888   1.215  0.7604  0.1208  0.0500
11307SOL     OW35361   3.221   4.710   2.183  0.2846  0.6567 -0.2460
11307SOL    HW135362   3.219   4.803   2.159  0.4789  0.5516 -0.6791
11307SOL    HW235363   3.239   4.665   2.101  0.6253  0.2634  0.0406
11308SOL     OW35364   3.977   7.446   1.351  0.1593  0.4282  0.3192
11308SOL    HW135365   4.045   7.380   1.359  0.8068  1.1873  1.4698
11308SOL    HW235366   3.897   7.397   1.331  0.6720 -0.6640  0.8895
11309SOL     OW35367   2.959   0.615   3.534 -0.3025 -0.0892 -0.0636
11309SOL    HW135368   3.008   0.683   3.488 -0.6937  0.5934  0.5157
11309SOL    HW235369   2.896   0.583   3.469  0.3244 -0.3694 -0.5422
11310SOL     OW35370   2.097   0.973   2.396 -0.6762  0.1523  0.5959
11310SOL    HW135371   2.034   0.906   2.423 -1.4007  0.6653  0.2014
11310SOL    HW235372   2.146   0.931   2.325  0.7739 -0.9470  2.1730
11311SOL     OW35373   2.949   7.917   2.811  0.0224 -0.0285 -0.6118
11311SOL    HW135374   2.952   7.826   2.840 -2.5512 -0.4080 -1.2723
11311SOL    HW235375   2.975   7.968   2.888  3.5912 -1.2786 -0.7947
11312SOL     OW35376   2.679   0.688  10.709 -0.0436  0.4381 -0.1977
11312SOL    HW135377   2.616   0.742  10.755 -0.3475 -0.7995  0.8851
11312SOL    HW235378   2.655   0.698  10.616 -1.1612  0.7967  0.1093
11313SOL     OW35379   3.974   0.715   2.952 -0.2539 -1.0093 -0.2763
11313SOL    HW135380   4.024   0.670   3.020 -0.8579 -1.2980 -0.0279
11313SOL    HW235381   3.970   0.653   2.879 -1.2394 -1.4408  0.1318
11314SOL     OW35382   2.104   0.439   2.116  0.2836  0.1706  0.2041
11314SOL    HW135383   2.030   0.379   2.106 -0.4517  0.6155  2.3724
11314SOL    HW235384   2.144   0.443   2.029 -0.0297 -2.8995 -0.1882
11315SOL     OW35385   2.024   7.751   2.034  0.1036 -0.2991 -0.4099
11315SOL    HW135386   2.054   7.680   1.977 -1.9445 -1.1269 -0.5434
11315SOL    HW235387   1.985   7.707   2.110  0.9911  0.7556  0.7167
11316SOL     OW35388   4.672   7.216  11.423  0.3058  0.6188  0.0930
11316SOL    HW135389   4.600   7.193  11.481 -0.0271 -0.0170 -0.5509
11316SOL    HW235390   4.750   7.176  11.463 -0.0210 -0.3506 -0.2129
11317SOL     OW35391   4.914   7.790   2.211  0.2641  0.6958 -0.1189
11317SOL    HW135392   4.830   7.767   2.251  0.2031 -0.4768 -0.8698
11317SOL    HW235393   4.939   7.873   2.252  0.7473 -0.9380  3.1620
11318SOL     OW35394   2.306   7.775  11.590  0.4082  0.2700 -0.4024
11318SOL    HW135395   2.321   7.681  11.592  0.0599  0.1916 -1.0736
11318SOL    HW235396   2.219   7.784  11.551  0.1065  0.8400  0.3665
11319SOL     OW35397   3.650   6.712   2.103  0.0295  0.5185 -0.9264
11319SOL    HW135398   3.636   6.689   2.011  2.2773 -1.0093 -0.9661
11319SOL    HW235399   3.678   6.803   2.101 -1.4187  0.9743 -1.5777
11320SOL     OW35400   2.417   7.352   1.035 -0.0815 -0.2364 -0.0877
11320SOL    HW135401   2.506   7.339   1.068  0.1552 -0.0110 -0.6276
11320SOL    HW235402   2.373   7.269   1.050 -0.3136  0.1936  1.8026
11321SOL     OW35403   2.439   0.348  12.072 -0.0765  0.5049  0.3339
11321SOL    HW135404   2.435   0.444  12.066 -1.2475  0.5940  1.8294
11321SOL    HW235405   2.414   0.329  12.163 -2.2285 -1.3453 -0.5552
11322SOL     OW35406   1.695   7.748  12.152  0.1700 -0.2840  0.2918
11322SOL    HW135407   1.642   7.735  12.230  0.7822  0.8075  0.9300
11322SOL    HW235408   1.705   7.843  12.146 -1.4701 -0.1699 -2.2366
11323SOL     OW35409   0.956   0.758  11.579  0.3612 -0.1837 -0.3786
11323SOL    HW135410   0.876   0.811  11.572  1.3609  1.1133 -4.0510
11323SOL    HW235411   0.924   0.667  11.574 -0.9761  0.2651 -0.4646
11324SOL     OW35412   3.670   7.087  12.291 -0.1037 -0.1796  0.1620
11324SOL    HW135413   3.761   7.096  12.319 -0.3333 -0.5356  1.0812
11324SOL    HW235414   3.647   7.172  12.254  0.6529 -0.1478 -0.2477
11325SOL     OW35415   2.246   7.608   2.208 -0.1711 -0.0987  0.2885
11325SOL    HW135416   2.247   7.702   2.189  0.0524 -0.6244 -2.9314
11325SOL    HW235417   2.157   7.581   2.187 -0.1703 -0.6568  0.9780
11326SOL     OW35418   4.050   0.876   1.459  0.2557 -0.0756  0.2196
11326SOL    HW135419   4.067   0.965   1.488 -0.0391  0.0836 -0.0852
11326SOL    HW235420   4.087   0.872   1.371  0.5219 -0.3388  0.3431
11327SOL     OW35421   3.957   7.347  12.301  0.0517 -0.5652 -0.4004
11327SOL    HW135422   3.988   7.394  12.378 -0.8008 -1.0266  0.2455
11327SOL    HW235423   3.963   7.255  12.325  0.7704 -0.7593 -1.2834
11328SOL     OW35424   2.891   7.011   1.003 -0.3443  0.2301 -0.3717
11328SOL    HW135425   2.972   6.962   1.015 -0.8030 -0.3308  0.5089
11328SOL    HW235426   2.889   7.073   1.076 -0.6699  0.3037 -0.4402
11329SOL     OW35427   3.436   7.823   1.892 -0.3698 -0.6185 -0.2660
11329SOL    HW135428   3.426   7.795   1.983  1.6264 -0.9324 -0.0879
11329SOL    HW235429   3.530   7.812   1.874 -0.3080  1.5137 -1.6596
11330SOL     OW35430   2.287   5.569  12.403 -0.0870  0.2720 -0.4001
11330SOL    HW135431   2.316   5.624  12.330  0.2654 -0.8568 -1.1467
11330SOL    HW235432   2.192   5.580  12.405  0.0228  1.2685 -0.2236
11331SOL     OW35433   2.345   0.647   1.876 -0.3228  0.0286  0.1288
11331SOL    HW135434   2.438   0.641   1.900  0.0530  0.4802 -1.1445
11331SOL    HW235435   2.313   0.557   1.881  0.5993 -0.3814 -0.9476
11332SOL     OW35436   1.813   0.114   1.724  0.0163 -0.2183 -0.1024
11332SOL    HW135437   1.833   0.076   1.809 -1.6130 -1.6553 -0.3101
11332SOL    HW235438   1.857   0.057   1.661 -1.4873 -1.1507 -0.3556
11333SOL     OW35439   2.095   0.440   2.499  0.2070 -0.0074  0.2080
11333SOL    HW135440   2.158   0.490   2.446  0.1744  0.7764  0.8962
11333SOL    HW235441   2.145   0.414   2.577 -0.5558  1.4481  1.2211
11334SOL     OW35442   3.043   1.152  11.607  0.2996  0.2387  0.0954
11334SOL    HW135443   3.125   1.103  11.611 -0.8918 -1.8170  0.8213
11334SOL    HW235444   3.004   1.128  11.523  0.4807  1.3592 -0.3350
11335SOL     OW35445   2.247   0.611  12.182 -0.1748 -0.0070 -0.2188
11335SOL    HW135446   2.176   0.574  12.130  0.5023  0.1399 -1.2671
11335SOL    HW235447   2.281   0.536  12.232 -1.1125 -0.0570  0.3685
11336SOL     OW35448   2.758   0.661  11.712 -0.5856 -0.2768  0.1702
11336SOL    HW135449   2.802   0.723  11.770 -1.2386 -0.6217  1.0668
11336SOL    HW235450   2.731   0.589  11.770 -0.6950 -0.9412 -0.6784
11337SOL     OW35451   3.603   1.111   2.048  0.4469 -0.5688 -0.3525
11337SOL    HW135452   3.579   1.019   2.051  0.7476 -0.6396 -0.1061
11337SOL    HW235453   3.618   1.129   1.955  2.0835 -1.2111 -0.2442
11338SOL     OW35454   2.373   7.828   0.371  0.0756 -0.5758 -0.0602
11338SOL    HW135455   2.288   7.849   0.410  0.0785 -2.8962  1.3500
11338SOL    HW235456   2.401   7.910   0.330 -1.9343  0.7863  1.1067
11339SOL     OW35457   2.725   0.448  11.930  0.4003 -0.4293 -0.5946
11339SOL    HW135458   2.666   0.387  11.886 -2.0527  0.8188  0.8141
11339SOL    HW235459   2.678   0.478  12.007  1.7238  2.7563 -0.8429
11340SOL     OW35460   1.809   7.328   0.688 -0.2248 -0.0834  0.1184
11340SOL    HW135461   1.847   7.327   0.776  0.1240 -0.7030 -0.0373
11340SOL    HW235462   1.869   7.277   0.635 -0.3450  0.4274 -0.5259
11341SOL     OW35463   2.282   7.516   0.295  0.0175  0.2492 -0.5069
11341SOL    HW135464   2.371   7.482   0.284 -0.3281 -0.8847  0.0333
11341SOL    HW235465   2.292   7.592   0.352  0.5969 -0.1973  0.0071
11342SOL     OW35466   1.808   0.143   1.038 -0.3744  0.0228  0.1786
11342SOL    HW135467   1.751   0.211   1.073 -0.8847 -1.1923  1.8560
11342SOL    HW235468   1.761   0.109   0.962  0.5068  2.3663 -1.5002
11343SOL     OW35469   1.521   5.127  12.212  0.0259  0.4563  0.5898
11343SOL    HW135470   1.474   5.148  12.293 -1.2152  0.1143 -0.0246
11343SOL    HW235471   1.475   5.176  12.144 -0.1353 -0.7249 -0.1903
11344SOL     OW35472   3.906   0.442   1.142 -0.8414  0.3281  0.0160
11344SOL    HW135473   4.000   0.453   1.126 -0.5351 -2.1484 -0.2389
11344SOL    HW235474   3.899   0.415   1.233 -1.1637 -0.6672 -0.2860
11345SOL     OW35475   2.295   7.416   0.782  0.4047  0.0382 -0.6227
11345SOL    HW135476   2.370   7.475   0.784  0.3002  0.3002 -2.7951
11345SOL    HW235477   2.282   7.392   0.874  1.9889  1.4218  0.0212
11346SOL     OW35478   3.949   0.152  11.697  0.0726 -0.1671  0.2366
11346SOL    HW135479   3.919   0.236  11.663  0.2512  0.1133  0.7454
11346SOL    HW235480   3.990   0.108  11.623  1.2972  0.8273  0.3034
11347SOL     OW35481   3.892   7.170   0.433  0.5650  0.0911 -0.1397
11347SOL    HW135482   3.820   7.227   0.458  0.9625  0.2624  0.6668
11347SOL    HW235483   3.957   7.181   0.503  0.9812 -0.7491 -0.3726
11348SOL     OW35484   3.758   0.043   1.539 -0.6011  0.0651 -0.2498
11348SOL    HW135485   3.678   0.060   1.589  0.7520 -0.2338  2.1637
11348SOL    HW235486   3.732  -0.019   1.471 -2.2644 -0.5559  0.9084
11349SOL     OW35487   2.001   0.749   2.017  0.3793 -0.1744  0.5258
11349SOL    HW135488   1.962   0.818   1.962  1.6533  1.2147  1.2798
11349SOL    HW235489   2.025   0.680   1.955 -0.5953  0.1966 -0.3061
11350SOL     OW35490   2.675   0.165   0.143 -0.2407  0.0829  0.4206
11350SOL    HW135491   2.674   0.211   0.060  0.4963 -0.4730  0.0884
11350SOL    HW235492   2.742   0.209   0.195 -0.7407  0.4670  0.7513
11351SOL     OW35493   3.525   6.986   2.428 -0.4902 -0.2670  0.3404
11351SOL    HW135494   3.580   7.035   2.367  2.1020 -2.0307  1.0566
11351SOL    HW235495   3.501   7.049   2.496  0.6293  0.6216 -0.0571
11352SOL     OW35496   0.473   7.935  11.492 -0.0537  0.0199  0.0585
11352SOL    HW135497   0.428   7.907  11.572  0.3794  0.8409  0.6113
11352SOL    HW235498   0.566   7.935  11.517  0.1084 -0.0206 -0.5446
11353SOL     OW35499   2.175   7.270   0.388 -0.1378 -0.4163 -0.0412
11353SOL    HW135500   2.257   7.225   0.411  0.6836  1.1595  0.2691
11353SOL    HW235501   2.203   7.353   0.349 -1.4770  1.7668  3.1507
11354SOL     OW35502   1.796   6.243   1.006  0.0995 -0.0811  0.3065
11354SOL    HW135503   1.836   6.252   1.093 -1.5497 -2.3597  1.4123
11354SOL    HW235504   1.858   6.189   0.957 -0.6400 -2.0562  1.4129
11355SOL     OW35505   4.626   6.777  12.132  0.3541 -0.3858  0.2512
11355SOL    HW135506   4.637   6.749  12.042 -1.1802 -1.5933  0.3812
11355SOL    HW235507   4.532   6.768  12.148  0.5776 -0.0667  1.9247
11356SOL     OW35508   4.243   0.659  12.097  0.0806 -0.0127 -0.0916
11356SOL    HW135509   4.283   0.740  12.065 -1.2719  0.2940 -1.0695
11356SOL    HW235510   4.161   0.687  12.137  0.9245 -0.5893  2.2221
11357SOL     OW35511   4.491   5.986   2.844 -0.4851  0.5116 -0.1318
11357SOL    HW135512   4.548   5.917   2.811 -0.6559  0.4195 -0.2376
11357SOL    HW235513   4.545   6.034   2.907 -0.4739  0.0695  0.2035
11358SOL     OW35514   2.293   1.161   2.061 -0.1073  0.0431 -0.2689
11358SOL    HW135515   2.266   1.170   2.152 -1.7124 -0.6631 -0.6331
11358SOL    HW235516   2.343   1.080   2.058 -2.5228 -1.5449 -0.4667
11359SOL     OW35517   1.034   7.705   0.676 -0.0596 -0.0657  0.2673
11359SOL    HW135518   1.004   7.648   0.606  2.2260 -0.9037 -0.1200
11359SOL    HW235519   1.002   7.664   0.756 -0.6661 -0.4170 -0.1467
11360SOL     OW35520   3.206   0.592   1.664 -0.2080  0.3177 -0.3376
11360SOL    HW135521   3.213   0.499   1.687 -2.0473 -0.1610 -1.4377
11360SOL    HW235522   3.296   0.621   1.653  0.4082 -1.5699 -0.7337
11361SOL     OW35523   4.863   0.332  11.975  0.5190 -0.2264  0.0836
11361SOL    HW135524   4.919   0.408  11.961  1.2532 -0.6659  0.5318
11361SOL    HW235525   4.922   0.257  11.963 -0.2673 -0.7336 -0.6848
11362SOL     OW35526   3.780   0.520   0.693 -0.1131  0.2942 -0.1715
11362SOL    HW135527   3.841   0.547   0.761  0.0486  0.5733 -0.4223
11362SOL    HW235528   3.791   0.585   0.623  0.3315 -0.4582 -0.8156
11363SOL     OW35529   2.723   0.351   0.837  0.0298 -0.5800 -0.1335
11363SOL    HW135530   2.724   0.377   0.929  1.4400  2.3669 -0.8520
11363SOL    HW235531   2.676   0.422   0.793 -0.5722 -1.9091 -1.7204
11364SOL     OW35532   2.850   0.365   3.310 -0.3272  0.1896  0.2930
11364SOL    HW135533   2.940   0.381   3.281 -0.2373  0.5599  0.7566
11364SOL    HW235534   2.860   0.313   3.390 -0.6103 -2.0267 -1.0501
11365SOL     OW35535   0.710   7.634   3.583 -0.3368 -0.0201 -0.1469
11365SOL    HW135536   0.642   7.701   3.595 -0.5171  0.2034 -2.0301
11365SOL    HW235537   0.770   7.672   3.518  0.2088 -1.1968 -0.3591
11366SOL     OW35538   3.211   1.642   1.083 -0.2061 -0.5654 -0.3537
11366SOL    HW135539   3.276   1.645   1.153  1.7956 -0.6406 -2.1041
11366SOL    HW235540   3.172   1.554   1.090  0.7394 -0.9675  0.0089
11367SOL     OW35541   0.979   7.618   3.820  0.4320  0.2651  0.2250
11367SOL    HW135542   0.976   7.714   3.820  0.2940  0.2617  0.1149
11367SOL    HW235543   0.893   7.591   3.854  0.4975  0.1814  0.3234
11368SOL     OW35544   2.155   6.660   3.711  0.7215 -0.2302  0.1800
11368SOL    HW135545   2.084   6.723   3.725  1.2921  0.3344  0.5467
11368SOL    HW235546   2.114   6.574   3.725  0.3274  0.1362  1.3113
11369SOL     OW35547   2.286   7.805   3.540  0.0183  0.0482  0.0318
11369SOL    HW135548   2.357   7.868   3.535  0.9957 -1.0409 -0.2184
11369SOL    HW235549   2.284   7.778   3.632 -1.6708  1.8156  0.5790
11370SOL     OW35550   3.904   7.863   2.137 -0.2462  0.4605  0.4666
11370SOL    HW135551   3.979   7.920   2.152  1.7288 -1.8630  0.0796
11370SOL    HW235552   3.902   7.805   2.212 -2.2893  1.0338  0.9224
11371SOL     OW35553   1.899   7.784   2.333 -0.5301  0.1292  0.0493
11371SOL    HW135554   1.958   7.854   2.364 -0.2529 -0.2064  0.2886
11371SOL    HW235555   1.845   7.763   2.410  0.9129 -1.4888  0.6837
11372SOL     OW35556   1.845   7.469   3.797 -0.7936  0.2868  0.4369
11372SOL    HW135557   1.758   7.433   3.782 -1.2319  1.7451 -0.7525
11372SOL    HW235558   1.902   7.422   3.736 -1.1111  0.6585 -0.1522
11373SOL     OW35559   4.289   0.095   2.769  0.2641 -0.0150 -0.4580
11373SOL    HW135560   4.264   0.050   2.849  1.5039  0.4070  0.1901
11373SOL    HW235561   4.366   0.048   2.737  0.9251  0.9704 -0.3581
11374SOL     OW35562   2.577   7.076   2.193 -0.3109  0.2482  0.0792
11374SOL    HW135563   2.634   7.015   2.146 -1.2685  0.3237 -1.2460
11374SOL    HW235564   2.557   7.031   2.275  1.4806  0.1447  0.5120
11375SOL     OW35565   5.525   2.041   2.462  0.0414  0.5250  0.0977
11375SOL    HW135566   5.534   2.076   2.550  0.3791  0.1213  0.2266
11375SOL    HW235567   5.510   2.118   2.407  0.1784  0.8131  0.4602
11376SOL     OW35568   1.832   7.665   4.835 -0.4030  0.6488  0.0179
11376SOL    HW135569   1.892   7.603   4.793  1.2504  2.6800 -0.7983
11376SOL    HW235570   1.794   7.714   4.762  0.0932  2.1191  0.7164
11377SOL     OW35571   4.123   6.757   2.250 -0.2813  0.2138  0.0695
11377SOL    HW135572   4.067   6.811   2.194 -0.9074 -0.5459 -0.0541
11377SOL    HW235573   4.162   6.820   2.311  0.6534  1.0912 -1.3862
11378SOL     OW35574   2.934   1.405   2.986  0.5442  0.1226  0.6911
11378SOL    HW135575   2.919   1.397   2.892 -0.6786  0.1476  0.8669
11378SOL    HW235576   3.015   1.455   2.994 -0.8104  2.6782 -0.3705
11379SOL     OW35577   1.633   0.564   2.395  0.2307 -0.0572  0.4984
11379SOL    HW135578   1.724   0.552   2.369  0.6495  0.8714  1.4476
11379SOL    HW235579   1.585   0.497   2.347  1.5670 -1.3639  0.9080
11380SOL     OW35580   1.702   7.246   4.503  0.1531  0.1780  0.2169
11380SOL    HW135581   1.657   7.281   4.426 -0.1159  1.0154  0.7463
11380SOL    HW235582   1.691   7.151   4.495 -1.3739  0.3388  0.1197
11381SOL     OW35583   3.210   6.996   3.508  0.2391 -0.5832  0.6955
11381SOL    HW135584   3.298   6.994   3.470 -0.0977  1.9421 -0.4497
11381SOL    HW235585   3.154   6.961   3.439  0.1508 -0.4513  0.6990
11382SOL     OW35586   3.937   7.332   4.194 -0.1822  0.5355  0.4243
11382SOL    HW135587   3.965   7.389   4.122  0.7060 -0.3981  0.0019
11382SOL    HW235588   3.866   7.280   4.158 -0.7164  1.0631  0.6860
11383SOL     OW35589   1.222   6.719   1.230 -0.4166  0.2834  0.1437
11383SOL    HW135590   1.282   6.689   1.298 -1.2418  0.3296  0.8996
11383SOL    HW235591   1.234   6.657   1.158  0.1594 -0.0080  0.4835
11384SOL     OW35592   3.430   6.853   3.430 -0.0849 -0.1281 -0.5140
11384SOL    HW135593   3.382   6.823   3.353 -1.3391 -0.0847  0.2223
11384SOL    HW235594   3.433   6.777   3.488 -0.4100  0.2297 -0.0169
11385SOL     OW35595   3.724   0.056   4.156 -0.0981 -0.0330 -0.2137
11385SOL    HW135596   3.776   0.104   4.220  0.4454 -0.3182 -0.4390
11385SOL    HW235597   3.652   0.115   4.135 -0.5244 -0.0927  0.9631
11386SOL     OW35598   2.244   7.664   3.295  0.6030 -0.0859 -0.1671
11386SOL    HW135599   2.224   7.755   3.271 -1.3619 -0.5461 -0.4716
11386SOL    HW235600   2.306   7.671   3.367 -0.7351  1.5586  0.8947
11387SOL     OW35601   2.818   7.288   3.163 -0.3835  0.2814  0.2769
11387SOL    HW135602   2.854   7.365   3.206 -1.3285 -0.3294  2.2825
11387SOL    HW235603   2.826   7.307   3.069  2.8314  1.1980  0.5998
11388SOL     OW35604   2.063   6.829   2.814 -0.4893 -0.0306 -0.3860
11388SOL    HW135605   1.982   6.839   2.765 -0.2614 -1.0709 -1.0064
11388SOL    HW235606   2.054   6.889   2.888 -2.0649 -0.5273 -0.1369
11389SOL     OW35607   2.852   7.702   5.345  0.5866  0.2846 -0.1673
11389SOL    HW135608   2.918   7.757   5.385  0.2151  0.6629 -0.0671
11389SOL    HW235609   2.770   7.728   5.387  0.2874  0.2303 -0.7067
11390SOL     OW35610   1.762   7.461   0.439 -0.1004  0.0386  1.1091
11390SOL    HW135611   1.832   7.526   0.443 -0.0048 -0.1133  2.5765
11390SOL    HW235612   1.769   7.414   0.522 -2.5532  0.6536  1.7337
11391SOL     OW35613   3.024   7.088   3.682 -1.0079 -0.0189 -0.4410
11391SOL    HW135614   3.102   7.058   3.635 -0.3854 -1.6305  1.4897
11391SOL    HW235615   3.040   7.182   3.694  1.6189 -0.5697  1.4442
11392SOL     OW35616   3.006   7.849   1.785  0.0701  0.1690  0.4011
11392SOL    HW135617   2.936   7.832   1.723 -1.2170  2.5351  1.0928
11392SOL    HW235618   2.971   7.823   1.870  1.1445 -1.3151  0.4384
11393SOL     OW35619   2.966   7.116   2.079 -0.1465  0.5732  0.3145
11393SOL    HW135620   3.009   7.167   2.011 -1.1824  0.0630 -0.7728
11393SOL    HW235621   2.925   7.181   2.136  0.1325  0.9909  0.0382
11394SOL     OW35622   2.444   6.634   2.096  0.0747  0.1741  0.4831
11394SOL    HW135623   2.479   6.647   2.184 -0.3372  0.3324  0.6263
11394SOL    HW235624   2.505   6.574   2.054 -0.1251 -0.4739  1.1188
11395SOL     OW35625   2.920   6.347   4.493 -0.2099  0.3375  0.1641
11395SOL    HW135626   2.929   6.303   4.408 -0.2198 -1.2173  0.9250
11395SOL    HW235627   3.011   6.364   4.520 -0.1441 -0.3087  0.3835
11396SOL     OW35628   3.123   7.507   5.524  0.1783  0.1041  0.2298
11396SOL    HW135629   3.042   7.550   5.495  0.2601  0.3890  0.4232
11396SOL    HW235630   3.138   7.541   5.612 -0.2016 -0.9392  0.7210
11397SOL     OW35631   2.627   7.413   3.389 -0.1796  0.8928  0.2073
11397SOL    HW135632   2.600   7.468   3.316 -1.6916  2.0531  1.5531
11397SOL    HW235633   2.723   7.412   3.384 -0.2373  1.3485 -1.4669
11398SOL     OW35634   5.266   6.206   2.437 -0.4840 -0.0812  0.3122
11398SOL    HW135635   5.303   6.159   2.363  1.4270  0.6873  0.7280
11398SOL    HW235636   5.172   6.214   2.416 -0.5308 -2.3395 -0.6460
11399SOL     OW35637   1.306   7.080   2.574  0.8406  0.4209  0.4240
11399SOL    HW135638   1.297   6.988   2.549 -0.0815  0.5680  0.1730
11399SOL    HW235639   1.382   7.111   2.525  2.0490 -0.5534  1.5873
11400SOL     OW35640   4.137   7.791   2.779  0.0092 -0.0004  0.1828
11400SOL    HW135641   4.060   7.736   2.793 -0.2425  0.5862  1.1654
11400SOL    HW235642   4.149   7.792   2.684 -2.6294  1.8449 -0.2330
11401SOL     OW35643   4.008   1.962   1.748  0.1632  0.6115 -0.0120
11401SOL    HW135644   4.058   1.926   1.674 -1.6277 -1.0330 -0.5060
11401SOL    HW235645   3.962   1.887   1.785 -0.7275  1.7901  1.3921
11402SOL     OW35646   3.298   0.474   0.261  0.4456 -0.1428 -0.0475
11402SOL    HW135647   3.282   0.445   0.351  0.4882  2.1317  0.7534
11402SOL    HW235648   3.394   0.479   0.254  0.4513  2.3236  0.7766
11403SOL     OW35649   3.673   7.651   4.355  0.5494  0.6067 -0.2377
11403SOL    HW135650   3.737   7.647   4.426  0.7221 -3.5274 -0.4161
11403SOL    HW235651   3.723   7.628   4.277 -0.8132 -1.2211 -0.6196
11404SOL     OW35652   3.333   7.829   4.416  1.0823 -0.7397 -0.1286
11404SOL    HW135653   3.329   7.751   4.472  1.5574 -0.3277  0.4798
11404SOL    HW235654   3.383   7.892   4.465 -1.4763  0.9199  0.5572
11405SOL     OW35655   2.509   0.789   3.801 -0.0235 -0.0159 -0.4263
11405SOL    HW135656   2.531   0.822   3.714 -0.0818  0.2652 -0.3341
11405SOL    HW235657   2.491   0.696   3.787  0.7516 -0.1478 -0.5769
11406SOL     OW35658   3.288   7.878   3.685 -0.8377 -0.2227  0.7160
11406SOL    HW135659   3.212   7.909   3.635 -1.2918 -0.3309  1.3353
11406SOL    HW235660   3.294   7.938   3.759 -1.7435 -1.5914  1.9556
11407SOL     OW35661   2.815   0.085   2.250 -0.2524  0.0726  0.1921
11407SOL    HW135662   2.847   0.146   2.184 -1.7320  0.8251  0.1248
11407SOL    HW235663   2.889   0.028   2.269  1.6560  2.7182  1.2312
11408SOL     OW35664   2.532   0.048   3.018 -0.4576 -0.1579  0.6311
11408SOL    HW135665   2.583   0.098   3.082  1.4787 -0.1500 -0.8346
11408SOL    HW235666   2.484   0.115   2.969  0.6604  0.1537 -0.0813
11409SOL     OW35667   2.347   7.742   1.926 -0.0148 -0.2545 -0.1261
11409SOL    HW135668   2.282   7.676   1.951  2.5137 -3.6777 -1.7513
11409SOL    HW235669   2.310   7.785   1.849 -0.9778 -1.0673 -0.1349
11410SOL     OW35670   3.118   7.424   2.454 -0.7110  0.2388  0.7012
11410SOL    HW135671   3.106   7.394   2.364 -0.0827 -1.0938  1.0320
11410SOL    HW235672   3.172   7.503   2.447 -0.1812 -0.1860 -0.0536
11411SOL     OW35673   2.660   0.364   2.925  0.2790 -0.1239 -0.0105
11411SOL    HW135674   2.684   0.306   2.997  0.4254  0.9361  0.8171
11411SOL    HW235675   2.580   0.407   2.953  0.4855  0.5067 -0.3449
11412SOL     OW35676   1.810   0.414   1.655  0.6161 -0.3756 -0.7160
11412SOL    HW135677   1.741   0.401   1.590  0.8759 -0.3461 -0.9972
11412SOL    HW235678   1.820   0.328   1.696  0.5808 -0.4385 -0.8399
11413SOL     OW35679   3.949   5.769   3.276  0.1321 -0.2171 -0.4825
11413SOL    HW135680   3.916   5.824   3.204 -0.3796  0.4719  0.2597
11413SOL    HW235681   3.870   5.739   3.321  0.4433  1.9318  1.6776
11414SOL     OW35682   3.708   7.374   3.890  0.2800 -0.1958  0.7536
11414SOL    HW135683   3.691   7.358   3.983  0.9121  0.3828  0.9796
11414SOL    HW235684   3.785   7.431   3.889 -0.4882  0.8831 -0.0671
11415SOL     OW35685   3.584   7.922   4.492 -0.0855 -0.0984 -0.2159
11415SOL    HW135686   3.640   7.945   4.567  0.7506 -1.3193 -0.4404
11415SOL    HW235687   3.591   7.827   4.485  0.4675  0.0588 -2.3129
11416SOL     OW35688   1.852   0.311   1.354 -0.2958 -0.5059  0.3679
11416SOL    HW135689   1.774   0.314   1.408 -0.6263  0.2156 -0.1332
11416SOL    HW235690   1.825   0.262   1.276 -0.4852  0.4208 -0.1591
11417SOL     OW35691   3.616   7.154   4.359 -0.1042 -0.0009 -0.2867
11417SOL    HW135692   3.561   7.164   4.437 -0.5086  0.0154 -0.5691
11417SOL    HW235693   3.668   7.076   4.376 -0.0115  0.1440  0.1067
11418SOL     OW35694   2.460   7.228   3.498 -0.4214  0.0504  0.0930
11418SOL    HW135695   2.417   7.206   3.415  1.8584 -0.9475 -0.9237
11418SOL    HW235696   2.532   7.286   3.472 -0.3383  0.6262  1.5419
11419SOL     OW35697   2.606   0.122   2.672 -0.0650  0.7917 -0.7019
11419SOL    HW135698   2.527   0.162   2.707 -1.0274  1.2231 -3.1724
11419SOL    HW235699   2.676   0.181   2.697 -0.6881  1.0937  0.4013
11420SOL     OW35700   2.503   0.310   0.447  0.4448  0.3482 -0.4718
11420SOL    HW135701   2.549   0.230   0.471  1.6005  0.7056 -1.4153
11420SOL    HW235702   2.419   0.304   0.494  0.9743 -0.8490  0.3866
11421SOL     OW35703   4.440   7.798   2.070  0.0548 -0.4840  0.0045
11421SOL    HW135704   4.357   7.758   2.045  0.0854 -0.3543 -0.3036
11421SOL    HW235705   4.492   7.798   1.990 -0.0758  0.5013 -0.0921
11422SOL     OW35706   3.386   0.775   2.484 -0.0402 -0.1962  0.0452
11422SOL    HW135707   3.436   0.697   2.461 -0.3933 -1.3101  2.7042
11422SOL    HW235708   3.332   0.793   2.407  2.7875 -0.2272 -2.0684
11423SOL     OW35709   1.753   7.873   3.392  0.6739 -0.2929  0.0478
11423SOL    HW135710   1.821   7.919   3.441 -1.1050  2.0381  0.5154
11423SOL    HW235711   1.714   7.812   3.456  0.8750 -0.0495  0.4033
11424SOL     OW35712   3.152   7.820   3.952 -0.6539  0.0468 -0.4119
11424SOL    HW135713   3.237   7.837   3.912 -0.6997 -0.5024 -0.7492
11424SOL    HW235714   3.096   7.891   3.921 -0.3153  0.4290 -0.1624
11425SOL     OW35715   4.260   6.543   3.075  0.2112  0.2225  0.1596
11425SOL    HW135716   4.241   6.463   3.124 -0.9064  0.8836  0.8616
11425SOL    HW235717   4.339   6.523   3.025  0.1389 -1.1993  0.5780
11426SOL     OW35718   1.666   7.211   3.429  0.2485 -0.4769  0.5410
11426SOL    HW135719   1.647   7.241   3.340  3.6445  0.5166 -0.0028
11426SOL    HW235720   1.641   7.119   3.428 -2.1347  0.0992 -0.5906
11427SOL     OW35721   4.180   7.279   3.096 -0.2495 -0.4003  0.0971
11427SOL    HW135722   4.087   7.266   3.078 -1.0371  0.4129  3.1330
11427SOL    HW235723   4.220   7.194   3.075 -1.6228 -0.7578 -1.3004
11428SOL     OW35724   3.410   0.759   2.908  0.3315 -0.2183 -0.0390
11428SOL    HW135725   3.458   0.709   2.974 -2.3369 -0.5563  1.8256
11428SOL    HW235726   3.341   0.700   2.879 -0.9220  1.2752 -0.1990
11429SOL     OW35727   1.638   6.686   4.507 -0.3103 -0.1932  0.1536
11429SOL    HW135728   1.614   6.691   4.415 -1.9862 -0.9538  0.5051
11429SOL    HW235729   1.654   6.776   4.534  2.3287 -0.1175 -1.3556
11430SOL     OW35730   4.788   0.623   4.319 -0.0950 -0.2957 -0.0070
11430SOL    HW135731   4.698   0.599   4.340 -0.0389  0.5865  1.3215
11430SOL    HW235732   4.784   0.656   4.229 -1.3296  0.8584  0.4385
11431SOL     OW35733   2.742   0.599   6.300 -0.4832  0.0284  0.6751
11431SOL    HW135734   2.830   0.566   6.282 -0.9098 -0.9266  0.2673
11431SOL    HW235735   2.755   0.671   6.362  0.4690 -1.0296  1.7453
11432SOL     OW35736   5.416   7.290   5.705 -0.2188 -0.3232  0.3966
11432SOL    HW135737   5.335   7.283   5.755 -0.8675 -0.6766 -0.6719
11432SOL    HW235738   5.481   7.242   5.757 -0.9872 -1.0903  0.6705
11433SOL     OW35739   3.885   5.625   7.059 -0.0725 -0.2871 -0.1728
11433SOL    HW135740   3.869   5.658   6.971 -1.3412 -0.3166  0.0309
11433SOL    HW235741   3.921   5.537   7.046 -1.7632 -0.9380 -0.6645
11434SOL     OW35742   2.499   7.862   5.793  0.2619  0.2332 -0.3876
11434SOL    HW135743   2.561   7.927   5.761 -0.3535  0.6342 -0.7717
11434SOL    HW235744   2.422   7.872   5.737 -0.9014  1.0302  1.2641
11435SOL     OW35745   3.481   7.605   4.748  0.6912  0.3429  0.4393
11435SOL    HW135746   3.443   7.536   4.693  0.1338  0.1747  1.0355
11435SOL    HW235747   3.574   7.582   4.753  0.3102 -1.0601  1.6167
11436SOL     OW35748   0.747   7.659   7.066  0.1296 -0.1812  0.0808
11436SOL    HW135749   0.664   7.705   7.076 -0.5779 -1.4544  0.3293
11436SOL    HW235750   0.803   7.696   7.133 -1.2905 -1.5090  2.1358
11437SOL     OW35751   2.354   7.719   5.413 -0.5020 -0.0287  0.5714
11437SOL    HW135752   2.311   7.754   5.491  0.9148 -1.2476  1.9715
11437SOL    HW235753   2.292   7.736   5.342 -2.6812 -0.5395  2.2453
11438SOL     OW35754   3.395   0.707   4.350  0.7049 -0.1475  0.1854
11438SOL    HW135755   3.455   0.781   4.363  1.1225 -0.2495 -1.0565
11438SOL    HW235756   3.406   0.654   4.429  1.6249  0.2744  0.3617
11439SOL     OW35757   2.240   7.224   4.647  0.0663 -0.6254 -0.1760
11439SOL    HW135758   2.144   7.222   4.640  0.0550 -1.5932  0.0498
11439SOL    HW235759   2.268   7.146   4.599  0.9281  1.0846 -2.6808
11440SOL     OW35760   3.184   7.827   4.690  0.4303 -0.1969 -0.1324
11440SOL    HW135761   3.105   7.830   4.744 -0.2877 -1.9680 -0.9901
11440SOL    HW235762   3.195   7.916   4.657 -0.6824  0.2809  0.7148
11441SOL     OW35763   2.652   7.861   4.989  0.1579 -0.0417 -0.3457
11441SOL    HW135764   2.742   7.880   5.013  0.1242  0.5576 -0.6691
11441SOL    HW235765   2.621   7.941   4.945 -0.8652  0.1669  0.6965
11442SOL     OW35766   4.014   7.202   6.140 -0.0658 -0.1711  0.0517
11442SOL    HW135767   3.986   7.157   6.220  1.8536 -1.9685 -0.1943
11442SOL    HW235768   4.008   7.135   6.071  2.4795  0.0015 -0.4204
11443SOL     OW35769   2.541   6.596   6.341 -0.1479 -0.4310  0.0799
11443SOL    HW135770   2.491   6.668   6.305  0.6115  0.2458  0.3313
11443SOL    HW235771   2.561   6.623   6.431 -2.2828 -2.2167  1.1738
11444SOL     OW35772   3.289   7.480   5.320  0.0889 -0.2051  0.0085
11444SOL    HW135773   3.324   7.566   5.299  0.2820 -0.5424 -1.1383
11444SOL    HW235774   3.232   7.494   5.396 -3.4508  1.8176 -2.7314
11445SOL     OW35775   3.491   0.124   1.663  0.5746  0.0701  0.0457
11445SOL    HW135776   3.452   0.129   1.750  0.7715 -1.8675  0.2782
11445SOL    HW235777   3.450   0.048   1.622  0.4102  1.0012 -1.6166
11446SOL     OW35778   2.851   7.782   5.936  0.3463 -0.3971 -0.2179
11446SOL    HW135779   2.824   7.833   6.013  0.0226  0.3447 -0.8061
11446SOL    HW235780   2.771   7.775   5.883  1.0063  0.8424 -1.4430
11447SOL     OW35781   0.551   7.828   3.909 -0.0166  0.1113 -0.1527
11447SOL    HW135782   0.506   7.911   3.891  0.5354  0.0308 -2.0420
11447SOL    HW235783   0.559   7.785   3.824 -1.5597 -2.5962  0.9363
11448SOL     OW35784   3.471   7.779   4.951 -0.0982 -0.1841 -0.0769
11448SOL    HW135785   3.512   7.737   4.876  0.5693 -0.1306  0.2448
11448SOL    HW235786   3.392   7.727   4.968  1.4283 -2.2564  1.1922
11449SOL     OW35787   4.091   6.847   6.792  0.2749 -0.5687  0.6430
11449SOL    HW135788   4.162   6.902   6.825 -0.1034 -0.2901  0.9916
11449SOL    HW235789   4.038   6.827   6.869 -0.9413  0.5491  0.1315
11450SOL     OW35790   1.783   7.650   4.223 -0.0191  0.4312 -0.5103
11450SOL    HW135791   1.692   7.622   4.237 -0.6273  3.0255  1.4382
11450SOL    HW235792   1.776   7.719   4.157  0.8209 -0.5283 -1.6497
11451SOL     OW35793   2.231   6.957   3.428  0.1267 -0.0527  0.6697
11451SOL    HW135794   2.310   6.981   3.380 -0.5312  0.5000 -0.1672
11451SOL    HW235795   2.160   6.973   3.366 -0.6276 -0.7062  1.3510
11452SOL     OW35796   2.230   7.437   4.295  0.4298  0.1319  0.4580
11452SOL    HW135797   2.236   7.415   4.202  1.2517  0.8300  0.3351
11452SOL    HW235798   2.136   7.442   4.313  0.2398  1.7458 -0.7802
11453SOL     OW35799   2.969   7.581   6.258  0.0703  0.0446  0.1832
11453SOL    HW135800   2.995   7.510   6.317 -1.7901  0.3792  1.4574
11453SOL    HW235801   2.950   7.655   6.315 -0.8454  0.6821 -0.8994
11454SOL     OW35802   4.264   6.101   6.019  0.1509 -0.4869 -0.4699
11454SOL    HW135803   4.230   6.013   6.001  1.7381 -1.1990 -0.1853
11454SOL    HW235804   4.277   6.103   6.113  2.4128 -0.9104 -0.6917
11455SOL     OW35805   1.519   7.130   4.907  0.3185 -0.4171  0.5183
11455SOL    HW135806   1.539   7.200   4.845 -0.3826  0.8133  1.6346
11455SOL    HW235807   1.604   7.094   4.932  0.7887  0.9484  0.9391
11456SOL     OW35808   4.890   0.781   4.512 -0.5829 -0.4752  0.5078
11456SOL    HW135809   4.895   0.731   4.431  1.4111  1.4385 -0.6792
11456SOL    HW235810   4.874   0.716   4.580 -0.4908 -2.3890 -1.1957
11457SOL     OW35811   4.945   0.447   4.450  0.4908  0.2767 -0.2272
11457SOL    HW135812   4.876   0.476   4.390  1.2391  1.7178 -0.4512
11457SOL    HW235813   4.912   0.467   4.537  0.2177  0.0118 -0.2670
11458SOL     OW35814   4.050   6.661   4.446 -0.0686  0.0050 -0.1617
11458SOL    HW135815   4.101   6.741   4.436  0.1828 -0.2721 -1.4004
11458SOL    HW235816   4.038   6.630   4.356 -0.6122 -1.0613  0.2618
11459SOL     OW35817   3.929   6.943   3.394  0.3075 -0.2232 -0.3963
11459SOL    HW135818   3.910   6.861   3.439  0.8642 -0.5961 -0.8320
11459SOL    HW235819   3.847   6.992   3.397 -0.1172 -0.9323 -0.4316
11460SOL     OW35820   1.724   0.214   4.046  0.1540  0.1426 -0.8510
11460SOL    HW135821   1.793   0.192   3.983 -0.4176 -3.1808 -0.5087
11460SOL    HW235822   1.746   0.163   4.124 -0.8610  1.7350  0.5690
11461SOL     OW35823   3.090   7.842   6.278  0.2432 -0.4330  0.2204
11461SOL    HW135824   3.074   7.906   6.208  0.8067  1.3515  1.6589
11461SOL    HW235825   3.026   7.864   6.346 -0.8219 -2.6425  0.0033
11462SOL     OW35826   1.201   6.570   3.655 -0.0277 -0.4657  0.0606
11462SOL    HW135827   1.262   6.609   3.717  1.1514  0.3026 -1.4992
11462SOL    HW235828   1.169   6.644   3.603  0.1405 -1.2376 -1.1798
11463SOL     OW35829   2.320   7.193   4.924  0.5192 -0.1694  0.1576
11463SOL    HW135830   2.375   7.116   4.935  0.8730 -0.0829 -0.9226
11463SOL    HW235831   2.309   7.202   4.830  0.5268  1.1320  0.2582
11464SOL     OW35832   4.249   7.923   4.873  0.6283 -0.0623  0.1300
11464SOL    HW135833   4.337   7.921   4.837  0.2400 -0.7490 -0.8337
11464SOL    HW235834   4.249   7.854   4.939  0.7172 -0.3146 -0.1287
11465SOL     OW35835   2.246   7.275   5.220  0.0963  0.3412  0.2372
11465SOL    HW135836   2.188   7.289   5.295  0.1402 -0.7225  0.4845
11465SOL    HW235837   2.332   7.256   5.259 -0.0035 -0.7760 -0.0452
11466SOL     OW35838   4.861   1.422   4.098  0.3852  0.1412 -0.3239
11466SOL    HW135839   4.774   1.383   4.089  1.2976 -1.6491 -2.3083
11466SOL    HW235840   4.848   1.515   4.079 -0.8730 -0.3884 -2.3330
11467SOL     OW35841   4.387   5.584   4.547  0.0349 -0.5927  0.2945
11467SOL    HW135842   4.453   5.534   4.501 -0.3444 -0.4745 -0.3896
11467SOL    HW235843   4.360   5.527   4.619  1.1458 -0.4820  0.8221
11468SOL     OW35844   1.806   0.975   5.316 -0.5136 -0.4409 -0.4615
11468SOL    HW135845   1.743   0.907   5.339 -1.5645  0.6123 -0.1244
11468SOL    HW235846   1.853   0.993   5.398  1.5987 -2.5253 -1.1090
11469SOL     OW35847   2.919   7.259   4.773 -0.3678  0.4941  0.2057
11469SOL    HW135848   2.901   7.348   4.742 -1.3416  0.4491  0.6247
11469SOL    HW235849   2.848   7.206   4.738 -1.1550  0.3245  1.9520
11470SOL     OW35850   3.919   7.800   4.823  0.2471  0.3799 -0.0953
11470SOL    HW135851   4.005   7.826   4.789  0.1775  0.8896  0.1075
11470SOL    HW235852   3.857   7.856   4.778  0.1568  1.0947  0.8674
11471SOL     OW35853   1.688   0.383   6.488  0.1003  0.4540  0.7154
11471SOL    HW135854   1.683   0.479   6.481 -0.0948  0.3838 -0.2190
11471SOL    HW235855   1.782   0.364   6.487  0.1207  0.5560 -0.4664
11472SOL     OW35856   1.676   7.867   4.693 -0.4856 -0.1617  0.3468
11472SOL    HW135857   1.611   7.915   4.743  0.9154  2.5367 -0.2521
11472SOL    HW235858   1.626   7.812   4.633 -2.1774  0.7468  0.8920
11473SOL     OW35859   3.225   7.984   7.327  0.3974 -0.7048  0.4566
11473SOL    HW135860   3.251   7.971   7.418  2.1973  0.3063  0.1418
11473SOL    HW235861   3.131   7.966   7.326  0.5640 -1.9293  2.2485
11474SOL     OW35862   1.901   0.837   3.426  0.1652  0.5434  0.4010
11474SOL    HW135863   1.853   0.770   3.378 -0.8186 -0.4123  2.5667
11474SOL    HW235864   1.966   0.870   3.364 -0.9644 -0.6454 -1.5033
11475SOL     OW35865   4.475   0.883   5.540 -0.3432  0.4355 -0.1429
11475SOL    HW135866   4.399   0.840   5.502 -0.9286  0.6691  0.7363
11475SOL    HW235867   4.442   0.924   5.621  0.7852  0.2303  0.4403
11476SOL     OW35868   5.449   6.559   4.254  0.0370  0.2446 -0.5200
11476SOL    HW135869   5.494   6.501   4.193  1.1835  1.0899 -0.5109
11476SOL    HW235870   5.515   6.624   4.279 -0.8983  0.9152  0.3065
11477SOL     OW35871   2.676   7.703   4.464 -0.4872  0.1867 -0.2077
11477SOL    HW135872   2.594   7.657   4.483 -0.9704  0.7266 -0.9416
11477SOL    HW235873   2.666   7.734   4.374  0.6314  0.0468 -0.3843
11478SOL     OW35874   1.683   6.076   4.431 -0.1349  0.3488  0.2616
11478SOL    HW135875   1.776   6.086   4.451  0.0338  0.2071 -0.4261
11478SOL    HW235876   1.669   5.982   4.429 -0.0148  0.3494 -0.8589
11479SOL     OW35877   2.684   7.410   4.685 -0.0138  0.3822 -0.0786
11479SOL    HW135878   2.704   7.403   4.778  0.8423 -0.2420 -0.2928
11479SOL    HW235879   2.594   7.442   4.682 -0.1167  0.2362  0.9622
11480SOL     OW35880   3.363   6.786   4.659 -0.1326 -0.4834 -0.0581
11480SOL    HW135881   3.359   6.694   4.636  2.1100 -0.8831  0.8219
11480SOL    HW235882   3.449   6.796   4.700 -0.5894  1.8642  0.4655
11481SOL     OW35883   4.510   6.418   5.713 -0.3466 -0.0140  0.3457
11481SOL    HW135884   4.495   6.329   5.683  0.0088 -0.0085  0.1400
11481SOL    HW235885   4.459   6.473   5.653 -0.9514 -0.1065  0.7700
11482SOL     OW35886   3.489   6.369   4.402 -0.1730 -0.6041 -0.7405
11482SOL    HW135887   3.572   6.328   4.376  0.2431 -1.1274  1.2318
11482SOL    HW235888   3.428   6.296   4.409 -0.2203 -0.5034 -0.0876
11483SOL     OW35889   1.871   5.368   3.928 -0.2599 -0.4935  0.3093
11483SOL    HW135890   1.799   5.308   3.908  0.4968 -1.3491  0.1010
11483SOL    HW235891   1.831   5.455   3.924 -1.0820 -0.8931 -0.7100
11484SOL     OW35892   2.964   7.158   6.375 -0.1622  0.3262 -0.7568
11484SOL    HW135893   2.944   7.246   6.409 -0.4561  0.1578 -0.4869
11484SOL    HW235894   3.029   7.124   6.436 -0.5896  0.0753 -0.4400
11485SOL     OW35895   2.549   7.877   6.877 -0.4475  0.5801  0.2161
11485SOL    HW135896   2.564   7.907   6.966  1.6436 -1.0624  0.4790
11485SOL    HW235897   2.593   7.943   6.822 -1.9986  1.7604  0.3031
11486SOL     OW35898   3.147   0.354   5.672  0.1323  0.1151  0.1090
11486SOL    HW135899   3.188   0.297   5.607 -0.0188 -0.0389  0.1495
11486SOL    HW235900   3.055   0.359   5.646  0.2969  0.9702 -0.3503
11487SOL     OW35901   0.260   7.695   3.765 -0.5983  0.3199 -0.3466
11487SOL    HW135902   0.258   7.785   3.734  0.2784  0.0566 -1.2308
11487SOL    HW235903   0.263   7.643   3.684 -1.4176 -0.5183  0.1427
11488SOL     OW35904   3.282   6.731   4.137  0.5336  0.0062  1.0156
11488SOL    HW135905   3.269   6.650   4.186  0.2801 -0.7599 -0.2728
11488SOL    HW235906   3.233   6.719   4.056 -0.5912  1.9849  1.3216
11489SOL     OW35907   2.092   7.241   5.467 -0.1084 -0.0649  0.1367
11489SOL    HW135908   2.120   7.166   5.520  0.1925 -1.1962 -1.5370
11489SOL    HW235909   1.997   7.243   5.476 -0.1643 -0.9553 -0.1522
11490SOL     OW35910   5.149   6.970   4.245  0.1561 -0.4290  0.1658
11490SOL    HW135911   5.241   6.963   4.219  0.5318 -1.4427  1.6813
11490SOL    HW235912   5.102   6.923   4.175  1.0882 -2.5332  0.8530
11491SOL     OW35913   4.510   5.222   4.655 -0.0466 -0.0622  0.0517
11491SOL    HW135914   4.564   5.185   4.725 -0.6627  0.4122  0.8045
11491SOL    HW235915   4.569   5.278   4.605  0.2801  0.0192  0.5276
11492SOL     OW35916   3.406   6.524   4.629 -0.2057 -0.0725 -0.1646
11492SOL    HW135917   3.454   6.512   4.711  1.4293  3.8527 -0.3533
11492SOL    HW235918   3.462   6.485   4.562 -1.0885 -2.3907  0.3188
11493SOL     OW35919   2.472   6.936   4.093  0.5150 -0.1920 -0.3212
11493SOL    HW135920   2.435   6.997   4.156  0.1499 -0.7663  0.0355
11493SOL    HW235921   2.396   6.894   4.052  0.7403 -1.5877  0.6192
11494SOL     OW35922   2.757   7.973   4.508  0.4801 -0.6822 -0.5153
11494SOL    HW135923   2.828   7.981   4.573  0.3518  0.0764 -0.4583
11494SOL    HW235924   2.732   7.881   4.511  1.5285 -0.9811 -0.5954
11495SOL     OW35925   1.101   7.701   5.587 -0.0872 -0.0742 -0.2527
11495SOL    HW135926   1.027   7.643   5.602  0.2016  0.1035  2.2731
11495SOL    HW235927   1.125   7.686   5.495 -3.5177  0.2670 -1.3247
11496SOL     OW35928   1.958   0.543   5.395  0.1498 -0.0932  0.7566
11496SOL    HW135929   1.929   0.632   5.417  1.5571  0.2562  1.3298
11496SOL    HW235930   2.003   0.552   5.311 -0.7547 -0.4957  0.2209
11497SOL     OW35931   2.830   5.605   8.000 -0.3004 -0.1710 -0.0699
11497SOL    HW135932   2.914   5.625   7.958 -1.6597  1.9141 -2.0981
11497SOL    HW235933   2.819   5.675   8.065  0.9657 -2.3719  2.7076
11498SOL     OW35934   3.253   0.369   6.947 -0.4339  0.0667  0.1514
11498SOL    HW135935   3.237   0.295   7.004  0.6640 -0.0766  0.2820
11498SOL    HW235936   3.241   0.446   7.003  1.7573 -0.0876  0.9142
11499SOL     OW35937   0.428   6.763   7.102 -0.3093  0.0681  0.2357
11499SOL    HW135938   0.479   6.795   7.176 -1.2725  0.8130  0.6095
11499SOL    HW235939   0.376   6.691   7.139  1.1481 -1.3352 -0.3743
11500SOL     OW35940   4.535   5.801   6.659 -0.4718 -0.6370 -0.6844
11500SOL    HW135941   4.447   5.797   6.621  0.0529  0.5985 -2.1587
11500SOL    HW235942   4.590   5.835   6.588  1.1891 -1.2764  0.2283
11501SOL     OW35943   3.082   0.374  10.167 -0.0718  0.1458 -0.7475
11501SOL    HW135944   3.066   0.429  10.090 -0.1645  0.7399 -0.3105
11501SOL    HW235945   3.033   0.294  10.150  0.6605 -0.1120 -1.7309
11502SOL     OW35946   3.783   7.867   7.002 -0.5280  0.0707  0.4716
11502SOL    HW135947   3.793   7.818   7.083  0.6931 -0.8321 -0.1915
11502SOL    HW235948   3.777   7.799   6.934 -0.5932  0.8181 -0.2816
11503SOL     OW35949   4.102   6.859   7.230  0.6026  0.1244 -0.2701
11503SOL    HW135950   4.110   6.806   7.309 -0.4600 -1.5666 -1.2452
11503SOL    HW235951   4.040   6.928   7.254 -0.1774 -0.7178  0.2164
11504SOL     OW35952   3.047   0.667   5.642 -0.0226 -0.1615 -0.1531
11504SOL    HW135953   3.101   0.699   5.714  0.4473  2.3825 -1.5151
11504SOL    HW235954   3.099   0.596   5.603  0.0119 -1.1196  1.5196
11505SOL     OW35955   3.162   7.621   7.042 -0.3141  0.1721 -0.1694
11505SOL    HW135956   3.157   7.561   6.968 -1.3633  1.3739 -1.1101
11505SOL    HW235957   3.255   7.623   7.065 -0.3566 -2.7370  0.7255
11506SOL     OW35958   2.931   7.965   5.428 -0.1650  0.0396  0.4150
11506SOL    HW135959   2.876   8.037   5.459  0.4889  0.0574  1.5664
11506SOL    HW235960   2.932   7.976   5.333 -0.3492  1.3526  0.5448
11507SOL     OW35961   4.673   7.344   9.175  0.5405  0.3316  0.1989
11507SOL    HW135962   4.619   7.414   9.212 -0.7130  0.4376 -1.6976
11507SOL    HW235963   4.627   7.263   9.199  0.3105  0.3463 -0.1742
11508SOL     OW35964   4.255   6.744   6.602  0.5735 -0.5235 -0.1436
11508SOL    HW135965   4.176   6.782   6.641  0.5783 -0.9626  0.2933
11508SOL    HW235966   4.223   6.701   6.522  0.3651 -0.7308  0.0506
11509SOL     OW35967   2.153   7.295   7.970  0.0715  0.1791 -0.7875
11509SOL    HW135968   2.177   7.204   7.986 -0.7392  0.3679  1.9909
11509SOL    HW235969   2.069   7.307   8.015  0.9591  2.6966  0.3948
11510SOL     OW35970   3.865   7.752   5.669 -0.0444  0.7830 -0.1558
11510SOL    HW135971   3.831   7.680   5.722 -0.7383  2.0905  1.2524
11510SOL    HW235972   3.797   7.767   5.603  0.3649 -0.1984 -0.8169
11511SOL     OW35973   3.047   7.144   6.114  0.4276 -0.1356 -0.0528
11511SOL    HW135974   3.137   7.173   6.122  0.1732  0.5393  0.4240
11511SOL    HW235975   3.019   7.126   6.204  0.2582 -0.8900 -0.2436
11512SOL     OW35976   3.918   5.822   6.357  0.4857 -0.7465  0.4700
11512SOL    HW135977   3.942   5.730   6.371  0.8417 -0.4251  2.1622
11512SOL    HW235978   3.974   5.871   6.417 -0.6847  0.4595  0.6182
11513SOL     OW35979   4.311   6.109   6.513  0.4210 -0.1882 -0.2610
11513SOL    HW135980   4.325   6.194   6.471  1.0254  0.0081  0.3082
11513SOL    HW235981   4.258   6.129   6.590 -2.7877 -0.8616 -2.1116
11514SOL     OW35982   3.446   5.861   6.697  0.0131 -0.0510 -0.3771
11514SOL    HW135983   3.422   5.770   6.711 -0.3699  0.2580  1.1992
11514SOL    HW235984   3.370   5.911   6.727  0.4585  0.8034 -0.6345
11515SOL     OW35985   2.306   6.782   7.656 -0.1150  0.5288 -0.4896
11515SOL    HW135986   2.328   6.835   7.732  0.8852 -0.2599 -0.2107
11515SOL    HW235987   2.257   6.841   7.599 -1.1115  1.0596  0.8655
11516SOL     OW35988   3.547   0.328   5.418  0.1738 -0.1246  0.3625
11516SOL    HW135989   3.642   0.316   5.413  0.2490 -0.1938  1.5969
11516SOL    HW235990   3.535   0.397   5.484 -0.5473  1.5949 -1.4818
11517SOL     OW35991   1.407   5.095   7.026  0.0981 -0.7863  0.2953
11517SOL    HW135992   1.437   5.041   7.099 -0.2065 -0.8260  0.3930
11517SOL    HW235993   1.419   5.185   7.056 -1.5770 -0.7812  1.0661
11518SOL     OW35994   3.475   6.976   5.579  0.2164  0.1274 -0.1138
11518SOL    HW135995   3.479   7.025   5.662 -0.0973 -1.0527  0.6204
11518SOL    HW235996   3.566   6.956   5.559  0.1914 -2.2209  1.6156
11519SOL     OW35997   1.474   5.111   7.609  0.0502 -0.2472  0.2949
11519SOL    HW135998   1.522   5.073   7.683  0.4933 -0.8474 -0.2939
11519SOL    HW235999   1.529   5.096   7.533 -0.2343  0.7012 -0.1170
11520SOL     OW36000   2.495   0.288   7.556 -0.0152  0.0976  0.5804
11520SOL    HW136001   2.578   0.240   7.555 -0.9623 -1.6060  0.3531
11520SOL    HW236002   2.436   0.235   7.502 -1.4222  0.9663  1.2089
11521SOL     OW36003   3.751   0.078   5.499  0.6993 -0.1919 -0.8562
11521SOL    HW136004   3.747   0.030   5.416 -1.0115 -0.4010 -0.6851
11521SOL    HW236005   3.661   0.078   5.531  1.4180 -0.6542  1.3223
11522SOL     OW36006   0.727   6.698   6.796 -0.0052  0.2526 -0.1080
11522SOL    HW136007   0.636   6.677   6.813  0.2059 -1.4029 -0.8343
11522SOL    HW236008   0.750   6.764   6.862 -1.5339  0.2383  0.4619
11523SOL     OW36009   2.609   6.602   6.768 -0.5534  0.4735  0.1396
11523SOL    HW136010   2.637   6.671   6.828 -0.8296  1.1620 -0.5215
11523SOL    HW236011   2.688   6.577   6.721 -0.5117  0.5313  0.1798
11524SOL     OW36012   3.768   7.642   4.990 -0.0647  0.3215 -0.1079
11524SOL    HW136013   3.753   7.558   4.946  0.3397  0.1633  0.0524
11524SOL    HW236014   3.811   7.696   4.923 -2.1804  1.1212 -0.9093
11525SOL     OW36015   5.236   7.002   7.409  0.6002 -1.0284  0.3138
11525SOL    HW136016   5.315   7.055   7.413  0.2795 -0.5393  0.2929
11525SOL    HW236017   5.250   6.932   7.474  0.9844 -0.8596  0.4119
11526SOL     OW36018   3.663   7.899   8.264 -0.0929  0.1286  0.1826
11526SOL    HW136019   3.698   7.986   8.245  0.1073 -0.0509 -0.3016
11526SOL    HW236020   3.646   7.899   8.358  0.2793  0.5553  0.2508
11527SOL     OW36021   4.686   6.516   8.918  0.5100 -0.0075  0.2983
11527SOL    HW136022   4.649   6.527   9.005  0.5333 -0.9066  0.4287
11527SOL    HW236023   4.617   6.473   8.868  0.2647  1.0541 -0.3123
11528SOL     OW36024   4.424   7.535   8.828 -0.4392 -0.0308  0.2129
11528SOL    HW136025   4.393   7.445   8.838  1.7795 -1.0384 -1.2593
11528SOL    HW236026   4.403   7.559   8.738  0.4882  0.2924  0.0714
11529SOL     OW36027   3.822   0.255   5.842  0.2780  0.4130  0.1514
11529SOL    HW136028   3.858   0.338   5.813 -1.7669  0.6303 -2.1019
11529SOL    HW236029   3.728   0.264   5.828  0.0062 -2.3163 -0.3012
11530SOL     OW36030   1.565   7.025   8.933  0.3329  0.3912 -0.3406
11530SOL    HW136031   1.551   6.972   8.855 -0.2736  1.4482 -0.9740
11530SOL    HW236032   1.584   7.113   8.900 -1.2373  1.1658  0.6861
11531SOL     OW36033   2.329   0.999   5.006  0.1426  0.6488 -0.0750
11531SOL    HW136034   2.376   0.916   4.998  0.1479  0.7244 -1.0180
11531SOL    HW236035   2.393   1.066   4.982 -0.5317  0.7198 -1.8522
11532SOL     OW36036   4.526   6.143   6.240 -0.8411  0.0829  0.4823
11532SOL    HW136037   4.453   6.081   6.239 -0.3118 -0.5487 -0.2878
11532SOL    HW236038   4.598   6.095   6.280 -0.5445  0.3454  0.2691
11533SOL     OW36039   3.072   7.921   5.822  0.3965 -0.5741 -0.0543
11533SOL    HW136040   2.995   7.896   5.874 -0.0921  1.2466  0.1763
11533SOL    HW236041   3.055   7.885   5.735  0.8335 -2.9607  0.7765
11534SOL     OW36042   1.852   0.099   6.802  0.5031  0.3885 -0.6662
11534SOL    HW136043   1.878   0.096   6.710 -1.5559  2.0296 -1.3763
11534SOL    HW236044   1.932   0.076   6.850  1.3559 -1.6096 -2.8452
11535SOL     OW36045   3.817   7.325   6.413 -0.0228  0.2066  0.0768
11535SOL    HW136046   3.857   7.238   6.412 -0.8751 -0.1994 -1.3234
11535SOL    HW236047   3.890   7.385   6.395 -0.0197 -0.5456 -2.8304
11536SOL     OW36048   2.950   0.484   7.093 -0.1789 -0.2507 -0.0141
11536SOL    HW136049   2.944   0.417   7.161 -0.5014 -2.9744 -2.5341
11536SOL    HW236050   3.033   0.528   7.109 -0.7697  0.0535  2.7554
11537SOL     OW36051   2.305   6.697   6.085 -0.1333 -0.0090  0.0195
11537SOL    HW136052   2.382   6.698   6.029 -0.2150 -2.5738 -0.2566
11537SOL    HW236053   2.328   6.755   6.158  1.5713  0.2023 -0.6435
11538SOL     OW36054   2.437   0.478   5.150  0.3546  0.4074 -0.5510
11538SOL    HW136055   2.366   0.530   5.112  0.1766 -1.2358 -2.6403
11538SOL    HW236056   2.395   0.396   5.178  1.1336  0.1337 -0.1455
11539SOL     OW36057   2.602   1.979   6.345 -0.3350 -0.0980 -0.6151
11539SOL    HW136058   2.634   2.006   6.259  2.4160  2.1911  0.9272
11539SOL    HW236059   2.550   2.053   6.377  0.4675  0.0292  0.4842
11540SOL     OW36060   2.682   6.504   7.319 -0.5506  0.1662  0.3992
11540SOL    HW136061   2.705   6.589   7.356  0.7520  0.2721 -0.5928
11540SOL    HW236062   2.654   6.523   7.229 -0.0482 -0.4544  0.0982
11541SOL     OW36063   2.851   0.496   6.793  0.1081  0.0441  0.1539
11541SOL    HW136064   2.858   0.472   6.886  0.2668 -4.9485 -0.8796
11541SOL    HW236065   2.937   0.475   6.756 -0.2995  0.8758 -1.3544
11542SOL     OW36066   5.717   7.800   7.602  0.6210  0.1891 -0.4368
11542SOL    HW136067   5.691   7.736   7.668 -1.8419  0.6610 -0.8616
11542SOL    HW236068   5.721   7.750   7.521  2.0507 -0.0566 -0.2472
11543SOL     OW36069   2.749   7.430   6.227 -0.1660  0.5863  0.2827
11543SOL    HW136070   2.767   7.425   6.321  0.5939  1.3900  0.1918
11543SOL    HW236071   2.836   7.424   6.186 -0.4765  0.4144 -0.3608
11544SOL     OW36072   3.323   7.461   6.815 -0.2616  0.2994 -0.2412
11544SOL    HW136073   3.236   7.473   6.777 -0.1751 -1.4154 -1.0469
11544SOL    HW236074   3.342   7.368   6.806  2.7314  0.9570 -2.4541
11545SOL     OW36075   4.317   1.691   6.728 -0.0395  0.4042 -0.5722
11545SOL    HW136076   4.272   1.766   6.765 -0.6228 -0.6773  1.0361
11545SOL    HW236077   4.247   1.629   6.707  0.5516 -1.7263  2.8996
11546SOL     OW36078   2.782   7.836   7.555 -0.4942  0.6735  0.0061
11546SOL    HW136079   2.714   7.773   7.579 -0.5137  0.6556 -0.0975
11546SOL    HW236080   2.855   7.783   7.526 -0.3973  0.6900  0.2179
11547SOL     OW36081   1.674   5.959   5.968  0.1879  0.2693 -0.0280
11547SOL    HW136082   1.645   5.873   5.936  2.0594 -0.4254  0.0322
11547SOL    HW236083   1.761   5.943   6.005  0.0008  1.9398  1.2660
11548SOL     OW36084   0.553   7.199   6.015  0.2554  0.5950  0.2995
11548SOL    HW136085   0.468   7.243   6.014  0.6064  1.2729 -0.6364
11548SOL    HW236086   0.610   7.255   5.963  1.1371 -0.1450  0.4418
11549SOL     OW36087   3.186   0.203   7.650 -0.4141 -0.3485 -0.1411
11549SOL    HW136088   3.163   0.112   7.667 -1.0695 -0.4855 -1.5681
11549SOL    HW236089   3.276   0.212   7.681  0.2642 -1.9628 -1.4794
11550SOL     OW36090   4.263   6.704   6.312 -0.1430  0.2946  0.0908
11550SOL    HW136091   4.214   6.709   6.230 -2.5529 -2.2958  1.1964
11550SOL    HW236092   4.269   6.794   6.343  1.0687  1.3868 -2.9377
11551SOL     OW36093   3.607   6.456   7.629 -0.3038  0.0795  0.1151
11551SOL    HW136094   3.601   6.538   7.582  1.0930  0.4453  0.5152
11551SOL    HW236095   3.664   6.401   7.576 -2.4330 -1.2588 -0.9423
11552SOL     OW36096   2.778   0.985   7.663  0.0689  0.2430  0.4822
11552SOL    HW136097   2.823   1.058   7.620  0.5783  0.5466  1.4914
11552SOL    HW236098   2.748   0.930   7.591  1.3493  0.4611 -0.2633
11553SOL     OW36099   5.518   0.650   7.367  0.1376 -0.2173  0.0666
11553SOL    HW136100   5.589   0.589   7.346  0.3556  0.5930 -1.8158
11553SOL    HW236101   5.444   0.594   7.388  0.8579 -1.0938  0.3419
11554SOL     OW36102   3.779   0.449   6.639  0.6968  0.5017 -0.3143
11554SOL    HW136103   3.853   0.417   6.691  0.7531  0.4114 -0.4475
11554SOL    HW236104   3.731   0.506   6.698 -0.0454 -0.7216  0.2864
11555SOL     OW36105   2.716   0.115   6.807  0.0317 -0.0082  0.0418
11555SOL    HW136106   2.715   0.178   6.735  0.3568  0.6466  0.6058
11555SOL    HW236107   2.702   0.168   6.886 -1.6205 -0.8480  0.3717
11556SOL     OW36108   4.142   6.655   8.822 -0.1439  0.0053  0.0559
11556SOL    HW136109   4.105   6.575   8.783  0.3895 -0.6136  0.7999
11556SOL    HW236110   4.196   6.624   8.894 -0.0159  1.0573  0.4263
11557SOL     OW36111   3.554   7.376   5.974 -0.1096 -0.6253 -0.2812
11557SOL    HW136112   3.638   7.358   6.016  0.1116 -0.2376 -0.5464
11557SOL    HW236113   3.531   7.464   6.004  0.6874  0.1928 -1.9717
11558SOL     OW36114   3.152   7.540   7.432  0.3562 -0.4606 -0.6422
11558SOL    HW136115   3.125   7.543   7.524  0.2092  2.3164 -0.6791
11558SOL    HW236116   3.069   7.542   7.384  0.1817  4.9313 -0.7288
11559SOL     OW36117   1.756   0.572   5.941 -0.1178  0.3171 -0.2014
11559SOL    HW136118   1.708   0.489   5.930  0.2914 -0.3757  2.5639
11559SOL    HW236119   1.687   0.638   5.952 -0.4474 -0.1155  0.3526
11560SOL     OW36120   2.453   7.554   9.790  0.2788 -0.0629  0.3713
11560SOL    HW136121   2.437   7.647   9.778 -0.8986 -0.0764  1.5800
11560SOL    HW236122   2.497   7.548   9.874  2.3072 -0.4588 -0.6590
11561SOL     OW36123   1.693   6.344   8.761 -0.0420 -0.0379  0.0116
11561SOL    HW136124   1.751   6.370   8.833 -1.8661  0.1635  1.4843
11561SOL    HW236125   1.610   6.387   8.780 -1.0572 -1.2820 -1.3618
11562SOL     OW36126   3.702   1.772   8.456 -0.4409 -0.1585 -0.3661
11562SOL    HW136127   3.648   1.805   8.384 -2.4826 -1.6110  0.4141
11562SOL    HW236128   3.688   1.834   8.527  0.7966  0.7334 -0.8731
11563SOL     OW36129   3.046   7.097  10.131  0.3333  0.3950 -0.3416
11563SOL    HW136130   3.023   7.017  10.178  1.1967 -0.1275 -0.7665
11563SOL    HW236131   2.968   7.152  10.136 -0.3420 -0.5491 -0.1974
11564SOL     OW36132   2.480   0.480   9.158  0.3967 -0.2641  0.2540
11564SOL    HW136133   2.430   0.515   9.232 -0.5438 -0.3823 -0.2995
11564SOL    HW236134   2.419   0.421   9.114  0.3311  1.0615 -1.5615
11565SOL     OW36135   3.153   0.341   8.360  0.4930 -0.1674  0.3876
11565SOL    HW136136   3.099   0.330   8.282  1.3625 -0.9595 -0.1177
11565SOL    HW236137   3.119   0.421   8.401 -0.1689  0.0949 -0.6314
11566SOL     OW36138   4.196   7.369   9.644  0.9798  0.0215 -0.4155
11566SOL    HW136139   4.249   7.445   9.670 -0.2245  0.0841  2.2402
11566SOL    HW236140   4.189   7.317   9.724 -1.0435 -1.1303 -1.2692
11567SOL     OW36141   3.873   7.767   9.653  0.6678  0.5778 -0.0590
11567SOL    HW136142   3.855   7.842   9.596  1.1842  0.8522  0.1360
11567SOL    HW236143   3.816   7.697   9.619 -0.7777  1.4139  0.5468
11568SOL     OW36144   3.197   7.092   8.707  0.1615  0.1352 -0.1069
11568SOL    HW136145   3.171   7.172   8.661 -0.4258  0.5034  0.8298
11568SOL    HW236146   3.292   7.092   8.705  0.1678  0.9410  0.0191
11569SOL     OW36147   2.496   6.832   7.339  0.3921 -0.2033  0.1921
11569SOL    HW136148   2.501   6.738   7.353  2.0735 -0.3285 -0.9558
11569SOL    HW236149   2.402   6.852   7.340 -0.0049 -1.9517 -0.0649
11570SOL     OW36150   3.050   6.795   9.402 -0.7497 -0.5133 -0.4670
11570SOL    HW136151   3.062   6.720   9.462  1.0409 -1.0321 -1.3859
11570SOL    HW236152   3.021   6.866   9.459 -0.1864 -1.2844  0.8430
11571SOL     OW36153   3.650   0.259   8.745 -0.1391  0.1698 -0.9526
11571SOL    HW136154   3.637   0.272   8.651  1.3690  1.1315 -1.0558
11571SOL    HW236155   3.678   0.345   8.778 -2.5213  0.3919  0.7690
11572SOL     OW36156   2.582   6.930   9.274 -0.3313  0.3840 -0.1274
11572SOL    HW136157   2.563   7.001   9.212 -1.8785  1.4756  1.5000
11572SOL    HW236158   2.496   6.903   9.307  0.3229 -1.5144  0.1253
11573SOL     OW36159   2.489   7.903   8.687  0.2863  0.3258 -0.0026
11573SOL    HW136160   2.577   7.867   8.700  0.1862  0.1816  0.2914
11573SOL    HW236161   2.448   7.843   8.625  0.0569 -0.1831  0.6265
11574SOL     OW36162   2.954   6.987   9.593 -0.1022 -0.1153  0.0727
11574SOL    HW136163   2.966   7.051   9.663  1.6979  0.9334 -1.1126
11574SOL    HW236164   2.903   7.034   9.527 -1.0314 -0.8117  0.2705
11575SOL     OW36165   1.690   0.062  10.542  0.1523  0.6015  0.2710
11575SOL    HW136166   1.779   0.053  10.509 -0.2023  2.3124 -1.3257
11575SOL    HW236167   1.681   0.155  10.562 -1.4447  0.5659 -0.1417
11576SOL     OW36168   2.898   6.475   9.270 -0.4150 -0.2108  0.0535
11576SOL    HW136169   2.990   6.468   9.295 -0.4912 -1.9089 -0.0370
11576SOL    HW236170   2.885   6.568   9.254  1.5935 -0.0783 -1.1241
11577SOL     OW36171   4.324   6.810   7.938  0.2863 -0.2524  0.8898
11577SOL    HW136172   4.405   6.855   7.918 -0.6495  1.0341 -0.1120
11577SOL    HW236173   4.329   6.727   7.890 -0.6024  1.4642 -2.4218
11578SOL     OW36174   3.919   7.898   8.546  0.7697  0.2032  0.0891
11578SOL    HW136175   3.827   7.908   8.570  0.6445 -1.1423  0.2229
11578SOL    HW236176   3.944   7.984   8.512 -0.8104  0.3159 -0.9025
11579SOL     OW36177   4.367   6.563   8.661  0.4243 -0.4038 -0.3809
11579SOL    HW136178   4.289   6.525   8.622 -1.1108  1.5841  0.5654
11579SOL    HW236179   4.394   6.632   8.600  0.8210 -0.4011 -0.2072
11580SOL     OW36180   3.451   6.458   8.086  0.4102 -0.1788 -0.4366
11580SOL    HW136181   3.536   6.444   8.129  0.7365 -0.3126 -1.1117
11580SOL    HW236182   3.456   6.407   8.006 -0.0827  0.2896 -0.7710
11581SOL     OW36183   4.024   7.938   8.207  0.3300 -0.5294 -0.6863
11581SOL    HW136184   3.958   8.006   8.223  0.6933 -0.6144  1.4650
11581SOL    HW236185   4.107   7.979   8.234  0.7677 -1.3245 -0.8043
11582SOL     OW36186   2.840   0.723   8.276  0.1218  0.1674  0.0813
11582SOL    HW136187   2.912   0.776   8.309  0.7957 -0.6789 -0.0230
11582SOL    HW236188   2.825   0.657   8.343  0.5291 -0.6569 -0.6142
11583SOL     OW36189   3.661   6.877   6.521  0.2846 -0.1832  0.0351
11583SOL    HW136190   3.656   6.805   6.584  1.4414 -1.2528 -1.0346
11583SOL    HW236191   3.738   6.927   6.547 -1.1066  1.3444  1.4069
11584SOL     OW36192   3.700   6.546   7.894  0.7853  0.2617  0.1426
11584SOL    HW136193   3.642   6.526   7.820 -0.2348 -0.8734  1.1965
11584SOL    HW236194   3.656   6.617   7.940  0.3294 -0.4499  0.8195
11585SOL     OW36195   2.326   6.262   9.397 -0.0921 -0.4542 -0.2923
11585SOL    HW136196   2.295   6.218   9.318  1.2598 -2.4036  0.1678
11585SOL    HW236197   2.254   6.253   9.459 -1.6511  2.1591 -1.5718
11586SOL     OW36198   2.684   7.298   8.508  0.2951 -0.7105 -0.2197
11586SOL    HW136199   2.640   7.363   8.562  0.0268 -1.6323  0.6976
11586SOL    HW236200   2.643   7.306   8.422  2.3749  2.4667 -1.1070
11587SOL     OW36201   2.061   6.897   8.724  0.1391 -1.2332 -0.1405
11587SOL    HW136202   1.988   6.922   8.669  2.2290  0.8010 -2.2366
11587SOL    HW236203   2.102   6.824   8.678  0.5234 -1.1077 -0.0022
11588SOL     OW36204   3.420   7.444   7.700  0.2546  0.3268  0.2184
11588SOL    HW136205   3.331   7.474   7.718 -0.3021 -0.5752 -0.8926
11588SOL    HW236206   3.463   7.519   7.659 -0.6568  0.1115 -1.1783
11589SOL     OW36207   2.437   0.158   8.789 -0.1053  0.8685 -0.0430
11589SOL    HW136208   2.463   0.066   8.791 -0.7345  0.6452 -1.0978
11589SOL    HW236209   2.516   0.205   8.762  0.3738  0.7169  1.0552
11590SOL     OW36210   1.994   7.667   9.589  0.3368 -0.4455 -0.0660
11590SOL    HW136211   1.965   7.753   9.620  0.0835 -0.1043 -1.2286
11590SOL    HW236212   1.937   7.647   9.515  1.1767 -1.0723 -0.5622
11591SOL     OW36213   1.098   7.903   6.420  0.0392  0.2143 -0.0407
11591SOL    HW136214   1.099   7.962   6.345 -2.3239 -0.3963 -0.6367
11591SOL    HW236215   1.042   7.830   6.392  0.0414 -0.5874  1.9114
11592SOL     OW36216   2.656   0.611   9.001  0.2153  0.1625 -0.7587
11592SOL    HW136217   2.734   0.563   9.030 -0.3477 -0.4112 -0.1655
11592SOL    HW236218   2.582   0.559   9.034 -0.4380  0.1686 -2.1306
11593SOL     OW36219   3.810   0.126  11.455  0.3127 -0.0434  0.8574
11593SOL    HW136220   3.750   0.136  11.529 -1.3282  1.0880 -0.5497
11593SOL    HW236221   3.822   0.031  11.447 -1.1493 -0.2995  1.2981
11594SOL     OW36222   2.815   6.642   8.688  0.5861  0.1419 -0.5281
11594SOL    HW136223   2.879   6.631   8.759 -0.7157  1.0626  0.8726
11594SOL    HW236224   2.762   6.562   8.691  0.4784  0.2173 -0.3929
11595SOL     OW36225   2.713   7.970  10.460 -0.0050 -0.1591  0.0159
11595SOL    HW136226   2.622   7.967  10.432 -0.5293  0.8194  1.4873
11595SOL    HW236227   2.709   7.961  10.556  1.4741 -0.4752  0.0734
11596SOL     OW36228   2.080   6.868   6.848 -0.4077  0.2526  0.0049
11596SOL    HW136229   2.102   6.925   6.774  1.1156 -0.9108 -0.4946
11596SOL    HW236230   2.149   6.886   6.912  0.0707 -0.9663 -0.1449
11597SOL     OW36231   4.578   7.852   7.514  0.1024  0.0063  0.1449
11597SOL    HW136232   4.544   7.932   7.474 -1.4415 -0.8624 -0.3708
11597SOL    HW236233   4.624   7.807   7.443 -0.1500 -0.1814  0.1010
11598SOL     OW36234   3.918   7.590   9.361 -0.6502  0.2576  0.0954
11598SOL    HW136235   3.974   7.668   9.356  1.2358 -1.0065  0.4797
11598SOL    HW236236   3.936   7.553   9.447 -4.3879  1.3436  1.5674
11599SOL     OW36237   2.346   0.177   8.518  0.5794  0.1751  0.3367
11599SOL    HW136238   2.332   0.270   8.499  0.2469 -0.1094 -0.8545
11599SOL    HW236239   2.373   0.176   8.610 -0.5110  1.3535  0.6997
11600SOL     OW36240   2.152   0.352   9.463 -0.3371  0.1949  0.5625
11600SOL    HW136241   2.092   0.381   9.531 -2.8712  0.2048 -1.4935
11600SOL    HW236242   2.190   0.432   9.428 -1.7759  0.5536 -0.2996
11601SOL     OW36243   4.302   7.539   8.226 -0.6256 -0.3569 -0.2674
11601SOL    HW136244   4.226   7.487   8.199 -0.7336 -0.3542  0.0248
11601SOL    HW236245   4.266   7.600   8.290 -0.7642  0.9211 -1.4967
11602SOL     OW36246   2.825   5.432   7.226 -0.2611 -0.4617  0.4920
11602SOL    HW136247   2.882   5.460   7.155 -0.2330  1.5123  1.2281
11602SOL    HW236248   2.754   5.384   7.183  1.9770 -3.1904 -0.4190
11603SOL     OW36249   1.089   0.457   8.992  0.1528  0.5402 -0.5725
11603SOL    HW136250   1.130   0.518   9.053  0.4509  0.5348 -0.7643
11603SOL    HW236251   1.020   0.415   9.042  1.0498 -0.2027  0.0579
11604SOL     OW36252   3.183   6.933   9.979  0.0709 -0.1922 -0.2212
11604SOL    HW136253   3.232   6.985   9.915 -2.1125  0.8441 -1.1626
11604SOL    HW236254   3.137   6.997  10.033 -2.2721 -1.0192 -1.0635
11605SOL     OW36255   3.605   0.412   8.509 -0.0623 -0.0956  0.1364
11605SOL    HW136256   3.688   0.452   8.484  0.3922 -0.0531  1.6309
11605SOL    HW236257   3.542   0.484   8.508  0.0093 -0.0333 -0.5224
11606SOL     OW36258   4.438   0.298  11.535  0.7118 -0.4042  0.0654
11606SOL    HW136259   4.389   0.291  11.617 -0.6557 -2.7018 -0.8578
11606SOL    HW236260   4.524   0.329  11.562 -0.3994  1.2166  2.0700
11607SOL     OW36261   1.734   0.160   9.059 -0.1245  0.4912 -0.0553
11607SOL    HW136262   1.648   0.118   9.063  1.0004 -1.8515  1.5014
11607SOL    HW236263   1.785   0.107   8.998  1.4638 -0.8438  2.2758
11608SOL     OW36264   5.684   7.354   8.531  0.6527  0.1077 -0.7487
11608SOL    HW136265   5.706   7.420   8.596  1.0213 -0.6199 -0.1135
11608SOL    HW236266   5.686   7.271   8.580 -1.5645 -0.2060 -1.0957
11609SOL     OW36267   3.253   0.737   9.805 -0.3685 -0.3330  0.3258
11609SOL    HW136268   3.290   0.821   9.780  2.3079 -1.7423 -0.9333
11609SOL    HW236269   3.324   0.692   9.850 -1.4705 -2.1838  0.3176
11610SOL     OW36270   2.487   0.086   9.223  1.1438 -0.3637  0.1278
11610SOL    HW136271   2.401   0.107   9.186  1.8802 -0.3524 -1.7237
11610SOL    HW236272   2.544   0.080   9.146  3.0756  0.8708  1.4003
11611SOL     OW36273   3.484   7.080   7.957 -0.4882 -0.5496 -0.0568
11611SOL    HW136274   3.498   7.077   8.051 -2.6161 -0.1577  0.3066
11611SOL    HW236275   3.413   7.019   7.941 -0.6065 -0.1138 -1.3181
11612SOL     OW36276   3.625   7.225   8.875 -0.0357 -0.3850 -0.0222
11612SOL    HW136277   3.561   7.233   8.946 -0.4214  0.0374 -0.4122
11612SOL    HW236278   3.690   7.293   8.893  0.5621 -1.1006  0.6216
11613SOL     OW36279   2.502   0.320  10.143 -0.0438  0.3174 -0.3442
11613SOL    HW136280   2.544   0.376  10.077 -0.9893  1.3082 -0.1396
11613SOL    HW236281   2.509   0.370  10.225  0.7715 -0.7251  0.2491
11614SOL     OW36282   2.834   6.373   9.681  0.6043 -0.1302  0.5107
11614SOL    HW136283   2.859   6.333   9.598  2.1200  0.8989  0.4272
11614SOL    HW236284   2.866   6.312   9.748 -0.1640 -0.7062  0.3729
11615SOL     OW36285   1.671   7.223   7.005 -0.8590 -0.5197  0.1238
11615SOL    HW136286   1.664   7.282   6.930  0.6083 -0.4677 -0.0038
11615SOL    HW236287   1.716   7.274   7.073 -2.5791 -0.4162  1.2278
11616SOL     OW36288   4.022   1.122  10.050  0.0274  0.4579 -0.2309
11616SOL    HW136289   4.019   1.203  10.102  0.9773  1.9013 -2.2763
11616SOL    HW236290   3.931   1.106  10.026 -0.1477  1.0433  0.0236
11617SOL     OW36291   2.571   5.698   8.846 -0.1446  0.1468  0.1481
11617SOL    HW136292   2.640   5.637   8.874  0.3120 -0.2658 -1.7545
11617SOL    HW236293   2.497   5.642   8.823  0.0772  0.3150 -1.0522
11618SOL     OW36294   2.733   7.875   9.985 -0.0280 -0.1186  0.3913
11618SOL    HW136295   2.759   7.867  10.077  1.3951 -0.8461 -0.0579
11618SOL    HW236296   2.752   7.789   9.947  1.1083  0.7038 -0.9881
11619SOL     OW36297   2.518   7.418   9.558 -0.0490  0.1732 -0.3834
11619SOL    HW136298   2.481   7.450   9.640 -0.9762 -0.8860 -0.3549
11619SOL    HW236299   2.461   7.454   9.490  0.3034  0.4831 -0.5168
11620SOL     OW36300   5.220   4.617  10.560  0.2938  0.1114 -0.0934
11620SOL    HW136301   5.203   4.698  10.511 -0.7583 -0.6472 -1.0259
11620SOL    HW236302   5.190   4.636  10.649  1.6408  1.2933  0.1435
11621SOL     OW36303   4.888   0.003   7.457 -0.7434  0.1246  0.4234
11621SOL    HW136304   4.956  -0.063   7.445 -0.6156  0.3635 -0.2064
11621SOL    HW236305   4.837   0.000   7.375 -2.2860 -0.9463  1.3773
11622SOL     OW36306   4.736   7.875   7.009  0.5020  0.6403 -0.4268
11622SOL    HW136307   4.641   7.879   7.018  0.5440 -0.0386  0.5399
11622SOL    HW236308   4.752   7.787   6.973  0.8586 -0.1449  1.5181
11623SOL     OW36309   0.915   7.891  10.430 -0.0856 -0.0627 -0.2687
11623SOL    HW136310   0.977   7.929  10.492 -0.8119  0.0290  0.4160
11623SOL    HW236311   0.970   7.847  10.364  0.7405  1.1353 -0.4140
11624SOL     OW36312   3.978   6.998   7.532 -0.2893 -0.4813  0.5486
11624SOL    HW136313   3.926   7.070   7.498 -0.5532 -1.5531 -1.5473
11624SOL    HW236314   3.914   6.936   7.567 -0.0761  0.1639  2.1733
11625SOL     OW36315   2.847   7.590   9.437 -0.4091 -0.6718 -0.2467
11625SOL    HW136316   2.880   7.550   9.517  0.4800 -0.9838 -0.7540
11625SOL    HW236317   2.925   7.610   9.386 -0.8466  1.2761 -0.2247
11626SOL     OW36318   3.987   0.009  10.993 -0.3544  0.2840 -0.1667
11626SOL    HW136319   3.899   0.044  10.983 -0.7441 -0.1082  1.5846
11626SOL    HW236320   4.018   0.043  11.076  0.2693 -1.3634  0.3273
11627SOL     OW36321   0.468   0.084  10.526 -0.2668 -0.0855  0.2289
11627SOL    HW136322   0.509   0.038  10.600 -1.5819 -1.9348 -0.1222
11627SOL    HW236323   0.467   0.019  10.456  0.8349  1.5938 -1.4135
11628SOL     OW36324   4.009   0.140   8.439 -0.9070  0.4534  0.7098
11628SOL    HW136325   4.100   0.111   8.443 -1.7083 -2.3135  1.3783
11628SOL    HW236326   4.014   0.232   8.412  1.9884 -0.0216 -0.8109
11629SOL     OW36327   1.407   6.695  10.619 -0.5041  0.7856  0.2785
11629SOL    HW136328   1.396   6.666  10.528  0.5974 -1.1262  0.7169
11629SOL    HW236329   1.330   6.750  10.635 -3.4897 -2.8071 -0.3054
11630SOL     OW36330   4.729   7.623  10.008  0.5870  0.4296 -0.1454
11630SOL    HW136331   4.771   7.578  10.082 -1.3397 -1.1572  0.0699
11630SOL    HW236332   4.731   7.716  10.033  0.1717 -0.0396  1.8402
11631SOL     OW36333   3.339   6.161  10.011  0.0979 -0.3822 -0.0519
11631SOL    HW136334   3.379   6.113  10.084  1.0344  0.8158  0.2789
11631SOL    HW236335   3.310   6.243  10.051 -1.9099 -0.8421 -0.4924
11632SOL     OW36336   2.588   6.656   9.936  0.0674 -0.0802  0.7199
11632SOL    HW136337   2.569   6.716   9.864  0.6676  1.0099  1.4602
11632SOL    HW236338   2.683   6.660   9.947  0.0754 -0.8685  1.0499
11633SOL     OW36339   1.167   0.790   9.600  0.7299  0.6933 -0.3970
11633SOL    HW136340   1.126   0.807   9.685  0.8890  0.0672 -0.1922
11633SOL    HW236341   1.156   0.872   9.552 -1.1504  0.4397 -0.5004
11634SOL     OW36342   1.757   6.719  11.124  0.3628 -0.2164 -0.4309
11634SOL    HW136343   1.835   6.703  11.176  0.6917 -0.1239 -0.8846
11634SOL    HW236344   1.684   6.716  11.186  0.7216 -0.3792 -0.0204
11635SOL     OW36345   2.843   5.083   9.912  0.2753  0.9780 -0.2233
11635SOL    HW136346   2.898   5.008   9.934 -1.2114 -0.9109 -2.4653
11635SOL    HW236347   2.864   5.149   9.979  1.1647 -1.6289  2.2604
11636SOL     OW36348   5.170   0.157   1.033  0.8265 -0.3003 -0.1411
11636SOL    HW136349   5.224   0.129   1.107  0.2914 -1.7542 -0.2690
11636SOL    HW236350   5.081   0.130   1.058  0.4498  0.3625 -0.7552
11637SOL     OW36351   2.579   0.198  11.112 -0.4775 -0.4581 -0.1112
11637SOL    HW136352   2.589   0.205  11.207 -2.4479 -0.0383  0.1219
11637SOL    HW236353   2.668   0.197  11.078  0.2733 -1.1369  1.7725
11638SOL     OW36354   1.200   7.766  10.826 -0.1442 -0.5683 -0.2003
11638SOL    HW136355   1.106   7.784  10.816 -0.0074 -0.2917 -1.0366
11638SOL    HW236356   1.230   7.831  10.889 -0.3180  0.0098 -0.7050
11639SOL     OW36357   4.955   0.222  11.313  0.1195 -0.1460 -0.5762
11639SOL    HW136358   4.921   0.218  11.402  1.6406  2.2745  0.2154
11639SOL    HW236359   4.888   0.180  11.260 -0.9122 -1.5244  1.6603
11640SOL     OW36360   2.832   6.256   9.434 -0.9323 -0.8289 -0.6382
11640SOL    HW136361   2.853   6.340   9.393 -0.8554 -0.0433  0.9461
11640SOL    HW236362   2.750   6.229   9.393 -2.7458  1.6698  1.1131
11641SOL     OW36363   3.009   0.590  11.220 -0.1878  0.4989  0.0344
11641SOL    HW136364   3.030   0.553  11.305 -1.0575  0.7018  0.3544
11641SOL    HW236365   3.074   0.553  11.160 -0.3081 -0.6010  0.5596
11642SOL     OW36366   3.819   7.643  10.651  0.0149  0.0833 -0.3675
11642SOL    HW136367   3.843   7.735  10.639  0.9394 -0.2030 -0.7962
11642SOL    HW236368   3.897   7.602  10.687  0.4640 -1.0081 -2.4227
11643SOL     OW36369   3.472   0.418  11.897 -0.3714 -0.9844  0.0635
11643SOL    HW136370   3.561   0.450  11.884 -0.9121  0.8845  0.6576
11643SOL    HW236371   3.480   0.351  11.965  0.5825 -0.8831  0.0542
11644SOL     OW36372   5.008   0.469  10.065  0.3159 -0.7703  0.4743
11644SOL    HW136373   5.008   0.408   9.991  0.6025 -0.5949  0.3289
11644SOL    HW236374   5.091   0.454  10.109  0.6612 -0.0568  0.0834
11645SOL     OW36375   3.571   7.313  10.610  0.2336  0.4542 -0.0690
11645SOL    HW136376   3.543   7.394  10.567 -2.4989  0.0781  0.8196
11645SOL    HW236377   3.571   7.334  10.704 -0.5077 -0.5275  0.1741
11646SOL     OW36378   3.965   1.659  10.250 -0.1402  0.4524 -0.2965
11646SOL    HW136379   3.882   1.650  10.204 -1.2691  3.8205  0.7944
11646SOL    HW236380   4.015   1.722  10.198  1.1639 -0.4308 -0.1649
11647SOL     OW36381   1.208   7.833  10.334  0.5203 -1.0474  0.1163
11647SOL    HW136382   1.284   7.877  10.295 -0.5463  0.5351 -0.2919
11647SOL    HW236383   1.219   7.843  10.428  0.3678  0.0118  0.0313
11648SOL     OW36384   2.131   7.454  10.521  0.1597 -0.1284 -0.4160
11648SOL    HW136385   2.159   7.531  10.570  0.9100 -0.0904 -0.8851
11648SOL    HW236386   2.207   7.397  10.521 -0.1934 -0.6057 -0.5993
11649SOL     OW36387   1.289   7.999  10.971 -0.3053  0.2413 -0.0838
11649SOL    HW136388   1.378   8.023  10.945 -0.6213  1.8152  0.2309
11649SOL    HW236389   1.257   8.073  11.021 -0.9629 -1.2943  1.9001
11650SOL     OW36390   2.756   6.707  10.555 -0.1703  0.0593  0.6887
11650SOL    HW136391   2.841   6.735  10.587  0.0470 -0.4898  0.6094
11650SOL    HW236392   2.762   6.611  10.553 -1.1695 -0.0429  1.7338
11651SOL     OW36393   3.446   7.947   9.791  0.3251 -0.3107  0.0762
11651SOL    HW136394   3.457   7.964   9.884 -1.0039 -0.5600  0.2874
11651SOL    HW236395   3.354   7.965   9.773  0.1962 -1.7048 -0.8622
11652SOL     OW36396   4.309   7.825  10.534  0.3171  0.0725 -0.0040
11652SOL    HW136397   4.298   7.778  10.617  1.7477 -0.8574 -0.3033
11652SOL    HW236398   4.327   7.915  10.559  0.0782 -0.0643  0.6767
11653SOL     OW36399   2.937   7.036  11.083  0.3293 -1.1913  0.5333
11653SOL    HW136400   2.998   6.989  11.139  0.7352 -2.0738 -0.6204
11653SOL    HW236401   2.993   7.086  11.024 -0.0942 -0.2593  0.8974
11654SOL     OW36402   3.177   6.352  10.361 -0.3590 -0.1039  0.8331
11654SOL    HW136403   3.248   6.403  10.322 -0.9653  0.6306  0.6438
11654SOL    HW236404   3.200   6.261  10.344 -0.1900  0.1722 -0.5343
11655SOL     OW36405   3.801   0.291  10.283  0.0462  0.4675 -0.7469
11655SOL    HW136406   3.796   0.276  10.189  1.8354  2.4362 -1.2333
11655SOL    HW236407   3.889   0.327  10.297 -0.5403  1.1823  1.5349
11656SOL     OW36408   2.155   7.953  10.270 -0.1954 -0.6090  0.1140
11656SOL    HW136409   2.174   8.038  10.231 -1.7000 -1.0330 -1.7244
11656SOL    HW236410   2.149   7.893  10.196 -2.6570 -1.5911  0.9802
11657SOL     OW36411   3.020   0.798  11.958  0.3690 -0.0653 -0.0643
11657SOL    HW136412   3.098   0.781  11.905  0.1319 -0.6693 -0.2234
11657SOL    HW236413   2.985   0.880  11.922 -0.3654 -0.9822 -1.5643
11658SOL     OW36414   3.674   0.049  10.342 -0.7437 -0.0247  0.1005
11658SOL    HW136415   3.714   0.136  10.347  0.0829 -0.2583 -1.6475
11658SOL    HW236416   3.589   0.064  10.301 -1.2745  0.1219  1.2168
11659SOL     OW36417   0.225   0.408   9.612  0.1552 -0.8321 -0.4991
11659SOL    HW136418   0.283   0.399   9.688  1.0971 -0.2035 -1.1378
11659SOL    HW236419   0.168   0.331   9.617 -0.2375 -0.4989  1.2036
11660SOL     OW36420   1.971   0.611   9.377 -0.0919  0.4598  0.1306
11660SOL    HW136421   1.944   0.634   9.466  1.9981 -2.0799  1.5847
11660SOL    HW236422   2.066   0.601   9.383 -0.1073 -1.7429 -1.8500
11661SOL     OW36423   3.336   7.151   9.808 -0.9666 -0.1711 -0.1957
11661SOL    HW136424   3.294   7.192   9.732 -0.3180  1.6353  0.3649
11661SOL    HW236425   3.380   7.224   9.852  2.2738 -1.8473 -0.4198
11662SOL     OW36426   3.420   6.037   9.778  0.0240  0.1387 -0.9847
11662SOL    HW136427   3.346   6.060   9.722  0.2959  0.1506 -1.3379
11662SOL    HW236428   3.400   6.079   9.862  0.2433  1.2180 -1.4588
11663SOL     OW36429   3.584   0.237   9.422 -0.3688 -0.0243 -0.1515
11663SOL    HW136430   3.574   0.179   9.497 -1.7718  0.5401  0.1216
11663SOL    HW236431   3.495   0.263   9.399  0.2087  2.0478 -0.2501
11664SOL     OW36432   2.626   0.641  10.434  0.4239  0.5129  0.4188
11664SOL    HW136433   2.597   0.555  10.404  0.3041  0.7075 -0.0164
11664SOL    HW236434   2.721   0.631  10.445  0.4235  0.3551  0.2824
11665SOL     OW36435   1.869   7.075   9.523 -0.4172  0.0033 -0.1039
11665SOL    HW136436   1.781   7.113   9.525 -0.5541 -0.2653 -0.8838
11665SOL    HW236437   1.894   7.076   9.430  0.1449 -0.5135  0.0361
11666SOL     OW36438   3.706   0.759  11.171 -0.2910  0.6599  0.1108
11666SOL    HW136439   3.691   0.666  11.154  3.2935 -0.2221  0.9159
11666SOL    HW236440   3.719   0.797  11.084  0.2740 -0.0609 -0.1376
11667SOL     OW36441   4.730   0.387   0.070  0.2194  0.3568  0.1942
11667SOL    HW136442   4.725   0.424   0.159 -2.7885 -0.4030  0.4460
11667SOL    HW236443   4.661   0.433   0.022  0.7550 -0.3852 -1.3150
11668SOL     OW36444   1.204   0.519  11.224 -0.4584 -0.9377  0.9621
11668SOL    HW136445   1.162   0.592  11.268  0.3478 -0.2117  0.5438
11668SOL    HW236446   1.149   0.503  11.147 -0.7370 -0.8962  1.1510
11669SOL     OW36447   3.045   5.904  10.209 -0.1802  0.0014 -0.6735
11669SOL    HW136448   3.020   5.811  10.208 -1.6905  0.3739 -1.6833
11669SOL    HW236449   2.968   5.949  10.244 -0.6329  1.1143 -2.9166
11670SOL     OW36450   1.934   7.685  10.962  0.1361  0.2700 -0.1381
11670SOL    HW136451   1.924   7.709  10.870  0.8431  0.9347 -0.0585
11670SOL    HW236452   1.920   7.767  11.010 -1.8859 -0.3800  0.4883
11671SOL     OW36453   3.758   0.718  11.914 -0.3514 -0.5296  0.1971
11671SOL    HW136454   3.851   0.739  11.902 -0.5692  0.0896 -0.4980
11671SOL    HW236455   3.712   0.799  11.891 -1.1365 -1.2373 -0.8188
11672SOL     OW36456   3.152   7.102  10.643  0.3786  0.0916  0.5535
11672SOL    HW136457   3.127   7.063  10.559 -0.2885  0.5930  0.5175
11672SOL    HW236458   3.215   7.040  10.680  0.7966 -0.0614 -0.3838
11673SOL     OW36459   3.035   7.790  11.268  0.0509  0.2298 -0.0652
11673SOL    HW136460   3.098   7.860  11.276  1.8180 -1.2957 -0.0013
11673SOL    HW236461   3.003   7.776  11.357 -0.9462  1.4557 -0.2023
11674SOL     OW36462   4.871   0.189  10.256  0.7942  0.2963 -0.3244
11674SOL    HW136463   4.917   0.157  10.179  0.9770 -1.1832  0.3688
11674SOL    HW236464   4.779   0.189  10.230  0.8956  0.2664 -0.6962
11675SOL     OW36465   3.012   7.669   8.906 -0.4832 -0.3148 -0.1065
11675SOL    HW136466   2.984   7.591   8.859  1.1165 -0.7834 -0.3465
11675SOL    HW236467   3.099   7.647   8.940 -0.2212  1.1764  0.2753
11676SOL     OW36468   2.212   7.010  10.187  0.3926  0.7200  0.0183
11676SOL    HW136469   2.194   7.026  10.094  0.7811  1.7656  0.1131
11676SOL    HW236470   2.144   7.059  10.234 -0.0628 -0.1536  0.2888
11677SOL     OW36471   4.587   0.445  11.935 -0.2694  0.1715  0.2746
11677SOL    HW136472   4.677   0.411  11.940 -0.1259  0.3463 -0.9084
11677SOL    HW236473   4.598   0.540  11.928 -0.5845  0.2677  1.0350
11678SOL     OW36474   3.585   6.928   8.874  0.2420  0.2244 -0.1977
11678SOL    HW136475   3.673   6.902   8.901  0.2435 -0.6752 -1.0136
11678SOL    HW236476   3.583   7.023   8.887  1.3058  0.2453 -0.0906
11679SOL     OW36477   2.326   7.135   9.707  0.4648 -0.2817  0.0667
11679SOL    HW136478   2.269   7.193   9.657 -0.5891 -2.3204 -1.2297
11679SOL    HW236479   2.398   7.115   9.647  1.5173  0.6321  0.9685
11680SOL     OW36480   2.427   1.068   9.645 -0.1484  0.4017 -0.0205
11680SOL    HW136481   2.368   1.015   9.591  1.0806 -1.6832  0.5603
11680SOL    HW236482   2.371   1.104   9.713 -1.1857  0.5595 -0.9325
11681SOL     OW36483   4.572   0.528  10.480 -0.0510 -0.2659  0.1098
11681SOL    HW136484   4.594   0.614  10.516 -1.4904 -1.1510  3.4939
11681SOL    HW236485   4.653   0.477  10.489 -0.1920 -0.2726  1.6373
11682SOL     OW36486   5.009   0.402  12.360  0.2225 -0.1046  0.0926
11682SOL    HW136487   5.039   0.425  12.272 -1.3471 -0.7684 -0.6620
11682SOL    HW236488   4.941   0.337  12.345  0.7934 -1.1857  1.8778
11683SOL     OW36489   4.094   0.828  10.613  0.2251 -0.3838 -0.0998
11683SOL    HW136490   4.050   0.890  10.671  2.3198 -1.1050  2.4667
11683SOL    HW236491   4.050   0.838  10.529 -1.9981  1.8246  1.1994
11684SOL     OW36492   4.329   6.436  10.252  0.4314  0.2693 -0.3888
11684SOL    HW136493   4.347   6.480  10.335  3.9343 -0.7762 -0.4052
11684SOL    HW236494   4.272   6.496  10.204  0.2644  1.9982  1.8008
11685SOL     OW36495   2.281   6.712  11.108 -0.3869 -0.1892 -0.5902
11685SOL    HW136496   2.316   6.629  11.140 -0.5805 -0.2962 -0.6593
11685SOL    HW236497   2.316   6.720  11.020 -3.8521 -2.3401 -2.3634
11686SOL     OW36498   2.206   7.627  10.991 -0.6506 -0.0155  0.8328
11686SOL    HW136499   2.223   7.720  10.976  1.3857 -0.3884  0.5503
11686SOL    HW236500   2.112   7.618  10.981 -0.7681  1.8428 -0.1614
11687SOL     OW36501   3.974   6.689   8.282 -0.1944 -0.0199  0.3508
11687SOL    HW136502   3.980   6.596   8.306 -1.5947  0.2008  1.6615
11687SOL    HW236503   3.944   6.688   8.191  1.9297 -0.8294 -0.4165
11688SOL     OW36504   2.622   0.941  11.598 -0.0411 -0.0375 -0.2485
11688SOL    HW136505   2.648   0.992  11.675 -0.1304 -3.0261  1.9779
11688SOL    HW236506   2.543   0.895  11.627  1.0741 -2.8332 -1.3057
11689SOL     OW36507   4.224   7.058   7.981  0.0495  0.0033  0.0727
11689SOL    HW136508   4.139   7.058   8.025 -1.3521  1.2043 -2.3840
11689SOL    HW236509   4.245   6.966   7.968 -0.7776 -0.3108  0.8958
11690SOL     OW36510   2.480   6.037  11.850 -0.2321  0.6649 -0.3046
11690SOL    HW136511   2.545   5.986  11.803 -1.6781 -0.9550 -0.6651
11690SOL    HW236512   2.428   6.080  11.782  0.0634  1.4675 -0.0408
11691SOL     OW36513   2.526   7.556   0.737  0.1275 -0.1187 -0.4924
11691SOL    HW136514   2.577   7.613   0.680  1.0741 -0.2544  0.1938
11691SOL    HW236515   2.562   7.469   0.722 -1.3108 -0.5704 -1.5314
11692SOL     OW36516   5.631   1.262  11.340  0.2472  0.2789  1.1586
11692SOL    HW136517   5.574   1.196  11.301  1.5389 -1.4732  2.1013
11692SOL    HW236518   5.667   1.220  11.418  1.4712  1.9491  1.5470
11693SOL     OW36519   3.232   7.104  12.105  0.1166  0.0698 -0.3032
11693SOL    HW136520   3.316   7.089  12.149 -0.3533  1.4481  1.1524
11693SOL    HW236521   3.225   7.199  12.097 -0.7119 -0.0658 -1.6555
11694SOL     OW36522   2.461   0.951  10.532 -0.0725 -0.1366 -0.1679
11694SOL    HW136523   2.500   0.963  10.618 -0.3927 -2.2217  0.3047
11694SOL    HW236524   2.368   0.967  10.545  0.1431  1.8936 -0.6819
11695SOL     OW36525   2.460   7.199  12.302  0.4944  0.0463  0.0416
11695SOL    HW136526   2.416   7.113  12.302  0.4107  0.0595 -1.3848
11695SOL    HW236527   2.459   7.226  12.210  1.2927  1.1920  0.3487
11696SOL     OW36528   2.681   1.810  11.534 -0.6570  0.5852 -0.4965
11696SOL    HW136529   2.630   1.731  11.520 -0.4529  0.4655 -0.5712
11696SOL    HW236530   2.617   1.875  11.564 -1.0202  0.7064 -1.4949
11697SOL     OW36531   2.520   7.544  10.048 -0.7020 -0.6332  0.1747
11697SOL    HW136532   2.583   7.540  10.120  1.5909 -0.8227 -1.7176
11697SOL    HW236533   2.477   7.458  10.049  2.2734 -2.2960 -1.0877
11698SOL     OW36534   2.839   7.489   0.270 -0.2009  0.4594 -0.1040
11698SOL    HW136535   2.832   7.582   0.249  0.7573  0.4093 -0.6914
11698SOL    HW236536   2.845   7.487   0.366 -1.8608  0.8743  0.0488
11699SOL     OW36537   3.245   7.974   0.053  0.3238  0.0189  0.0449
11699SOL    HW136538   3.199   7.906   0.102 -0.0399  1.3690  1.6805
11699SOL    HW236539   3.338   7.950   0.058  0.1909 -0.3910  0.5515
11700SOL     OW36540   2.597   7.796  11.311 -0.1103  0.8262 -0.3726
11700SOL    HW136541   2.661   7.857  11.275  0.5914 -0.8659 -2.1523
11700SOL    HW236542   2.518   7.809  11.258  0.2989 -0.3124 -1.3059
11701SOL     OW36543   3.201   6.414  11.475  0.2056  0.1040 -0.0307
11701SOL    HW136544   3.113   6.403  11.439  0.7310  0.0741 -1.3659
11701SOL    HW236545   3.187   6.453  11.562 -1.1629 -0.9586  0.2561
11702SOL     OW36546   1.607   0.300  10.933  0.4088 -0.2640  0.7920
11702SOL    HW136547   1.544   0.319  11.004  0.8227 -0.5608  1.2475
11702SOL    HW236548   1.624   0.206  10.942  0.9129 -0.1843  0.6669
11703SOL     OW36549   2.726   7.356   0.662 -0.5783  0.0850 -0.0067
11703SOL    HW136550   2.732   7.261   0.678 -0.3963 -0.0247 -0.6908
11703SOL    HW236551   2.814   7.380   0.632 -0.7054  0.4199 -0.1076
11704SOL     OW36552   2.400   5.867   0.447  0.1121 -0.0341  0.3517
11704SOL    HW136553   2.449   5.948   0.458 -0.0614  0.1344 -0.0935
11704SOL    HW236554   2.309   5.895   0.441  0.0956 -0.2169 -0.2965
11705SOL     OW36555   3.439   0.141   0.472  0.8667  0.4735 -0.3066
11705SOL    HW136556   3.433   0.235   0.492  1.3544  0.8047 -1.6078
11705SOL    HW236557   3.487   0.138   0.390  1.6198 -0.9799  0.1642
11706SOL     OW36558   2.863   7.397  11.154  0.0898 -0.4827  0.4296
11706SOL    HW136559   2.929   7.330  11.172 -0.1816 -1.6881 -2.4564
11706SOL    HW236560   2.781   7.358  11.184  0.1583 -0.7414  0.2871
11707SOL     OW36561   2.040   2.216  11.452  0.7297 -0.0509  0.3824
11707SOL    HW136562   2.026   2.296  11.400  0.3502  0.0168  0.5861
11707SOL    HW236563   2.047   2.147  11.386 -0.8833 -0.1319  0.2613
11708SOL     OW36564   1.563   7.802  12.409  0.1297 -0.0638  0.0856
11708SOL    HW136565   1.565   7.874  12.345 -0.1922  1.5786  1.8298
11708SOL    HW236566   1.636   7.822  12.468 -0.6079 -0.5902  1.1926
11709SOL     OW36567   2.805   7.092   0.036  0.2002  0.2667 -0.0379
11709SOL    HW136568   2.882   7.139   0.003  2.2591 -0.5134  3.2401
11709SOL    HW236569   2.799   7.014  -0.018  1.9911  0.1412 -0.0867
11710SOL     OW36570   3.962   0.720  12.141  0.0596  0.2065  0.2058
11710SOL    HW136571   3.954   0.798  12.087  0.0096 -1.1270 -1.8115
11710SOL    HW236572   3.873   0.701  12.170 -0.1286  0.1283 -0.4299
11711SOL     OW36573   2.265   6.340   1.501  0.0854 -0.0264  0.1856
11711SOL    HW136574   2.174   6.347   1.529 -0.3469 -0.7316 -0.9719
11711SOL    HW236575   2.305   6.423   1.527 -1.1226  0.6673 -0.1064
11712SOL     OW36576   1.012   1.155  11.205  0.0806  0.8053  0.3122
11712SOL    HW136577   1.049   1.237  11.171 -0.4832  1.1377  0.4813
11712SOL    HW236578   0.918   1.172  11.211 -0.2788 -0.4016 -1.2026
11713SOL     OW36579   2.492   6.272  11.980  0.5183  0.2220  0.5549
11713SOL    HW136580   2.517   6.313  11.898 -1.0985  1.4284  0.6001
11713SOL    HW236581   2.485   6.179  11.960 -0.0804  0.5285 -0.7674
11714SOL     OW36582   4.609   6.729  12.457  0.1464 -0.1416 -0.3110
11714SOL    HW136583   4.669   6.691  12.393 -1.2776 -0.7720 -1.3156
11714SOL    HW236584   4.576   6.655  12.507  0.9160  0.3015  0.8925
11715SOL     OW36585   3.271   6.587  12.245 -0.4008  0.6132 -0.6316
11715SOL    HW136586   3.278   6.521  12.175  0.0146 -0.3056  0.2488
11715SOL    HW236587   3.360   6.621  12.253 -0.1424 -0.2483  0.3431
11716SOL     OW36588   4.132   0.558  10.732 -0.3611  0.6192  0.2580
11716SOL    HW136589   4.101   0.593  10.649 -0.9195  0.7118  0.5060
11716SOL    HW236590   4.201   0.619  10.759  0.4055  0.1351 -0.5322
11717SOL     OW36591   3.162   1.135  12.105  0.0769  0.3173 -0.1001
11717SOL    HW136592   3.161   1.185  12.187 -2.0663 -0.4332  0.4112
11717SOL    HW236593   3.130   1.048  12.130  0.6148 -0.3215 -1.5380
11718SOL     OW36594   3.272   0.988  11.608  0.0761 -0.1503  0.0008
11718SOL    HW136595   3.359   1.020  11.585 -0.2507  0.3950 -0.5298
11718SOL    HW236596   3.244   0.938  11.531 -0.9067  1.4310 -0.7139
11719SOL     OW36597   0.781   6.165  11.009 -0.0259  0.2662 -0.1899
11719SOL    HW136598   0.741   6.123  10.932  1.6770 -1.2206 -0.3322
11719SOL    HW236599   0.874   6.144  11.002  0.0841 -0.5557  2.6745
11720SOL     OW36600   3.604   7.314  12.149  0.6754  0.5230  0.5092
11720SOL    HW136601   3.509   7.328  12.149  0.3036 -1.5389  1.7485
11720SOL    HW236602   3.622   7.278  12.062  0.6906  2.6255 -0.4285
11721SOL     OW36603   2.524   6.595   0.503 -0.1696  0.0498 -0.1548
11721SOL    HW136604   2.607   6.624   0.542 -0.2211 -0.1200  0.0861
11721SOL    HW236605   2.522   6.501   0.520 -1.0183  0.2502  1.0028
11722SOL     OW36606   4.221   1.125   0.063 -0.3616 -0.0519  0.2711
11722SOL    HW136607   4.301   1.080   0.091 -2.0625 -2.7442  1.2343
11722SOL    HW236608   4.217   1.111  -0.031  0.3456  0.2182  0.1934
11723SOL     OW36609   2.837   0.954  12.421 -0.1352 -0.1584  0.2101
11723SOL    HW136610   2.747   0.978  12.399  0.2888 -0.6333 -2.3820
11723SOL    HW236611   2.829   0.871  12.468 -1.0605 -0.0294  0.2900
11724SOL     OW36612   2.252   6.421  12.026  0.2183 -0.6307 -0.2871
11724SOL    HW136613   2.204   6.395  11.947  1.4276 -0.7899 -0.9906
11724SOL    HW236614   2.344   6.404  12.005  0.6740  0.4844  0.7035
11725SOL     OW36615   3.386   7.552  11.897 -0.6311  0.2962  0.2887
11725SOL    HW136616   3.364   7.502  11.976 -0.3377 -0.0007  0.1844
11725SOL    HW236617   3.435   7.490  11.843 -1.8605  0.1111 -0.6634
11726SOL     OW36618   5.287   7.991   0.028  0.0404 -0.5666  0.0052
11726SOL    HW136619   5.236   7.945   0.095  0.2627 -0.4557  0.2493
11726SOL    HW236620   5.239   8.072   0.011 -1.9009 -2.0820 -2.4273
11727SOL     OW36621   2.375   0.068  11.748 -0.4965 -0.7092 -0.7586
11727SOL    HW136622   2.429  -0.007  11.724  0.7200 -0.3911  0.7926
11727SOL    HW236623   2.437   0.138  11.765 -1.5179  0.2048 -0.6941
11728SOL     OW36624   2.839   7.997   0.363  0.3176  0.6620  0.2328
11728SOL    HW136625   2.787   8.020   0.440  2.4447  1.1853  1.6036
11728SOL    HW236626   2.888   8.076   0.341  0.6384  0.1731 -0.9252
11729SOL     OW36627   3.612   1.580  11.946 -0.1619 -0.1091  0.0326
11729SOL    HW136628   3.543   1.527  11.985 -0.3152  1.1865  1.6304
11729SOL    HW236629   3.609   1.559  11.853 -1.3485 -1.5842  0.3670
11730SOL     OW36630   2.962   7.940  11.720 -0.1424  0.1188 -0.0186
11730SOL    HW136631   2.972   7.868  11.658 -2.1537 -0.2638  0.0371
11730SOL    HW236632   2.948   7.896  11.805  3.3957  0.6133  0.9879
11731SOL     OW36633   3.028   7.323  12.031  0.1352  0.1766 -0.2923
11731SOL    HW136634   2.982   7.354  12.109 -1.2852  0.6138 -1.2501
11731SOL    HW236635   3.112   7.368  12.033 -0.6883  1.7845 -0.0694
11732SOL     OW36636   1.851   5.523   0.131  0.1464 -0.2843 -0.5490
11732SOL    HW136637   1.783   5.468   0.092 -0.2952  0.0207 -0.2121
11732SOL    HW236638   1.805   5.601   0.162  0.4125 -0.7053  0.9910
11733SOL     OW36639   1.404   7.720   0.148  0.3398 -0.9327  0.2791
11733SOL    HW136640   1.412   7.736   0.054  1.1591 -2.3056  0.0787
11733SOL    HW236641   1.456   7.641   0.163 -1.2379 -1.7836  1.5756
11734SOL     OW36642   3.165   6.000   0.480 -0.0223  0.1273 -0.3948
11734SOL    HW136643   3.168   6.049   0.562  0.2533  0.3445 -0.5336
11734SOL    HW236644   3.123   6.060   0.418 -2.2185 -0.8029  0.1000
11735SOL     OW36645   2.587   6.677  11.932 -0.2955  0.2813 -0.2066
11735SOL    HW136646   2.654   6.727  11.887 -0.3340  0.4618 -0.0619
11735SOL    HW236647   2.634   6.627  11.998 -0.1764 -0.3426 -0.7541
11736SOL     OW36648   2.185   7.202  11.661  0.0455  0.6475 -0.3453
11736SOL    HW136649   2.251   7.136  11.680  0.1565  0.9509  0.3656
11736SOL    HW236650   2.233   7.285  11.660 -0.0612  0.7128 -1.4183
11737SOL     OW36651   3.337   1.004   3.056  0.4382 -0.1342 -0.2714
11737SOL    HW136652   3.271   0.992   2.988  0.4964 -1.4987 -0.1244
11737SOL    HW236653   3.407   0.943   3.034  1.4968  1.0187 -0.2089
11738SOL     OW36654   4.982   0.116  11.018  0.0311 -0.2183 -0.1764
11738SOL    HW136655   4.907   0.117  11.077  1.0819  0.8308  1.1972
11738SOL    HW236656   5.043   0.054  11.058 -0.0185 -0.9663 -1.2137
11739SOL     OW36657   2.737   0.839   1.147 -0.4316  0.0855 -0.3224
11739SOL    HW136658   2.648   0.859   1.119 -0.3146 -0.0258 -0.7748
11739SOL    HW236659   2.727   0.765   1.207 -0.8912  1.5817  1.5395
11740SOL     OW36660   5.643   0.466   1.992  0.4747 -0.2434  0.0078
11740SOL    HW136661   5.644   0.557   2.020  0.0214 -0.0691 -0.5239
11740SOL    HW236662   5.692   0.419   2.060 -0.2674  0.2226  0.8791
11741SOL     OW36663   5.695   0.477   0.184 -0.2469 -0.0837  0.1330
11741SOL    HW136664   5.607   0.500   0.156  0.5247  2.0867 -0.6796
11741SOL    HW236665   5.733   0.432   0.109 -0.4584 -0.5285  0.2863
11742SOL     OW36666   6.615   7.070  12.096 -0.2528 -0.5183  0.5334
11742SOL    HW136667   6.634   7.015  12.020  0.5645 -0.0976  0.4291
11742SOL    HW236668   6.531   7.112  12.075  0.1593 -0.0942 -0.3207
11743SOL     OW36669   5.768   1.303   0.602 -0.1055  0.1371  0.1170
11743SOL    HW136670   5.813   1.245   0.540 -0.2167 -0.7983  0.9011
11743SOL    HW236671   5.706   1.353   0.547 -1.2987 -1.7567 -0.3478
11744SOL     OW36672   4.565   7.718   0.457 -0.2233 -0.1850 -0.2098
11744SOL    HW136673   4.588   7.804   0.422 -0.3341  0.4727  1.2870
11744SOL    HW236674   4.477   7.702   0.424 -0.1683  0.2282 -0.5702
11745SOL     OW36675   2.798   0.675   0.038 -0.1789  0.4808  0.2367
11745SOL    HW136676   2.815   0.668   0.132 -0.1076 -1.5117  0.1195
11745SOL    HW236677   2.868   0.624  -0.003 -0.6383  0.6965 -0.8418
11746SOL     OW36678   4.548   1.668   1.606 -0.8844 -0.1163  0.3987
11746SOL    HW136679   4.458   1.648   1.580 -0.4876 -0.8443 -0.4644
11746SOL    HW236680   4.553   1.763   1.603 -1.3284 -0.1082 -0.6135
11747SOL     OW36681   3.033   1.755  12.092 -0.1124 -0.6123 -0.6230
11747SOL    HW136682   2.981   1.781  12.168  0.4014 -1.0004 -0.1259
11747SOL    HW236683   2.969   1.746  12.021 -0.4844  0.6182 -0.4735
11748SOL     OW36684   6.882   2.230   0.373 -0.6220 -0.3398 -0.0945
11748SOL    HW136685   6.805   2.262   0.420  0.2673  1.4038  0.2806
11748SOL    HW236686   6.855   2.146   0.336 -2.3904 -0.2073  0.7936
11749SOL     OW36687   4.924   0.113   1.295 -0.2827 -0.0390 -0.1439
11749SOL    HW136688   4.905   0.200   1.261 -0.3167 -0.3268 -0.8896
11749SOL    HW236689   4.845   0.062   1.278 -0.0091 -0.4012 -0.3821
11750SOL     OW36690   7.177   7.415   0.536 -0.4124 -0.0284 -0.3363
11750SOL    HW136691   7.120   7.358   0.486 -1.0579 -0.1072  0.4673
11750SOL    HW236692   7.251   7.433   0.478 -0.1101 -1.8106 -0.5654
11751SOL     OW36693   4.176   7.860   0.685 -0.4171  0.0797  0.2957
11751SOL    HW136694   4.138   7.775   0.666 -1.1903  0.4740  0.0375
11751SOL    HW236695   4.103   7.912   0.719 -0.3265  1.1002 -0.9820
11752SOL     OW36696   4.172   1.838   2.510 -0.8800 -0.9196 -0.3957
11752SOL    HW136697   4.267   1.839   2.505 -0.6733  3.1304  0.6362
11752SOL    HW236698   4.151   1.756   2.556  2.1212 -1.5436  0.0797
11753SOL     OW36699   4.598   2.002  11.813  0.5540 -0.5080 -0.0298
11753SOL    HW136700   4.651   2.023  11.737  1.4711  0.3687  0.8294
11753SOL    HW236701   4.629   2.061  11.881 -0.0413 -1.4764  1.1170
11754SOL     OW36702   3.840   0.941   0.316 -0.2414  0.1309  0.1183
11754SOL    HW136703   3.857   1.019   0.368  0.9281 -1.0007  1.5204
11754SOL    HW236704   3.926   0.905   0.297 -0.7665 -0.9574 -0.2874
11755SOL     OW36705   3.169   2.372   1.227  1.0156 -0.6486  0.9688
11755SOL    HW136706   3.083   2.397   1.194  0.7781 -1.3874  1.0085
11755SOL    HW236707   3.222   2.356   1.148  1.2624  0.2504  0.9395
11756SOL     OW36708   4.740   0.690   0.106 -0.3228  0.2235 -0.0133
11756SOL    HW136709   4.677   0.762   0.113 -1.5638 -0.5210 -2.5026
11756SOL    HW236710   4.740   0.650   0.193 -2.7610  0.7188  0.2906
11757SOL     OW36711   4.436   7.840   1.174  0.3241 -0.0707  0.3027
11757SOL    HW136712   4.382   7.777   1.223  1.7467 -1.0693  0.6505
11757SOL    HW236713   4.475   7.788   1.104 -2.3218  1.4758 -2.5935
11758SOL     OW36714   2.351   6.779   0.566  0.3058  0.4569 -0.3387
11758SOL    HW136715   2.405   6.709   0.532  0.4940 -0.8275  2.2986
11758SOL    HW236716   2.411   6.835   0.615 -0.2857  0.6601  0.1800
11759SOL     OW36717   5.710   1.970   0.072  0.2966  0.7478 -0.1531
11759SOL    HW136718   5.722   2.014  -0.012 -0.1008  1.8430  0.3572
11759SOL    HW236719   5.764   2.018   0.134  2.2558 -1.2999 -0.1342
11760SOL     OW36720   3.507   1.574  11.674  0.3060 -0.1675  0.7433
11760SOL    HW136721   3.545   1.659  11.694  0.5455 -0.4694  1.6604
11760SOL    HW236722   3.446   1.590  11.602  1.4748  0.4874 -0.1129
11761SOL     OW36723   7.110   0.596  11.853 -0.3290  0.2886  0.5251
11761SOL    HW136724   7.041   0.582  11.917 -0.4792  1.6869  0.7108
11761SOL    HW236725   7.081   0.673  11.803 -0.6349 -1.2486 -1.8161
11762SOL     OW36726   6.091   2.124   1.303  0.6935  0.1187 -0.1026
11762SOL    HW136727   6.069   2.210   1.339 -1.0123 -0.1263 -0.4892
11762SOL    HW236728   6.113   2.141   1.211 -1.0306 -0.0067 -0.5594
11763SOL     OW36729   3.130   0.850   0.738  0.2275 -0.4774  0.0970
11763SOL    HW136730   3.178   0.853   0.821 -0.4217  1.2291  0.4547
11763SOL    HW236731   3.165   0.923   0.687  0.8745 -1.7190 -1.3263
11764SOL     OW36732   3.927   1.868   0.453 -0.8210  0.1147  0.1417
11764SOL    HW136733   4.006   1.881   0.401 -0.9289  1.0107  0.1935
11764SOL    HW236734   3.952   1.893   0.541 -1.0151 -0.1118  0.2613
11765SOL     OW36735   4.849   7.566  12.450 -0.1022 -0.3161  0.4949
11765SOL    HW136736   4.922   7.628  12.452 -0.4110  0.0395  0.9228
11765SOL    HW236737   4.830   7.548  12.542 -0.3035 -0.7095  0.3789
11766SOL     OW36738   4.271   7.386   0.104 -0.2711  0.7736 -0.1119
11766SOL    HW136739   4.342   7.323   0.112  0.3509  0.9997 -2.8418
11766SOL    HW236740   4.227   7.384   0.189  2.1344 -0.3794  1.1961
11767SOL     OW36741   3.099   1.297   0.988  0.2756 -0.2047  0.3238
11767SOL    HW136742   3.175   1.295   0.929  0.0714 -1.8650  0.0905
11767SOL    HW236743   3.133   1.335   1.069  1.6322 -1.8470  0.5693
11768SOL     OW36744   5.365   2.554  12.148  0.1897 -0.4373 -0.1162
11768SOL    HW136745   5.338   2.639  12.184  2.5703  0.5160 -0.3539
11768SOL    HW236746   5.298   2.493  12.178 -1.3650  1.4320  0.4607
11769SOL     OW36747   4.587   0.830   0.271 -0.1180 -0.1208 -0.6800
11769SOL    HW136748   4.610   0.761   0.334  0.3456 -1.2277 -2.0188
11769SOL    HW236749   4.596   0.911   0.321  1.0425 -0.9129  0.4665
11770SOL     OW36750   5.014   7.655   3.139 -0.0385 -0.2952 -0.5467
11770SOL    HW136751   4.958   7.620   3.070 -0.6819  1.5917 -1.0298
11770SOL    HW236752   5.099   7.613   3.125 -0.5629 -1.0468 -1.5660
11771SOL     OW36753   3.416   1.815   1.349 -0.2418  0.7133 -0.5703
11771SOL    HW136754   3.402   1.728   1.386  0.5635 -0.1923 -2.2989
11771SOL    HW236755   3.396   1.875   1.422  0.6835 -0.9293  1.1224
11772SOL     OW36756   4.714   2.351  11.556  0.2501 -0.3677 -0.0061
11772SOL    HW136757   4.783   2.414  11.535 -0.7273  1.2369  1.3227
11772SOL    HW236758   4.645   2.369  11.492  0.5421 -1.1379 -0.5574
11773SOL     OW36759   4.216   0.936  11.196  0.0284 -0.2068 -0.1779
11773SOL    HW136760   4.244   0.875  11.265  1.6667  1.0432  0.3216
11773SOL    HW236761   4.127   0.960  11.220  0.0163 -0.9903  0.6241
11774SOL     OW36762   6.380   7.505  11.114  0.3210  0.3358  0.6856
11774SOL    HW136763   6.368   7.422  11.068  0.5864  0.5524  0.2292
11774SOL    HW236764   6.470   7.503  11.146  0.5216  0.7015  0.1607
11775SOL     OW36765   5.739   1.445  11.653  0.5618  0.0818 -0.1287
11775SOL    HW136766   5.705   1.431  11.564  0.0022 -0.1046  0.1080
11775SOL    HW236767   5.702   1.373  11.704  1.1857 -0.0216  0.1782
11776SOL     OW36768   5.356   1.956   1.126 -0.1821  0.2801  0.2488
11776SOL    HW136769   5.386   1.936   1.215  2.0850  0.5202 -0.4003
11776SOL    HW236770   5.334   2.049   1.128  0.0871  0.3394  0.5048
11777SOL     OW36771   5.118   1.003   0.780  0.1006 -0.1794 -0.4202
11777SOL    HW136772   5.134   1.003   0.685  0.6976 -0.5087 -0.3276
11777SOL    HW236773   5.034   0.959   0.790  0.0863 -0.2414 -0.7887
11778SOL     OW36774   4.640   7.542   1.311 -0.2666  0.7970  0.3275
11778SOL    HW136775   4.608   7.535   1.401 -0.2425 -0.8839  0.2319
11778SOL    HW236776   4.735   7.537   1.320 -0.1062  2.9196  0.3639
11779SOL     OW36777   4.966   0.276   0.166  0.1537  0.3290  0.5088
11779SOL    HW136778   4.963   0.339   0.237  0.6943  0.3844  0.4842
11779SOL    HW236779   4.895   0.303   0.107  1.4839  2.0022 -0.4073
11780SOL     OW36780   4.014   2.082   2.544 -0.3975 -0.8270 -0.0416
11780SOL    HW136781   4.081   2.015   2.532 -1.2380 -1.4145 -1.9608
11780SOL    HW236782   3.986   2.073   2.635  0.6060 -2.0255  0.1743
11781SOL     OW36783   5.013   2.268   2.072 -0.6600 -0.0357 -0.0097
11781SOL    HW136784   5.005   2.258   2.167 -0.8423 -1.4490 -0.1530
11781SOL    HW236785   5.017   2.179   2.039 -1.0535  0.4354 -1.3858
11782SOL     OW36786   3.877   0.482  12.487 -0.3694 -0.0275 -0.2513
11782SOL    HW136787   3.925   0.457  12.407  0.6255  1.2975 -0.1039
11782SOL    HW236788   3.887   0.577  12.492 -0.7443 -0.0487  1.2540
11783SOL     OW36789   6.503   0.644   0.917 -0.0909  0.5356  0.1315
11783SOL    HW136790   6.449   0.597   0.854 -1.4385  0.2842  1.4347
11783SOL    HW236791   6.466   0.733   0.918  2.0339  1.5729 -1.8382
11784SOL     OW36792   5.638   0.572   1.307  0.4003 -0.0849  0.2227
11784SOL    HW136793   5.621   0.563   1.213 -2.3855 -1.0874  0.7267
11784SOL    HW236794   5.730   0.598   1.312  0.4371  0.7883 -2.7938
11785SOL     OW36795   4.321   0.906   1.644  0.0878  0.6885 -0.7987
11785SOL    HW136796   4.341   0.832   1.586 -0.7065  0.7609 -1.1837
11785SOL    HW236797   4.370   0.979   1.607 -0.4628  0.7487 -1.4379
11786SOL     OW36798   5.014   1.449   0.679 -0.5556  0.1288 -0.2112
11786SOL    HW136799   5.056   1.387   0.739 -0.8334  0.3793  0.2517
11786SOL    HW236800   5.009   1.530   0.730 -2.0533 -0.0343 -0.0643
11787SOL     OW36801   3.379   2.641   0.277 -0.0257  0.1831 -0.2327
11787SOL    HW136802   3.318   2.595   0.219  0.0089 -0.5467  0.3044
11787SOL    HW236803   3.458   2.587   0.277  1.2596  1.9377 -2.1993
11788SOL     OW36804   6.096   1.443   0.708 -0.0410  0.0525  0.2934
11788SOL    HW136805   6.016   1.494   0.695  0.7689  1.7958  1.6349
11788SOL    HW236806   6.090   1.412   0.798  0.4561 -0.4446  0.1593
11789SOL     OW36807   4.321   2.379   0.834  0.2003 -0.1972  0.1946
11789SOL    HW136808   4.416   2.373   0.842  0.0777 -1.0059  1.4268
11789SOL    HW236809   4.297   2.453   0.890  0.1091  0.0438 -0.1628
11790SOL     OW36810   3.670   0.365   1.028 -0.0385 -0.3151 -0.1710
11790SOL    HW136811   3.661   0.271   1.043  0.0300 -0.2275  0.4590
11790SOL    HW236812   3.753   0.388   1.070  0.4470 -0.1488 -1.1972
11791SOL     OW36813   5.771   0.876  11.577 -0.2742  0.1012  0.0429
11791SOL    HW136814   5.845   0.879  11.638  0.0996 -3.3538 -0.0741
11791SOL    HW236815   5.757   0.783  11.560 -3.0123  0.7565 -1.9967
11792SOL     OW36816   3.706   0.825   1.204 -0.1324 -0.5218  0.1635
11792SOL    HW136817   3.673   0.914   1.215 -0.5188 -0.5182 -0.9120
11792SOL    HW236818   3.784   0.835   1.149  0.1854 -0.7904  0.5596
11793SOL     OW36819   5.097   7.450   1.933  0.3011  0.7288 -0.1465
11793SOL    HW136820   5.066   7.438   1.843 -2.1249  0.5583  0.6518
11793SOL    HW236821   5.143   7.369   1.954 -0.6240  0.0554 -0.6695
11794SOL     OW36822   4.714   3.078   0.429 -0.3476 -0.2633  0.2705
11794SOL    HW136823   4.804   3.111   0.432 -0.4771  0.0832  3.5991
11794SOL    HW236824   4.690   3.085   0.337  2.6500  0.6356 -0.5730
11795SOL     OW36825   4.208   2.125   0.867 -0.4729  0.4166 -0.5389
11795SOL    HW136826   4.180   2.097   0.954  0.2033  0.8493 -0.1770
11795SOL    HW236827   4.211   2.220   0.872 -1.7057  0.5329 -1.4341
11796SOL     OW36828   5.520   7.575  12.432  0.1246  0.5804 -0.5265
11796SOL    HW136829   5.530   7.668  12.413 -0.2498  0.7655  0.1542
11796SOL    HW236830   5.590   7.555  12.495  0.6286  0.2351 -1.1712
11797SOL     OW36831   2.976   1.351   1.987  0.4159 -0.8721  0.7440
11797SOL    HW136832   2.916   1.310   1.925 -0.0819  0.1295  0.5390
11797SOL    HW236833   3.007   1.279   2.042  0.3683 -1.6701 -0.2526
11798SOL     OW36834   3.349   2.301   0.667 -0.4608 -0.6218 -0.4181
11798SOL    HW136835   3.438   2.325   0.640 -0.6726 -1.0259 -1.5745
11798SOL    HW236836   3.350   2.304   0.762  0.4816  0.4579 -0.4472
11799SOL     OW36837   4.296   0.050  12.035 -0.0942 -0.1313 -0.0461
11799SOL    HW136838   4.292   0.115  12.105  0.2455  0.2140 -0.3389
11799SOL    HW236839   4.234   0.082  11.969 -1.3412 -1.1032  0.6158
11800SOL     OW36840   6.054   0.164   2.027 -0.1636 -0.1636 -0.6929
11800SOL    HW136841   6.119   0.097   2.005 -1.5094 -1.7990 -0.0241
11800SOL    HW236842   6.040   0.152   2.121 -0.2649  1.2493 -0.5178
11801SOL     OW36843   4.575   6.853   0.788 -0.1263  0.2858 -0.3771
11801SOL    HW136844   4.547   6.776   0.838 -1.0960  0.1592 -1.0885
11801SOL    HW236845   4.585   6.922   0.853  1.3951 -0.5820  0.3669
11802SOL     OW36846   4.879   7.628   1.690  0.6598 -0.5492  0.3174
11802SOL    HW136847   4.957   7.622   1.744  0.0266  1.6244  1.6257
11802SOL    HW236848   4.881   7.717   1.655 -2.4405  0.6408  2.5987
11803SOL     OW36849   4.893   0.895   1.805 -0.0739  0.7156  0.0514
11803SOL    HW136850   4.917   0.803   1.816  0.4490  1.0521  2.0768
11803SOL    HW236851   4.808   0.893   1.762 -0.0648 -0.7070  0.0536
11804SOL     OW36852   5.680   1.488  12.336 -0.1414  0.4171  0.3679
11804SOL    HW136853   5.743   1.561  12.331  0.5119 -0.1813 -0.5743
11804SOL    HW236854   5.729   1.412  12.304 -1.5080  0.0501 -0.9652
11805SOL     OW36855   4.100   1.562  11.634  0.3164  0.3806 -0.6389
11805SOL    HW136856   4.035   1.508  11.588  0.4497  0.2208 -0.6410
11805SOL    HW236857   4.183   1.516  11.621  0.3287  0.2265 -0.0764
11806SOL     OW36858   5.581   7.666   0.336 -0.2447  0.2583  0.4858
11806SOL    HW136859   5.500   7.634   0.377 -1.4122 -1.6231 -2.8321
11806SOL    HW236860   5.557   7.750   0.297 -0.1123  0.4780  0.8769
11807SOL     OW36861   4.618   0.837  11.790  0.3195 -0.8552  0.6562
11807SOL    HW136862   4.693   0.786  11.759  0.8329 -0.3009  0.9635
11807SOL    HW236863   4.639   0.928  11.766  0.6094 -0.4418  2.3309
11808SOL     OW36864   5.094   1.204   0.178  0.0479  0.0439  0.6597
11808SOL    HW136865   5.068   1.237   0.092  1.2225  0.3863  0.4237
11808SOL    HW236866   5.047   1.122   0.187  0.4549 -0.3544 -0.6183
11809SOL     OW36867   3.401   1.653  12.311  0.1387  0.0744  0.5030
11809SOL    HW136868   3.343   1.647  12.387  0.7676  0.0361  0.9906
11809SOL    HW236869   3.348   1.623  12.238 -0.5010  0.1880  0.9162
11810SOL     OW36870   5.544   0.941   0.140  0.0201  0.4568 -0.9902
11810SOL    HW136871   5.556   0.952   0.235 -3.1482  1.7556 -0.6122
11810SOL    HW236872   5.505   1.024   0.112 -0.8428 -0.5877 -3.0610
11811SOL     OW36873   6.209   0.790   0.899 -0.1626 -0.2476 -0.0345
11811SOL    HW136874   6.215   0.730   0.973  2.5294 -0.9670 -0.7341
11811SOL    HW236875   6.268   0.862   0.922 -1.1866  0.7474 -0.4422
11812SOL     OW36876   5.092   1.199   0.447  0.0912  0.4462 -0.4362
11812SOL    HW136877   5.095   1.206   0.351  0.4950  2.0033 -0.3423
11812SOL    HW236878   5.127   1.112   0.466  0.5614  0.3457 -1.6805
11813SOL     OW36879   6.117   1.191   0.581  0.1609  0.0003  0.4024
11813SOL    HW136880   6.212   1.186   0.568  0.3477  1.7196  0.8033
11813SOL    HW236881   6.101   1.283   0.602 -1.8438  0.1848 -1.5895
11814SOL     OW36882   4.943   1.567   0.052  0.3395  0.1754 -0.3009
11814SOL    HW136883   4.899   1.489   0.017 -1.1666  2.2853 -3.5380
11814SOL    HW236884   4.877   1.609   0.107  0.7933 -0.2129  0.5689
11815SOL     OW36885   4.315   0.026   0.067 -0.1768 -0.0121  0.4684
11815SOL    HW136886   4.279   0.114   0.055 -1.8997 -0.4998  1.5823
11815SOL    HW236887   4.297  -0.018  -0.016  1.3159  0.8409 -0.3493
11816SOL     OW36888   2.271   1.379   0.830  0.4755 -0.3322  0.5061
11816SOL    HW136889   2.261   1.449   0.765  2.3145  0.4645  1.0317
11816SOL    HW236890   2.184   1.338   0.834 -0.4122  1.3381 -0.4547
11817SOL     OW36891   4.253   0.156   1.583 -0.3151 -0.0826 -0.2868
11817SOL    HW136892   4.187   0.095   1.618 -0.6087  0.4429  0.1058
11817SOL    HW236893   4.297   0.107   1.514 -1.3429 -0.3436 -0.7801
11818SOL     OW36894   4.004   7.632  12.306 -0.2897  0.2004 -0.2558
11818SOL    HW136895   4.078   7.573  12.290  1.1714  2.0919 -0.8605
11818SOL    HW236896   3.987   7.673  12.221  0.5398  2.5673  0.6233
11819SOL     OW36897   5.656   0.503   0.767  0.5880  0.0200 -0.9978
11819SOL    HW136898   5.642   0.423   0.717 -1.2904 -0.1723 -0.2528
11819SOL    HW236899   5.571   0.546   0.768  0.3685 -0.2123  2.3609
11820SOL     OW36900   5.249   1.280  12.339 -0.2487  0.0467  0.9779
11820SOL    HW136901   5.220   1.196  12.377 -0.6922 -0.9967 -1.4811
11820SOL    HW236902   5.172   1.312  12.291  0.2209  1.4103  1.1133
11821SOL     OW36903   5.403   1.819   0.410 -0.0326 -0.7513 -0.4436
11821SOL    HW136904   5.384   1.899   0.460 -1.4245 -1.4610  0.1848
11821SOL    HW236905   5.333   1.758   0.433  1.6285 -2.5951 -0.0060
11822SOL     OW36906   5.527   1.636  10.308  0.4200 -0.5221  0.4037
11822SOL    HW136907   5.604   1.690  10.293  0.5847 -1.4054 -2.8179
11822SOL    HW236908   5.455   1.685  10.267  0.4709 -2.2615 -2.0369
11823SOL     OW36909   7.671   1.170  12.264  0.0201  0.2300  0.0460
11823SOL    HW136910   7.714   1.172  12.178 -0.5743  3.1298 -0.2951
11823SOL    HW236911   7.594   1.115  12.251  0.2161  0.2103 -1.1393
11824SOL     OW36912   4.534   1.502   0.026 -0.1293 -0.3752  0.3024
11824SOL    HW136913   4.604   1.454   0.072  0.7435 -1.0917 -1.6798
11824SOL    HW236914   4.510   1.446  -0.047 -0.7244  1.1816 -0.7535
11825SOL     OW36915   3.903   3.656   0.308  0.0435 -0.3166 -0.7676
11825SOL    HW136916   3.870   3.586   0.251  0.2959  0.1288 -1.4754
11825SOL    HW236917   3.983   3.686   0.266  0.0367  0.2796 -0.3739
11826SOL     OW36918   5.113   0.555   1.575  0.1594  0.1085 -0.6083
11826SOL    HW136919   5.083   0.605   1.651 -2.6707 -1.3118 -0.6920
11826SOL    HW236920   5.203   0.585   1.562  0.4024  1.1787  2.6128
11827SOL     OW36921   3.846   2.616   2.265  0.1758 -0.0335 -0.6776
11827SOL    HW136922   3.905   2.596   2.338 -1.2656 -1.1903  0.2258
11827SOL    HW236923   3.880   2.698   2.229 -0.4209  1.9555  2.7966
11828SOL     OW36924   3.474   1.846   1.796 -0.3838  0.1011 -0.4160
11828SOL    HW136925   3.542   1.834   1.861 -1.2155 -0.6557  0.3389
11828SOL    HW236926   3.430   1.761   1.790 -1.7737  0.7763 -0.2699
11829SOL     OW36927   5.275   2.389   0.784 -0.3280  0.5090  0.1236
11829SOL    HW136928   5.196   2.395   0.838 -0.9765  0.8206 -0.8269
11829SOL    HW236929   5.328   2.321   0.826 -1.9912 -1.1242 -0.3152
11830SOL     OW36930   5.701   0.761  12.297 -0.3701  0.0110  0.4276
11830SOL    HW136931   5.767   0.829  12.311  1.3399 -1.9732  3.1823
11830SOL    HW236932   5.735   0.709  12.224 -0.7839  1.0659 -0.5303
11831SOL     OW36933   5.101   0.411   0.998  0.2684 -0.2467  0.2040
11831SOL    HW136934   5.140   0.325   1.014  0.6642 -0.4244 -1.5278
11831SOL    HW236935   5.110   0.424   0.904 -1.2103  1.0240  0.2087
11832SOL     OW36936   3.078   1.358   1.622 -0.1855  0.5531  0.7326
11832SOL    HW136937   3.166   1.330   1.647 -0.4479 -0.5466  0.5202
11832SOL    HW236938   3.038   1.279   1.584 -0.9159  1.2925 -0.1013
11833SOL     OW36939   3.733   1.264   1.278 -0.1483  0.8775  0.3450
11833SOL    HW136940   3.745   1.234   1.187  1.1947  0.0330  0.7588
11833SOL    HW236941   3.703   1.354   1.270 -0.2706  0.7455 -0.9501
11834SOL     OW36942   5.187   1.354  10.995  0.3797  0.7868 -0.7993
11834SOL    HW136943   5.270   1.398  11.010  1.3150 -1.4359  1.2308
11834SOL    HW236944   5.124   1.401  11.048  0.8346  1.1096 -0.5429
11835SOL     OW36945   6.900   1.003   0.939  0.9121  0.0547 -0.1480
11835SOL    HW136946   6.862   0.917   0.918  0.5442  0.5818 -1.7278
11835SOL    HW236947   6.836   1.044   0.997  0.6801 -0.4036 -0.0733
11836SOL     OW36948   2.241   1.679   0.954  0.0979  0.3101  0.0804
11836SOL    HW136949   2.163   1.717   0.914 -0.6083 -0.1040  0.9956
11836SOL    HW236950   2.223   1.585   0.957  0.3663  0.2682  0.8203
11837SOL     OW36951   3.822   2.719   0.156  0.1886  0.3945 -0.0298
11837SOL    HW136952   3.736   2.759   0.144  0.3823  0.5096 -1.0865
11837SOL    HW236953   3.882   2.794   0.161  0.2278  0.3167  0.7569
11838SOL     OW36954   3.585   1.434   0.876  0.0816  0.2662  0.0235
11838SOL    HW136955   3.619   1.345   0.875 -1.0303 -0.1903 -1.5351
11838SOL    HW236956   3.633   1.478   0.946 -0.2731 -1.9029  1.7270
11839SOL     OW36957   5.581   0.274  11.834  0.3475  0.4821  0.1467
11839SOL    HW136958   5.501   0.312  11.871  0.6697  0.8185  0.5069
11839SOL    HW236959   5.566   0.180  11.838  0.0860  0.5327  0.4852
11840SOL     OW36960   3.873   2.636   1.936 -0.1862  0.0412  0.2092
11840SOL    HW136961   3.933   2.601   2.002  0.6359  0.9629 -0.0233
11840SOL    HW236962   3.829   2.559   1.900 -0.4359 -0.5015  1.6189
11841SOL     OW36963   5.216   0.315   0.040  0.3904 -0.7501 -0.1159
11841SOL    HW136964   5.157   0.375  -0.006  0.8469 -1.2032 -1.3462
11841SOL    HW236965   5.162   0.274   0.107 -0.1956  0.2517  0.0342
11842SOL     OW36966   2.422   1.537   0.427 -0.4272  0.3412  0.2840
11842SOL    HW136967   2.426   1.620   0.380 -0.2415  1.1427  1.6382
11842SOL    HW236968   2.489   1.483   0.386 -0.9882  0.6169 -1.0374
11843SOL     OW36969   5.138   1.027  12.400 -0.1445 -0.2706  0.0197
11843SOL    HW136970   5.211   0.971  12.425  0.2240 -0.5416 -1.5530
11843SOL    HW236971   5.127   1.012  12.306 -0.1805  2.1256 -0.4262
11844SOL     OW36972   6.316   1.242   0.913 -0.0437 -0.1959 -0.5883
11844SOL    HW136973   6.231   1.283   0.926 -0.6888 -0.9313 -2.3019
11844SOL    HW236974   6.361   1.298   0.849  0.1435 -0.6808 -0.8836
11845SOL     OW36975   5.961   1.054   3.474  0.2983  1.0147  0.3748
11845SOL    HW136976   5.921   1.039   3.559 -1.7894  1.9752 -0.3792
11845SOL    HW236977   5.974   1.149   3.469 -0.0010  1.0156 -0.5438
11846SOL     OW36978   2.782   0.538   2.723 -0.1714  0.3551 -0.5472
11846SOL    HW136979   2.864   0.541   2.772 -0.3153 -0.5440 -0.2392
11846SOL    HW236980   2.739   0.458   2.752 -2.0607  1.7513  0.7324
11847SOL     OW36981   4.668   1.102  12.155  0.0422 -0.5232 -0.7574
11847SOL    HW136982   4.689   1.191  12.125 -0.1447 -0.6727 -1.3567
11847SOL    HW236983   4.577   1.106  12.181  0.1540 -0.4362 -0.3828
11848SOL     OW36984   4.504   0.426   0.860  0.1220  0.4689 -0.5974
11848SOL    HW136985   4.555   0.478   0.798 -0.9041 -0.7013 -2.5352
11848SOL    HW236986   4.455   0.491   0.911  1.4923  1.4865 -0.5076
11849SOL     OW36987   6.096   0.058  12.115  0.1459 -0.5536  0.6913
11849SOL    HW136988   6.168  -0.003  12.099 -0.2166 -0.9222  0.4596
11849SOL    HW236989   6.135   0.144  12.104 -0.2002 -0.7078 -2.9890
11850SOL     OW36990   4.359   2.100  12.074 -0.1038  0.1326  0.4659
11850SOL    HW136991   4.281   2.112  12.019 -1.6787 -0.7516  2.3958
11850SOL    HW236992   4.415   2.175  12.053 -0.1919 -0.5845 -2.9266
11851SOL     OW36993   2.178   3.489   2.436  0.1882  0.1760 -0.2637
11851SOL    HW136994   2.267   3.462   2.457 -0.2047 -0.0981  1.1241
11851SOL    HW236995   2.152   3.432   2.362  0.9726 -0.0916 -0.3364
11852SOL     OW36996   5.416   1.062  11.761 -0.4879 -0.0362  0.2629
11852SOL    HW136997   5.327   1.071  11.794 -0.9192  0.5417 -0.9877
11852SOL    HW236998   5.429   1.139  11.706  0.0952 -1.0576 -1.1012
11853SOL     OW36999   5.963   7.436   0.680 -0.3312  0.0393 -0.1913
11853SOL    HW137000   5.931   7.516   0.638 -0.2806 -0.3528 -0.9837
11853SOL    HW237001   6.043   7.464   0.725 -1.8018  1.0651  1.9383
11854SOL     OW37002   4.724   7.552   0.802 -0.3265  0.3662  0.1893
11854SOL    HW137003   4.805   7.562   0.852 -0.6181 -0.4105  0.8426
11854SOL    HW237004   4.685   7.471   0.835 -1.2842  0.6351 -0.2300
11855SOL     OW37005   5.510   1.249  12.466  0.8845  0.1122  0.1477
11855SOL    HW137006   5.430   1.243  12.413  0.7055 -4.6788  0.4938
11855SOL    HW237007   5.581   1.244  12.402  0.8256  0.4192  0.0560
11856SOL     OW37008   4.291   1.813   0.841  0.6950  0.1562 -0.0792
11856SOL    HW137009   4.384   1.828   0.860  0.2984 -0.0783  2.3368
11856SOL    HW237010   4.249   1.812   0.927 -1.3745 -0.9681 -1.0432
11857SOL     OW37011   5.106   1.578   2.056 -0.3315 -0.1367 -0.0729
11857SOL    HW137012   5.085   1.489   2.030 -1.0649  0.3367 -1.1867
11857SOL    HW237013   5.079   1.584   2.147 -1.2028 -0.7743 -0.2752
11858SOL     OW37014   7.100   5.803   0.206  0.0815 -0.0688 -0.2003
11858SOL    HW137015   7.103   5.816   0.111 -4.6457 -1.6511 -0.8245
11858SOL    HW237016   7.154   5.725   0.221  0.2309 -0.2827 -1.7121
11859SOL     OW37017   5.041   0.847  11.000 -0.3744  0.4787  0.3717
11859SOL    HW137018   4.947   0.827  10.999 -0.5940  1.3857 -1.5571
11859SOL    HW237019   5.057   0.880  11.088 -1.9686  0.7404  0.5986
11860SOL     OW37020   5.883   0.642  11.308 -0.1726 -0.5211 -0.2730
11860SOL    HW137021   5.811   0.644  11.372  0.4192  0.3377  0.3898
11860SOL    HW237022   5.950   0.589  11.351  0.8720  1.4010  0.5550
11861SOL     OW37023   2.482   1.894  12.235 -0.2498  0.8820 -0.1009
11861SOL    HW137024   2.465   1.988  12.233  0.5822  1.0366 -0.6923
11861SOL    HW237025   2.406   1.856  12.191  0.1202  1.4161 -1.2549
11862SOL     OW37026   2.282   7.004   0.109  0.3315  0.0006 -0.1878
11862SOL    HW137027   2.301   6.925   0.161  1.4185  1.4189  1.7123
11862SOL    HW237028   2.364   7.053   0.109 -0.3990  1.2693 -1.0929
11863SOL     OW37029   5.436   0.773   1.268  0.2876  0.2181  0.5515
11863SOL    HW137030   5.483   0.840   1.318 -0.3626 -0.2689  1.8662
11863SOL    HW237031   5.469   0.690   1.303  1.9907 -0.2212 -1.8971
11864SOL     OW37032   3.765   1.295   1.569  0.0449 -0.1462 -0.3174
11864SOL    HW137033   3.725   1.382   1.576 -2.2436 -1.1237 -0.2084
11864SOL    HW237034   3.747   1.268   1.479 -2.5348 -1.8837  0.6062
11865SOL     OW37035   3.146   3.257   0.827  0.0266  0.2861  0.1964
11865SOL    HW137036   3.238   3.278   0.845  0.4838  0.6397 -2.2215
11865SOL    HW237037   3.108   3.240   0.913  2.3440  0.1443  1.2658
11866SOL     OW37038   3.642   1.525   1.312  0.4144  0.1638 -0.1695
11866SOL    HW137039   3.685   1.595   1.361 -0.2999  0.5495 -0.0826
11866SOL    HW237040   3.556   1.517   1.353 -0.0830  0.2953 -1.1651
11867SOL     OW37041   6.619   1.208   0.020 -0.4267  0.2302  0.8876
11867SOL    HW137042   6.646   1.254  -0.059 -0.0631  0.4684  1.1499
11867SOL    HW237043   6.680   1.237   0.088  1.3521 -2.4081  0.5716
11868SOL     OW37044   3.321   2.028   1.159 -0.4894 -0.6007  1.0504
11868SOL    HW137045   3.260   2.036   1.232  0.1639 -0.3090  1.5794
11868SOL    HW237046   3.399   1.989   1.198  0.7027  1.6039  1.0211
11869SOL     OW37047   6.021   1.000   1.110  0.0245  0.7147  0.0736
11869SOL    HW137048   5.969   0.926   1.079 -1.0653  1.6752 -0.4403
11869SOL    HW237049   6.058   0.970   1.193  0.0003 -0.5721 -0.3519
11870SOL     OW37050   3.953   1.720   2.362  0.5756 -0.8714  0.2864
11870SOL    HW137051   4.023   1.774   2.398  1.4650 -0.2047 -2.2275
11870SOL    HW237052   3.943   1.649   2.425  2.4743 -0.1804  1.4631
11871SOL     OW37053   3.825   7.487   0.410  0.5655  0.0030 -0.3424
11871SOL    HW137054   3.740   7.466   0.372  0.2968  1.0712 -0.3561
11871SOL    HW237055   3.808   7.497   0.503  0.2744  2.0065 -0.5526
11872SOL     OW37056   4.296   2.608   1.004  0.1217  0.2009 -0.4199
11872SOL    HW137057   4.385   2.588   1.035  0.6448 -1.9233 -2.8959
11872SOL    HW237058   4.285   2.701   1.020  2.9056  0.5698 -0.2052
11873SOL     OW37059   4.968   7.863   2.560  0.0106 -0.8477 -0.1233
11873SOL    HW137060   5.062   7.855   2.572 -0.1327 -0.0594  1.7354
11873SOL    HW237061   4.934   7.775   2.575  0.2942 -0.7950  0.8564
11874SOL     OW37062   3.802   1.971   2.367  0.2793  0.0911 -0.1413
11874SOL    HW137063   3.838   1.885   2.345  0.0166  0.1250 -0.7163
11874SOL    HW237064   3.868   2.010   2.424  0.2032 -0.6597  0.4928
11875SOL     OW37065   7.046   1.073   0.475 -0.0244  0.2236  0.2817
11875SOL    HW137066   7.074   1.080   0.567  0.5503  2.4488 -0.0058
11875SOL    HW237067   6.998   0.990   0.471 -0.6492  0.3853  2.7508
11876SOL     OW37068   4.538   1.848   0.942 -0.6406 -0.0002 -0.4229
11876SOL    HW137069   4.573   1.788   1.009  0.1994  0.3570 -0.5240
11876SOL    HW237070   4.607   1.850   0.875 -0.8799  0.6987 -0.6509
11877SOL     OW37071   4.820   7.501  10.771  0.1404 -0.0029  0.3683
11877SOL    HW137072   4.913   7.514  10.753 -0.1386  0.9567 -0.4934
11877SOL    HW237073   4.818   7.444  10.848  1.4105 -1.7777 -0.8564
11878SOL     OW37074   3.805   1.617   0.462  0.5726  0.5354  0.5217
11878SOL    HW137075   3.723   1.657   0.490 -0.0378 -0.2134 -0.1344
11878SOL    HW237076   3.859   1.691   0.434 -0.2545  0.9673  0.0102
11879SOL     OW37077   4.460   1.658   0.311  0.0354  0.3196 -0.2469
11879SOL    HW137078   4.438   1.634   0.221 -0.3713 -0.0239 -0.0592
11879SOL    HW237079   4.466   1.574   0.357 -1.6570  0.5555  0.4761
11880SOL     OW37080   3.463   1.252  12.416  0.2474  0.1100 -0.0313
11880SOL    HW137081   3.519   1.287  12.347  0.5865  0.0347  0.2025
11880SOL    HW237082   3.374   1.262  12.382  0.4498 -0.6495 -0.7966
11881SOL     OW37083   4.336   1.632   0.637 -1.2476 -0.3647 -0.2314
11881SOL    HW137084   4.331   1.699   0.705 -1.4888  0.1725 -0.7621
11881SOL    HW237085   4.366   1.553   0.682 -0.2921  0.2726  0.2901
11882SOL     OW37086   4.614   7.563   0.175  0.2604 -0.5181 -0.2738
11882SOL    HW137087   4.702   7.563   0.214  0.3621  0.3192 -0.4926
11882SOL    HW237088   4.555   7.558   0.250  0.4804 -0.1744 -0.0713
11883SOL     OW37089   5.199   1.648   0.521  0.4554 -0.4564 -0.0826
11883SOL    HW137090   5.271   1.619   0.576  0.6353  2.4998  1.4354
11883SOL    HW237091   5.145   1.702   0.579 -2.1800 -1.3228 -1.5700
11884SOL     OW37092   2.502   3.548   2.263 -0.4197  0.4677  0.4169
11884SOL    HW137093   2.545   3.567   2.179 -0.0530 -0.9733  0.2581
11884SOL    HW237094   2.455   3.467   2.248  1.5739 -1.1520  2.2450
11885SOL     OW37095   7.030   0.121  11.157  0.5383  0.4687  0.0921
11885SOL    HW137096   6.938   0.135  11.179  0.4889 -0.9527  0.9064
11885SOL    HW237097   7.051   0.036  11.197  2.0132  0.4622 -0.6593
11886SOL     OW37098   5.069   3.128   2.432  0.1158 -0.3027 -0.1892
11886SOL    HW137099   5.009   3.169   2.494  0.2241 -0.3268 -0.0687
11886SOL    HW237100   5.111   3.202   2.388  1.4104 -0.2530  1.0745
11887SOL     OW37101   2.813   1.779  11.917  0.3401 -0.1327 -0.1954
11887SOL    HW137102   2.812   1.871  11.890 -0.1944 -0.1935 -0.4017
11887SOL    HW237103   2.839   1.731  11.839  0.4449 -0.1730 -0.1370
11888SOL     OW37104   4.628   1.835   2.144 -0.3220 -0.2222  0.0937
11888SOL    HW137105   4.585   1.916   2.173 -1.1771 -0.1857 -1.1723
11888SOL    HW237106   4.694   1.864   2.082 -1.4597 -0.5203 -1.3212
11889SOL     OW37107   6.429   6.111   1.660  0.3761  0.3969  0.1986
11889SOL    HW137108   6.482   6.094   1.582 -0.2848  1.0608 -0.4201
11889SOL    HW237109   6.470   6.061   1.729  0.3685 -1.0779 -0.8209
11890SOL     OW37110   5.361   0.257   2.007 -0.3413 -0.1114 -0.3966
11890SOL    HW137111   5.419   0.331   2.027  0.2380 -0.6475 -0.0320
11890SOL    HW237112   5.414   0.180   2.027 -1.1810 -0.6194 -0.0670
11891SOL     OW37113   5.027   1.890   0.611 -0.0651  0.1509  0.1150
11891SOL    HW137114   4.991   1.874   0.524 -2.1201 -0.2093  0.9523
11891SOL    HW237115   5.003   1.980   0.631 -0.6244 -0.1135  0.7145
11892SOL     OW37116   4.481   1.115   1.582 -0.0297  0.1011  0.0618
11892SOL    HW137117   4.568   1.151   1.601  0.3119 -0.1718 -0.9344
11892SOL    HW237118   4.445   1.173   1.516 -1.0286  0.7843  1.1668
11893SOL     OW37119   5.927   7.442   0.016 -0.2653 -0.3683  0.3117
11893SOL    HW137120   5.947   7.395   0.096 -1.0566 -1.6568 -0.2093
11893SOL    HW237121   5.866   7.511   0.043  1.1104  0.5525  1.1246
11894SOL     OW37122   6.440   1.473  10.652  0.4548  0.8060  0.0108
11894SOL    HW137123   6.471   1.562  10.669  0.9429  0.2879  2.1730
11894SOL    HW237124   6.514   1.417  10.678 -0.5914 -0.2851  0.7098
11895SOL     OW37125   4.417   2.045   1.079  0.8433  0.2445 -0.0251
11895SOL    HW137126   4.428   2.123   1.026 -2.0107  0.6896 -0.1074
11895SOL    HW237127   4.442   1.973   1.021  1.1106  0.9354 -0.7881
11896SOL     OW37128   4.939   0.959   0.220  0.6789  0.0233 -0.5563
11896SOL    HW137129   4.911   0.910   0.143  1.0462 -0.4708 -0.3821
11896SOL    HW237130   4.912   0.905   0.294 -0.0203  0.6772 -0.3143
11897SOL     OW37131   4.232   0.111   0.425  0.2596 -0.3494  0.6252
11897SOL    HW137132   4.192   0.139   0.507 -0.2326  3.1510 -0.6364
11897SOL    HW237133   4.165   0.056   0.383 -0.3234 -0.4141  1.6164
11898SOL     OW37134   6.381   7.227  12.040 -0.6177  0.0883  0.1957
11898SOL    HW137135   6.328   7.169  11.985 -1.2953  0.5092  0.3930
11898SOL    HW237136   6.318   7.286  12.080  0.1276  1.4120 -0.5288
11899SOL     OW37137   4.827   1.928  12.464  0.0160 -0.2106  0.1960
11899SOL    HW137138   4.920   1.931  12.485  0.0484 -1.8677  0.4315
11899SOL    HW237139   4.816   1.846  12.416 -1.7636 -1.3828  2.4391
11900SOL     OW37140   7.599   1.215   0.671  0.1427  0.4816  0.2695
11900SOL    HW137141   7.662   1.190   0.739  0.8409  1.5467  0.0390
11900SOL    HW237142   7.651   1.220   0.591 -0.5657 -0.2143 -0.2468
11901SOL     OW37143   3.914   2.296   0.876  0.0112  0.0067 -0.1586
11901SOL    HW137144   3.943   2.371   0.824 -2.9171  2.2329  1.1134
11901SOL    HW237145   3.846   2.255   0.823 -0.2947 -0.0844  0.3048
11902SOL     OW37146   3.009   0.547   1.085 -0.4685 -0.6212 -0.2609
11902SOL    HW137147   3.094   0.560   1.043  0.2458 -0.1434  1.2814
11902SOL    HW237148   2.946   0.574   1.018  0.5815 -0.6095 -1.2974
11903SOL     OW37149   4.274   0.408   1.661 -0.3261 -0.0920 -0.1200
11903SOL    HW137150   4.180   0.401   1.673 -0.4658 -1.1581 -1.5724
11903SOL    HW237151   4.302   0.321   1.633  1.3438 -0.2176  1.6776
11904SOL     OW37152   5.487   7.898   1.614 -0.2738 -0.2797 -0.3498
11904SOL    HW137153   5.546   7.906   1.538 -0.0186  0.8353 -0.0586
11904SOL    HW237154   5.483   7.987   1.649 -1.5156 -0.5132  0.1112
11905SOL     OW37155   5.456   7.152   2.297 -0.0227 -0.3458  0.3881
11905SOL    HW137156   5.522   7.146   2.366 -0.3814 -1.2605  0.6574
11905SOL    HW237157   5.373   7.160   2.344 -0.3106 -1.4038  0.0838
11906SOL     OW37158   4.686   3.412  11.262  0.3844  0.4840 -0.1702
11906SOL    HW137159   4.745   3.388  11.191  1.4409  2.0223  0.1374
11906SOL    HW237160   4.739   3.409  11.341 -0.0929  1.2772  0.2000
11907SOL     OW37161   4.271   1.304  12.070  0.0880 -0.4950 -0.1571
11907SOL    HW137162   4.292   1.370  12.004  0.2004 -1.1604 -0.7994
11907SOL    HW237163   4.181   1.278  12.050 -0.4599  0.4691  0.9744
11908SOL     OW37164   4.370   3.082   0.882  0.3548 -0.1501 -0.4208
11908SOL    HW137165   4.363   3.068   0.977 -2.9866 -2.5774 -0.8485
11908SOL    HW237166   4.443   3.027   0.856  1.1309  0.3158  0.6651
11909SOL     OW37167   5.096   2.129   1.268 -0.1927 -0.2536  0.0884
11909SOL    HW137168   5.038   2.203   1.287  1.3010  0.8386  0.6409
11909SOL    HW237169   5.161   2.164   1.207  0.8315 -0.9404  0.7376
11910SOL     OW37170   5.693   7.094  12.409  1.0460 -0.5538  0.5706
11910SOL    HW137171   5.652   7.009  12.398  2.2613 -1.0097 -0.6285
11910SOL    HW237172   5.753   7.082  12.483  0.4763 -0.4375  1.0587
11911SOL     OW37173   4.759   2.290   1.656  0.5519  0.4834 -0.3292
11911SOL    HW137174   4.780   2.266   1.566 -0.0627  0.0526 -0.3652
11911SOL    HW237175   4.721   2.378   1.648  0.6487  0.5135 -0.4712
11912SOL     OW37176   7.006   1.886   0.025  0.6640  1.2250 -0.2311
11912SOL    HW137177   6.932   1.826   0.015  0.2204  1.5656  0.9245
11912SOL    HW237178   7.067   1.860  -0.045  0.3037 -0.2861 -0.0159
11913SOL     OW37179   5.004   0.211   0.502  0.1639  0.1302  0.3954
11913SOL    HW137180   4.973   0.277   0.564 -0.2538  1.5045 -1.2149
11913SOL    HW237181   4.925   0.181   0.458  0.3989 -1.2207  0.8493
11914SOL     OW37182   4.639   0.821   1.720 -0.0741 -0.1389  0.7213
11914SOL    HW137183   4.554   0.864   1.711  0.1219  0.1018 -0.0609
11914SOL    HW237184   4.626   0.733   1.685  0.2868  0.2801 -0.5071
11915SOL     OW37185   5.406   6.631   1.939  0.0842  0.1521  0.3741
11915SOL    HW137186   5.435   6.714   1.903 -0.9180  0.5400  0.4405
11915SOL    HW237187   5.471   6.611   2.007  1.3133 -0.0098 -0.8100
11916SOL     OW37188   4.157   2.453   2.817 -0.4405 -0.1617  0.1464
11916SOL    HW137189   4.239   2.493   2.843 -1.7063  1.5216  1.7878
11916SOL    HW237190   4.178   2.360   2.805  1.6501  0.2158  0.6071
11917SOL     OW37191   4.446   0.985   0.085 -0.0313 -0.5404 -0.0313
11917SOL    HW137192   4.483   0.939   0.160 -1.3192 -0.4982  0.6619
11917SOL    HW237193   4.449   0.920   0.014  0.5089 -0.8352  0.2565
11918SOL     OW37194   4.378   2.123   2.520  0.0088  0.5373  0.0467
11918SOL    HW137195   4.337   2.188   2.463 -1.8089 -1.1766 -0.7483
11918SOL    HW237196   4.325   2.125   2.600  0.7903  0.9407  0.5720
11919SOL     OW37197   5.220   0.714  12.388  0.5422  0.2949 -0.1023
11919SOL    HW137198   5.192   0.668  12.309  0.2161  0.9053 -0.3563
11919SOL    HW237199   5.309   0.685  12.403  0.7030  0.3850 -0.8625
11920SOL     OW37200   3.291   1.365   0.832  0.2807  0.3517 -0.4840
11920SOL    HW137201   3.376   1.402   0.855  0.4005  0.8545 -1.6522
11920SOL    HW237202   3.283   1.382   0.738 -1.7694  1.6820 -0.1243
11921SOL     OW37203   4.301   2.288  12.443 -0.1028 -0.2042  0.0315
11921SOL    HW137204   4.336   2.339  12.369 -2.0215 -1.3593 -1.7939
11921SOL    HW237205   4.358   2.212  12.449  0.5134  0.2649  0.2688
11922SOL     OW37206   3.947   1.157   0.475 -0.1774  0.1153 -0.2741
11922SOL    HW137207   3.971   1.249   0.466  0.5960 -0.2092 -1.7870
11922SOL    HW237208   3.916   1.149   0.565  0.6068  1.6551  0.1626
11923SOL     OW37209   4.888   1.335   1.337 -0.2959 -0.3231  0.0582
11923SOL    HW137210   4.891   1.263   1.273  1.8107  1.1944 -1.6937
11923SOL    HW237211   4.947   1.308   1.407  1.0739 -0.0503 -0.9508
11924SOL     OW37212   3.819   0.329   2.411 -0.6169  0.0438  0.7911
11924SOL    HW137213   3.782   0.414   2.433 -0.9630  0.8670 -2.4595
11924SOL    HW237214   3.780   0.306   2.327  2.7637 -1.1947 -0.6385
11925SOL     OW37215   5.478   7.890  12.330 -0.2448 -0.1019 -0.0316
11925SOL    HW137216   5.550   7.922  12.385 -0.0328 -1.7534  0.6935
11925SOL    HW237217   5.399   7.918  12.376 -0.1214  1.5963 -0.7589
11926SOL     OW37218   4.667   7.977   1.334 -0.5485 -0.1570  0.1331
11926SOL    HW137219   4.606   7.943   1.268  1.5216  1.1673 -2.6652
11926SOL    HW237220   4.628   8.060   1.361 -0.7114 -0.0247 -0.4992
11927SOL     OW37221   4.664   3.465   1.746 -0.3190 -0.3347  0.1588
11927SOL    HW137222   4.743   3.428   1.706  0.6936  0.3710  1.4057
11927SOL    HW237223   4.680   3.559   1.746 -0.5575 -0.2675  1.5726
11928SOL     OW37224   5.668   1.084   1.247  0.4774  0.2528  0.2081
11928SOL    HW137225   5.669   1.178   1.263 -0.1267  0.5529 -1.3621
11928SOL    HW237226   5.622   1.047   1.322 -0.3300  1.3300  0.2600
11929SOL     OW37227   4.153   1.877   0.289  0.2991 -0.2298 -0.1643
11929SOL    HW137228   4.221   1.945   0.284  0.0379 -0.0291 -1.0493
11929SOL    HW237229   4.139   1.849   0.199 -0.3983 -0.6754  0.0693
11930SOL     OW37230   4.906   0.794   1.111 -0.9433  0.6461  0.1015
11930SOL    HW137231   4.982   0.826   1.159 -0.5278 -0.7009  0.3617
11930SOL    HW237232   4.858   0.739   1.173 -1.4654  0.4851 -0.4279
11931SOL     OW37233   7.523   0.533   0.321 -0.0599 -0.0710  0.4873
11931SOL    HW137234   7.596   0.472   0.319  1.1584  1.3428  0.1690
11931SOL    HW237235   7.509   0.557   0.230 -0.1092  0.5685  0.6532
11932SOL     OW37236   4.575   2.289   0.659  0.0896  0.0761 -0.0739
11932SOL    HW137237   4.658   2.244   0.647  0.6593  0.9107  0.5892
11932SOL    HW237238   4.512   2.239   0.606  0.9125 -0.8215 -0.2264
11933SOL     OW37239   5.024   2.764   1.617 -0.3133 -0.5313 -0.2104
11933SOL    HW137240   5.086   2.767   1.689 -0.2207  1.0473 -0.3308
11933SOL    HW237241   4.944   2.726   1.655 -0.0703 -0.2821  0.5570
11934SOL     OW37242   6.755   0.973  12.147  0.1338  0.3647 -0.4026
11934SOL    HW137243   6.779   0.955  12.237 -2.1884 -0.7287  0.0867
11934SOL    HW237244   6.661   0.994  12.151  0.3686  2.1382 -2.3475
11935SOL     OW37245   3.902   1.771   0.914 -0.2623  0.6102  0.0103
11935SOL    HW137246   3.826   1.759   0.971 -0.1801  2.1821  0.5001
11935SOL    HW237247   3.977   1.769   0.973  0.0250 -0.0772 -0.3638
11936SOL     OW37248   6.493   5.898   0.391 -0.7244  0.5156 -0.2374
11936SOL    HW137249   6.548   5.975   0.376  0.3852 -0.1395  0.3429
11936SOL    HW237250   6.514   5.839   0.318  0.8974 -0.5646  1.0222
11937SOL     OW37251   2.785   0.660   0.900 -0.0440  0.4797 -0.2990
11937SOL    HW137252   2.704   0.657   0.850 -0.6231  0.1325  0.6454
11937SOL    HW237253   2.791   0.751   0.930 -0.8817  0.1474  0.9104
11938SOL     OW37254   2.966   1.642  11.715 -0.4630  0.0025 -0.1832
11938SOL    HW137255   3.034   1.631  11.648  1.5218 -0.0443  1.7266
11938SOL    HW237256   2.934   1.554  11.732 -0.1366 -0.1271 -0.2327
11939SOL     OW37257   2.828   0.878   1.529  0.6833  0.1785  0.2374
11939SOL    HW137258   2.747   0.845   1.489 -0.7607  2.7638  0.7930
11939SOL    HW237259   2.847   0.816   1.599 -0.9780 -0.3963  0.2285
11940SOL     OW37260   3.465   0.767   0.464 -0.4303  0.3133  0.2895
11940SOL    HW137261   3.386   0.815   0.436 -0.6878 -0.3566 -0.1583
11940SOL    HW237262   3.530   0.785   0.397 -0.9576 -1.0591 -0.6310
11941SOL     OW37263   3.859   1.755   1.836  0.3426  0.0371  0.2671
11941SOL    HW137264   3.806   1.728   1.911 -0.3314  0.4956 -0.0350
11941SOL    HW237265   3.902   1.675   1.806  1.2253 -0.0250  1.6017
11942SOL     OW37266   4.338   0.486   4.159  0.3043 -0.7955  0.0214
11942SOL    HW137267   4.354   0.535   4.079  0.7702 -0.4101  0.3439
11942SOL    HW237268   4.406   0.418   4.159  0.1813 -0.9183 -0.0103
11943SOL     OW37269   6.063   0.619   3.396 -0.4002  0.0704  0.0673
11943SOL    HW137270   5.997   0.687   3.402  0.3011  0.6417  1.7241
11943SOL    HW237271   6.147   0.665   3.402  0.1294 -0.7955 -0.3484
11944SOL     OW37272   5.052   0.545   2.566  0.3882  0.1485  0.0206
11944SOL    HW137273   5.026   0.624   2.614  0.3703 -0.6174  1.3278
11944SOL    HW237274   5.122   0.575   2.507  1.0661  0.9753  1.1955
11945SOL     OW37275   6.439   0.424   2.377 -0.1049  0.2291 -0.1260
11945SOL    HW137276   6.459   0.407   2.285 -0.7413  0.7488 -0.3731
11945SOL    HW237277   6.434   0.520   2.383  1.3937  0.2814  0.7749
11946SOL     OW37278   5.826   0.105   1.351  0.0006 -0.0121  0.2528
11946SOL    HW137279   5.908   0.154   1.354  0.7273 -1.2096  1.6201
11946SOL    HW237280   5.757   0.171   1.347  0.9722  1.0727  1.0514
11947SOL     OW37281   4.256   0.563   2.844 -0.0762  0.0600 -0.2400
11947SOL    HW137282   4.166   0.567   2.813 -0.2652  2.9492  0.4327
11947SOL    HW237283   4.251   0.591   2.936  1.4986  0.1795 -0.1646
11948SOL     OW37284   4.575   1.488   2.735 -0.2518 -0.1565  1.0528
11948SOL    HW137285   4.586   1.582   2.745 -0.0298 -0.2253  1.4831
11948SOL    HW237286   4.532   1.460   2.816 -0.1322 -0.4536  1.0157
11949SOL     OW37287   4.339   0.752   2.628  0.1167  0.4970  0.2237
11949SOL    HW137288   4.250   0.755   2.662 -0.2328  0.4457 -0.6469
11949SOL    HW237289   4.331   0.710   2.542  1.0535  0.0207  0.3494
11950SOL     OW37290   5.512   1.075   3.968  0.7056  0.3079  0.7269
11950SOL    HW137291   5.458   1.094   4.044  1.1909  1.7582  0.7382
11950SOL    HW237292   5.601   1.075   4.000  0.8238 -0.6811  0.4426
11951SOL     OW37293   5.968   0.960   3.217  0.0281 -0.6483  0.6348
11951SOL    HW137294   6.007   0.998   3.296 -1.3799 -0.3312  1.2102
11951SOL    HW237295   5.938   1.037   3.167  1.1688 -0.8284 -0.3774
11952SOL     OW37296   1.956   1.301   3.247 -0.6333 -0.3626 -1.1360
11952SOL    HW137297   1.903   1.227   3.217 -0.1083 -0.8502 -0.8679
11952SOL    HW237298   1.971   1.353   3.169 -0.6889 -0.7400 -1.3987
11953SOL     OW37299   7.288   0.261   1.377 -0.7066 -0.4605 -0.1730
11953SOL    HW137300   7.196   0.286   1.368 -0.7005 -0.7053 -0.9728
11953SOL    HW237301   7.308   0.277   1.470 -1.5192 -0.2999 -0.0167
11954SOL     OW37302   3.801   0.914   2.924  0.3966 -0.6463  0.2381
11954SOL    HW137303   3.831   0.823   2.914  1.1660 -0.5881  1.8120
11954SOL    HW237304   3.859   0.951   2.990 -0.7133  0.6262  0.5270
11955SOL     OW37305   4.462   0.854   3.225  0.1396  0.1661 -0.0754
11955SOL    HW137306   4.424   0.942   3.223 -1.6784 -0.5733  0.3319
11955SOL    HW237307   4.505   0.849   3.310  0.8249  0.8693 -0.3654
11956SOL     OW37308   2.185   2.745   1.507 -0.2267  0.2374  0.3646
11956SOL    HW137309   2.156   2.826   1.549 -0.5802  0.1029  0.3913
11956SOL    HW237310   2.179   2.763   1.413 -0.2726  0.2534  0.3704
11957SOL     OW37311   4.041   1.501   1.828  0.5372  0.1181  0.0534
11957SOL    HW137312   4.013   1.527   1.915  0.0045  0.9750 -0.3631
11957SOL    HW237313   4.051   1.406   1.833  0.9797  0.2170  1.1679
11958SOL     OW37314   3.785   0.528   1.597  0.9251 -0.0840 -0.2157
11958SOL    HW137315   3.714   0.517   1.661  1.0846 -0.2100 -0.0580
11958SOL    HW237316   3.773   0.616   1.563 -1.2496 -1.1702 -2.5633
11959SOL     OW37317   4.565   2.139   3.483 -0.2026  0.1985  0.2389
11959SOL    HW137318   4.554   2.216   3.538 -0.2709  0.2466  0.1586
11959SOL    HW237319   4.568   2.066   3.544 -0.0627  0.2712  0.3204
11960SOL     OW37320   4.921   7.876   1.536 -0.3794 -0.2790 -0.0637
11960SOL    HW137321   4.851   7.939   1.520 -1.5573 -0.3632  3.7329
11960SOL    HW237322   4.997   7.930   1.560  0.1428 -0.2665 -1.6262
11961SOL     OW37323   4.973   2.377   2.343 -0.5494  0.1825 -0.4881
11961SOL    HW137324   4.928   2.328   2.412 -0.9910  1.3741  0.1071
11961SOL    HW237325   4.924   2.459   2.336  1.0582  1.2107 -0.3411
11962SOL     OW37326   1.776   1.494   1.004  0.1875  0.3751 -0.1537
11962SOL    HW137327   1.864   1.470   1.033  0.9935  0.0874 -2.6152
11962SOL    HW237328   1.779   1.589   0.994  0.4909  0.2875 -0.9779
11963SOL     OW37329   5.610   0.564   1.737 -0.0958 -0.6304 -0.7350
11963SOL    HW137330   5.596   0.532   1.827 -0.4628  1.5192  0.0231
11963SOL    HW237331   5.673   0.502   1.700  0.4948 -1.2668  1.1857
11964SOL     OW37332   6.212   0.621   1.608  0.0738 -0.2714  0.5098
11964SOL    HW137333   6.184   0.673   1.683 -0.0193  1.2184 -0.5243
11964SOL    HW237334   6.151   0.547   1.607 -0.6639  0.3004  1.2131
11965SOL     OW37335   3.323   1.392   3.766  0.4471  0.7763  0.1799
11965SOL    HW137336   3.378   1.325   3.727 -0.6669 -0.7442  1.1201
11965SOL    HW237337   3.381   1.441   3.824  0.9597 -0.3587  0.6423
11966SOL     OW37338   4.836   1.539   2.518  0.4616 -0.6002 -0.0510
11966SOL    HW137339   4.891   1.511   2.591  0.0423  0.0585  0.5235
11966SOL    HW237340   4.749   1.549   2.555  0.0959 -0.9455 -0.8033
11967SOL     OW37341   6.457   0.664   2.883  0.3279  0.1769  0.3608
11967SOL    HW137342   6.521   0.675   2.954  0.0807 -2.3043  1.0904
11967SOL    HW237343   6.484   0.727   2.817  2.0395  0.9239  1.6727
11968SOL     OW37344   4.885   7.185   3.632  0.0142 -0.9230 -0.1077
11968SOL    HW137345   4.943   7.245   3.680 -1.0574 -0.4884  0.6770
11968SOL    HW237346   4.940   7.150   3.562  1.0214  0.0229  0.1811
11969SOL     OW37347   2.669   2.121   3.558 -0.3523 -0.0406  0.1338
11969SOL    HW137348   2.627   2.202   3.586  1.6846  0.3718  2.2868
11969SOL    HW237349   2.759   2.146   3.537 -0.2214 -1.4373 -1.1974
11970SOL     OW37350   6.316   1.333   1.390 -0.2581 -0.0738  0.1195
11970SOL    HW137351   6.284   1.259   1.440  1.0997  0.1419  1.3701
11970SOL    HW237352   6.267   1.408   1.424  0.9226  0.1350  1.4896
11971SOL     OW37353   5.608   0.688   3.729 -0.0047  0.1418 -0.6050
11971SOL    HW137354   5.685   0.704   3.782  0.9865  0.0965 -1.9744
11971SOL    HW237355   5.534   0.707   3.787  1.0187  0.0827  0.7631
11972SOL     OW37356   3.998   0.556   2.727  0.4066 -0.6384 -0.0686
11972SOL    HW137357   3.909   0.588   2.716  0.4450 -0.4570  0.1492
11972SOL    HW237358   4.019   0.513   2.644 -0.0686 -1.1341  0.0621
11973SOL     OW37359   5.369   1.245   2.714  0.0898  0.7637  0.1665
11973SOL    HW137360   5.327   1.170   2.671 -1.0772  0.4289  1.7808
11973SOL    HW237361   5.455   1.212   2.739  0.4333  0.6784 -1.0600
11974SOL     OW37362   6.211   0.277   1.576 -0.2025 -0.5736  0.2017
11974SOL    HW137363   6.162   0.296   1.657  0.2333  0.4893  0.2223
11974SOL    HW237364   6.296   0.319   1.589 -0.5973  0.7911 -1.3615
11975SOL     OW37365   4.408   1.759   1.874 -0.0814 -0.0580  0.1266
11975SOL    HW137366   4.358   1.752   1.955  2.0335  0.1883  1.5505
11975SOL    HW237367   4.374   1.690   1.818 -0.7563 -1.0560  1.7047
11976SOL     OW37368   4.721   0.179   2.079 -0.1735 -0.0302 -0.2939
11976SOL    HW137369   4.747   0.218   1.996  0.6501  0.7494  0.3075
11976SOL    HW237370   4.801   0.140   2.113 -0.6188 -0.7955 -0.1008
11977SOL     OW37371   5.700   2.600   2.732  0.0602 -0.4275  0.6741
11977SOL    HW137372   5.719   2.533   2.667 -0.3152 -0.5886  0.7310
11977SOL    HW237373   5.621   2.643   2.701 -1.1169 -1.6168  1.8634
11978SOL     OW37374   4.065   0.658   1.985 -0.2833 -0.2903  0.0855
11978SOL    HW137375   4.158   0.647   2.002 -0.0225  1.1863 -0.2080
11978SOL    HW237376   4.060   0.693   1.896 -1.0775  0.1350  0.2842
11979SOL     OW37377   6.214   7.526   2.488  0.1920 -0.0938  0.3972
11979SOL    HW137378   6.226   7.619   2.468  0.6866  0.2421  2.0411
11979SOL    HW237379   6.119   7.514   2.490  0.0781  0.7582  1.5770
11980SOL     OW37380   4.615   1.591   3.090  0.3197 -0.5785  0.0754
11980SOL    HW137381   4.650   1.573   3.176 -0.5668  0.3399  0.6534
11980SOL    HW237382   4.671   1.660   3.055  0.4911 -0.7370  0.0324
11981SOL     OW37383   5.099   6.380   2.973  0.4219 -0.3339  0.2108
11981SOL    HW137384   5.184   6.337   2.965  1.0925  0.3980  2.6878
11981SOL    HW237385   5.050   6.325   3.034 -0.1986  0.2478  0.2524
11982SOL     OW37386   2.995   2.031   1.657 -0.0447 -0.5119 -0.1936
11982SOL    HW137387   2.961   2.110   1.699  1.0381  0.0392 -0.3181
11982SOL    HW237388   2.979   1.961   1.720 -1.0151 -0.1963 -0.0830
11983SOL     OW37389   5.245   2.286   2.951 -0.4569 -0.2655  0.1546
11983SOL    HW137390   5.323   2.281   2.896  0.0826  1.1914  0.7172
11983SOL    HW237391   5.173   2.299   2.889  0.1889  1.7887 -0.2662
11984SOL     OW37392   4.641   7.737   2.290  0.2802  0.5745  0.4147
11984SOL    HW137393   4.562   7.728   2.343  0.3759  2.2618  0.9083
11984SOL    HW237394   4.609   7.770   2.206  0.2925 -0.5191 -0.0297
11985SOL     OW37395   3.656   1.192   5.079  0.1001 -0.0717  0.0963
11985SOL    HW137396   3.665   1.203   4.984 -0.1512 -0.3158  0.0421
11985SOL    HW237397   3.716   1.121   5.100 -0.8476 -0.9567 -0.0976
11986SOL     OW37398   5.568   0.555   1.031 -0.4005  0.4747 -0.1185
11986SOL    HW137399   5.612   0.551   0.947  0.2106 -1.0020  0.2466
11986SOL    HW237400   5.509   0.480   1.032  0.5792 -0.3230  1.2753
11987SOL     OW37401   4.238   7.889   1.528 -0.2337  0.0266 -0.1682
11987SOL    HW137402   4.197   7.803   1.523 -0.2159 -0.0863  1.2371
11987SOL    HW237403   4.331   7.871   1.544 -0.2652  0.2984  0.3442
11988SOL     OW37404   3.932   2.442   1.121 -0.2182 -0.1546 -0.2288
11988SOL    HW137405   3.883   2.512   1.079  1.9930 -0.1020 -3.0562
11988SOL    HW237406   3.913   2.364   1.069  1.7547 -0.3472 -0.7398
11989SOL     OW37407   1.926   0.877   1.743 -0.5102  0.3116 -0.2052
11989SOL    HW137408   2.016   0.897   1.720 -0.3079  1.0987  1.1700
11989SOL    HW237409   1.904   0.940   1.812 -0.5482 -2.7544  2.8589
11990SOL     OW37410   5.274   1.045   1.679  0.3470  0.8132  0.2740
11990SOL    HW137411   5.315   1.068   1.762 -1.6529  1.0740  1.2440
11990SOL    HW237412   5.241   1.128   1.645  0.6135  0.6152 -0.4797
11991SOL     OW37413   5.667   1.803   4.266  0.1510  0.1135 -0.0608
11991SOL    HW137414   5.625   1.870   4.320 -0.6143 -1.2332  1.0907
11991SOL    HW237415   5.678   1.728   4.325  1.4692 -0.5997 -1.1570
11992SOL     OW37416   2.751   2.183   2.945  0.0269 -0.3078  0.2225
11992SOL    HW137417   2.718   2.157   2.859  0.3182  1.7346 -0.5722
11992SOL    HW237418   2.672   2.197   2.998 -0.2279  0.0627 -0.2474
11993SOL     OW37419   5.866   7.936   0.637  0.2753 -0.1082  0.0319
11993SOL    HW137420   5.831   8.024   0.619  0.4030  0.2638  1.5136
11993SOL    HW237421   5.923   7.948   0.713 -0.1455 -1.5917  0.6123
11994SOL     OW37422   4.426   0.331   2.825 -0.0689  0.0384  0.7399
11994SOL    HW137423   4.372   0.264   2.782 -0.5429  0.8544  0.0036
11994SOL    HW237424   4.369   0.408   2.828  0.3726  0.3350  1.8095
11995SOL     OW37425   4.048   1.521   1.511 -0.2785  0.3778 -0.1011
11995SOL    HW137426   4.048   1.512   1.606 -2.5890  0.1822 -0.0627
11995SOL    HW237427   3.965   1.566   1.491  0.0213  0.1583 -2.0344
11996SOL     OW37428   3.891   1.195   3.252  0.5180  0.1660  0.5152
11996SOL    HW137429   3.875   1.146   3.333 -2.1259  0.1909  0.1039
11996SOL    HW237430   3.921   1.130   3.189 -0.2738 -0.4167  0.7326
11997SOL     OW37431   5.333   0.238   0.761  0.1770 -0.2001 -0.1541
11997SOL    HW137432   5.293   0.158   0.795  0.6184 -0.2537  0.2555
11997SOL    HW237433   5.259   0.294   0.737 -0.2782  0.8557  3.2047
11998SOL     OW37434   3.647   1.831   2.052 -0.3864 -0.2050  0.2782
11998SOL    HW137435   3.724   1.787   2.087 -0.4336  0.0557  0.7179
11998SOL    HW237436   3.600   1.862   2.129  0.3132  1.7673 -0.0266
11999SOL     OW37437   4.171   7.724   0.137  0.5155  0.3685  0.0150
11999SOL    HW137438   4.192   7.817   0.126 -1.5245  0.9148  0.2378
11999SOL    HW237439   4.110   7.722   0.211  0.0044 -1.0720 -0.4078
12000SOL     OW37440   4.775   2.222   2.513  0.0579  0.1857 -0.5924
12000SOL    HW137441   4.736   2.187   2.594  0.8738 -0.5306 -0.5009
12000SOL    HW237442   4.747   2.313   2.512  0.1120  0.2358  0.5562
12001SOL     OW37443   4.427   0.004   0.675 -0.0464 -0.4315  0.2539
12001SOL    HW137444   4.439  -0.090   0.681  1.1210 -0.2956  0.2875
12001SOL    HW237445   4.341   0.015   0.634 -0.2719 -1.4993  0.4191
12002SOL     OW37446   6.523   0.885   2.719  0.8566 -0.1935  0.1479
12002SOL    HW137447   6.585   0.936   2.771 -0.4524  0.8187  0.7843
12002SOL    HW237448   6.524   0.927   2.633  1.1607 -0.2862  0.1039
12003SOL     OW37449   3.146   7.174   1.680  0.6258 -0.0829  0.2955
12003SOL    HW137450   3.077   7.231   1.712 -0.2047 -1.4414  1.0461
12003SOL    HW237451   3.213   7.176   1.749  0.4336 -0.2753  0.4913
12004SOL     OW37452   4.038   0.126   2.299 -0.3704  0.3131  0.2747
12004SOL    HW137453   3.946   0.102   2.303 -0.4097  0.3771 -0.1754
12004SOL    HW237454   4.072   0.109   2.387 -0.5122 -0.9137  0.1070
12005SOL     OW37455   5.060   1.141   3.577 -0.0869  0.0736 -0.8331
12005SOL    HW137456   5.019   1.200   3.515 -1.0498 -0.4479 -0.7210
12005SOL    HW237457   5.080   1.062   3.526 -0.3211 -0.1207 -0.6323
12006SOL     OW37458   6.471   1.554   2.646 -0.3401 -0.1921  0.3267
12006SOL    HW137459   6.409   1.537   2.717  1.2365  0.1600  1.8581
12006SOL    HW237460   6.473   1.649   2.638 -0.9345 -0.2476 -0.6098
12007SOL     OW37461   4.500   1.520   2.067  0.6774 -0.0010 -0.5947
12007SOL    HW137462   4.435   1.541   2.133  1.1790  0.8606 -0.3661
12007SOL    HW237463   4.517   1.603   2.022  1.0810 -0.3669 -1.1313
12008SOL     OW37464   3.783   7.606   3.066  0.3501  0.3936 -0.4269
12008SOL    HW137465   3.712   7.560   3.022 -0.5398  0.9491  0.3789
12008SOL    HW237466   3.788   7.691   3.023 -0.6573  1.0160  0.6184
12009SOL     OW37467   4.129   3.162   0.735  0.4753 -0.1698  0.0314
12009SOL    HW137468   4.206   3.133   0.785  1.0297  0.0453 -0.6737
12009SOL    HW237469   4.089   3.230   0.789  2.2382  1.5446 -0.6841
12010SOL     OW37470   5.049   7.662   1.428  0.2681  0.3558 -0.4083
12010SOL    HW137471   5.108   7.698   1.362 -0.4343  0.8282 -0.7917
12010SOL    HW237472   5.005   7.738   1.466 -1.0897 -0.0602 -1.0860
12011SOL     OW37473   4.835   1.099   2.283 -0.6194 -0.1015  0.1000
12011SOL    HW137474   4.929   1.116   2.290 -0.1540 -2.5825  1.0349
12011SOL    HW237475   4.802   1.170   2.228  1.5704  1.5211  0.7400
12012SOL     OW37476   4.247   1.351   2.606 -0.2498  0.0019 -0.7878
12012SOL    HW137477   4.342   1.341   2.601 -0.0745  1.6868 -1.9592
12012SOL    HW237478   4.213   1.285   2.546  0.2804  0.2634 -1.3907
12013SOL     OW37479   3.036   2.820   2.335 -0.2537  0.1303  0.1004
12013SOL    HW137480   3.058   2.907   2.369  0.2118 -0.1354  0.4955
12013SOL    HW237481   3.107   2.799   2.275 -0.3358  0.0033  0.0467
12014SOL     OW37482   3.364   1.279   2.654 -0.6358  1.2817  0.2387
12014SOL    HW137483   3.364   1.309   2.563 -2.1543  0.9527  0.1000
12014SOL    HW237484   3.378   1.184   2.648  0.0981  1.3697  0.4195
12015SOL     OW37485   2.727   1.897   1.958 -0.6352  0.4395 -0.1153
12015SOL    HW137486   2.693   1.956   1.891  1.2785 -0.7772 -2.2880
12015SOL    HW237487   2.801   1.944   1.996  0.4096 -0.2239 -1.3016
12016SOL     OW37488   4.866   1.320   3.167 -0.1860 -0.5478 -0.1302
12016SOL    HW137489   4.808   1.258   3.212 -1.2639  1.2341  1.1131
12016SOL    HW237490   4.866   1.397   3.224 -0.8986  1.5369 -2.7525
12017SOL     OW37491   2.680   1.854   1.181 -0.0988  0.0588  0.0370
12017SOL    HW137492   2.681   1.759   1.175 -0.5385  0.1103 -1.1947
12017SOL    HW237493   2.621   1.882   1.111 -0.2056  1.2291  0.5633
12018SOL     OW37494   5.629   7.458   2.860  0.5041 -0.5278 -0.7481
12018SOL    HW137495   5.622   7.429   2.769  2.5146  0.1315 -1.1594
12018SOL    HW237496   5.707   7.414   2.893 -0.2168 -0.7928  0.7153
12019SOL     OW37497   3.958   0.367   1.714  0.2593  0.3978 -0.0955
12019SOL    HW137498   3.922   0.432   1.653 -1.9568 -0.6581  0.0220
12019SOL    HW237499   3.919   0.388   1.798  0.0242 -0.6751  0.0777
12020SOL     OW37500   6.027   1.637   2.941  0.0936 -0.2984 -0.2097
12020SOL    HW137501   5.973   1.680   3.008  0.3660  0.1298 -0.2641
12020SOL    HW237502   5.967   1.627   2.866 -0.1712 -0.6538  0.0423
12021SOL     OW37503   4.830   0.502   3.459 -0.0866  0.1623 -0.2411
12021SOL    HW137504   4.896   0.523   3.392  1.1112  1.1597  1.1881
12021SOL    HW237505   4.874   0.520   3.542 -1.4706 -1.2138  0.8410
12022SOL     OW37506   6.011   0.469   1.546  0.2327 -0.3338 -0.5543
12022SOL    HW137507   5.983   0.532   1.480  0.3965  0.4525  0.1154
12022SOL    HW237508   6.071   0.411   1.499 -1.6637 -1.4264 -1.7564
12023SOL     OW37509   6.782   6.412   0.238 -0.3413  0.5800 -0.2300
12023SOL    HW137510   6.783   6.416   0.143  1.2513  0.2087 -0.2724
12023SOL    HW237511   6.875   6.415   0.263 -0.6273 -0.8415  1.2177
12024SOL     OW37512   5.408   0.859   2.992  0.4305  0.1532 -0.3979
12024SOL    HW137513   5.318   0.829   2.984  1.1647 -1.8376 -1.9196
12024SOL    HW237514   5.423   0.866   3.087 -0.8975 -0.7801 -0.1005
12025SOL     OW37515   4.683   1.012   1.175 -0.1440 -0.0969 -0.2755
12025SOL    HW137516   4.593   1.033   1.202  0.1930 -0.3844  1.1864
12025SOL    HW237517   4.684   0.917   1.167  0.1708 -0.1567  0.3543
12026SOL     OW37518   5.785   0.859   1.833  0.1638  0.4976  0.2678
12026SOL    HW137519   5.856   0.914   1.866 -1.4295  2.9551 -0.1249
12026SOL    HW237520   5.757   0.808   1.909  0.8402  1.2103  1.0203
12027SOL     OW37521   3.341   7.784   2.702  0.5771 -0.0455 -0.0886
12027SOL    HW137522   3.353   7.879   2.702 -0.8127  0.1909  1.9516
12027SOL    HW237523   3.378   7.755   2.785 -2.6569 -0.6607  1.2937
12028SOL     OW37524   6.988   2.032   3.676 -0.3073 -0.0093  0.3451
12028SOL    HW137525   7.032   1.946   3.674 -1.0183 -0.3803  0.1807
12028SOL    HW237526   7.051   2.092   3.635 -0.2990 -0.7010 -0.6975
12029SOL     OW37527   5.304   3.007   3.616 -0.6203 -0.3067  0.1057
12029SOL    HW137528   5.223   3.016   3.666  0.0611  1.3227  0.9874
12029SOL    HW237529   5.369   3.059   3.665  0.2747  0.6984 -2.0191
12030SOL     OW37530   4.890   2.953   4.538  0.2777 -0.5123  0.4038
12030SOL    HW137531   4.839   2.873   4.530 -0.8404  0.1107  1.1980
12030SOL    HW237532   4.869   2.987   4.624  0.9150  0.5278  0.1642
12031SOL     OW37533   4.276   2.334   2.354 -0.3370 -0.4012  0.9588
12031SOL    HW137534   4.269   2.268   2.284 -0.6169  0.1233  0.4858
12031SOL    HW237535   4.186   2.357   2.374 -0.2231  0.2163  0.7620
12032SOL     OW37536   5.357   1.832   2.893  0.0708  0.2476  0.2679
12032SOL    HW137537   5.446   1.854   2.869 -0.7368  2.2151 -1.1515
12032SOL    HW237538   5.335   1.894   2.963 -0.1164 -0.3990  0.7958
12033SOL     OW37539   4.288   0.297   2.411  0.1553  0.1027 -0.1377
12033SOL    HW137540   4.356   0.241   2.448  0.0073 -1.2273 -1.7704
12033SOL    HW237541   4.292   0.280   2.316 -0.7728  1.8989 -0.5410
12034SOL     OW37542   4.848   1.638   3.268 -0.1605 -0.3011 -0.1942
12034SOL    HW137543   4.872   1.689   3.345  1.8331 -0.8533 -0.3860
12034SOL    HW237544   4.852   1.700   3.195 -0.1640 -0.1919 -0.1004
12035SOL     OW37545   4.801   1.947   1.459  0.5287 -0.2108 -0.2814
12035SOL    HW137546   4.821   1.854   1.449 -0.1765 -0.3379 -0.5885
12035SOL    HW237547   4.750   1.969   1.382  0.2277  0.2999  0.0581
12036SOL     OW37548   3.871   0.469   1.963  0.3102  0.4368 -0.4909
12036SOL    HW137549   3.960   0.504   1.965  0.2465  0.6955 -1.5900
12036SOL    HW237550   3.814   0.546   1.958  0.0133  0.2766  0.3250
12037SOL     OW37551   5.824   1.005   3.713  0.1517  0.5134  0.1360
12037SOL    HW137552   5.811   0.920   3.756  0.8024  0.9737  1.2899
12037SOL    HW237553   5.804   1.069   3.781 -0.8004  1.3112 -0.8607
12038SOL     OW37554   3.058   1.131   3.751 -0.0080  0.3377 -0.1425
12038SOL    HW137555   3.024   1.091   3.831 -0.6721 -1.2469 -1.1634
12038SOL    HW237556   3.145   1.092   3.739 -0.3604 -0.2857 -0.7582
12039SOL     OW37557   3.522   1.673   2.395 -0.6298 -0.0020 -0.1735
12039SOL    HW137558   3.557   1.701   2.480  0.5869 -1.5419 -0.1177
12039SOL    HW237559   3.457   1.605   2.417 -0.1075 -0.6046 -0.4651
12040SOL     OW37560   3.894   0.721   2.182 -0.4018 -0.3596 -0.3490
12040SOL    HW137561   3.820   0.763   2.138  1.4881  2.4805 -1.0583
12040SOL    HW237562   3.954   0.698   2.112  0.1835 -1.0177  0.3468
12041SOL     OW37563   5.909   1.153   1.478 -0.6692 -0.0989 -0.2728
12041SOL    HW137564   5.996   1.190   1.490 -0.7993  0.1626 -0.1205
12041SOL    HW237565   5.867   1.211   1.415 -1.0391  0.2928  0.3249
12042SOL     OW37566   5.353   1.071   3.715  0.6071 -0.1486 -0.4443
12042SOL    HW137567   5.269   1.110   3.738 -0.4072 -1.5194 -1.6561
12042SOL    HW237568   5.391   1.045   3.799 -0.1125  0.6184  0.1294
12043SOL     OW37569   5.807   1.728  12.316 -0.4412  0.6834  0.4857
12043SOL    HW137570   5.769   1.774  12.242  0.1967  0.8282  0.2365
12043SOL    HW237571   5.872   1.789  12.351  0.5937 -0.1083 -0.0017
12044SOL     OW37572   3.068   1.121   3.433  0.3593  0.2148  0.4105
12044SOL    HW137573   2.976   1.133   3.409  0.1680  0.6168  1.2975
12044SOL    HW237574   3.087   1.196   3.489  0.5780 -1.0445  2.0694
12045SOL     OW37575   3.528   0.298   2.260  0.0752  0.7604  0.2333
12045SOL    HW137576   3.467   0.232   2.228 -0.3352  1.1957  0.1173
12045SOL    HW237577   3.606   0.287   2.205  0.6300 -0.6770  1.2317
12046SOL     OW37578   5.856   0.169   2.705 -0.2292  0.0725  0.0028
12046SOL    HW137579   5.791   0.121   2.756 -2.9335  3.4725  0.0666
12046SOL    HW237580   5.923   0.194   2.769 -1.9827  1.6010  1.3551
12047SOL     OW37581   4.904   0.826   3.749 -0.0314  0.3119  0.5409
12047SOL    HW137582   4.907   0.866   3.662  1.3435  1.5831  1.1419
12047SOL    HW237583   4.905   0.732   3.731 -0.0671  0.5450 -0.8273
12048SOL     OW37584   2.783   6.779   3.948 -0.7262  0.0678  0.2607
12048SOL    HW137585   2.873   6.803   3.925 -0.3191 -0.8243  0.8583
12048SOL    HW237586   2.790   6.690   3.982 -1.8773 -0.0989  0.1060
12049SOL     OW37587   4.626   0.821   4.038 -0.1970 -0.2967 -0.2411
12049SOL    HW137588   4.719   0.802   4.027  0.0109  0.6176 -0.1239
12049SOL    HW237589   4.583   0.736   4.025  0.6737 -0.8018  0.0684
12050SOL     OW37590   5.121   0.014   1.864 -0.0194 -0.1390  0.4296
12050SOL    HW137591   5.126  -0.012   1.772 -0.1371 -1.5371  0.7968
12050SOL    HW237592   5.126  -0.069   1.912 -1.9680  0.3831  1.6260
12051SOL     OW37593   5.080   1.824   0.006  0.4839 -0.3472  0.0338
12051SOL    HW137594   5.148   1.801  -0.057  1.4893 -1.1877  1.3791
12051SOL    HW237595   5.033   1.742   0.021 -1.2068  0.3207 -1.2529
12052SOL     OW37596   3.528   6.491   3.368 -0.3154  0.1938 -0.6163
12052SOL    HW137597   3.521   6.554   3.440  3.6572  1.5766 -1.2039
12052SOL    HW237598   3.472   6.527   3.300 -2.5330 -0.0658  0.9243
12053SOL     OW37599   4.148   1.264   2.863  0.4659  0.4499 -0.4496
12053SOL    HW137600   4.127   1.344   2.912 -1.4836  0.4563 -1.2102
12053SOL    HW237601   4.161   1.294   2.773  1.4454  0.1075 -0.4356
12054SOL     OW37602   5.255   0.346   2.344  0.6167 -0.1666 -0.2176
12054SOL    HW137603   5.239   0.300   2.426  0.2762 -1.7780 -1.1579
12054SOL    HW237604   5.335   0.396   2.361  0.6141 -0.5463  1.0559
12055SOL     OW37605   4.581   1.679   3.405 -0.8036  0.4241 -0.0843
12055SOL    HW137606   4.538   1.603   3.445 -0.9031  0.7594  0.4441
12055SOL    HW237607   4.670   1.650   3.389 -0.9127  0.1068 -0.1230
12056SOL     OW37608   4.447   7.626   3.070 -0.3650 -0.2760 -0.2884
12056SOL    HW137609   4.467   7.720   3.073  2.0136 -0.7116 -0.9053
12056SOL    HW237610   4.366   7.618   3.120  0.5262  1.8176  1.6656
12057SOL     OW37611   5.261   0.653   1.071  0.0150  0.0711 -0.3663
12057SOL    HW137612   5.177   0.615   1.047 -0.5085  1.5285 -0.9806
12057SOL    HW237613   5.274   0.628   1.162  0.2631 -2.4807 -1.0317
12058SOL     OW37614   3.774   0.778   1.485 -0.7476  0.3342  0.4621
12058SOL    HW137615   3.870   0.785   1.484 -0.6385 -0.7217  1.4897
12058SOL    HW237616   3.747   0.810   1.400  0.4764  1.3170  0.4076
12059SOL     OW37617   3.496   1.870   2.780  0.1318 -0.5662  0.1783
12059SOL    HW137618   3.493   1.954   2.826 -0.0417 -1.0886  1.1446
12059SOL    HW237619   3.550   1.887   2.702 -1.6486  0.9787 -0.8107
12060SOL     OW37620   6.600   7.743   2.403 -0.9034 -0.1986  0.2187
12060SOL    HW137621   6.640   7.694   2.474  0.1388  0.2547 -0.0337
12060SOL    HW237622   6.669   7.803   2.373 -2.2323  1.7399  0.8078
12061SOL     OW37623   3.523   0.980   3.760  0.1558 -0.0796 -0.3430
12061SOL    HW137624   3.506   0.940   3.675  2.0127  0.7273 -1.1507
12061SOL    HW237625   3.618   0.973   3.771  0.3455  2.4475  0.2849
12062SOL     OW37626   4.358   0.736   1.434 -0.3146 -0.0057 -0.1860
12062SOL    HW137627   4.453   0.733   1.422 -0.0667  0.2564  1.4769
12062SOL    HW237628   4.323   0.754   1.346  1.1700  0.1090 -0.7799
12063SOL     OW37629   4.768   1.521   0.590 -0.5012  0.0535  0.7513
12063SOL    HW137630   4.698   1.585   0.577 -0.4791 -0.1832 -0.7219
12063SOL    HW237631   4.793   1.531   0.682 -0.8274  1.8108  0.6875
12064SOL     OW37632   5.920   0.588   1.872 -0.1615 -0.2043  0.0918
12064SOL    HW137633   5.929   0.530   1.797 -1.7918  0.7113 -0.8597
12064SOL    HW237634   5.827   0.611   1.875 -0.1287 -0.0996  2.3227
12065SOL     OW37635   2.435   1.968   2.787 -0.0141 -0.5725 -0.6224
12065SOL    HW137636   2.518   1.941   2.826 -0.3285 -1.8122 -0.7757
12065SOL    HW237637   2.383   2.001   2.860  0.7681  0.6446 -0.5942
12066SOL     OW37638   3.169   0.656   2.635  0.6741  0.2642  0.6420
12066SOL    HW137639   3.094   0.714   2.627  0.3070 -0.2086  0.5887
12066SOL    HW237640   3.239   0.701   2.588 -0.3289 -0.5437 -1.8385
12067SOL     OW37641   3.793   0.942   3.797 -0.7270 -1.1975 -0.1204
12067SOL    HW137642   3.840   0.919   3.877  0.9046 -0.7498 -0.9127
12067SOL    HW237643   3.834   0.889   3.728  0.1860  0.7929 -1.2145
12068SOL     OW37644   4.481   7.635   3.629  0.5522  0.2643  0.5228
12068SOL    HW137645   4.466   7.657   3.537  0.3329 -1.2598  0.1653
12068SOL    HW237646   4.401   7.665   3.674  0.5369  0.7552  0.1701
12069SOL     OW37647   2.535   2.443   2.442  0.0631 -0.0986  0.1744
12069SOL    HW137648   2.539   2.378   2.512 -0.7348  1.9880  2.2825
12069SOL    HW237649   2.619   2.489   2.448 -0.8793  1.5755  1.3711
12070SOL     OW37650   3.907   2.283   3.403  0.1466 -0.0859  0.0255
12070SOL    HW137651   3.833   2.344   3.397  1.0836  1.3049  1.7398
12070SOL    HW237652   3.866   2.197   3.407 -1.3562  0.6003  0.2423
12071SOL     OW37653   5.606   1.818   1.750  0.0586  0.4237  0.0282
12071SOL    HW137654   5.631   1.733   1.715  0.8698 -0.5995  2.8849
12071SOL    HW237655   5.533   1.800   1.809 -0.0540  1.7744  0.3349
12072SOL     OW37656   5.786   0.405   2.253 -0.1264 -0.3094  0.0074
12072SOL    HW137657   5.794   0.498   2.273 -1.3622 -0.3530  0.8083
12072SOL    HW237658   5.873   0.369   2.271  0.2141  0.5893  0.2218
12073SOL     OW37659   3.647   1.270   2.432 -0.2769 -0.2095 -0.6034
12073SOL    HW137660   3.614   1.360   2.440 -2.1581 -0.7685 -1.5721
12073SOL    HW237661   3.572   1.219   2.402  0.3966 -2.3739  1.1406
12074SOL     OW37662   2.253   6.892   4.530  0.5311 -0.0686 -0.0745
12074SOL    HW137663   2.230   6.809   4.572 -2.3885  0.8501  0.3665
12074SOL    HW237664   2.252   6.873   4.437  2.0667 -0.9690  0.0540
12075SOL     OW37665   6.066   1.360   3.976 -0.3299  0.2952 -0.2669
12075SOL    HW137666   6.056   1.346   3.882  0.1817  0.1366 -0.3023
12075SOL    HW237667   6.144   1.415   3.984 -0.1898  0.0555  0.0777
12076SOL     OW37668   4.664   0.611   3.276  0.2122 -0.4695  0.1186
12076SOL    HW137669   4.715   0.566   3.344  1.9999  0.9347 -0.2121
12076SOL    HW237670   4.728   0.630   3.207 -1.2531 -0.5271 -1.3147
12077SOL     OW37671   5.618   0.658   2.948  0.2490  0.4937  0.0740
12077SOL    HW137672   5.679   0.593   2.985  0.0789 -0.3495 -1.0768
12077SOL    HW237673   5.554   0.673   3.017 -0.0874 -1.0808  0.1377
12078SOL     OW37674   3.372   1.212   4.476 -0.2992 -0.1398  0.3208
12078SOL    HW137675   3.427   1.141   4.508  2.3930  1.6894  0.0228
12078SOL    HW237676   3.345   1.259   4.554  1.2675  0.8007  0.3325
12079SOL     OW37677   5.014   1.004   3.110  0.0356  0.5857  0.1246
12079SOL    HW137678   4.936   1.042   3.069  0.2209  0.8876  0.0474
12079SOL    HW237679   5.077   1.076   3.113  0.3400  0.3220  0.1156
12080SOL     OW37680   4.228   0.602   4.519 -0.4049 -0.0779  0.6466
12080SOL    HW137681   4.290   0.641   4.580  1.6868 -0.9311 -0.8173
12080SOL    HW237682   4.231   0.508   4.537  1.0894 -0.4920 -1.3737
12081SOL     OW37683   3.630   6.731   0.518 -0.6316 -0.5576  0.1571
12081SOL    HW137684   3.673   6.768   0.441 -3.3779 -1.0879 -1.8089
12081SOL    HW237685   3.701   6.715   0.580  1.5949  0.8854 -1.8252
12082SOL     OW37686   4.345   0.946   2.841 -0.3088  0.3177 -0.3532
12082SOL    HW137687   4.299   1.003   2.902 -1.8233 -0.5232 -0.6511
12082SOL    HW237688   4.290   0.947   2.762  0.3234 -0.5247 -0.8162
12083SOL     OW37689   4.281   0.907   1.967 -0.5182  0.4922  0.2384
12083SOL    HW137690   4.247   0.976   1.911 -1.5842  0.4863  0.8619
12083SOL    HW237691   4.263   0.936   2.056  0.0878 -0.0468  0.5477
12084SOL     OW37692   4.476   1.021   0.907  0.3589  0.2218 -0.6252
12084SOL    HW137693   4.430   0.960   0.965 -0.5733 -0.0633 -1.6315
12084SOL    HW237694   4.529   0.966   0.850 -0.7746  0.2839 -1.7850
12085SOL     OW37695   6.191   2.444   3.943  0.7505  0.2130  0.1971
12085SOL    HW137696   6.116   2.502   3.927  0.5559 -0.2017 -0.4291
12085SOL    HW237697   6.247   2.455   3.866  0.2495 -1.1230 -0.3837
12086SOL     OW37698   5.933   1.158   2.776  0.8669  0.2139  0.5046
12086SOL    HW137699   5.953   1.072   2.740 -2.5287 -1.2076  1.6217
12086SOL    HW237700   5.895   1.207   2.703  0.6793 -0.0828  0.4025
12087SOL     OW37701   4.656   0.614   2.784  0.0111 -0.1456 -0.2377
12087SOL    HW137702   4.664   0.531   2.831 -0.7984  0.1929  0.5297
12087SOL    HW237703   4.721   0.671   2.826 -0.3813  0.0133  0.1618
12088SOL     OW37704   3.364   0.377   3.902 -0.2922 -0.4237 -0.0385
12088SOL    HW137705   3.377   0.366   3.808 -0.6532 -2.0035  0.0648
12088SOL    HW237706   3.449   0.404   3.935 -0.0507 -0.2712 -0.7505
12089SOL     OW37707   4.356   0.869  11.963 -0.3260 -0.0143 -0.9518
12089SOL    HW137708   4.410   0.945  11.942 -1.1564  0.9120  0.1639
12089SOL    HW237709   4.268   0.893  11.935 -1.1971  0.7108  2.0366
12090SOL     OW37710   6.141   7.242   1.768  0.4063 -0.1867  0.3067
12090SOL    HW137711   6.105   7.177   1.829 -1.8497  1.4577  0.8494
12090SOL    HW237712   6.156   7.320   1.822  2.4738 -0.0088 -0.4489
12091SOL     OW37713   2.430   2.105   4.140  0.3112 -0.2751  0.0967
12091SOL    HW137714   2.347   2.146   4.162 -0.4490 -1.1703 -0.9866
12091SOL    HW237715   2.464   2.158   4.067  1.0740  0.5319  1.0104
12092SOL     OW37716   4.909   1.501   2.945  0.0922  0.2141 -0.2470
12092SOL    HW137717   4.868   1.450   3.015 -0.5651 -0.5114 -1.1395
12092SOL    HW237718   5.002   1.477   2.950 -0.0967 -0.5480 -0.1988
12093SOL     OW37719   4.558   2.606   1.081  0.2333 -0.3701  0.3808
12093SOL    HW137720   4.623   2.547   1.119  0.6261 -0.0753  0.1795
12093SOL    HW237721   4.595   2.694   1.093  0.7398 -0.3077 -1.3396
12094SOL     OW37722   3.353   2.205   3.745  0.5835 -0.2642 -0.2479
12094SOL    HW137723   3.411   2.272   3.782 -0.4794  0.1467  0.7325
12094SOL    HW237724   3.382   2.195   3.654  0.3007  2.0491 -0.6333
12095SOL     OW37725   5.408   7.218   3.071 -0.1576  0.2015 -0.1228
12095SOL    HW137726   5.370   7.155   3.132  1.3524 -1.5861 -0.9188
12095SOL    HW237727   5.499   7.226   3.098 -0.1239  1.4875 -0.5264
12096SOL     OW37728   5.600   1.103   2.786 -0.6208  0.4343  0.0592
12096SOL    HW137729   5.576   1.031   2.729 -1.8321  0.8686 -0.0212
12096SOL    HW237730   5.686   1.080   2.820 -0.8036 -0.8379 -0.2929
12097SOL     OW37731   4.811   1.598   2.087 -0.0754 -0.2143 -0.1075
12097SOL    HW137732   4.818   1.608   1.992 -1.5549 -2.1011 -0.4797
12097SOL    HW237733   4.746   1.664   2.113  0.7083  0.6538 -0.2950
12098SOL     OW37734   4.194   0.670   2.346 -0.5433  0.4191  0.0246
12098SOL    HW137735   4.255   0.643   2.277  1.6201 -0.3108  2.0426
12098SOL    HW237736   4.154   0.588   2.376  0.7288  0.2756  1.4822
12099SOL     OW37737   4.634   0.825   1.390 -0.4790  0.2495 -0.5157
12099SOL    HW137738   4.723   0.799   1.414 -1.3086 -1.0966  1.3497
12099SOL    HW237739   4.616   0.902   1.444 -1.2470 -0.9028  0.9201
12100SOL     OW37740   5.855   1.166   0.955 -0.0559 -0.4032 -0.4094
12100SOL    HW137741   5.896   1.097   1.006 -1.3253 -1.5740 -0.9298
12100SOL    HW237742   5.813   1.223   1.020  1.3169  0.1463  0.0439
12101SOL     OW37743   5.018   1.905   2.335  0.2660  0.0981  0.1797
12101SOL    HW137744   4.960   1.889   2.261  0.7219  1.9165 -0.6327
12101SOL    HW237745   5.089   1.958   2.299  1.4769 -0.5277  1.5406
12102SOL     OW37746   3.790   1.500   3.344 -0.0570 -0.6350  0.3309
12102SOL    HW137747   3.713   1.528   3.393  0.3680  0.2387  0.5229
12102SOL    HW237748   3.863   1.506   3.406  0.0280 -2.4840  0.4649
12103SOL     OW37749   4.642   1.411   1.654 -0.0491  0.1817  0.4565
12103SOL    HW137750   4.604   1.498   1.668 -0.9841 -0.2555  0.6487
12103SOL    HW237751   4.657   1.407   1.560  2.2913  1.4788  0.6872
12104SOL     OW37752   4.515   6.472   2.954 -0.2720 -0.4665 -0.7447
12104SOL    HW137753   4.590   6.531   2.964 -1.1325  0.6494 -0.6793
12104SOL    HW237754   4.549   6.385   2.978  0.7508  0.1847  0.2626
12105SOL     OW37755   3.640   2.053   0.527  0.5353  0.6969  0.0298
12105SOL    HW137756   3.568   2.100   0.485  0.5689  0.8681  0.1645
12105SOL    HW237757   3.715   2.068   0.469  0.6026  1.0052  0.1956
12106SOL     OW37758   6.114   7.866   1.411  0.2257 -1.0702  0.2184
12106SOL    HW137759   6.084   7.857   1.502 -0.2760 -0.2735  0.1415
12106SOL    HW237760   6.096   7.781   1.372 -0.6231 -1.0718  0.5680
12107SOL     OW37761   5.017   1.554   1.660 -0.3917 -0.0692 -0.0806
12107SOL    HW137762   4.950   1.548   1.727  1.2078  1.1371  1.7525
12107SOL    HW237763   5.040   1.647   1.658  1.3458 -0.4734 -0.4970
12108SOL     OW37764   2.185   7.823   3.811  0.1672 -0.1556  0.6820
12108SOL    HW137765   2.158   7.739   3.848  0.5103 -0.2729  0.6689
12108SOL    HW237766   2.116   7.845   3.749 -1.0679  0.6622  2.2848
12109SOL     OW37767   4.136   0.275   4.038  0.2708 -0.3617 -0.3197
12109SOL    HW137768   4.217   0.247   4.079 -0.2802 -2.2702 -0.4204
12109SOL    HW237769   4.081   0.196   4.036 -0.4442  0.0881 -2.9851
12110SOL     OW37770   4.080   7.997   1.337 -0.1207 -0.2982  0.0150
12110SOL    HW137771   4.144   8.068   1.337 -0.1272 -0.2788  1.1525
12110SOL    HW237772   4.077   7.967   1.427 -0.9167 -1.0293 -0.2407
12111SOL     OW37773   5.514   0.824   1.740 -0.5816 -0.0903  0.4729
12111SOL    HW137774   5.582   0.890   1.755 -0.8773  0.2435  0.3610
12111SOL    HW237775   5.557   0.757   1.687 -0.6886  0.7559 -0.7482
12112SOL     OW37776   3.369   0.796   1.516  0.0390 -0.0234  0.1389
12112SOL    HW137777   3.281   0.825   1.491  0.7534  2.2846  0.0164
12112SOL    HW237778   3.402   0.751   1.438  0.3327  2.5257 -1.3223
12113SOL     OW37779   3.015   2.328   2.587  0.1085  0.0252 -0.1063
12113SOL    HW137780   3.017   2.288   2.674  0.1637 -0.0128 -0.1254
12113SOL    HW237781   3.107   2.343   2.566  0.1550 -0.8910 -0.5937
12114SOL     OW37782   5.752   0.787   3.315  0.1569 -0.6127 -0.1003
12114SOL    HW137783   5.661   0.811   3.298  0.5388 -0.4009 -2.1359
12114SOL    HW237784   5.803   0.864   3.290  0.9968 -1.3108 -0.6294
12115SOL     OW37785   4.930   2.065   4.210  0.1113 -0.1969  0.5157
12115SOL    HW137786   4.916   2.034   4.299  2.3493 -0.0518  0.9999
12115SOL    HW237787   4.889   2.151   4.207  1.3945  0.5197  1.9825
12116SOL     OW37788   5.333   1.203   3.438 -0.0541  0.4206 -0.2663
12116SOL    HW137789   5.277   1.158   3.502 -0.0102  0.3312 -0.2899
12116SOL    HW237790   5.422   1.192   3.472 -0.0327  0.3925 -0.3321
12117SOL     OW37791   6.260   0.894   3.416 -0.0350 -0.1398 -0.4162
12117SOL    HW137792   6.200   0.862   3.483  0.5839  0.6752  0.5600
12117SOL    HW237793   6.312   0.962   3.460 -0.8531  1.7712 -2.2098
12118SOL     OW37794   2.762   1.972   2.733  0.3479 -0.1922  0.9446
12118SOL    HW137795   2.823   1.904   2.760 -2.0413 -2.4834  0.9754
12118SOL    HW237796   2.742   1.951   2.641  0.9639  1.6533  0.3335
12119SOL     OW37797   4.917   7.465   1.265 -0.6503 -0.7376 -0.6156
12119SOL    HW137798   4.909   7.375   1.298 -0.4000 -0.8447 -0.8446
12119SOL    HW237799   4.972   7.509   1.330 -1.1390 -0.6278 -0.2687
12120SOL     OW37800   3.416   7.560   4.345 -0.1392 -0.6273 -0.0306
12120SOL    HW137801   3.511   7.558   4.358 -0.2901 -2.1843  1.1576
12120SOL    HW237802   3.405   7.590   4.255  1.4745 -0.2317 -0.1333
12121SOL     OW37803   5.398   7.938   5.051  0.5572  0.0320 -0.0988
12121SOL    HW137804   5.369   8.029   5.044  0.6512  0.0715  0.0104
12121SOL    HW237805   5.317   7.887   5.060  0.2484 -0.2502 -3.3671
12122SOL     OW37806   6.064   1.360   0.966 -0.3033 -0.2303 -0.9330
12122SOL    HW137807   6.012   1.418   1.023  1.8762  1.2181 -0.2791
12122SOL    HW237808   6.008   1.284   0.953 -2.6051  1.2315 -0.3520
12123SOL     OW37809   4.449   1.848   2.523  0.1504 -0.3913  0.2807
12123SOL    HW137810   4.427   1.941   2.522  0.0138 -0.4275 -0.3615
12123SOL    HW237811   4.526   1.843   2.579  0.1359  0.1068  0.3510
12124SOL     OW37812   5.453   0.800   2.203  0.5562 -0.1270  0.4172
12124SOL    HW137813   5.508   0.876   2.221  2.2463 -0.6039 -2.1068
12124SOL    HW237814   5.366   0.836   2.187  1.5663  1.5110 -1.8858
12125SOL     OW37815   5.997   7.732   2.817  0.2504 -0.9425  0.0157
12125SOL    HW137816   5.909   7.747   2.852  0.3543  2.4715 -0.7806
12125SOL    HW237817   6.055   7.768   2.884  0.8254 -0.2705 -0.8306
12126SOL     OW37818   4.090   0.467   0.770 -0.3020  0.2514 -0.5314
12126SOL    HW137819   4.177   0.506   0.771 -0.2707  0.1881  0.1495
12126SOL    HW237820   4.039   0.521   0.830 -0.3378 -0.5611  0.1953
12127SOL     OW37821   5.620   0.199   2.302 -0.0503 -0.0331  0.3523
12127SOL    HW137822   5.680   0.270   2.280  0.6405 -0.3985  0.9995
12127SOL    HW237823   5.540   0.243   2.332  0.3781  0.4692  0.7696
12128SOL     OW37824   1.121   1.898   3.383 -0.1143  0.0599  0.6634
12128SOL    HW137825   1.214   1.910   3.403  0.2616 -0.2054 -0.8006
12128SOL    HW237826   1.086   1.987   3.383 -0.0072  0.1190  1.8021
12129SOL     OW37827   1.978   1.666   0.345  0.0710  0.1999 -0.2747
12129SOL    HW137828   2.058   1.711   0.372  1.7963 -2.5552 -0.4204
12129SOL    HW237829   1.948   1.620   0.424  1.5874 -2.8121 -1.2891
12130SOL     OW37830   3.572   3.182   2.259 -0.0765 -0.3189  0.0661
12130SOL    HW137831   3.659   3.222   2.253 -0.1000 -0.2175  0.3790
12130SOL    HW237832   3.513   3.255   2.276 -0.2784 -0.3390 -0.5222
12131SOL     OW37833   4.088   0.863   2.742 -0.1329 -0.1872  0.1964
12131SOL    HW137834   4.011   0.908   2.708 -0.0866 -0.1921  0.0842
12131SOL    HW237835   4.062   0.835   2.829  0.3340  1.3328  0.8564
12132SOL     OW37836   2.916   1.678   2.428  0.6629 -0.1712  0.2646
12132SOL    HW137837   2.898   1.585   2.410  0.6941  0.1051 -1.3667
12132SOL    HW237838   2.868   1.696   2.509  1.3877 -1.8266  1.1152
12133SOL     OW37839   6.291   1.413   2.057  0.6395 -0.1840  0.3625
12133SOL    HW137840   6.201   1.387   2.074  0.7184 -0.6520  0.0711
12133SOL    HW237841   6.311   1.477   2.125 -0.9343  2.3411 -1.3806
12134SOL     OW37842   5.248   1.085   2.502  0.9224 -0.5216 -0.5365
12134SOL    HW137843   5.326   1.045   2.464  1.4027  0.5209 -0.6691
12134SOL    HW237844   5.197   1.011   2.534  1.6459 -1.2594 -1.0499
12135SOL     OW37845   5.088   0.247   2.999 -0.4859  0.3442  0.2643
12135SOL    HW137846   5.090   0.268   2.906  0.8998 -0.3388  0.1152
12135SOL    HW237847   5.026   0.175   3.006  1.3194 -1.3855 -0.5749
12136SOL     OW37848   4.262   7.915   3.005 -0.1893 -0.0955 -0.1075
12136SOL    HW137849   4.188   7.900   3.063 -0.7088  2.2290 -0.0813
12136SOL    HW237850   4.241   7.865   2.926 -2.1326  1.0074 -0.3460
12137SOL     OW37851   3.039   1.554   1.789 -0.0793 -0.0301  0.2711
12137SOL    HW137852   3.003   1.500   1.859 -0.4274 -0.9413 -0.5837
12137SOL    HW237853   3.058   1.492   1.719  2.8697  0.4359  0.5388
12138SOL     OW37854   4.123   1.723   3.264 -0.2343 -0.3580 -0.3186
12138SOL    HW137855   4.094   1.683   3.182  0.2277 -0.4929 -0.4197
12138SOL    HW237856   4.216   1.740   3.251 -0.3132  0.2642 -0.0742
12139SOL     OW37857   4.096   0.575   1.431  0.3063 -0.0174 -0.3405
12139SOL    HW137858   4.075   0.635   1.360  1.3728  1.6370  0.6759
12139SOL    HW237859   4.167   0.618   1.479 -0.0945 -1.2720  1.4920
12140SOL     OW37860   5.162   0.496   1.291 -0.0258 -0.3101  0.8767
12140SOL    HW137861   5.082   0.445   1.281 -0.8345  1.1782 -1.0582
12140SOL    HW237862   5.145   0.553   1.366 -0.5299 -0.4183  0.8474
12141SOL     OW37863   5.184   0.917   3.479 -0.1065  0.1720 -0.3537
12141SOL    HW137864   5.278   0.902   3.470 -0.3564 -0.8499 -1.5106
12141SOL    HW237865   5.163   0.878   3.564  0.7004  1.5003  0.4875
12142SOL     OW37866   2.528   0.803   0.595  0.3623 -0.2970 -0.3752
12142SOL    HW137867   2.473   0.732   0.560 -0.6193  0.2264  0.0516
12142SOL    HW237868   2.503   0.880   0.543  2.4492 -0.5116 -1.8266
12143SOL     OW37869   2.725   1.322   0.931  0.2225  0.3063 -0.0142
12143SOL    HW137870   2.651   1.316   0.871 -0.1987 -2.6374  0.6489
12143SOL    HW237871   2.703   1.396   0.988 -2.5026 -0.7156  0.4433
12144SOL     OW37872   4.120   1.343   3.282 -0.3372 -0.0075 -0.1708
12144SOL    HW137873   4.142   1.394   3.204 -0.4409 -0.8469 -0.7633
12144SOL    HW237874   4.025   1.332   3.277 -0.1257 -1.7291 -0.9948
12145SOL     OW37875   4.602   0.557   3.714 -0.0442 -0.2999  0.2649
12145SOL    HW137876   4.553   0.492   3.665  0.3080  0.6193 -1.3685
12145SOL    HW237877   4.693   0.528   3.710  0.3500  1.0498 -1.8393
12146SOL     OW37878   4.552   0.501   4.401  0.0027  0.4675  0.1618
12146SOL    HW137879   4.564   0.433   4.467  0.6991 -1.5869 -1.9492
12146SOL    HW237880   4.457   0.505   4.388  0.0304 -1.5667 -1.0419
12147SOL     OW37881   5.068   0.177   4.638 -0.2353  0.5334 -0.9168
12147SOL    HW137882   5.046   0.143   4.552 -1.0859 -0.8049 -0.2173
12147SOL    HW237883   5.160   0.153   4.650 -0.1418  0.6393 -1.3970
12148SOL     OW37884   5.067   0.969   6.620  0.9263  0.4486 -0.0890
12148SOL    HW137885   5.081   1.049   6.570 -0.9051 -0.0733 -1.5294
12148SOL    HW237886   5.082   0.899   6.557  0.7765 -0.3119  0.6986
12149SOL     OW37887   4.997   1.993   3.223 -0.5477  0.0990  0.3920
12149SOL    HW137888   4.988   2.017   3.315 -1.1917  0.6746  0.1883
12149SOL    HW237889   4.982   2.074   3.175 -1.4234 -0.4183 -0.2566
12150SOL     OW37890   6.852   0.692   4.470  0.2731  0.0072  0.0391
12150SOL    HW137891   6.879   0.742   4.547  1.4937 -1.5252  0.6627
12150SOL    HW237892   6.772   0.734   4.440  0.3617  1.2879  1.5104
12151SOL     OW37893   5.111   0.837   2.540 -0.2654  0.5318  0.0799
12151SOL    HW137894   5.200   0.805   2.527  0.4330  2.1887  0.5825
12151SOL    HW237895   5.098   0.835   2.635  0.0223  2.2562  0.1807
12152SOL     OW37896   6.211   0.166   5.163 -0.0312  0.0519  0.3261
12152SOL    HW137897   6.175   0.231   5.224 -0.6121  1.1565 -1.1472
12152SOL    HW237898   6.236   0.217   5.086 -0.2933 -1.4474 -0.7874
12153SOL     OW37899   4.945   0.830   3.384 -0.0587  0.1585 -0.5701
12153SOL    HW137900   4.961   0.746   3.340  1.6545 -0.2673  0.7366
12153SOL    HW237901   5.030   0.874   3.384 -0.2704  0.6500  1.2111
12154SOL     OW37902   4.680   7.891   5.289  0.3694  0.3840  0.0769
12154SOL    HW137903   4.761   7.924   5.249  0.0644 -0.2251 -1.0967
12154SOL    HW237904   4.660   7.811   5.239  0.2655 -0.7334  1.8301
12155SOL     OW37905   5.148   0.599   5.081  0.3279  0.3353 -0.4632
12155SOL    HW137906   5.210   0.527   5.091  2.0656  1.8318  0.1338
12155SOL    HW237907   5.075   0.576   5.139  1.5557 -0.2073  0.9304
12156SOL     OW37908   6.155   7.646   5.390  0.1251  0.0528  0.1987
12156SOL    HW137909   6.234   7.658   5.443 -0.7272 -0.0757  1.5595
12156SOL    HW237910   6.187   7.623   5.303  1.5871  0.5656  0.5786
12157SOL     OW37911   3.467   0.392   3.637  0.0315  0.3294  0.1236
12157SOL    HW137912   3.558   0.362   3.648  0.8851  1.9540 -1.7224
12157SOL    HW237913   3.420   0.314   3.607  0.9971 -0.3610  0.3413
12158SOL     OW37914   6.535   0.869   3.866 -0.4023  0.3873 -1.0415
12158SOL    HW137915   6.571   0.884   3.953 -0.1627  0.4352 -1.1460
12158SOL    HW237916   6.595   0.916   3.807 -1.0267  1.0588 -1.1619
12159SOL     OW37917   3.796   2.766   3.499 -0.7174 -0.1280 -0.3615
12159SOL    HW137918   3.761   2.855   3.500  0.7540  0.4991 -1.2921
12159SOL    HW237919   3.860   2.766   3.428  1.8967 -0.8864  1.8253
12160SOL     OW37920   4.971   0.486   5.263 -0.1361 -0.3145 -0.2007
12160SOL    HW137921   5.030   0.435   5.318  0.5668 -0.9945 -1.5303
12160SOL    HW237922   4.885   0.446   5.277 -0.0344 -0.2751  0.6132
12161SOL     OW37923   2.958   0.694   5.036 -0.0047  0.4338 -0.2832
12161SOL    HW137924   2.905   0.696   5.115  0.9759 -0.0456  0.4010
12161SOL    HW237925   2.907   0.639   4.975  0.0813 -0.7269  0.6465
12162SOL     OW37926   1.998   0.242   4.428 -0.4031 -0.1628 -0.0050
12162SOL    HW137927   2.014   0.187   4.351  1.9183 -1.6019  1.3851
12162SOL    HW237928   1.988   0.180   4.500 -1.2366  1.1785  1.0897
12163SOL     OW37929   4.498   0.552   1.721 -0.0730  0.4321  0.6898
12163SOL    HW137930   4.496   0.559   1.817 -0.7739  0.5272  0.6710
12163SOL    HW237931   4.411   0.520   1.698  0.4669 -0.7266  0.1677
12164SOL     OW37932   2.992   7.671   5.092 -0.1657  0.4036 -0.1128
12164SOL    HW137933   2.957   7.638   5.175 -0.3843 -0.9421 -0.7100
12164SOL    HW237934   2.980   7.766   5.097 -0.1396  0.3472  1.4018
12165SOL     OW37935   6.936   2.371   2.661 -0.2938  0.4656 -0.3877
12165SOL    HW137936   6.877   2.322   2.604 -0.0093 -1.6227  0.9835
12165SOL    HW237937   6.895   2.367   2.747  3.1090 -4.0489  1.4738
12166SOL     OW37938   4.576   2.029   2.327 -0.6064 -0.1420  0.1497
12166SOL    HW137939   4.642   1.969   2.362 -0.5284 -0.4144 -0.4463
12166SOL    HW237940   4.545   2.078   2.403  0.5533  0.2605  0.3938
12167SOL     OW37941   3.924   0.607   0.921  0.5589  0.3777  0.1014
12167SOL    HW137942   3.915   0.697   0.951 -0.3735  0.5792 -0.7438
12167SOL    HW237943   3.886   0.554   0.991  2.2002  0.5186  1.1618
12168SOL     OW37944   6.027   0.229   5.841  0.2471  0.2323  0.1249
12168SOL    HW137945   5.982   0.309   5.866 -0.3928 -0.0424 -0.1110
12168SOL    HW237946   5.977   0.196   5.766  1.0792  0.1223 -0.4006
12169SOL     OW37947   3.946   0.081   4.008  0.1288  0.1179  0.3658
12169SOL    HW137948   3.860   0.083   4.050 -0.2735  1.5667 -0.4591
12169SOL    HW237949   3.928   0.094   3.915  1.2684  1.2477  0.2708
12170SOL     OW37950   3.900   1.096   5.238  0.0936  0.5010  0.0974
12170SOL    HW137951   3.956   1.019   5.233 -0.2097  0.2910 -0.0796
12170SOL    HW237952   3.840   1.077   5.311 -1.3977 -0.3891 -1.2839
12171SOL     OW37953   5.298   0.904   4.303 -0.2967 -0.1381  0.1654
12171SOL    HW137954   5.314   0.982   4.250  1.8517  0.0397  0.9979
12171SOL    HW237955   5.362   0.840   4.272  0.0852 -0.4838  1.5892
12172SOL     OW37956   3.836   1.683   3.970 -0.4225  0.1674  0.3001
12172SOL    HW137957   3.789   1.669   4.052 -1.8843  1.0466 -0.3561
12172SOL    HW237958   3.928   1.691   3.997 -0.8151  0.0518  1.7951
12173SOL     OW37959   5.265   0.568   2.103  0.3470 -0.2765 -0.3584
12173SOL    HW137960   5.325   0.625   2.055  1.7438 -2.0667 -0.8086
12173SOL    HW237961   5.248   0.615   2.185 -2.1604  2.9000 -2.4224
12174SOL     OW37962   2.679   1.771   5.217  0.7306  0.1753  0.3166
12174SOL    HW137963   2.597   1.819   5.228  0.6810  0.1167  0.2036
12174SOL    HW237964   2.720   1.810   5.140 -0.5640 -1.7143 -1.4470
12175SOL     OW37965   3.591   0.884   4.445  0.2894  0.5640 -0.0472
12175SOL    HW137966   3.666   0.913   4.394  0.5502  0.5121  0.3047
12175SOL    HW237967   3.575   0.955   4.507 -1.0647  1.3825 -1.2740
12176SOL     OW37968   5.538   0.839   5.432  0.0290  0.3186 -0.2518
12176SOL    HW137969   5.481   0.771   5.395 -0.7047  1.0029 -0.4163
12176SOL    HW237970   5.514   0.842   5.524 -0.3124  0.7031 -0.3494
12177SOL     OW37971   5.747   1.462   4.719 -0.5507  0.2697 -0.2077
12177SOL    HW137972   5.740   1.524   4.647  0.6336 -0.4594 -0.9747
12177SOL    HW237973   5.839   1.439   4.723 -0.0915  2.0810  3.1155
12178SOL     OW37974   6.485   0.648   1.534 -0.1024  0.3697  0.1775
12178SOL    HW137975   6.438   0.608   1.461  1.1090 -0.3616 -0.2276
12178SOL    HW237976   6.416   0.680   1.593 -1.1860 -2.6158  0.6960
12179SOL     OW37977   4.205   0.772   3.297 -0.6030  0.0572 -0.1630
12179SOL    HW137978   4.182   0.856   3.337 -3.7779 -0.7950  0.0472
12179SOL    HW237979   4.301   0.770   3.301 -0.4966  1.5556  4.2660
12180SOL     OW37980   4.269   1.247   4.567 -0.2699  0.5881 -0.4006
12180SOL    HW137981   4.248   1.333   4.603  1.5272  0.7262  0.4407
12180SOL    HW237982   4.184   1.209   4.543 -1.1697  2.1849  0.1298
12181SOL     OW37983   5.959   1.551   6.691 -0.2842 -0.2305  0.3887
12181SOL    HW137984   5.890   1.559   6.757 -0.8361 -2.0283  0.0881
12181SOL    HW237985   5.968   1.639   6.655  0.3181  0.9219  3.1029
12182SOL     OW37986   5.913   0.921   6.424 -0.1551 -0.6882  0.4364
12182SOL    HW137987   5.971   0.921   6.500  1.5345 -0.3737 -0.7816
12182SOL    HW237988   5.941   0.845   6.372  1.3390  1.1783 -1.6848
12183SOL     OW37989   5.267   1.003   5.679  0.1246  0.3056  0.1022
12183SOL    HW137990   5.279   1.022   5.585 -0.4366 -1.5463 -0.3773
12183SOL    HW237991   5.350   0.963   5.705 -0.4231 -1.0280 -0.1294
12184SOL     OW37992   2.536   1.146   4.877 -0.0244  0.3138  0.6373
12184SOL    HW137993   2.586   1.223   4.853  1.7404 -1.1306 -0.6212
12184SOL    HW237994   2.596   1.073   4.862 -2.2364 -1.4664 -0.1676
12185SOL     OW37995   5.948   0.962   4.089 -0.0865 -0.0865  0.7093
12185SOL    HW137996   6.035   0.922   4.096 -0.3187 -0.8047 -0.2129
12185SOL    HW237997   5.960   1.051   4.123  1.5602  0.5790 -1.3046
12186SOL     OW37998   4.907   0.605   5.900  0.0671 -0.0958 -0.9996
12186SOL    HW137999   4.887   0.698   5.915  0.4841 -0.1786  0.1777
12186SOL    HW238000   4.865   0.559   5.972  0.5435 -0.7415 -1.1207
12187SOL     OW38001   3.966   1.200   4.686 -0.0705 -0.1521 -0.2287
12187SOL    HW138002   3.982   1.113   4.722 -1.6020  0.2575  1.6479
12187SOL    HW238003   4.001   1.260   4.752 -0.0147  0.6403 -0.9708
12188SOL     OW38004   3.685   1.919   3.830  0.0653 -0.5172  0.0006
12188SOL    HW138005   3.731   2.000   3.809 -0.9113  0.1303  0.2784
12188SOL    HW238006   3.751   1.851   3.823  0.8967  0.3035 -0.2694
12189SOL     OW38007   4.618   0.852   3.747  0.2477 -0.2100  0.1324
12189SOL    HW138008   4.713   0.856   3.759  0.1471 -1.1771  1.4636
12189SOL    HW238009   4.602   0.762   3.720 -0.1575  0.3761 -1.6816
12190SOL     OW38010   5.051   1.084   4.531  0.3823  0.1147 -0.2311
12190SOL    HW138011   4.962   1.118   4.535 -0.0192 -0.7875 -0.9743
12190SOL    HW238012   5.107   1.161   4.524 -0.4857  0.6370 -1.8234
12191SOL     OW38013   4.154   1.147   4.161  0.3833 -0.1980 -0.4456
12191SOL    HW138014   4.123   1.122   4.248  1.6647 -0.2895  0.0074
12191SOL    HW238015   4.144   1.242   4.159 -0.5239 -0.2926 -0.5565
12192SOL     OW38016   6.739   3.250   4.047 -1.1331 -0.0069 -0.6299
12192SOL    HW138017   6.785   3.279   4.125 -0.7465 -0.2836 -0.7470
12192SOL    HW238018   6.704   3.330   4.008 -1.4273  0.1169 -0.1140
12193SOL     OW38019   4.286   0.412   3.378 -0.3291  0.6025  0.1241
12193SOL    HW138020   4.191   0.424   3.379 -0.5800 -0.8843 -1.6958
12193SOL    HW238021   4.300   0.333   3.430 -0.0564  0.9011  0.5104
12194SOL     OW38022   5.546   0.330   4.223  0.0857  0.2691  0.3032
12194SOL    HW138023   5.545   0.395   4.152 -1.1936  1.6352  1.5002
12194SOL    HW238024   5.560   0.247   4.179  0.4121  1.1964 -1.4414
12195SOL     OW38025   4.372   2.074   4.316  0.0301 -0.3714 -0.3435
12195SOL    HW138026   4.292   2.089   4.365 -0.2917  0.8314 -1.1841
12195SOL    HW238027   4.369   1.982   4.291 -1.9362  0.0031 -1.7563
12196SOL     OW38028   4.805   1.126   2.978  0.8301 -0.8215 -0.2355
12196SOL    HW138029   4.737   1.152   2.916 -0.6735 -0.3317  1.5001
12196SOL    HW238030   4.832   1.207   3.021 -2.4458 -1.5032  3.7867
12197SOL     OW38031   7.042   1.451   3.703 -0.4463  0.1563  0.4204
12197SOL    HW138032   7.130   1.425   3.675 -0.2843  0.7703  0.3307
12197SOL    HW238033   6.988   1.373   3.689  0.1830 -0.3829  0.9565
12198SOL     OW38034   3.135   0.283   6.063 -1.0145 -0.3029 -0.1861
12198SOL    HW138035   3.066   0.254   6.004 -0.4189 -1.1582 -0.4898
12198SOL    HW238036   3.212   0.294   6.007 -0.7966  0.2401  0.2085
12199SOL     OW38037   4.511   1.389   2.342 -0.5542  0.3537  0.4342
12199SOL    HW138038   4.529   1.387   2.248 -1.2341  1.0884  0.2795
12199SOL    HW238039   4.479   1.478   2.359 -0.6049  0.1776  1.3305
12200SOL     OW38040   3.422   7.396   3.803  0.7758  0.3515 -0.5380
12200SOL    HW138041   3.514   7.400   3.829 -0.0344 -0.3502  2.9012
12200SOL    HW238042   3.398   7.486   3.785  1.4454  0.9807  1.4981
12201SOL     OW38043   5.961   0.380   3.448 -0.4845 -0.5949  0.1412
12201SOL    HW138044   5.988   0.472   3.455  0.5836 -0.9790  1.2664
12201SOL    HW238045   5.865   0.383   3.455 -0.5242  0.4916 -0.6244
12202SOL     OW38046   4.219   2.386   3.199 -0.5451 -0.6447 -0.6859
12202SOL    HW138047   4.157   2.450   3.166  0.9569  0.2612 -1.8536
12202SOL    HW238048   4.303   2.431   3.199  0.3967 -2.3180 -0.6180
12203SOL     OW38049   4.853   0.656   4.017  0.1998 -0.0275 -0.1276
12203SOL    HW138050   4.945   0.663   4.045  0.3763 -0.4195 -0.6017
12203SOL    HW238051   4.856   0.599   3.941 -0.5705 -0.8599  0.4519
12204SOL     OW38052   4.701   1.938   5.111  0.4291  0.0454  0.1508
12204SOL    HW138053   4.706   1.931   5.206 -0.1308  1.9657  0.3725
12204SOL    HW238054   4.748   2.019   5.090  0.6208 -0.3832 -1.2314
12205SOL     OW38055   3.924   1.929   4.228 -0.6368 -0.0525  0.0101
12205SOL    HW138056   3.957   1.897   4.312 -0.5624  1.2186  0.4845
12205SOL    HW238057   3.952   1.863   4.164  1.8966  0.3722  0.5467
12206SOL     OW38058   5.819   2.017   3.906  0.0085  0.1544  0.4418
12206SOL    HW138059   5.785   1.957   3.840 -1.1507  0.2756  0.8972
12206SOL    HW238060   5.868   1.960   3.966  1.4192  0.1032 -0.7129
12207SOL     OW38061   3.756   1.219   3.969 -0.6168  0.1630 -0.1933
12207SOL    HW138062   3.740   1.167   4.048  3.7965  1.5601  1.9678
12207SOL    HW238063   3.775   1.155   3.901  1.7938 -1.2211  1.6404
12208SOL     OW38064   3.468   0.128   4.337 -0.4014  0.7605  0.2793
12208SOL    HW138065   3.497   0.213   4.369 -0.1061  0.1584  1.6937
12208SOL    HW238066   3.515   0.065   4.391 -1.0145 -0.2986 -0.3890
12209SOL     OW38067   4.691   7.677   5.090  0.1672 -0.0204 -0.3297
12209SOL    HW138068   4.698   7.769   5.066 -1.2938 -0.3426 -2.1771
12209SOL    HW238069   4.621   7.642   5.036  0.8926 -2.3172  0.0657
12210SOL     OW38070   4.168   1.805   6.012  0.1069 -0.6974  0.0603
12210SOL    HW138071   4.145   1.850   5.931  0.4767 -1.6149 -0.5611
12210SOL    HW238072   4.161   1.712   5.992 -0.0635 -0.9442  1.1604
12211SOL     OW38073   4.667   1.429   4.830  0.1440  0.0237 -0.3417
12211SOL    HW138074   4.661   1.376   4.750 -0.8208  0.4399 -0.5560
12211SOL    HW238075   4.677   1.365   4.900  0.5252 -0.3678 -0.7410
12212SOL     OW38076   4.035   0.570   3.362  0.0118  0.0436 -0.0781
12212SOL    HW138077   3.954   0.612   3.393 -0.7422 -1.3875 -0.0558
12212SOL    HW238078   4.099   0.642   3.359 -1.0294  1.0432  0.6893
12213SOL     OW38079   4.766   1.063   3.339  0.2612  0.0474  0.3787
12213SOL    HW138080   4.834   0.996   3.337 -1.1830 -1.4741 -0.9976
12213SOL    HW238081   4.707   1.036   3.410  1.1881  1.5406  1.7910
12214SOL     OW38082   3.591   0.019   4.927  0.1102 -0.1370  0.0556
12214SOL    HW138083   3.636   0.021   5.011  2.4707 -2.0225 -1.0407
12214SOL    HW238084   3.538  -0.061   4.930 -2.3052  1.3899  0.8300
12215SOL     OW38085   3.807   0.631   3.490  0.5397  0.2913  0.3649
12215SOL    HW138086   3.732   0.679   3.526  0.1164 -1.4103  1.9456
12215SOL    HW238087   3.771   0.586   3.413 -0.6168 -1.7236  1.9428
12216SOL     OW38088   4.647   0.216   2.709  0.2081 -0.3885  0.3045
12216SOL    HW138089   4.660   0.228   2.615  1.2507 -0.1177  0.4649
12216SOL    HW238090   4.560   0.251   2.726 -0.8507 -2.2560 -0.8730
12217SOL     OW38091   4.619   7.696   4.357 -0.2044 -0.1838  0.2345
12217SOL    HW138092   4.585   7.724   4.441  0.0364 -1.4781  0.7873
12217SOL    HW238093   4.617   7.775   4.303 -0.7001  0.5819  1.3298
12218SOL     OW38094   4.548   1.208   5.916  0.3718  0.1422 -0.1466
12218SOL    HW138095   4.572   1.122   5.950  1.3203  0.3905 -0.1703
12218SOL    HW238096   4.470   1.233   5.966  0.2778 -0.5955  0.0748
12219SOL     OW38097   1.901   0.419   6.287 -0.4676 -0.4754  0.5561
12219SOL    HW138098   1.935   0.430   6.376  0.0291  0.8499  0.2325
12219SOL    HW238099   1.834   0.487   6.279 -0.7736 -0.8385  0.0447
12220SOL     OW38100   4.708   7.500   3.726 -0.0314  0.4160  0.1746
12220SOL    HW138101   4.696   7.462   3.813 -1.1885 -0.7961 -0.4883
12220SOL    HW238102   4.630   7.555   3.713  0.8301  1.7562  0.4511
12221SOL     OW38103   5.175   1.670   4.304 -0.3881 -0.6140 -0.2061
12221SOL    HW138104   5.144   1.760   4.311 -0.6933 -0.5393 -2.0572
12221SOL    HW238105   5.257   1.668   4.354 -0.2943  0.7152 -0.2873
12222SOL     OW38106   5.507   7.443   3.259 -0.3222 -0.2799  0.1080
12222SOL    HW138107   5.452   7.416   3.332 -3.7464  1.3059 -1.6453
12222SOL    HW238108   5.559   7.365   3.238  0.3599 -0.9634  3.7244
12223SOL     OW38109   1.988   0.166   5.078  0.2345  0.6650 -0.0911
12223SOL    HW138110   1.962   0.258   5.069  1.7850  1.0637 -0.6874
12223SOL    HW238111   2.013   0.157   5.170 -1.7697  0.2931  0.4822
12224SOL     OW38112   3.760   0.588   4.486 -0.2584  0.0588  0.1979
12224SOL    HW138113   3.785   0.639   4.409 -0.0725  0.8139  0.7558
12224SOL    HW238114   3.788   0.640   4.560 -0.8780 -0.4384  0.7979
12225SOL     OW38115   5.628   1.864   2.853  0.0326  0.0334  0.2166
12225SOL    HW138116   5.691   1.831   2.917 -0.5239 -2.0802 -0.2190
12225SOL    HW238117   5.642   1.809   2.775  0.8262  2.6509 -1.6059
12226SOL     OW38118   3.328   7.799   5.891 -0.3855 -0.9337  0.1721
12226SOL    HW138119   3.244   7.836   5.863 -0.2962 -1.1817 -0.4506
12226SOL    HW238120   3.304   7.717   5.935 -0.3618 -2.8379 -2.9924
12227SOL     OW38121   4.587   0.632   4.976 -0.4098 -0.0028 -0.2219
12227SOL    HW138122   4.628   0.558   4.931 -2.5312 -0.2960 -1.8184
12227SOL    HW238123   4.660   0.690   4.998  1.4784 -2.9112  2.0034
12228SOL     OW38124   4.740   7.031   3.884  0.0376  0.2793  0.2025
12228SOL    HW138125   4.650   7.005   3.867 -0.2591  0.7900  0.9186
12228SOL    HW238126   4.745   7.121   3.853  0.5916 -0.0740 -0.7603
12229SOL     OW38127   3.966   1.719   3.516  0.0312  0.1138  0.2579
12229SOL    HW138128   3.897   1.736   3.453  0.1136  0.0612  0.1537
12229SOL    HW238129   4.029   1.664   3.470  0.8203  1.2752 -0.0982
12230SOL     OW38130   2.882   2.133   4.259  0.4947 -0.4759 -0.0446
12230SOL    HW138131   2.824   2.194   4.305  0.9852 -0.8318  1.0860
12230SOL    HW238132   2.841   2.121   4.173 -0.2561  0.4948  0.1590
12231SOL     OW38133   2.938   7.518   6.003 -0.4575  0.1295 -0.7922
12231SOL    HW138134   2.884   7.591   5.976 -0.4923  0.9889  1.3729
12231SOL    HW238135   2.973   7.544   6.089 -0.0558 -2.1618 -0.1804
12232SOL     OW38136   4.390   1.331   4.908 -0.1510 -0.0446  0.7120
12232SOL    HW138137   4.398   1.254   4.964 -0.1878 -0.6473 -0.0834
12232SOL    HW238138   4.401   1.297   4.819  2.6422  1.2729  0.4696
12233SOL     OW38139   5.127   0.694   4.122 -0.1614 -0.0710 -0.2585
12233SOL    HW138140   5.168   0.713   4.207  1.5988 -1.7480 -0.6666
12233SOL    HW238141   5.152   0.769   4.067  0.8953 -0.1985  0.0094
12234SOL     OW38142   5.646   2.517   3.927  0.4009  0.0575 -0.2466
12234SOL    HW138143   5.580   2.580   3.957  0.2852  0.7148 -1.7729
12234SOL    HW238144   5.623   2.435   3.970  0.5600  1.0302  1.8118
12235SOL     OW38145   3.663   1.892   4.420 -0.6754 -0.6884  0.3715
12235SOL    HW138146   3.580   1.938   4.431 -0.2929 -0.0994  0.8591
12235SOL    HW238147   3.730   1.958   4.436 -0.0920 -0.9748 -0.7683
12236SOL     OW38148   5.371   2.508   5.000 -0.5426 -0.2028 -0.1614
12236SOL    HW138149   5.385   2.602   4.985  0.4722 -0.1905  0.7151
12236SOL    HW238150   5.276   2.499   5.010 -0.5496  0.9431  1.0550
12237SOL     OW38151   4.043   1.831   3.742  0.0776 -0.3777 -0.3065
12237SOL    HW138152   4.122   1.777   3.749  0.8446  0.8186  1.0228
12237SOL    HW238153   4.008   1.812   3.655  1.5984 -1.2671 -0.7661
12238SOL     OW38154   5.496   2.094   6.272  0.8178 -0.8941  0.1729
12238SOL    HW138155   5.414   2.116   6.317  0.7580  0.3620 -0.4990
12238SOL    HW238156   5.511   2.001   6.292 -0.6090 -1.0606  0.5603
12239SOL     OW38157   5.842   0.947   5.600  0.1717  0.3720 -0.0721
12239SOL    HW138158   5.874   0.896   5.525 -0.0232  1.8993 -1.2339
12239SOL    HW238159   5.837   1.037   5.568 -0.9829  0.8938  1.4552
12240SOL     OW38160   6.124   7.145   6.582 -0.4597 -0.3974 -0.3593
12240SOL    HW138161   6.063   7.124   6.652  0.5420 -0.5803  0.4846
12240SOL    HW238162   6.069   7.160   6.505 -1.5451 -0.6344  0.3577
12241SOL     OW38163   4.096   1.431   3.631 -0.3908 -0.5614 -0.6644
12241SOL    HW138164   4.017   1.389   3.665 -0.2188 -0.2123  0.1940
12241SOL    HW238165   4.154   1.437   3.707  1.4893 -3.0799 -1.7699
12242SOL     OW38166   3.022   0.449   4.164  0.1556 -0.1717 -0.1821
12242SOL    HW138167   3.057   0.531   4.200 -3.1105  0.5511  1.8026
12242SOL    HW238168   2.962   0.477   4.095 -0.2659 -0.9432 -0.1374
12243SOL     OW38169   4.538   7.236   4.662 -0.0717  0.3304  0.5402
12243SOL    HW138170   4.513   7.301   4.596  0.9699  1.0060  0.7728
12243SOL    HW238171   4.491   7.262   4.741  0.1039  0.6367  0.5481
12244SOL     OW38172   3.563   2.219   5.166  0.1091  0.8599  0.4400
12244SOL    HW138173   3.494   2.283   5.149 -0.7362  0.2331  1.3883
12244SOL    HW238174   3.558   2.158   5.092  0.7865  1.7374 -0.3630
12245SOL     OW38175   3.623   0.664   3.124  0.3908 -0.1898 -0.1466
12245SOL    HW138176   3.629   0.598   3.194 -1.9104 -1.9785 -1.4956
12245SOL    HW238177   3.657   0.744   3.164  0.4199 -1.4405  2.5848
12246SOL     OW38178   3.655   1.000   4.155 -0.1598 -0.0494 -0.2212
12246SOL    HW138179   3.720   1.026   4.220  0.3023  1.1650 -1.1267
12246SOL    HW238180   3.653   0.905   4.161  1.9692 -0.1699 -0.3897
12247SOL     OW38181   4.564   1.915   2.826 -0.1395  0.1255 -0.7047
12247SOL    HW138182   4.477   1.876   2.837 -0.2728  0.3134 -1.0420
12247SOL    HW238183   4.625   1.842   2.832 -0.2500  0.1193  0.4460
12248SOL     OW38184   3.597   0.059   3.076  0.6927  0.4716 -0.3927
12248SOL    HW138185   3.602  -0.016   3.017  0.1339  0.3225 -0.2568
12248SOL    HW238186   3.620   0.023   3.162  0.9227  0.5654 -0.4137
12249SOL     OW38187   5.650   6.896   2.700  0.2477  0.1706  0.1709
12249SOL    HW138188   5.655   6.823   2.762 -0.9977  0.2332  0.3867
12249SOL    HW238189   5.669   6.974   2.752 -0.6499  0.2082  0.4588
12250SOL     OW38190   1.982   2.886   4.147  0.4950  1.0580  0.0090
12250SOL    HW138191   2.012   2.842   4.067  1.0066  0.8025  0.3311
12250SOL    HW238192   2.044   2.857   4.214 -1.1338 -0.3696  0.9554
12251SOL     OW38193   5.347   1.360   4.337  0.1046 -0.3021 -0.2442
12251SOL    HW138194   5.442   1.358   4.351  0.1352 -1.9914 -0.4609
12251SOL    HW238195   5.310   1.340   4.423 -0.0237 -0.6638 -0.3840
12252SOL     OW38196   5.366   0.475   4.442 -0.3952 -0.1325  0.1704
12252SOL    HW138197   5.350   0.382   4.424  2.2254 -0.6486  0.0701
12252SOL    HW238198   5.454   0.491   4.407  0.3529  1.6634  2.6154
12253SOL     OW38199   3.756   7.803   6.170 -0.0634 -0.5643  0.2279
12253SOL    HW138200   3.713   7.745   6.107 -0.4454 -1.3707  1.1877
12253SOL    HW238201   3.686   7.862   6.200  0.1003 -0.2254 -0.0586
12254SOL     OW38202   3.541   7.673   3.359 -0.3593  0.5666  0.1846
12254SOL    HW138203   3.555   7.659   3.453  0.3821  0.6044  0.0796
12254SOL    HW238204   3.463   7.621   3.339  1.8752 -3.0053 -0.0539
12255SOL     OW38205   4.318   0.079   4.188 -0.0417  0.7533 -0.0659
12255SOL    HW138206   4.318   0.099   4.282  0.2271  0.2502  0.0513
12255SOL    HW238207   4.402   0.035   4.174 -0.0084  0.9814 -0.5770
12256SOL     OW38208   6.069   0.743   3.093  0.7119  0.2859 -0.2576
12256SOL    HW138209   5.992   0.689   3.110 -1.2369  2.0193 -2.7711
12256SOL    HW238210   6.054   0.822   3.145 -0.1734  1.3415 -2.0167
12257SOL     OW38211   4.955   1.130   5.488 -0.5401 -0.1479  0.2456
12257SOL    HW138212   4.970   1.083   5.406  2.1014 -1.1759  1.2202
12257SOL    HW238213   4.969   1.064   5.556 -3.0781  0.5634  1.6073
12258SOL     OW38214   2.996   2.673   5.846  0.1122 -0.3568 -0.3690
12258SOL    HW138215   2.944   2.594   5.864  0.0055 -0.1888  0.0636
12258SOL    HW238216   3.080   2.655   5.887 -0.1018 -0.0099  0.2324
12259SOL     OW38217   4.666   1.614   5.174  0.2118  0.0853 -0.1202
12259SOL    HW138218   4.627   1.566   5.247  2.1733 -3.9532 -1.4428
12259SOL    HW238219   4.601   1.610   5.104  0.0794  0.0029  0.0073
12260SOL     OW38220   6.800   0.109   4.901 -0.4371  0.1391 -0.4874
12260SOL    HW138221   6.795   0.124   4.807 -0.3920 -0.5669 -0.6059
12260SOL    HW238222   6.851   0.029   4.910 -0.8366 -0.0545  0.1141
12261SOL     OW38223   4.251   6.281   6.984  0.1318 -0.5390 -0.7371
12261SOL    HW138224   4.195   6.281   6.906 -0.6439  0.1368 -0.2075
12261SOL    HW238225   4.219   6.355   7.036  2.4956  0.8006 -1.0785
12262SOL     OW38226   6.046   6.885   3.467 -0.0397  0.6191  0.0996
12262SOL    HW138227   6.137   6.914   3.467 -0.1755  1.0566 -0.9647
12262SOL    HW238228   6.052   6.789   3.464  0.3809  0.6715 -0.9549
12263SOL     OW38229   4.008   1.065   5.558 -0.3856 -0.2996  0.2014
12263SOL    HW138230   3.950   1.131   5.521  0.9810 -0.0094 -1.5461
12263SOL    HW238231   3.956   0.984   5.559 -0.5485 -0.2915 -2.3128
12264SOL     OW38232   4.487   0.062   5.397 -0.3645  0.7994 -0.4012
12264SOL    HW138233   4.532  -0.001   5.340  0.3530 -0.0277  1.0156
12264SOL    HW238234   4.394   0.040   5.388 -0.3480  1.1565 -1.7670
12265SOL     OW38235   4.979   2.220   5.468  0.4525  0.1992  0.0820
12265SOL    HW138236   5.018   2.223   5.381 -1.3549  3.2316 -0.7928
12265SOL    HW238237   5.053   2.233   5.527  1.3466  1.5123 -1.2418
12266SOL     OW38238   2.444   0.831   6.130 -0.4093  1.2544 -0.0123
12266SOL    HW138239   2.413   0.887   6.059 -1.1475  0.6204 -0.2089
12266SOL    HW238240   2.378   0.763   6.137  0.8602 -0.0788 -0.3522
12267SOL     OW38241   5.335   0.651   2.572  0.6523 -0.3530 -0.3978
12267SOL    HW138242   5.352   0.570   2.621 -0.1632  0.8446  2.0525
12267SOL    HW238243   5.406   0.710   2.597  0.2133  0.3000 -0.6523
12268SOL     OW38244   5.549   1.379   2.454  0.4646 -0.3011 -0.5599
12268SOL    HW138245   5.523   1.400   2.544  0.2293  0.3392 -0.7722
12268SOL    HW238246   5.467   1.368   2.407  0.5810 -1.4334 -0.5300
12269SOL     OW38247   5.785   1.226   2.564  0.4472  0.7210 -0.1453
12269SOL    HW138248   5.699   1.251   2.598 -0.4198 -0.0869 -1.6185
12269SOL    HW238249   5.805   1.294   2.499  0.2329  0.1407 -0.8342
12270SOL     OW38250   2.384   3.042   4.929 -0.0374 -0.0736 -0.1818
12270SOL    HW138251   2.432   3.120   4.899  0.9536 -1.3754 -2.1811
12270SOL    HW238252   2.449   2.992   4.978 -0.8737  0.6460  1.7425
12271SOL     OW38253   5.251   7.275   5.256 -0.7355  0.2552 -0.5136
12271SOL    HW138254   5.314   7.219   5.211  0.7130  0.7008  0.8307
12271SOL    HW238255   5.297   7.359   5.265 -1.6153  0.6637  0.3101
12272SOL     OW38256   6.656   0.022   5.523  0.1680 -0.8539 -0.0138
12272SOL    HW138257   6.640  -0.041   5.453  1.2520  0.0412 -1.1255
12272SOL    HW238258   6.752   0.031   5.525  0.0151  1.8862 -0.9757
12273SOL     OW38259   4.737   1.040   4.204 -0.0883  0.4027  0.5015
12273SOL    HW138260   4.726   1.117   4.147  0.0841  1.0930  1.3727
12273SOL    HW238261   4.651   0.998   4.204  0.0102  0.1857 -0.5525
12274SOL     OW38262   3.476   2.091   4.445  0.3368  0.0893 -0.5937
12274SOL    HW138263   3.402   2.152   4.446 -1.3189 -1.7363  2.7040
12274SOL    HW238264   3.539   2.128   4.507  0.5037 -0.3057 -0.5290
12275SOL     OW38265   2.755   1.627   2.731  0.0872  0.2210  0.0885
12275SOL    HW138266   2.714   1.628   2.645 -0.1141  1.1295  0.1813
12275SOL    HW238267   2.690   1.587   2.789 -0.5151  1.2385  0.1472
12276SOL     OW38268   3.466   2.076   4.939 -0.1254 -0.0002  0.1731
12276SOL    HW138269   3.407   2.111   4.872  0.8170  1.7466  0.1938
12276SOL    HW238270   3.505   1.998   4.899 -0.1084  0.6150 -1.0525
12277SOL     OW38271   3.657   1.176   6.125 -0.2309  0.0997 -0.1797
12277SOL    HW138272   3.635   1.091   6.088 -0.6383  0.8990 -1.8534
12277SOL    HW238273   3.751   1.187   6.107 -0.3969  0.4241 -0.8905
12278SOL     OW38274   2.571   2.655   3.175 -0.1928 -0.9759 -0.3146
12278SOL    HW138275   2.545   2.609   3.095  1.3720  0.9824 -2.0758
12278SOL    HW238276   2.488   2.681   3.215 -1.0641 -0.3600 -2.3557
12279SOL     OW38277   1.671   0.713   4.447  0.5257  0.8801  0.0092
12279SOL    HW138278   1.732   0.736   4.517 -0.6794  1.6587  0.8382
12279SOL    HW238279   1.664   0.617   4.451  1.6183  0.7797 -0.0697
12280SOL     OW38280   5.883   1.451   3.198  0.7728 -0.0976 -0.6707
12280SOL    HW138281   5.819   1.519   3.174  1.1475  0.4601 -0.1322
12280SOL    HW238282   5.962   1.475   3.149  0.4627 -1.0262 -1.6650
12281SOL     OW38283   4.107   0.732   4.070 -0.1635  0.0316 -0.1614
12281SOL    HW138284   4.057   0.676   4.011  0.0127 -0.5994  0.2901
12281SOL    HW238285   4.121   0.680   4.148 -1.0403  1.1217  0.7675
12282SOL     OW38286   5.801   1.552   2.798 -0.1551  0.2715  0.5804
12282SOL    HW138287   5.809   1.588   2.709 -0.4443  2.8347  1.5063
12282SOL    HW238288   5.707   1.541   2.811 -0.2085  1.1044  0.9747
12283SOL     OW38289   5.059   1.865   5.522 -1.3549  0.0640  0.5163
12283SOL    HW138290   5.099   1.946   5.554  0.7472 -0.4023 -0.7480
12283SOL    HW238291   5.093   1.797   5.581 -0.9683 -0.2197 -0.0230
12284SOL     OW38292   2.996   1.957   7.073  0.7533  0.4402  0.2963
12284SOL    HW138293   3.010   2.017   6.999 -1.0291  1.0513  0.4004
12284SOL    HW238294   2.926   1.999   7.124  0.4660 -1.0403  1.1608
12285SOL     OW38295   4.389   0.431   5.087 -0.1514  0.0711 -0.0730
12285SOL    HW138296   4.427   0.518   5.078 -0.8503  0.3746 -0.1939
12285SOL    HW238297   4.356   0.410   5.000 -1.5152  0.4264  0.3268
12286SOL     OW38298   4.478   1.367   2.998  0.6365  0.4975 -0.1071
12286SOL    HW138299   4.384   1.388   2.994  0.6609  0.6320 -0.0001
12286SOL    HW238300   4.517   1.443   3.040  0.6186 -0.1016  1.0332
12287SOL     OW38301   3.204   1.780   4.686  0.1168  0.1307 -0.3222
12287SOL    HW138302   3.123   1.814   4.724 -0.3732 -1.3225 -0.0089
12287SOL    HW238303   3.247   1.857   4.649 -2.1299  0.7173 -1.8709
12288SOL     OW38304   4.317   0.847   3.907 -0.6344  0.8408  0.0650
12288SOL    HW138305   4.268   0.795   3.971 -0.2959 -0.8258 -0.9556
12288SOL    HW238306   4.280   0.822   3.822  1.1645  0.3849 -0.6349
12289SOL     OW38307   4.540   0.561   3.983  0.1066  0.0224 -0.7290
12289SOL    HW138308   4.579   0.477   4.007  0.5217  0.1993 -0.7867
12289SOL    HW238309   4.562   0.571   3.890  0.4333  0.4017 -0.6123
12290SOL     OW38310   5.726   1.866   3.408 -0.0612 -0.1206  0.4742
12290SOL    HW138311   5.762   1.827   3.328 -0.7521 -0.6951  0.4380
12290SOL    HW238312   5.786   1.938   3.428 -2.1960  2.9871 -3.0274
12291SOL     OW38313   5.144   0.648   4.412  0.2171 -0.0861 -0.5043
12291SOL    HW138314   5.077   0.579   4.413  0.9693 -0.9708 -3.0076
12291SOL    HW238315   5.224   0.604   4.443  0.2170  0.3178  0.1009
12292SOL     OW38316   5.390   1.616   3.466  0.3243 -0.0525 -0.7213
12292SOL    HW138317   5.348   1.640   3.549  0.4695  0.8413 -0.9027
12292SOL    HW238318   5.480   1.646   3.476  0.5213 -0.5615 -0.9410
12293SOL     OW38319   4.023   1.917   5.770  0.0956  0.0567 -0.4163
12293SOL    HW138320   4.051   1.964   5.692 -0.4112  0.3392 -0.4315
12293SOL    HW238321   3.996   1.986   5.831 -0.3471 -0.1947 -0.3218
12294SOL     OW38322   2.746   6.301   3.823 -0.2937  0.3210 -0.0134
12294SOL    HW138323   2.797   6.225   3.793 -1.9999 -1.6444  1.7586
12294SOL    HW238324   2.730   6.284   3.915 -1.5389  2.4291  0.2153
12295SOL     OW38325   5.272   7.733   2.376 -0.1288 -0.6114  0.0509
12295SOL    HW138326   5.259   7.787   2.298  1.7964 -0.0156  0.0746
12295SOL    HW238327   5.257   7.644   2.347 -0.6278 -0.2961 -0.6876
12296SOL     OW38328   5.552   0.894   5.715  0.2244 -0.0361 -0.3516
12296SOL    HW138329   5.578   0.820   5.769 -1.7928 -1.4084 -1.1207
12296SOL    HW238330   5.632   0.945   5.703  0.9446 -0.0937  3.1457
12297SOL     OW38331   3.090   0.446   5.218  0.2302 -0.2478 -1.1882
12297SOL    HW138332   3.125   0.369   5.263 -1.0669 -1.0251 -1.4550
12297SOL    HW238333   3.043   0.410   5.142 -0.3489  0.8092 -1.3502
12298SOL     OW38334   3.897   1.019   3.470 -0.3428  0.0133 -0.1578
12298SOL    HW138335   3.952   0.950   3.506  1.4298  0.3692 -2.0589
12298SOL    HW238336   3.845   1.049   3.545  0.5979 -1.6941  1.2469
12299SOL     OW38337   3.649   1.582   5.858  0.3621  0.3442  0.1934
12299SOL    HW138338   3.737   1.620   5.863  0.9088 -1.0634  2.3726
12299SOL    HW238339   3.644   1.544   5.770  2.7521 -1.3619  0.7179
12300SOL     OW38340   6.966   7.795   3.060 -0.2245  0.5838 -0.2865
12300SOL    HW138341   6.889   7.774   3.112  0.1957 -1.6532 -0.4267
12300SOL    HW238342   6.944   7.765   2.972 -0.6434  3.6332 -1.3107
12301SOL     OW38343   3.489   0.906   3.481  0.1201  0.3465  0.2138
12301SOL    HW138344   3.457   0.816   3.474 -2.4639  1.1312  0.7120
12301SOL    HW238345   3.422   0.958   3.435 -0.2007  2.2990  2.6917
12302SOL     OW38346   4.454   1.162   5.238 -0.0894 -0.8513  0.7701
12302SOL    HW138347   4.368   1.142   5.274 -1.0416  0.1686 -0.8512
12302SOL    HW238348   4.464   1.102   5.164  0.4866 -0.7917  0.7914
12303SOL     OW38349   4.040   1.593   4.474 -0.2920 -0.0517  0.2766
12303SOL    HW138350   4.027   1.684   4.501  0.0822 -0.4193  1.8102
12303SOL    HW238351   3.954   1.553   4.480 -0.4770  0.2185 -0.5033
12304SOL     OW38352   5.600   1.037   2.218 -0.4283  0.2252 -0.0991
12304SOL    HW138353   5.681   0.998   2.185 -1.1513 -0.5266 -1.0407
12304SOL    HW238354   5.599   1.126   2.184  1.3165  1.2102  2.1901
12305SOL     OW38355   2.711   0.874   6.158  0.4510  0.4839  0.2973
12305SOL    HW138356   2.615   0.876   6.149  0.5200  0.9752 -0.4122
12305SOL    HW238357   2.732   0.781   6.168 -0.0717  0.3362  0.0639
12306SOL     OW38358   3.867   1.398   4.288 -0.1667 -0.7577 -0.3067
12306SOL    HW138359   3.846   1.313   4.327  1.6527 -1.3170 -0.4631
12306SOL    HW238360   3.955   1.388   4.253  0.8262  1.7100  1.2038
12307SOL     OW38361   4.400   2.556   3.782 -0.7988 -0.0202 -0.0361
12307SOL    HW138362   4.470   2.528   3.842  0.2306  0.3690 -1.0290
12307SOL    HW238363   4.320   2.544   3.833 -0.0581 -0.8563  1.0001
12308SOL     OW38364   4.233   0.277   5.585 -0.2416  0.6451  0.2299
12308SOL    HW138365   4.247   0.315   5.498 -1.2169 -0.3127 -0.3732
12308SOL    HW238366   4.320   0.255   5.616  0.2912  2.6095  0.2711
12309SOL     OW38367   3.984   1.166   3.731  0.1860  0.3950  0.5001
12309SOL    HW138368   4.048   1.127   3.671  0.0004  1.3038 -0.3154
12309SOL    HW238369   3.985   1.109   3.807  0.7355 -0.5560 -0.1960
12310SOL     OW38370   5.927   7.279   3.927  0.5196 -0.5867 -0.1409
12310SOL    HW138371   5.867   7.351   3.945  0.8085 -0.5999  0.9283
12310SOL    HW238372   5.925   7.225   4.006  1.3161 -1.0300 -0.4068
12311SOL     OW38373   3.270   0.637   5.036  0.6171  0.2002 -0.1773
12311SOL    HW138374   3.309   0.701   4.975  2.7009 -0.0940  0.7693
12311SOL    HW238375   3.317   0.556   5.018  1.4379  0.1502  1.9158
12312SOL     OW38376   3.714   0.292   5.102 -0.1834  0.4946  0.0600
12312SOL    HW138377   3.776   0.299   5.030 -1.6969 -0.9500 -1.4745
12312SOL    HW238378   3.732   0.207   5.141 -1.1752  0.0538 -0.4126
12313SOL     OW38379   3.635   7.922   3.320 -0.5788  0.0892  0.0012
12313SOL    HW138380   3.603   7.939   3.409  3.1021 -1.6870  1.8665
12313SOL    HW238381   3.613   7.831   3.303 -1.4749  0.4846 -1.0719
12314SOL     OW38382   7.258   1.145   5.898 -0.0093 -0.0099  0.2554
12314SOL    HW138383   7.171   1.105   5.900 -0.4309  0.8964  0.4810
12314SOL    HW238384   7.245   1.229   5.854  1.0291 -0.4837 -1.0185
12315SOL     OW38385   5.127   0.333   2.715  0.5336  0.4629 -0.7579
12315SOL    HW138386   5.070   0.273   2.667  0.7426 -0.2728 -0.0943
12315SOL    HW238387   5.099   0.420   2.686 -1.3242  0.1604 -0.0555
12316SOL     OW38388   4.110   0.570   4.277 -0.6438  0.2777 -0.4815
12316SOL    HW138389   4.149   0.604   4.357 -0.6027  0.3706 -0.5413
12316SOL    HW238390   4.164   0.494   4.255 -1.2751 -0.3620  0.1423
12317SOL     OW38391   3.908   2.068   2.784 -0.2362  0.3188 -0.1683
12317SOL    HW138392   3.911   1.978   2.816 -0.6829  0.0074 -0.9576
12317SOL    HW238393   3.814   2.090   2.784 -0.0043  1.6503  2.2951
12318SOL     OW38394   4.942   0.685   4.864 -0.3203 -0.1225 -0.3421
12318SOL    HW138395   4.909   0.745   4.931 -0.8543 -0.0175 -0.6888
12318SOL    HW238396   5.010   0.634   4.908 -0.7051 -0.0938  0.2955
12319SOL     OW38397   5.168   7.776   5.640 -0.1765  0.8249  0.4990
12319SOL    HW138398   5.150   7.703   5.580  2.5193 -0.1003  0.7167
12319SOL    HW238399   5.084   7.791   5.684 -1.6882  0.1072 -1.8929
12320SOL     OW38400   4.956   1.111   5.206 -0.2398  0.1869 -0.2066
12320SOL    HW138401   5.033   1.056   5.189  0.7157  0.5764  2.4057
12320SOL    HW238402   4.990   1.201   5.203 -0.2716  0.3316  1.9662
12321SOL     OW38403   4.693   1.132   3.892  0.3874  0.4323 -0.0683
12321SOL    HW138404   4.783   1.141   3.864 -0.2072  1.4077 -1.8166
12321SOL    HW238405   4.663   1.222   3.905 -0.7330  0.2173 -0.9489
12322SOL     OW38406   6.768   0.830   4.106 -0.3768  0.1159 -0.2154
12322SOL    HW138407   6.733   0.741   4.102 -0.2452  0.0857 -0.7944
12322SOL    HW238408   6.809   0.844   4.020  0.5944  0.3292  0.2682
12323SOL     OW38409   4.021   0.970   3.953  0.4439 -0.2088 -0.5565
12323SOL    HW138410   4.068   1.041   3.996  0.6591  0.6218 -2.0981
12323SOL    HW238411   4.055   0.890   3.993  0.0129  0.5325  1.3964
12324SOL     OW38412   4.816   7.288   5.792 -0.5482  0.6404  0.1678
12324SOL    HW138413   4.795   7.209   5.842  1.9223 -0.0601  0.2104
12324SOL    HW238414   4.803   7.263   5.700  0.2040  0.1796  0.1826
12325SOL     OW38415   3.758   1.294   3.686  0.0607  0.4163  0.4101
12325SOL    HW138416   3.732   1.332   3.769 -0.9339 -1.7362  1.1786
12325SOL    HW238417   3.834   1.239   3.707  0.2954  0.4767 -0.2608
12326SOL     OW38418   4.002   7.740   4.253 -0.5626 -0.3865 -0.1361
12326SOL    HW138419   3.913   7.744   4.216 -0.5695 -2.0329 -0.3694
12326SOL    HW238420   4.059   7.770   4.182 -0.7452 -1.6303 -0.8365
12327SOL     OW38421   3.704   2.401   4.016 -0.5280 -0.5466  0.8402
12327SOL    HW138422   3.650   2.417   4.094 -0.2946  1.5427  0.6396
12327SOL    HW238423   3.792   2.384   4.051 -0.4758  0.1456  1.0668
12328SOL     OW38424   3.862   7.785   3.358 -0.1137 -0.0112 -0.5773
12328SOL    HW138425   3.837   7.722   3.289  0.4853  0.3305 -1.1255
12328SOL    HW238426   3.792   7.849   3.359  0.0495  0.1823 -1.1346
12329SOL     OW38427   6.880   1.028   3.403 -0.6287  0.0638  0.3469
12329SOL    HW138428   6.933   0.989   3.333  0.1252  0.4411  0.6870
12329SOL    HW238429   6.942   1.082   3.452 -0.9112 -1.0066  1.9458
12330SOL     OW38430   4.605   0.141   4.892  0.4269 -0.2803  0.0580
12330SOL    HW138431   4.607   0.140   4.988 -1.3218 -0.7355  0.1327
12330SOL    HW238432   4.671   0.078   4.865 -1.1128 -2.4726  1.0866
12331SOL     OW38433   3.577   2.328   5.445 -0.4727 -0.1454  0.0012
12331SOL    HW138434   3.636   2.404   5.445  0.9462 -1.1876  0.5698
12331SOL    HW238435   3.583   2.293   5.356 -1.1225  0.4059 -0.2591
12332SOL     OW38436   3.004   0.393   4.505  0.0842  0.4658  0.1972
12332SOL    HW138437   2.921   0.439   4.493  0.3748  1.0543  0.3781
12332SOL    HW238438   3.014   0.340   4.426 -0.5223  0.2882  0.2300
12333SOL     OW38439   4.304   1.814   5.540  0.0799 -0.8880  0.1036
12333SOL    HW138440   4.212   1.801   5.516  0.2546  1.4553 -2.2793
12333SOL    HW238441   4.309   1.906   5.566  1.9244 -0.7051 -0.7884
12334SOL     OW38442   6.835   6.617   4.011 -0.5123 -0.0851 -0.0753
12334SOL    HW138443   6.742   6.634   4.027 -0.8234 -1.3401 -0.4580
12334SOL    HW238444   6.860   6.555   4.079 -0.3286 -0.8620 -0.8359
12335SOL     OW38445   5.707   0.433   3.359  0.0461  0.2858  0.0572
12335SOL    HW138446   5.664   0.516   3.337 -0.2733 -0.2023 -1.2116
12335SOL    HW238447   5.668   0.369   3.299 -0.0047 -0.8737  1.2874
12336SOL     OW38448   5.120   1.379   3.894  0.4080 -0.8266  0.4483
12336SOL    HW138449   5.159   1.442   3.955 -2.2125 -0.7516  2.2436
12336SOL    HW238450   5.162   1.296   3.917  1.2403 -0.3765  0.6169
12337SOL     OW38451   2.283   0.020   5.336 -0.0286 -0.3777  0.5619
12337SOL    HW138452   2.229  -0.038   5.389 -1.8276  1.3535  0.7454
12337SOL    HW238453   2.355   0.046   5.394 -1.1227  0.2769  1.6739
12338SOL     OW38454   4.510   2.143   3.877 -0.2072  0.1305 -0.5098
12338SOL    HW138455   4.473   2.225   3.912 -0.5704  0.3671 -1.4255
12338SOL    HW238456   4.458   2.074   3.919  0.6168  0.3091  0.8835
12339SOL     OW38457   3.664   0.444   3.288  0.4491 -0.0238  0.0862
12339SOL    HW138458   3.609   0.389   3.344 -0.8414  0.3664 -0.7372
12339SOL    HW238459   3.685   0.388   3.213  0.2249  0.1944 -0.1383
12340SOL     OW38460   3.422   0.732   5.690  0.1274 -0.2064 -0.3081
12340SOL    HW138461   3.455   0.819   5.668 -0.9384  0.2883 -0.0146
12340SOL    HW238462   3.389   0.741   5.779 -2.3860 -0.1958 -1.1819
12341SOL     OW38463   2.389   0.810   4.637  0.0405 -0.3334 -0.0585
12341SOL    HW138464   2.455   0.773   4.696  0.1124  1.2441  0.9004
12341SOL    HW238465   2.309   0.812   4.690 -0.0824  0.3752 -0.2610
12342SOL     OW38466   5.302   1.075   5.442 -0.2063 -0.3422  0.4834
12342SOL    HW138467   5.271   1.166   5.435  1.0710  0.1177  0.4702
12342SOL    HW238468   5.369   1.068   5.375  0.8050 -0.8124  1.5076
12343SOL     OW38469   5.280   0.822   1.885 -0.4417  0.7074 -0.1214
12343SOL    HW138470   5.352   0.815   1.824  0.4615  0.0258  0.9779
12343SOL    HW238471   5.276   0.915   1.908  0.7752  0.6099  0.5778
12344SOL     OW38472   4.345   6.507   4.739  0.4133  0.4165 -0.4067
12344SOL    HW138473   4.350   6.412   4.729 -1.2148  0.2391  0.1716
12344SOL    HW238474   4.432   6.533   4.770  0.2971 -1.1511  1.3955
12345SOL     OW38475   4.207   0.329   4.615  0.1065 -0.3652  0.0806
12345SOL    HW138476   4.113   0.319   4.635  0.3493  0.3420  1.8001
12345SOL    HW238477   4.249   0.330   4.701  1.8193 -1.6064 -0.6925
12346SOL     OW38478   3.117   1.996   4.211 -0.7570 -0.0025 -0.2124
12346SOL    HW138479   3.179   2.058   4.172  0.4625 -0.8161  0.4043
12346SOL    HW238480   3.048   2.052   4.247 -0.3518  0.9251 -0.8303
12347SOL     OW38481   3.240   7.994   5.180  0.2595  0.5982 -0.5508
12347SOL    HW138482   3.254   8.059   5.111 -0.0333  0.9022 -0.3334
12347SOL    HW238483   3.144   7.986   5.186  0.2993 -0.4608 -1.1264
12348SOL     OW38484   4.545   0.588   5.469 -0.5776 -0.0670 -0.3446
12348SOL    HW138485   4.488   0.511   5.458 -0.6973 -0.0280 -0.0059
12348SOL    HW238486   4.591   0.572   5.551  1.2386 -0.9599 -1.4682
12349SOL     OW38487   2.706   0.793   4.553 -0.1163  0.6603 -0.2422
12349SOL    HW138488   2.794   0.808   4.519  0.8769 -0.3665  1.7037
12349SOL    HW238489   2.704   0.841   4.636 -1.3474  0.5691 -0.2115
12350SOL     OW38490   2.759   2.157   6.540 -0.5085  0.5085  0.3294
12350SOL    HW138491   2.753   2.252   6.546 -0.2579  0.6122 -0.8499
12350SOL    HW238492   2.705   2.134   6.464  0.6932 -0.1219 -0.3687
12351SOL     OW38493   4.906   2.042   6.786 -0.4178 -0.3643 -0.4049
12351SOL    HW138494   4.865   2.124   6.760 -1.9371 -0.5791  1.1895
12351SOL    HW238495   4.849   1.974   6.750  1.4564 -0.8488 -2.7525
12352SOL     OW38496   3.649   0.465   7.611  0.1113  0.1527  0.3366
12352SOL    HW138497   3.574   0.407   7.594  0.8576 -0.4718 -1.0545
12352SOL    HW238498   3.707   0.450   7.536  1.8992  0.1995  1.6548
12353SOL     OW38499   3.407   0.097   5.990  0.2824  0.2394 -0.8725
12353SOL    HW138500   3.364   0.015   5.966 -0.7938  0.4062  0.4102
12353SOL    HW238501   3.361   0.164   5.939  0.0759  0.2415 -0.6805
12354SOL     OW38502   3.689   0.061   6.822  0.5409 -0.0965 -0.2759
12354SOL    HW138503   3.725  -0.012   6.874  0.6283  0.4800  0.4932
12354SOL    HW238504   3.599   0.070   6.853  0.8004  0.6899  0.2695
12355SOL     OW38505   5.829   1.356   7.335  0.2524 -0.3259 -0.1936
12355SOL    HW138506   5.829   1.265   7.307 -0.7193 -0.1438 -0.8344
12355SOL    HW238507   5.922   1.380   7.339  0.4830 -1.0383 -1.0277
12356SOL     OW38508   3.098   1.033   5.497 -0.5727 -0.5813  0.1920
12356SOL    HW138509   3.101   1.031   5.593  2.2518 -0.5912  0.1929
12356SOL    HW238510   3.186   1.005   5.470 -1.3819 -0.8637 -2.4289
12357SOL     OW38511   5.748   1.762   9.987  0.3604 -0.1585  0.0213
12357SOL    HW138512   5.798   1.701  10.042  1.5850 -1.0731 -1.9729
12357SOL    HW238513   5.667   1.714   9.967  2.6034 -2.8197 -4.1505
12358SOL     OW38514   2.053   2.321   6.902 -0.0610 -0.2591 -0.0976
12358SOL    HW138515   1.969   2.366   6.890 -0.0524 -0.4774 -1.0632
12358SOL    HW238516   2.117   2.377   6.858 -0.1298 -1.4527 -1.8181
12359SOL     OW38517   4.947   1.480   6.324 -0.1952 -0.1132 -0.1853
12359SOL    HW138518   4.904   1.412   6.273  0.6955 -1.0998  0.3452
12359SOL    HW238519   5.018   1.510   6.269  0.2724 -0.6132  0.1346
12360SOL     OW38520   4.427   0.688   6.219  0.2488 -0.4618 -0.5875
12360SOL    HW138521   4.493   0.620   6.223  0.4515 -0.3995 -2.1629
12360SOL    HW238522   4.477   0.770   6.222  0.0197 -0.3400  1.0919
12361SOL     OW38523   5.244   7.147   6.076  0.0414 -0.1469 -0.0475
12361SOL    HW138524   5.234   7.159   5.981 -0.9961  0.8554  0.1590
12361SOL    HW238525   5.247   7.237   6.111 -0.2077 -0.4967  0.9111
12362SOL     OW38526   5.204   1.340   6.066  0.0363  0.0982 -0.0361
12362SOL    HW138527   5.177   1.289   6.143  0.3571 -1.2000 -0.7464
12362SOL    HW238528   5.224   1.273   6.000  1.1659  1.1445 -0.7781
12363SOL     OW38529   7.062   0.792   5.546  0.0776 -0.1563 -0.8035
12363SOL    HW138530   7.073   0.712   5.598  2.0325  0.7641  0.3193
12363SOL    HW238531   7.088   0.768   5.458  0.9694 -0.6839 -0.4008
12364SOL     OW38532   4.946   1.766   5.970  0.4625  0.1105  0.0623
12364SOL    HW138533   4.901   1.722   5.897  2.3715 -0.5377 -0.7749
12364SOL    HW238534   4.962   1.855   5.938 -2.3948  1.2209  1.3386
12365SOL     OW38535   2.726   2.015   5.029  0.1242  0.0708  0.2320
12365SOL    HW138536   2.773   2.096   5.049 -0.5864  0.3113  0.9826
12365SOL    HW238537   2.716   2.016   4.934  0.3860  0.7174  0.2027
12366SOL     OW38538   2.710   1.425   6.645 -0.3344 -0.3137 -0.4806
12366SOL    HW138539   2.707   1.387   6.732 -1.5509 -1.3920 -0.9622
12366SOL    HW238540   2.634   1.388   6.600  0.0159  0.5662 -1.8550
12367SOL     OW38541   5.930   1.078   7.309  0.3562  0.3302  0.0504
12367SOL    HW138542   5.879   1.017   7.255  0.7828  0.7219 -0.8154
12367SOL    HW238543   6.020   1.046   7.304  0.9736  2.1189 -2.1072
12368SOL     OW38544   4.002   0.056   5.613 -0.5645 -0.3210 -0.0662
12368SOL    HW138545   3.917   0.058   5.569 -0.0032 -1.2754 -1.2568
12368SOL    HW238546   4.058   0.112   5.560 -0.1323 -0.6739  0.0145
12369SOL     OW38547   3.542   0.016   6.246 -0.1585  0.2533  0.7124
12369SOL    HW138548   3.554   0.049   6.158 -0.1886 -0.3291  0.4821
12369SOL    HW238549   3.494   0.085   6.292  0.4570  0.8465  0.4760
12370SOL     OW38550   4.391   0.947   5.798  0.1198  0.4080 -0.2213
12370SOL    HW138551   4.457   0.929   5.865  2.8658  0.3376 -2.7596
12370SOL    HW238552   4.327   1.004   5.842  3.0791  2.4415  1.8117
12371SOL     OW38553   3.865   2.149   4.814  0.4616  0.3843 -0.0412
12371SOL    HW138554   3.804   2.204   4.862 -0.0089  0.7280 -0.9958
12371SOL    HW238555   3.906   2.208   4.751 -0.6563 -0.4804 -1.6577
12372SOL     OW38556   6.011   7.314   5.774  0.1778 -0.0823 -0.1808
12372SOL    HW138557   6.072   7.323   5.847 -1.6822 -2.1102  1.7722
12372SOL    HW238558   6.004   7.220   5.760 -3.1417 -0.0552  0.3615
12373SOL     OW38559   5.530   0.870   6.651 -0.1448  0.4047  0.4522
12373SOL    HW138560   5.553   0.810   6.580  0.6539  1.6007 -0.3380
12373SOL    HW238561   5.485   0.815   6.715 -1.9140 -0.4976 -1.4517
12374SOL     OW38562   5.776   1.146   6.571 -0.8298 -0.3857 -0.1346
12374SOL    HW138563   5.841   1.139   6.641 -0.6505  0.1262 -0.2439
12374SOL    HW238564   5.789   1.068   6.517 -1.0936 -0.8763  0.5028
12375SOL     OW38565   4.020   2.471   6.793 -0.6932  0.7665  0.7718
12375SOL    HW138566   4.030   2.389   6.841 -1.5257 -0.7418 -1.4589
12375SOL    HW238567   3.925   2.478   6.778 -0.3902  0.4614 -1.6933
12376SOL     OW38568   5.025   2.382   8.351 -0.8638  0.0794 -0.3573
12376SOL    HW138569   4.975   2.431   8.416 -0.4004  0.4384 -0.2706
12376SOL    HW238570   5.114   2.415   8.359 -0.4550 -1.0579 -0.0060
12377SOL     OW38571   4.671   7.843   6.672  0.8724  0.2851  1.1330
12377SOL    HW138572   4.721   7.852   6.590 -1.3812  2.4763 -0.1394
12377SOL    HW238573   4.628   7.758   6.664 -0.7617  1.2142 -0.9187
12378SOL     OW38574   4.903   1.294   6.985 -0.2564 -0.4886 -0.7533
12378SOL    HW138575   4.864   1.326   6.904  1.4786  3.4456 -0.2636
12378SOL    HW238576   4.991   1.266   6.961  0.1534  0.3970 -0.3646
12379SOL     OW38577   6.138   6.701   5.329  0.4685  0.2420  0.2601
12379SOL    HW138578   6.101   6.687   5.242 -0.5503 -3.4570  1.0927
12379SOL    HW238579   6.232   6.708   5.315  0.3087 -0.1467 -1.1827
12380SOL     OW38580   4.020   2.939   7.702 -0.4860 -0.0061 -0.3875
12380SOL    HW138581   3.984   2.857   7.669 -1.2995  0.8772 -1.8152
12380SOL    HW238582   4.026   2.996   7.624 -0.7051  1.5467  0.6804
12381SOL     OW38583   4.003   0.684   7.498  0.3365  0.0225 -0.5187
12381SOL    HW138584   4.048   0.768   7.485  0.2154 -0.0308 -1.2877
12381SOL    HW238585   3.986   0.652   7.410 -1.0250 -0.0724 -0.2316
12382SOL     OW38586   6.312   2.270   6.866 -0.3137 -0.5959  0.2199
12382SOL    HW138587   6.405   2.253   6.881  0.1207  0.0270 -1.5137
12382SOL    HW238588   6.302   2.364   6.882 -0.7116 -0.7174  0.6875
12383SOL     OW38589   5.413   0.183   5.658 -0.3136 -0.2945  0.6071
12383SOL    HW138590   5.369   0.262   5.689  0.4636 -0.0968  1.2495
12383SOL    HW238591   5.389   0.115   5.721 -2.5743 -1.1134 -1.0066
12384SOL     OW38592   3.565   0.371   4.437  0.0747 -0.0531  0.0817
12384SOL    HW138593   3.614   0.453   4.435  1.1409 -0.6565  0.6312
12384SOL    HW238594   3.544   0.357   4.530 -1.6698  0.4725 -0.1870
12385SOL     OW38595   5.499   7.638   5.892  0.2852 -0.1191  0.6636
12385SOL    HW138596   5.441   7.695   5.943  2.1727  1.3781  1.2400
12385SOL    HW238597   5.498   7.676   5.804  0.9603  0.3537  0.8591
12386SOL     OW38598   6.960   0.131   7.031 -0.1908  1.1467 -0.1169
12386SOL    HW138599   6.895   0.160   6.967  1.4664  0.5839 -2.1590
12386SOL    HW238600   7.042   0.128   6.982  0.9679 -0.3310  1.7865
12387SOL     OW38601   4.354   1.410   7.177  0.1419  0.1352 -0.1992
12387SOL    HW138602   4.266   1.447   7.169 -0.1601 -0.6711 -0.7795
12387SOL    HW238603   4.339   1.317   7.191  0.9064 -0.5868 -3.4084
12388SOL     OW38604   5.119   0.081   9.420 -0.0521  1.0073 -0.2190
12388SOL    HW138605   5.130   0.045   9.508  2.1590  1.0761 -0.4041
12388SOL    HW238606   5.025   0.086   9.407 -0.4212  0.6784  2.0159
12389SOL     OW38607   4.241   1.140   7.289  0.1373 -0.2669 -0.3640
12389SOL    HW138608   4.190   1.203   7.341  0.5275  0.0791 -0.4001
12389SOL    HW238609   4.239   1.060   7.341  0.7552  0.1501  0.3271
12390SOL     OW38610   5.454   0.904   6.070  0.5394  0.2088 -0.8175
12390SOL    HW138611   5.450   0.841   5.999  2.2398 -0.9099  0.0109
12390SOL    HW238612   5.540   0.944   6.061  0.9835 -0.2992  0.8673
12391SOL     OW38613   5.575   7.983   6.119  0.1550  0.1397 -0.2616
12391SOL    HW138614   5.655   7.936   6.139 -0.4168 -0.7594 -0.0247
12391SOL    HW238615   5.518   7.918   6.078 -1.0720  0.3159  1.0777
12392SOL     OW38616   4.478   0.972   6.282 -0.5333 -0.1339 -0.1827
12392SOL    HW138617   4.448   0.938   6.367 -1.6786  0.3004 -0.3932
12392SOL    HW238618   4.478   1.067   6.294 -1.8430 -0.0095 -1.0220
12393SOL     OW38619   1.844   0.247   7.157 -0.0609 -0.4344  0.1807
12393SOL    HW138620   1.930   0.247   7.117  0.6882 -0.7285  1.7330
12393SOL    HW238621   1.844   0.325   7.214 -2.6169  2.5448 -3.3721
12394SOL     OW38622   5.188   1.145   6.244  0.4705  0.1714 -0.6306
12394SOL    HW138623   5.215   1.070   6.192  1.9824 -0.3154  0.7812
12394SOL    HW238624   5.095   1.130   6.262  0.6617 -1.1595 -0.7018
12395SOL     OW38625   5.548   0.033   7.924  0.4645  0.2715 -0.0458
12395SOL    HW138626   5.462   0.001   7.949  0.1689  0.8291 -0.3436
12395SOL    HW238627   5.595   0.043   8.007  0.3839 -0.4274  0.0848
12396SOL     OW38628   4.259   6.849   4.378  0.0826  0.3112  0.1669
12396SOL    HW138629   4.317   6.780   4.346  1.4080  0.9431  1.1438
12396SOL    HW238630   4.309   6.895   4.445 -2.2385 -0.3880  2.5566
12397SOL     OW38631   3.931   0.573   5.995 -0.3862  0.4651  0.6527
12397SOL    HW138632   3.844   0.548   6.026 -0.2717  0.6578  1.1516
12397SOL    HW238633   3.931   0.669   6.000 -0.0603  0.4566  0.9118
12398SOL     OW38634   5.044   2.292   7.522  0.0969  0.1573 -0.0721
12398SOL    HW138635   4.952   2.298   7.498  0.0294 -0.1520  0.1113
12398SOL    HW238636   5.046   2.312   7.616  0.4439  2.0790 -0.4424
12399SOL     OW38637   5.043   0.602   7.133 -0.0770 -0.4924  0.0988
12399SOL    HW138638   4.984   0.529   7.114 -0.3821 -0.2209 -0.0028
12399SOL    HW238639   4.995   0.680   7.103 -0.1388 -0.1610  1.0442
12400SOL     OW38640   5.244   7.503   6.036  0.3432 -0.1372 -0.4185
12400SOL    HW138641   5.257   7.595   6.060 -0.4168  0.0485 -0.7022
12400SOL    HW238642   5.233   7.505   5.941  0.1677 -0.5061 -0.4054
12401SOL     OW38643   7.354   1.786   8.291  0.3001 -0.1743 -0.0028
12401SOL    HW138644   7.267   1.754   8.316 -0.3314  1.6814  0.2634
12401SOL    HW238645   7.362   1.762   8.198 -2.0738  2.7644 -1.1231
12402SOL     OW38646   3.919   1.527   6.249 -0.1922 -0.1680 -0.2005
12402SOL    HW138647   3.892   1.616   6.269 -0.0747 -0.5845  2.2052
12402SOL    HW238648   3.948   1.491   6.334  0.7763 -2.1409 -1.2788
12403SOL     OW38649   5.217   2.807   6.723  0.3495  0.4121 -0.3951
12403SOL    HW138650   5.212   2.884   6.668  2.0280  1.4532  0.7985
12403SOL    HW238651   5.151   2.821   6.791 -1.0768 -0.4375 -1.5458
12404SOL     OW38652   3.060   1.125   6.678 -0.7123  0.2397  0.4917
12404SOL    HW138653   3.073   1.209   6.721  0.3089 -0.2669  1.2285
12404SOL    HW238654   3.143   1.107   6.635 -0.7236 -0.6308  0.8034
12405SOL     OW38655   5.331   2.357   5.256  0.4056 -0.1590 -0.3593
12405SOL    HW138656   5.400   2.310   5.302  1.6136  0.4469 -1.4939
12405SOL    HW238657   5.335   2.446   5.291 -0.8194 -0.4692  0.6394
12406SOL     OW38658   3.666   1.873   5.638 -0.0805 -0.5119 -0.1356
12406SOL    HW138659   3.576   1.839   5.643  0.0337 -0.6957  1.0248
12406SOL    HW238660   3.705   1.826   5.564 -0.3354 -1.9738  0.6039
12407SOL     OW38661   5.469   1.270   6.192  0.0374  0.4106 -0.1288
12407SOL    HW138662   5.424   1.350   6.220 -0.7669  0.1938 -0.7848
12407SOL    HW238663   5.398   1.209   6.172  0.6475 -0.5937  0.7176
12408SOL     OW38664   5.453   1.822   5.941 -0.1342 -0.5748  0.0292
12408SOL    HW138665   5.517   1.893   5.932 -0.4287  0.0002  1.9219
12408SOL    HW238666   5.374   1.856   5.899 -0.4557  0.5200  1.4321
12409SOL     OW38667   4.527   0.810   5.204  0.5341 -0.0772  0.2529
12409SOL    HW138668   4.523   0.891   5.153  0.9879  0.7742  1.5363
12409SOL    HW238669   4.528   0.740   5.137  1.2562  0.9969 -0.9059
12410SOL     OW38670   3.972   0.791   4.580  0.5225  0.4196 -0.4744
12410SOL    HW138671   4.038   0.721   4.579 -2.6238 -2.8032 -0.1907
12410SOL    HW238672   3.982   0.831   4.666  1.0404 -1.1386  0.2332
12411SOL     OW38673   3.729   0.034   7.255  0.2131 -0.2878  0.2719
12411SOL    HW138674   3.798   0.092   7.286  0.7288 -0.8217  0.1524
12411SOL    HW238675   3.765  -0.007   7.177 -0.1291 -0.7750  0.3611
12412SOL     OW38676   4.707   1.023   5.301 -0.0455 -0.8292 -0.0374
12412SOL    HW138677   4.651   1.093   5.333 -0.4444 -1.9943  2.0103
12412SOL    HW238678   4.782   1.068   5.262 -0.7854  0.7206  0.2669
12413SOL     OW38679   4.626   1.479   7.179  0.0459 -0.1112  0.0824
12413SOL    HW138680   4.561   1.411   7.160 -1.7059  1.8314 -1.3914
12413SOL    HW238681   4.683   1.480   7.102  1.3019 -1.1823  0.9654
12414SOL     OW38682   5.007   2.329   6.991 -0.1322  0.1564  0.0501
12414SOL    HW138683   5.031   2.392   6.923 -1.3582  0.5336 -0.0451
12414SOL    HW238684   5.070   2.257   6.979 -0.0426  0.4129 -1.2086
12415SOL     OW38685   4.913   7.303   6.257  0.1069  0.0102  0.0874
12415SOL    HW138686   4.860   7.236   6.214 -1.2695 -0.1261  1.8264
12415SOL    HW238687   4.852   7.376   6.271 -0.4910 -1.0413  4.2783
12416SOL     OW38688   5.598   3.130   6.877  0.1109  0.1599 -0.4636
12416SOL    HW138689   5.620   3.158   6.788 -0.7391  1.3652 -0.3379
12416SOL    HW238690   5.544   3.202   6.911  2.6299  1.0922  2.0086
12417SOL     OW38691   5.229   0.428   6.204  0.5321  0.5143 -0.3677
12417SOL    HW138692   5.311   0.381   6.214 -0.1222 -0.4971  0.4395
12417SOL    HW238693   5.170   0.366   6.162 -1.1960 -0.5613  3.2026
12418SOL     OW38694   3.901   0.567   5.180  0.1395  0.4194 -0.1628
12418SOL    HW138695   3.900   0.649   5.230  2.0086  1.4102 -1.6012
12418SOL    HW238696   3.808   0.542   5.173 -0.4777  2.3709  0.3820
12419SOL     OW38697   5.846   1.057   5.199 -0.0030  0.3940  0.6390
12419SOL    HW138698   5.902   0.991   5.240 -0.3325 -0.1827  0.1644
12419SOL    HW238699   5.907   1.120   5.160  0.3106  0.3040  0.9874
12420SOL     OW38700   3.526   5.847   4.436 -0.5941  0.0870  0.1560
12420SOL    HW138701   3.506   5.931   4.477 -0.4858  1.4100 -2.3150
12420SOL    HW238702   3.622   5.848   4.426 -0.5927 -0.3234  0.1233
12421SOL     OW38703   3.385   6.939   4.438 -0.9730  0.2578 -0.3079
12421SOL    HW138704   3.396   7.020   4.488 -0.3053  1.2144 -1.9166
12421SOL    HW238705   3.371   6.871   4.504 -1.4279  1.6573  1.0906
12422SOL     OW38706   4.949   0.332   6.872  0.1707 -0.8216  0.3129
12422SOL    HW138707   4.920   0.275   6.944  1.4332 -2.6107 -0.5078
12422SOL    HW238708   4.934   0.279   6.794 -1.1199  1.0646 -0.7973
12423SOL     OW38709   5.345   1.351   7.190 -0.7731  0.2905  0.1776
12423SOL    HW138710   5.395   1.368   7.270 -2.7973  1.3437  1.3010
12423SOL    HW238711   5.412   1.336   7.123  1.0367  1.3527  1.6380
12424SOL     OW38712   3.374   1.079   5.421 -0.2475 -0.1096  0.3637
12424SOL    HW138713   3.360   1.138   5.347  2.5531 -0.3515 -0.4796
12424SOL    HW238714   3.381   1.137   5.497  0.5633  0.5104 -0.1641
12425SOL     OW38715   4.103   1.508   5.682 -0.2278  0.6542  0.0952
12425SOL    HW138716   4.197   1.515   5.668  0.1240 -0.5468  1.6113
12425SOL    HW238717   4.074   1.443   5.618  0.0668  0.6144  0.0032
12426SOL     OW38718   6.038   0.923   5.332 -0.1987  0.6492  0.4286
12426SOL    HW138719   6.073   0.991   5.389  0.5391 -0.1708  0.9593
12426SOL    HW238720   6.100   0.851   5.338 -2.6209 -1.4342  2.4986
12427SOL     OW38721   3.916   0.589   7.232  0.0989 -0.1056  0.0479
12427SOL    HW138722   3.983   0.528   7.204  0.6551  0.1137  0.8542
12427SOL    HW238723   3.891   0.636   7.152  0.6383 -0.4426 -0.3255
12428SOL     OW38724   6.339   0.118   7.199  0.1930 -0.6342 -0.4314
12428SOL    HW138725   6.375   0.152   7.117 -0.3817  0.8476 -0.1160
12428SOL    HW238726   6.259   0.169   7.213  0.5486 -0.4620  1.3033
12429SOL     OW38727   4.846   7.043   4.602 -0.4329  0.3105 -0.1400
12429SOL    HW138728   4.809   6.969   4.650  0.0387  0.3218  0.2517
12429SOL    HW238729   4.911   7.004   4.544 -0.8311  0.3235 -0.6011
12430SOL     OW38730   3.112   0.021   7.877 -0.3129  0.4111  0.4330
12430SOL    HW138731   3.129  -0.045   7.944  0.9148  0.6896  0.4170
12430SOL    HW238732   3.136   0.104   7.919  0.0897  0.6265 -0.2211
12431SOL     OW38733   4.288   2.123   5.961 -0.3419 -0.2285 -0.5526
12431SOL    HW138734   4.295   2.077   6.044 -0.4343 -1.8890 -1.4199
12431SOL    HW238735   4.194   2.129   5.944 -0.3711  1.1341 -0.0178
12432SOL     OW38736   4.278   6.836   5.793  0.0578  0.1690 -0.5023
12432SOL    HW138737   4.351   6.792   5.748  1.4426  2.1458 -0.3511
12432SOL    HW238738   4.317   6.870   5.874 -1.4193  0.0720  0.2860
12433SOL     OW38739   6.735   0.541   5.024 -0.4003 -0.0513 -0.3139
12433SOL    HW138740   6.658   0.539   5.081 -0.6972  0.8543 -0.6633
12433SOL    HW238741   6.699   0.541   4.935 -0.1331  2.6224 -0.5028
12434SOL     OW38742   4.294   1.412   3.811  0.2034 -0.4761  0.0508
12434SOL    HW138743   4.329   1.366   3.887 -0.0359 -0.8058 -0.0317
12434SOL    HW238744   4.371   1.434   3.759  0.2900 -1.3893 -0.2379
12435SOL     OW38745   4.836   0.876   6.093  0.1278  0.7357 -0.0907
12435SOL    HW138746   4.877   0.962   6.096 -1.1929  1.4198 -0.8476
12435SOL    HW238747   4.823   0.852   6.185 -0.5737  1.9057  0.1327
12436SOL     OW38748   6.632   0.141   6.180  0.1145  0.2207 -0.5111
12436SOL    HW138749   6.712   0.143   6.231 -0.9074 -0.8929  1.2694
12436SOL    HW238750   6.642   0.065   6.123  0.8432  0.8575 -1.2471
12437SOL     OW38751   2.309   7.285   4.065  0.4744  0.1907 -0.0718
12437SOL    HW138752   2.250   7.308   3.993 -0.3420  0.3844  0.6341
12437SOL    HW238753   2.382   7.346   4.057  0.5990 -0.0751 -0.9891
12438SOL     OW38754   6.332   1.369   9.081 -0.3863  0.2521  0.0124
12438SOL    HW138755   6.401   1.317   9.041  0.4966  1.6402 -0.3646
12438SOL    HW238756   6.275   1.393   9.008 -1.6521 -1.4041  0.4199
12439SOL     OW38757   4.916   0.585   8.384  0.3241  0.8127 -0.1543
12439SOL    HW138758   4.881   0.581   8.473 -0.6949 -3.9080 -0.5058
12439SOL    HW238759   4.846   0.626   8.333 -0.0781  1.3964  0.8360
12440SOL     OW38760   4.221   2.327   7.654  0.5569 -0.3865 -0.3153
12440SOL    HW138761   4.201   2.391   7.586  0.3421 -1.8566 -1.6888
12440SOL    HW238762   4.208   2.375   7.736  0.8729  1.4457 -1.2828
12441SOL     OW38763   5.457   1.657   6.831  0.5457 -0.5294 -0.4531
12441SOL    HW138764   5.413   1.739   6.855  2.0096  0.3841 -0.7417
12441SOL    HW238765   5.440   1.598   6.904  3.1763  1.4943  1.9964
12442SOL     OW38766   4.410   7.104   5.376 -0.1121 -0.0646 -0.1921
12442SOL    HW138767   4.466   7.110   5.298 -0.5992  2.5821 -0.4481
12442SOL    HW238768   4.338   7.048   5.349 -0.1883  0.6672 -1.6304
12443SOL     OW38769   4.921   6.240   7.007  0.3758  0.1268 -0.3348
12443SOL    HW138770   5.004   6.208   6.974  0.8389  1.2402 -0.2831
12443SOL    HW238771   4.856   6.207   6.945  0.6768 -1.8547  0.3405
12444SOL     OW38772   3.934   1.103   7.916  0.6718  0.2610  0.2019
12444SOL    HW138773   3.853   1.098   7.967 -0.2192  1.1250 -1.0668
12444SOL    HW238774   3.965   1.012   7.913 -1.9532 -0.7071 -1.8739
12445SOL     OW38775   4.895   1.875   6.406  0.3002 -0.5238  0.6152
12445SOL    HW138776   4.991   1.880   6.414  0.2064  0.5908  1.3254
12445SOL    HW238777   4.873   1.789   6.440  1.1945 -1.5729 -1.3206
12446SOL     OW38778   4.504   1.051   6.578  0.0942 -0.2411  0.4830
12446SOL    HW138779   4.582   1.056   6.633  0.1491 -0.7168  0.4498
12446SOL    HW238780   4.523   1.109   6.504  0.5810 -0.6678  0.2702
12447SOL     OW38781   5.012   7.072   5.674 -0.1263 -0.0895  0.0982
12447SOL    HW138782   5.046   7.098   5.588  1.6298 -2.2839  0.0247
12447SOL    HW238783   4.999   6.977   5.667  1.3031 -0.5638  2.5963
12448SOL     OW38784   3.134   2.466   7.169 -1.0831  0.3154 -0.5242
12448SOL    HW138785   3.183   2.548   7.177  0.4889 -0.5933 -0.2163
12448SOL    HW238786   3.199   2.398   7.190 -1.8183 -1.1247 -2.5868
12449SOL     OW38787   4.181   0.910   5.167  0.5065 -0.1791  0.4720
12449SOL    HW138788   4.119   0.886   5.099 -1.2985  0.9199  1.6502
12449SOL    HW238789   4.180   0.836   5.228  0.0413  0.0017  0.6874
12450SOL     OW38790   3.799   0.312   6.875 -0.5129 -0.1801  0.3919
12450SOL    HW138791   3.875   0.287   6.928 -0.1174 -0.5681 -0.3377
12450SOL    HW238792   3.759   0.230   6.850 -1.7844  0.0442  1.5955
12451SOL     OW38793   3.858   1.735   6.402  0.3500  0.5588  0.1792
12451SOL    HW138794   3.947   1.711   6.429  0.7488 -0.5860 -1.9364
12451SOL    HW238795   3.801   1.677   6.452  1.0278 -1.1376 -0.9414
12452SOL     OW38796   3.735   0.899   6.309  0.0502 -0.7621  0.0208
12452SOL    HW138797   3.718   0.834   6.377  0.2670 -0.9289 -0.0852
12452SOL    HW238798   3.773   0.849   6.236  0.8054 -0.4280  0.1728
12453SOL     OW38799   6.102   6.177   4.892 -0.2294 -0.2087  0.2017
12453SOL    HW138800   6.040   6.131   4.835  0.9674 -0.8831 -0.5818
12453SOL    HW238801   6.143   6.242   4.835  0.9534 -0.8659  0.2790
12454SOL     OW38802   4.546   1.925   7.918  0.0098 -0.4575  0.4775
12454SOL    HW138803   4.610   1.984   7.878 -1.1222  0.5170  0.0628
12454SOL    HW238804   4.486   1.983   7.965 -0.9369 -1.3084  0.3472
12455SOL     OW38805   2.575   0.683   7.637 -0.4411 -0.3881  0.1058
12455SOL    HW138806   2.509   0.616   7.657  0.3305 -0.4905  2.5234
12455SOL    HW238807   2.537   0.731   7.563 -0.9689 -3.5139 -1.8629
12456SOL     OW38808   5.823   7.808   6.057 -0.1435 -0.3279  0.1752
12456SOL    HW138809   5.815   7.714   6.040 -2.5543 -0.2472  0.4727
12456SOL    HW238810   5.795   7.848   5.975 -0.4256  0.1155  0.4876
12457SOL     OW38811   4.718   0.032   7.258 -0.0712 -0.0352 -0.6650
12457SOL    HW138812   4.623   0.034   7.252 -0.0101  0.5355 -1.6105
12457SOL    HW238813   4.747  -0.017   7.181  0.3699 -1.1264  0.1704
12458SOL     OW38814   3.395   0.227   8.393 -0.2626 -0.0299 -0.1066
12458SOL    HW138815   3.320   0.284   8.377  0.7956  0.7803 -2.9336
12458SOL    HW238816   3.442   0.267   8.466 -0.9185  1.2462 -0.3609
12459SOL     OW38817   1.934   1.185   6.595 -0.3392 -0.5722  0.2094
12459SOL    HW138818   1.990   1.110   6.613  1.7165  1.0654  1.0999
12459SOL    HW238819   1.887   1.200   6.677 -0.5359 -0.7276  0.1240
12460SOL     OW38820   7.755   0.843   5.631  0.2751 -0.0867 -0.6230
12460SOL    HW138821   7.762   0.748   5.626 -1.6324 -0.2814 -0.4363
12460SOL    HW238822   7.761   0.872   5.540 -0.6516 -0.5493 -0.8455
12461SOL     OW38823   5.940   1.319   5.008 -0.4635  0.0966 -0.2144
12461SOL    HW138824   5.964   1.349   4.920 -0.2761  0.9125  0.1092
12461SOL    HW238825   6.002   1.248   5.027  0.6823  1.1119 -0.0297
12462SOL     OW38826   2.736   7.529   8.118 -0.2088 -0.0223  0.1815
12462SOL    HW138827   2.652   7.501   8.153  0.0132 -1.7151 -0.5653
12462SOL    HW238828   2.801   7.478   8.167  0.3549  0.8294  0.3428
12463SOL     OW38829   4.173   1.603   7.599 -0.5807 -0.1814  0.1809
12463SOL    HW138830   4.252   1.585   7.548 -0.1233 -0.2014  0.8785
12463SOL    HW238831   4.206   1.644   7.679 -1.1836 -1.1264  0.9275
12464SOL     OW38832   5.207   0.437   6.801 -0.0606 -0.1628  0.0300
12464SOL    HW138833   5.258   0.358   6.783  0.8313  0.4216 -0.0875
12464SOL    HW238834   5.116   0.409   6.794  0.2380 -1.1669 -0.0597
12465SOL     OW38835   6.072   0.378   8.829 -0.6183  0.1152 -0.3956
12465SOL    HW138836   6.112   0.422   8.904  0.0740 -1.4781  0.2073
12465SOL    HW238837   6.146   0.339   8.783 -1.1892 -0.1574 -1.0866
12466SOL     OW38838   2.696   0.508   5.434  0.6546 -0.5742  0.3281
12466SOL    HW138839   2.605   0.491   5.459 -0.3374  2.1320 -1.0577
12466SOL    HW238840   2.694   0.514   5.339  2.3290 -0.5877  0.2686
12467SOL     OW38841   4.500   0.031   6.266  0.3228 -0.0994 -0.8022
12467SOL    HW138842   4.457  -0.029   6.206 -0.7612 -0.1301 -0.0166
12467SOL    HW238843   4.444   0.109   6.266 -0.1179 -0.3916  0.7318
12468SOL     OW38844   4.634   1.469   8.051 -0.5103 -0.1964  0.6829
12468SOL    HW138845   4.674   1.476   8.137  0.0916 -2.1814  0.5942
12468SOL    HW238846   4.568   1.400   8.060  1.1380 -2.1128 -0.9613
12469SOL     OW38847   6.119   2.688   7.201 -0.0961 -0.4653  0.1045
12469SOL    HW138848   6.078   2.699   7.115 -0.3282  2.2569  0.4800
12469SOL    HW238849   6.208   2.658   7.181  0.2032  1.1313 -1.2002
12470SOL     OW38850   6.005   0.703   8.335  0.0607 -0.2653 -0.5428
12470SOL    HW138851   5.988   0.739   8.422 -0.4300  0.7062 -1.0257
12470SOL    HW238852   5.918   0.694   8.296  0.3474  0.3393 -1.3299
12471SOL     OW38853   4.547   0.621   6.636 -0.1782 -0.8763 -0.7191
12471SOL    HW138854   4.626   0.649   6.682 -1.0002  1.8521 -0.8383
12471SOL    HW238855   4.574   0.543   6.587  2.0075 -0.8998  0.4305
12472SOL     OW38856   5.772   7.544   3.824 -0.7615 -0.1229  0.1959
12472SOL    HW138857   5.791   7.522   3.733 -0.2641 -1.1702  0.5368
12472SOL    HW238858   5.678   7.528   3.834 -0.9404  0.5860 -0.2831
12473SOL     OW38859   3.368   0.960   6.296 -0.5467  0.2294 -0.1233
12473SOL    HW138860   3.403   1.048   6.286  1.4616 -0.6791 -1.7706
12473SOL    HW238861   3.299   0.954   6.230 -0.9259  0.6428  0.2243
12474SOL     OW38862   5.071   1.703   4.923  0.2035  0.5427 -0.0862
12474SOL    HW138863   5.091   1.729   5.013  0.6255  1.5685 -0.4652
12474SOL    HW238864   5.010   1.630   4.933  0.1609  0.7051  1.0300
12475SOL     OW38865   2.650   7.792   7.252  0.0594 -0.6085  0.4161
12475SOL    HW138866   2.658   7.758   7.163  2.0141 -0.3941  0.4737
12475SOL    HW238867   2.659   7.715   7.308 -1.0736 -0.7296  0.4541
12476SOL     OW38868   3.023   0.506   6.248  0.2744  0.2464  0.0896
12476SOL    HW138869   2.979   0.450   6.184  0.1748  1.0384 -0.5550
12476SOL    HW238870   3.087   0.449   6.291 -0.3879 -0.5549  0.0264
12477SOL     OW38871   3.603   0.998   7.115 -0.0093 -0.2646 -0.2652
12477SOL    HW138872   3.666   0.973   7.048 -1.0305  0.7351 -1.6642
12477SOL    HW238873   3.655   1.050   7.177  1.1042 -1.8133  0.1500
12478SOL     OW38874   5.106   7.787   7.376 -0.1705 -0.3770 -0.1683
12478SOL    HW138875   5.132   7.738   7.298 -1.0994  0.9000 -1.3302
12478SOL    HW238876   5.186   7.830   7.405 -0.2750  1.0687 -1.8771
12479SOL     OW38877   3.023   1.053   5.787 -0.1086 -0.1772 -0.4154
12479SOL    HW138878   3.110   1.015   5.779 -0.5755 -1.8132  1.4320
12479SOL    HW238879   3.029   1.110   5.864 -0.8817 -1.1034  0.3631
12480SOL     OW38880   3.888   0.800   5.326  0.2033  0.3124  0.2599
12480SOL    HW138881   3.960   0.758   5.374  0.4213  0.4011  0.0099
12480SOL    HW238882   3.841   0.850   5.393  0.6798  0.6736  0.3324
12481SOL     OW38883   3.132   2.191   7.024  0.2711 -0.0289 -0.4768
12481SOL    HW138884   3.092   2.278   7.029 -0.3420 -0.2909 -0.8066
12481SOL    HW238885   3.130   2.159   7.114  0.4816  0.2887 -0.3572
12482SOL     OW38886   3.839   0.102   7.631  0.2699  0.1900  0.6944
12482SOL    HW138887   3.885   0.072   7.709 -0.7300 -0.1141  1.1846
12482SOL    HW238888   3.814   0.192   7.651  1.6399  0.7629 -0.0365
12483SOL     OW38889   4.083   0.809   6.123 -0.0798  0.0914  0.1969
12483SOL    HW138890   3.998   0.841   6.093  0.2138  1.5223  0.8114
12483SOL    HW238891   4.145   0.879   6.101  0.8546 -0.6974  0.2363
12484SOL     OW38892   5.172   7.991   7.011  0.3189  0.3388  0.0025
12484SOL    HW138893   5.199   8.036   7.091 -0.5114  0.6760  0.1054
12484SOL    HW238894   5.157   7.900   7.038  2.2468 -0.1082 -0.2570
12485SOL     OW38895   4.813   7.368   4.868  0.0151  0.1721 -0.4179
12485SOL    HW138896   4.839   7.423   4.941 -2.4575  1.4301 -0.3695
12485SOL    HW238897   4.795   7.282   4.907 -0.7526  0.6784  0.3747
12486SOL     OW38898   3.259   0.742   5.897 -0.0852 -0.3176  0.0600
12486SOL    HW138899   3.245   0.687   5.974 -2.5650  0.0695 -0.0337
12486SOL    HW238900   3.240   0.831   5.927 -1.2815 -0.1810 -0.9816
12487SOL     OW38901   5.087   1.356   7.739 -0.0700  0.0309  0.3574
12487SOL    HW138902   5.117   1.446   7.750 -0.2132  0.4381 -2.0283
12487SOL    HW238903   5.001   1.364   7.697 -0.1236 -1.2282  0.1827
12488SOL     OW38904   4.268   1.004   6.056 -0.2189 -0.3022  0.1492
12488SOL    HW138905   4.289   1.098   6.055 -0.6000 -0.1921  1.1256
12488SOL    HW238906   4.306   0.972   6.138  0.1719 -1.0673 -0.3273
12489SOL     OW38907   6.379   1.791   7.809 -0.7485  0.3520  0.5644
12489SOL    HW138908   6.423   1.708   7.793 -1.0492  0.1244  0.9198
12489SOL    HW238909   6.322   1.803   7.733 -0.0719  0.6567  0.0918
12490SOL     OW38910   4.358   1.308   5.694 -0.1188  0.2507  0.3943
12490SOL    HW138911   4.383   1.394   5.662 -1.6970  0.8159  0.5622
12490SOL    HW238912   4.426   1.284   5.757 -0.5592  2.2067  1.6973
12491SOL     OW38913   5.859   7.408   6.427 -0.3048  0.4105 -0.4973
12491SOL    HW138914   5.772   7.444   6.445 -0.1003  0.2427  0.9308
12491SOL    HW238915   5.848   7.358   6.346 -1.6195  0.1456 -0.1773
12492SOL     OW38916   5.873   1.854   4.117 -0.0752 -0.0619  0.5218
12492SOL    HW138917   5.898   1.769   4.080  1.4741 -0.6544  2.7425
12492SOL    HW238918   5.793   1.837   4.166  0.2230 -0.2294  0.9482
12493SOL     OW38919   5.267   1.519   6.991  0.0045  0.1006  0.0312
12493SOL    HW138920   5.211   1.591   7.020 -0.3639 -0.5304  0.9724
12493SOL    HW238921   5.285   1.470   7.071  0.3498 -0.7826 -0.5720
12494SOL     OW38922   4.713   2.542   7.305  0.0562  0.0176 -0.2085
12494SOL    HW138923   4.624   2.509   7.294  0.6109 -1.3737 -0.7046
12494SOL    HW238924   4.767   2.464   7.312  1.0440  0.7970  2.1293
12495SOL     OW38925   2.584   1.219   7.721  0.1501 -0.2394  0.0713
12495SOL    HW138926   2.496   1.194   7.692  0.3844  1.3671 -2.2878
12495SOL    HW238927   2.635   1.139   7.717 -0.6812 -0.7405 -0.7201
12496SOL     OW38928   4.083   2.501   7.129  0.4956 -0.4906 -0.2155
12496SOL    HW138929   4.027   2.530   7.201 -1.2524 -1.2218 -1.2015
12496SOL    HW238930   4.128   2.580   7.099 -0.7598  0.3299  0.0013
12497SOL     OW38931   5.747   7.112   6.378 -0.3060  0.1785 -0.2057
12497SOL    HW138932   5.698   7.079   6.453 -0.6872 -1.3555 -1.0835
12497SOL    HW238933   5.838   7.089   6.397 -0.2615  0.6746  0.2166
12498SOL     OW38934   5.684   1.323   5.139  0.2270  0.3737 -0.1010
12498SOL    HW138935   5.616   1.349   5.077 -0.7290 -0.3865  0.5924
12498SOL    HW238936   5.759   1.300   5.085 -1.4047 -2.8739 -1.2420
12499SOL     OW38937   5.117   0.788   5.393  0.1990  0.5602  0.0322
12499SOL    HW138938   5.201   0.750   5.368 -0.7242 -1.2560 -0.4580
12499SOL    HW238939   5.098   0.751   5.479  0.6500  2.2854  0.9180
12500SOL     OW38940   3.364   1.276   5.616 -0.9084 -0.0148 -0.7993
12500SOL    HW138941   3.299   1.344   5.598 -0.0863  0.7079 -1.1106
12500SOL    HW238942   3.448   1.323   5.622 -0.4490 -0.8766 -0.0547
12501SOL     OW38943   3.808   0.878   5.577  0.5792  0.8350  0.3421
12501SOL    HW138944   3.738   0.931   5.539  1.5860  2.0581  0.1194
12501SOL    HW238945   3.794   0.883   5.671 -0.6108 -0.3390  0.2432
12502SOL     OW38946   4.733   0.398   8.208  0.2870  0.2702  0.1908
12502SOL    HW138947   4.734   0.326   8.271 -0.9829 -0.7380 -0.8878
12502SOL    HW238948   4.641   0.405   8.181  0.9498 -0.0578 -2.3537
12503SOL     OW38949   4.763   1.118   8.245  0.4018 -0.3895  0.0247
12503SOL    HW138950   4.709   1.046   8.277  1.0417 -1.3296 -0.9248
12503SOL    HW238951   4.738   1.193   8.298  1.0619 -1.7271  2.3387
12504SOL     OW38952   5.993   5.965   7.459  0.2229  0.7113  0.2580
12504SOL    HW138953   6.008   5.986   7.552  1.9989 -0.9430  0.4037
12504SOL    HW238954   6.076   5.928   7.429 -1.7031 -3.5270 -0.5948
12505SOL     OW38955   2.678   0.106   7.488  0.0878 -0.4088  0.7182
12505SOL    HW138956   2.755   0.049   7.496  1.4098  1.2305  0.1267
12505SOL    HW238957   2.685   0.144   7.400 -1.3810 -0.1688  0.6753
12506SOL     OW38958   4.748   1.074   4.496 -0.7081 -0.4737  0.2165
12506SOL    HW138959   4.752   1.042   4.406  0.1992  1.3899 -0.4523
12506SOL    HW238960   4.784   1.003   4.549  0.5792 -0.8524 -1.1214
12507SOL     OW38961   5.535   1.816   8.034  0.4060 -0.3082 -0.1153
12507SOL    HW138962   5.497   1.728   8.031 -0.8416  0.2171 -0.8469
12507SOL    HW238963   5.546   1.835   8.127  1.1960 -1.4330  0.0348
12508SOL     OW38964   4.726   0.322   7.138  0.3200  0.3750  0.5696
12508SOL    HW138965   4.757   0.232   7.147  0.1406  0.3369  0.8117
12508SOL    HW238966   4.704   0.349   7.227  0.3324  0.6432  0.4916
12509SOL     OW38967   5.632   3.412   5.034  0.3868 -0.5943 -0.3165
12509SOL    HW138968   5.567   3.385   4.969 -0.4026  0.3289  0.0562
12509SOL    HW238969   5.590   3.395   5.118  1.2881 -1.5098 -0.0301
12510SOL     OW38970   4.036   0.978   7.557 -0.1959  0.2157  0.2780
12510SOL    HW138971   4.123   0.991   7.593 -0.9226  2.7079  1.3374
12510SOL    HW238972   4.012   1.063   7.519 -1.4828 -0.9036 -1.6169
12511SOL     OW38973   5.752   0.934   6.833  0.1936 -0.3848 -0.2167
12511SOL    HW138974   5.697   0.954   6.757  3.2257  1.1617 -2.1921
12511SOL    HW238975   5.753   0.838   6.837  0.1123 -0.5131 -2.2815
12512SOL     OW38976   5.881   1.686   6.357  0.6270  0.1379  0.0543
12512SOL    HW138977   5.898   1.742   6.433  2.0492 -0.1240 -0.0418
12512SOL    HW238978   5.822   1.618   6.389  0.7284  0.3751  0.7530
12513SOL     OW38979   4.761   7.868   6.236 -0.1087  0.4719 -0.6076
12513SOL    HW138980   4.797   7.859   6.324 -0.5531 -0.4501 -0.5074
12513SOL    HW238981   4.670   7.839   6.245 -0.5666  1.7024 -1.0794
12514SOL     OW38982   5.034   7.446   5.828 -0.0468 -0.2973 -0.0436
12514SOL    HW138983   5.010   7.535   5.853 -0.5309 -0.5236  0.3104
12514SOL    HW238984   4.950   7.401   5.816  0.0804  0.0333 -3.0525
12515SOL     OW38985   4.199   7.645   6.250  0.2480  0.6675  0.2736
12515SOL    HW138986   4.199   7.571   6.189 -3.8074  0.9612 -0.2935
12515SOL    HW238987   4.256   7.710   6.209 -0.0146 -0.2807 -1.7128
12516SOL     OW38988   4.724   1.686   7.322  0.2282  0.3156 -0.0876
12516SOL    HW138989   4.714   1.616   7.258 -0.4826 -0.1813  0.5523
12516SOL    HW238990   4.735   1.766   7.269  0.6333 -0.2140 -0.8179
12517SOL     OW38991   3.100   6.848   7.209 -0.1409 -0.1695 -0.2545
12517SOL    HW138992   3.161   6.867   7.137  0.3040  1.4961  0.5019
12517SOL    HW238993   3.127   6.762   7.242  0.7015 -0.2216 -1.0323
12518SOL     OW38994   3.947   2.982   6.411  0.1057  0.5632  0.4345
12518SOL    HW138995   3.957   3.044   6.339  3.0164  0.8399  0.9521
12518SOL    HW238996   3.961   2.897   6.371  2.8111  0.7902  0.7563
12519SOL     OW38997   4.482   7.820   5.605 -0.5638 -0.4435 -0.0738
12519SOL    HW138998   4.460   7.855   5.691  4.2357  1.0686  0.8464
12519SOL    HW238999   4.507   7.897   5.553  1.2791 -1.6737 -1.1322
12520SOL     OW39000   2.451   0.133   5.092 -0.3155  0.0328 -0.3636
12520SOL    HW139001   2.437   0.057   5.149 -1.2345  1.6593  1.7206
12520SOL    HW239002   2.538   0.166   5.116 -1.1108  1.3040  0.8814
12521SOL     OW39003   4.051   0.675   5.672 -0.1065 -0.0108 -0.4151
12521SOL    HW139004   4.126   0.683   5.730 -1.7754 -0.7489  2.0269
12521SOL    HW239005   3.980   0.721   5.718 -1.4275 -0.2457 -2.0978
12522SOL     OW39006   2.845   0.026   7.801  0.4903 -0.7923  0.3255
12522SOL    HW139007   2.936  -0.002   7.816  0.4312 -1.3084 -0.2248
12522SOL    HW239008   2.810  -0.039   7.741 -0.1298 -0.3698  0.2204
12523SOL     OW39009   5.994   1.907   7.416  0.3716 -0.0860 -0.4803
12523SOL    HW139010   5.961   1.974   7.476 -1.7263 -0.2991 -1.3260
12523SOL    HW239011   6.072   1.946   7.376 -0.0826  1.3225 -0.0174
12524SOL     OW39012   4.461   7.904   6.891 -0.0726  0.5155  0.5936
12524SOL    HW139013   4.480   7.810   6.903 -0.5290  0.4336  0.6886
12524SOL    HW239014   4.528   7.934   6.829  0.8182  0.3948  1.4550
12525SOL     OW39015   4.271   0.359   7.414 -0.0310  0.2999  0.3670
12525SOL    HW139016   4.202   0.336   7.476  1.0442  0.8100  1.8391
12525SOL    HW239017   4.320   0.429   7.458 -0.1997  1.8692 -1.7944
12526SOL     OW39018   2.938   1.124   7.202 -0.0577  0.5837  0.5349
12526SOL    HW139019   2.916   1.217   7.193  0.4941  0.7710  1.0284
12526SOL    HW239020   2.894   1.081   7.128 -0.6293  1.1805  0.5235
12527SOL     OW39021   4.644   7.781   5.890  0.5529 -0.2030 -0.1124
12527SOL    HW139022   4.637   7.688   5.907  1.2727 -0.2156  0.1579
12527SOL    HW239023   4.562   7.818   5.922 -0.0401 -0.8223 -0.8688
12528SOL     OW39024   4.195   7.836   5.529  0.0826  0.4439  0.1240
12528SOL    HW139025   4.139   7.825   5.452  0.6975  0.7589 -0.3693
12528SOL    HW239026   4.277   7.792   5.506 -0.7945 -2.3795  1.8252
12529SOL     OW39027   4.445   7.401   6.785  0.0713 -0.2074 -0.3041
12529SOL    HW139028   4.415   7.342   6.854 -3.3835 -1.6159 -2.7345
12529SOL    HW239029   4.469   7.343   6.713 -0.0741  1.2750 -1.5944
12530SOL     OW39030   6.173   0.852   9.227  0.0457 -0.6302 -0.8904
12530SOL    HW139031   6.153   0.831   9.136 -3.0815 -3.6589  0.2697
12530SOL    HW239032   6.182   0.767   9.270  2.7540  0.6743  1.4923
12531SOL     OW39033   5.020   0.198   6.235 -0.1133 -0.2982  0.0163
12531SOL    HW139034   5.063   0.171   6.316 -2.4622 -0.5812  1.2442
12531SOL    HW239035   4.928   0.205   6.257 -0.5818  1.7833 -2.0945
12532SOL     OW39036   3.824   0.503   5.642 -0.3454 -0.1189 -0.0120
12532SOL    HW139037   3.858   0.446   5.572 -1.5179 -2.7561  1.4259
12532SOL    HW239038   3.897   0.562   5.662  0.7134 -0.6439 -2.0328
12533SOL     OW39039   5.477   0.663   5.890  0.4470 -0.2029 -0.1937
12533SOL    HW139040   5.400   0.610   5.912 -0.3387  0.8192 -0.3566
12533SOL    HW239041   5.505   0.631   5.804 -0.9774  0.6434 -1.0188
12534SOL     OW39042   6.021   7.384   5.523 -0.4041 -0.1888  0.4983
12534SOL    HW139043   6.021   7.357   5.615 -0.1766 -1.1232  0.2351
12534SOL    HW239044   6.114   7.394   5.501 -0.4520 -0.1731  0.3047
12535SOL     OW39045   4.551   1.521   6.317  0.2592  0.3567  0.1890
12535SOL    HW139046   4.475   1.574   6.292  0.5189  0.1693 -1.0689
12535SOL    HW239047   4.578   1.479   6.235 -0.2172 -2.1000  1.2077
12536SOL     OW39048   3.571   0.922   8.492 -0.0350  0.0293 -0.6266
12536SOL    HW139049   3.583   0.846   8.549 -0.8751  0.6069  0.3588
12536SOL    HW239050   3.477   0.930   8.481  0.0711  0.5996 -1.1873
12537SOL     OW39051   5.081   2.582   7.124  0.6010 -0.4377  0.3090
12537SOL    HW139052   5.096   2.664   7.172  0.5307 -0.7550  0.8836
12537SOL    HW239053   5.166   2.538   7.126  0.4881 -0.6478  0.5224
12538SOL     OW39054   4.899   0.806   6.995  0.4013  0.0498 -0.2010
12538SOL    HW139055   4.874   0.887   7.039  0.1330 -0.2855  0.2810
12538SOL    HW239056   4.824   0.784   6.939  0.4464  0.1034 -0.2816
12539SOL     OW39057   5.549   6.625   5.810 -0.0393  0.5983 -0.1428
12539SOL    HW139058   5.586   6.638   5.723  1.0913  3.6453  0.6637
12539SOL    HW239059   5.467   6.578   5.794  0.3741  0.6188 -2.7719
12540SOL     OW39060   4.380   1.844   6.481 -0.3041  0.2273 -0.2120
12540SOL    HW139061   4.358   1.937   6.492  0.2339  0.2877  0.4079
12540SOL    HW239062   4.385   1.811   6.570  1.2974  0.0239 -0.3597
12541SOL     OW39063   4.272   0.555   6.476 -0.0433  0.3962  0.1895
12541SOL    HW139064   4.282   0.622   6.544 -0.8835 -0.1056  0.8230
12541SOL    HW239065   4.320   0.480   6.510  0.0202  0.3347 -0.0371
12542SOL     OW39066   5.974   1.850   6.981 -0.2304  0.2767 -0.4864
12542SOL    HW139067   6.020   1.832   6.899  1.4742  0.9287  0.2849
12542SOL    HW239068   5.984   1.944   6.994 -2.5456  0.6031 -0.6882
12543SOL     OW39069   5.611   0.222   7.240 -0.2396  0.3611  0.8181
12543SOL    HW139070   5.534   0.227   7.184  1.6082  0.3040 -1.8749
12543SOL    HW239071   5.617   0.130   7.264 -0.4478  0.1850  0.2086
12544SOL     OW39072   3.859   0.330   5.446 -0.1736 -0.2740 -0.5162
12544SOL    HW139073   3.827   0.241   5.461 -1.2505  0.0286 -0.9331
12544SOL    HW239074   3.918   0.323   5.371  0.3275 -0.7474 -0.0871
12545SOL     OW39075   5.758   2.060   5.091 -0.2819 -0.0137  0.2513
12545SOL    HW139076   5.664   2.042   5.091 -0.5472  1.2244  1.1306
12545SOL    HW239077   5.769   2.128   5.158  1.1730  0.2114 -0.1851
12546SOL     OW39078   7.034   1.112   7.293 -0.2264 -0.5601 -0.6863
12546SOL    HW139079   6.996   1.027   7.315 -0.3887 -1.6365 -4.4141
12546SOL    HW239080   6.958   1.167   7.271 -0.0534  0.3098  0.7412
12547SOL     OW39081   3.273   1.362   4.905  0.4315  0.6496 -0.1859
12547SOL    HW139082   3.231   1.321   4.981  1.8160  0.2063  0.3913
12547SOL    HW239083   3.325   1.433   4.943  1.1542  0.4121 -0.7122
12548SOL     OW39084   5.661   0.251   5.759  0.0027 -0.0287 -0.8041
12548SOL    HW139085   5.680   0.335   5.717  1.4685 -0.4391 -1.0172
12548SOL    HW239086   5.590   0.214   5.707  0.7190  0.1836 -1.9635
12549SOL     OW39087   4.832   0.068   5.600  0.3251  0.2284  0.2075
12549SOL    HW139088   4.771   0.080   5.527 -0.5808 -0.9808  0.7415
12549SOL    HW239089   4.918   0.066   5.558 -0.2097 -0.8653 -0.8868
12550SOL     OW39090   4.288   7.855   7.300 -0.1696  0.0617 -0.0219
12550SOL    HW139091   4.320   7.939   7.331  1.0431  0.4678 -2.1712
12550SOL    HW239092   4.198   7.871   7.272 -0.3402  0.3447  0.6934
12551SOL     OW39093   4.170   0.696   5.398 -0.1443 -0.0687  0.2223
12551SOL    HW139094   4.168   0.676   5.491 -2.9406  1.1824  0.5507
12551SOL    HW239095   4.207   0.618   5.357 -2.1788 -2.1822  2.1027
12552SOL     OW39096   4.052   7.912   6.777 -0.3161 -0.2857 -0.0920
12552SOL    HW139097   4.062   7.957   6.861  0.2053 -0.1163 -0.2377
12552SOL    HW239098   4.067   7.820   6.797 -1.6165 -0.4375  0.2495
12553SOL     OW39099   4.481   7.890   8.302 -0.8285 -0.0816 -0.1169
12553SOL    HW139100   4.552   7.952   8.322  0.2866 -1.3071 -0.1349
12553SOL    HW239101   4.526   7.814   8.265 -2.1992 -0.7701 -0.4119
12554SOL     OW39102   4.235   0.249   7.808 -0.4523 -0.4221  0.4360
12554SOL    HW139103   4.274   0.334   7.831  0.5317 -0.6733 -0.2589
12554SOL    HW239104   4.191   0.221   7.888 -0.6302  0.6470  0.7380
12555SOL     OW39105   3.931   0.344   7.809 -0.2831 -0.0672  0.5751
12555SOL    HW139106   3.850   0.365   7.855 -0.4541  0.4329  0.0610
12555SOL    HW239107   3.968   0.270   7.857 -0.3309  0.5991  1.6575
12556SOL     OW39108   6.063   3.133   7.887  0.7756 -0.3595 -0.2159
12556SOL    HW139109   6.127   3.204   7.886 -0.0257  0.3922 -1.8740
12556SOL    HW239110   5.979   3.178   7.895  0.1624 -0.9644 -2.5140
12557SOL     OW39111   7.372   7.909   6.821  0.7041 -0.2736 -0.0191
12557SOL    HW139112   7.454   7.903   6.773  0.2275 -2.5382 -0.6371
12557SOL    HW239113   7.389   7.864   6.904 -0.0226 -1.1641 -0.3407
12558SOL     OW39114   4.200   0.304   9.752  0.1950  0.3721  0.1650
12558SOL    HW139115   4.274   0.346   9.796  1.1515  1.3060 -2.1776
12558SOL    HW239116   4.124   0.327   9.805  1.1546  2.2734  0.7962
12559SOL     OW39117   5.071   0.860   9.711 -0.1027 -0.8709  0.7673
12559SOL    HW139118   5.113   0.804   9.647 -0.6174 -1.4385  0.9192
12559SOL    HW239119   5.109   0.835   9.795  0.8824  0.1625  0.6533
12560SOL     OW39120   4.323   0.810   6.623 -0.2624 -0.1334  0.2206
12560SOL    HW139121   4.379   0.887   6.634 -0.2138 -0.2329  0.7216
12560SOL    HW239122   4.300   0.784   6.713 -0.8903 -0.2555  0.0328
12561SOL     OW39123   3.726   1.248  10.232 -0.0152  0.0026 -0.3346
12561SOL    HW139124   3.721   1.204  10.317  0.8834  0.9934  0.2526
12561SOL    HW239125   3.643   1.294  10.223  0.0595  0.2501  0.2114
12562SOL     OW39126   4.644   2.013   8.930 -0.4995  0.3571  0.0086
12562SOL    HW139127   4.607   1.968   8.854  0.1676 -0.2826  0.0510
12562SOL    HW239128   4.580   2.081   8.951 -0.8089  0.3831 -0.9705
12563SOL     OW39129   5.072   2.646   7.989 -0.5872 -0.7157  0.1279
12563SOL    HW139130   5.127   2.686   7.922  0.7106  1.9188  2.5354
12563SOL    HW239131   4.989   2.692   7.983 -0.2783 -0.0806  0.6708
12564SOL     OW39132   4.208   0.034   9.652 -0.4667 -0.0028 -0.4580
12564SOL    HW139133   4.180   0.006   9.739  1.8524  0.9130  0.6812
12564SOL    HW239134   4.216   0.129   9.659 -0.0910  0.0708 -1.6368
12565SOL     OW39135   4.562   0.649   7.201  0.0565  0.1558 -0.1516
12565SOL    HW139136   4.496   0.690   7.146 -0.3169 -0.8962 -0.5088
12565SOL    HW239137   4.617   0.721   7.231 -0.9069  0.9761 -0.3168
12566SOL     OW39138   5.718   1.955   7.095  0.3695 -0.0346  0.0548
12566SOL    HW139139   5.770   1.897   7.039  0.8696  0.6794 -0.2350
12566SOL    HW239140   5.782   1.993   7.156  0.0834  0.3600  0.1117
12567SOL     OW39141   3.346   1.555   8.692  0.2917 -0.1809 -0.3472
12567SOL    HW139142   3.437   1.574   8.714  0.6681 -0.5404 -1.5037
12567SOL    HW239143   3.313   1.504   8.765  1.0763 -0.2044 -0.0034
12568SOL     OW39144   3.454   2.614   9.582  0.2482 -0.1524  0.2822
12568SOL    HW139145   3.414   2.694   9.549 -0.5853 -0.8187 -0.3783
12568SOL    HW239146   3.380   2.561   9.612  0.9384  0.5447  3.6524
12569SOL     OW39147   2.144   0.835   7.878 -0.3104  0.0554  0.6868
12569SOL    HW139148   2.202   0.847   7.803 -0.3504  0.3276  0.6995
12569SOL    HW239149   2.097   0.754   7.860 -3.0144  1.9104 -1.3499
12570SOL     OW39150   4.361   1.130  10.684 -0.0637  0.0815 -0.2744
12570SOL    HW139151   4.337   1.117  10.776  1.1149 -0.2135 -0.0028
12570SOL    HW239152   4.355   1.043  10.646 -2.6435  0.5014 -1.0273
12571SOL     OW39153   5.250   2.254   7.362 -0.4145  0.0040  0.1254
12571SOL    HW139154   5.312   2.314   7.404 -0.2933  0.3949 -0.5960
12571SOL    HW239155   5.164   2.284   7.392 -0.5456  2.0604 -2.0260
12572SOL     OW39156   4.961   6.141   8.047 -0.5278  0.0556  0.2486
12572SOL    HW139157   4.894   6.207   8.030  0.0365  0.3263 -1.0096
12572SOL    HW239158   5.044   6.183   8.022 -0.0657 -0.8006  0.2999
12573SOL     OW39159   3.957   0.087   7.907  0.3497 -0.2190  0.5426
12573SOL    HW139160   3.900   0.014   7.932  0.7326 -0.5060  0.5825
12573SOL    HW239161   4.029   0.083   7.970  1.2864 -0.8933 -0.5527
12574SOL     OW39162   5.501   2.444   8.329  0.1503 -0.5975 -0.4667
12574SOL    HW139163   5.480   2.399   8.247 -0.1314 -0.6352 -0.3784
12574SOL    HW239164   5.533   2.529   8.302 -1.2134 -0.0915 -0.5958
12575SOL     OW39165   4.041   7.146   8.738  0.2096  0.0627 -0.6150
12575SOL    HW139166   4.103   7.073   8.749 -0.9360 -0.6408  1.7712
12575SOL    HW239167   4.014   7.168   8.827 -0.9594  2.1552 -1.4233
12576SOL     OW39168   4.884   1.078   8.803  0.0012  0.0178 -0.4183
12576SOL    HW139169   4.968   1.061   8.845  0.8936  0.5721 -1.8767
12576SOL    HW239170   4.867   1.000   8.751 -0.0987  0.1245 -0.5482
12577SOL     OW39171   5.830   0.983   7.621  0.3100  0.2307 -0.1181
12577SOL    HW139172   5.851   1.051   7.686 -0.0742 -1.5854  2.0131
12577SOL    HW239173   5.742   0.954   7.643  0.3545 -0.7790 -1.1594
12578SOL     OW39174   3.133   1.152   9.199  0.5361 -0.4686  0.2029
12578SOL    HW139175   3.101   1.063   9.210  2.0443 -1.4129 -2.3390
12578SOL    HW239176   3.201   1.146   9.132 -0.2797  2.8087 -1.1253
12579SOL     OW39177   2.785   1.168   6.785  0.0759 -0.6811 -0.3020
12579SOL    HW139178   2.787   1.122   6.869 -0.6961 -0.8583 -0.3705
12579SOL    HW239179   2.796   1.100   6.720 -0.2357 -0.6632 -0.3744
12580SOL     OW39180   3.195   0.210   9.668  0.3139 -0.0634  0.3528
12580SOL    HW139181   3.131   0.282   9.671  1.7556  1.2370  0.9808
12580SOL    HW239182   3.235   0.216   9.582 -0.2187 -0.7301  0.0491
12581SOL     OW39183   4.408   6.663   7.213 -0.1160 -0.2882  0.3786
12581SOL    HW139184   4.337   6.727   7.209  0.1243 -0.0785 -1.8551
12581SOL    HW239185   4.435   6.663   7.305 -2.0119  0.6957  0.9969
12582SOL     OW39186   3.906   0.134   9.683  0.0114  0.0212 -0.2823
12582SOL    HW139187   3.811   0.132   9.674 -0.1225  0.9839  0.7847
12582SOL    HW239188   3.931   0.225   9.667  0.7062 -0.1205 -0.0500
12583SOL     OW39189   6.747   0.862   9.408 -0.4680  0.2742  0.8330
12583SOL    HW139190   6.830   0.884   9.450 -0.1137  0.8481 -0.1190
12583SOL    HW239191   6.722   0.778   9.446  0.4534  0.1869  1.2782
12584SOL     OW39192   4.058   1.370  10.831 -0.6789  0.5376 -0.3929
12584SOL    HW139193   4.148   1.357  10.804  0.0624  0.9695  1.6464
12584SOL    HW239194   4.047   1.465  10.832 -1.6508  0.4732 -2.0186
12585SOL     OW39195   3.963   7.059   8.420 -0.0520 -0.0448  0.2920
12585SOL    HW139196   4.019   6.985   8.441  0.4686  0.2947  0.1265
12585SOL    HW239197   3.994   7.130   8.477  0.2641  0.3914 -0.4031
12586SOL     OW39198   5.350   1.524   6.270 -0.2007 -0.1308 -0.4328
12586SOL    HW139199   5.270   1.542   6.220 -0.7850  1.5997  1.0480
12586SOL    HW239200   5.323   1.532   6.362  1.3004 -1.2415  0.1378
12587SOL     OW39201   4.771   0.992   7.909 -0.6875  0.8026 -0.0777
12587SOL    HW139202   4.772   1.045   7.829 -1.5525  0.3560 -0.3941
12587SOL    HW239203   4.686   0.949   7.909 -0.5763  0.5470  0.9298
12588SOL     OW39204   3.000   0.163   8.500  0.9684  0.0041 -0.0875
12588SOL    HW139205   3.057   0.222   8.452 -1.3328  1.5438 -1.0966
12588SOL    HW239206   2.936   0.133   8.435  1.7489 -3.3095  0.4928
12589SOL     OW39207   6.586   2.473   8.485 -0.0190  0.1259  0.4408
12589SOL    HW139208   6.667   2.525   8.479 -0.0948  0.0955 -1.8672
12589SOL    HW239209   6.523   2.522   8.432 -0.4285 -1.6873 -0.8336
12590SOL     OW39210   6.359   0.994   6.953 -0.1902  0.2089 -0.2054
12590SOL    HW139211   6.382   0.932   6.883  0.2898 -0.3781  0.4619
12590SOL    HW239212   6.317   1.067   6.907  0.2687 -0.0893 -1.1288
12591SOL     OW39213   1.666   7.967   9.481  0.3445 -0.3897 -0.7624
12591SOL    HW139214   1.725   7.942   9.410  0.7298 -0.4749 -0.4169
12591SOL    HW239215   1.693   7.913   9.556 -1.0292 -1.4068 -0.9509
12592SOL     OW39216   4.215   0.654   9.526 -0.4314  0.1993  0.0762
12592SOL    HW139217   4.254   0.568   9.510 -0.7496  0.4291 -2.4004
12592SOL    HW239218   4.160   0.669   9.449 -0.3921  2.6201  0.4638
12593SOL     OW39219   5.158   0.517   7.705 -0.2953 -0.5714  0.1901
12593SOL    HW139220   5.075   0.510   7.752 -0.1117  0.7631  0.7318
12593SOL    HW239221   5.224   0.488   7.768  0.0384  1.9375  1.1088
12594SOL     OW39222   4.117   0.390   8.362 -0.1982  0.0624 -0.0875
12594SOL    HW139223   4.119   0.484   8.344  0.7397 -0.2432 -1.6520
12594SOL    HW239224   4.142   0.348   8.280  2.4653 -1.4676  1.3688
12595SOL     OW39225   5.266   0.649   8.643  0.6799  0.3775  0.0003
12595SOL    HW139226   5.346   0.692   8.612  0.8964  1.7491  2.2492
12595SOL    HW239227   5.273   0.652   8.738 -0.5186 -2.4853  0.2532
12596SOL     OW39228   3.825   7.982   9.432 -0.3716 -0.1401  0.1679
12596SOL    HW139229   3.826   8.076   9.415 -1.0614  0.4406  2.8914
12596SOL    HW239230   3.734   7.962   9.451  0.0659 -0.9110  1.6280
12597SOL     OW39231   3.358   0.744  10.430 -0.1333  0.2508 -0.0772
12597SOL    HW139232   3.284   0.767  10.486  1.3452  2.2550  1.2111
12597SOL    HW239233   3.430   0.727  10.492  0.7044 -0.7986 -1.3003
12598SOL     OW39234   4.946   0.849   8.153 -0.5434  0.3480  0.0243
12598SOL    HW139235   4.872   0.789   8.155 -0.2783 -0.2876 -3.3406
12598SOL    HW239236   5.007   0.815   8.218 -2.6752  0.2713  2.0842
12599SOL     OW39237   6.748   7.659   8.694 -0.2805 -0.2790 -0.0030
12599SOL    HW139238   6.734   7.650   8.600  0.3171  0.6511 -0.1917
12599SOL    HW239239   6.772   7.571   8.724 -2.2800 -1.0014 -0.3865
12600SOL     OW39240   5.732   0.258   9.044 -0.0554  0.4916  0.3924
12600SOL    HW139241   5.644   0.224   9.056 -0.1592  0.5091 -0.2693
12600SOL    HW239242   5.772   0.254   9.131  0.5019 -2.8211  0.1018
12601SOL     OW39243   3.660   7.973   8.883  0.3741  0.3071  0.2088
12601SOL    HW139244   3.696   7.989   8.795 -0.7484 -1.0883 -0.5465
12601SOL    HW239245   3.622   8.057   8.908 -0.8908  0.2896 -1.4506
12602SOL     OW39246   5.050   0.388   9.146 -0.7028  0.6949  0.0868
12602SOL    HW139247   5.096   0.377   9.063 -1.3694 -0.1347 -0.1862
12602SOL    HW239248   4.986   0.316   9.148 -0.7015  0.7075  1.3082
12603SOL     OW39249   2.863   2.517   8.632 -0.1561  0.0191 -0.8246
12603SOL    HW139250   2.884   2.501   8.724 -0.2560  1.2260 -0.5763
12603SOL    HW239251   2.923   2.461   8.583 -1.6256 -2.4333 -0.0293
12604SOL     OW39252   5.835   1.729   7.298 -0.0992  0.6214  0.0320
12604SOL    HW139253   5.910   1.687   7.256  1.0460  1.3762  1.2639
12604SOL    HW239254   5.873   1.787   7.364 -1.7486  1.4263  0.3332
12605SOL     OW39255   3.138   0.813  10.586 -0.2908  0.1468 -0.0396
12605SOL    HW139256   3.148   0.886  10.647 -0.7037 -0.3550  0.6373
12605SOL    HW239257   3.045   0.812  10.563 -0.0279  0.7414 -1.2075
12606SOL     OW39258   2.554   0.460   7.236 -0.5320 -0.3987  0.4508
12606SOL    HW139259   2.468   0.450   7.277 -0.4404  1.0177  1.0542
12606SOL    HW239260   2.571   0.554   7.239  0.6286 -0.5557 -0.5237
12607SOL     OW39261   7.983   1.735   8.285  0.1671 -0.1061  0.0336
12607SOL    HW139262   8.072   1.768   8.276  0.0987 -0.0082 -0.2911
12607SOL    HW239263   7.928   1.813   8.273  0.0747  0.1373  1.7621
12608SOL     OW39264   3.058   6.783  11.533 -0.2748  0.2379  0.0743
12608SOL    HW139265   2.983   6.842  11.538 -1.5130 -1.3523  1.6124
12608SOL    HW239266   3.021   6.698  11.506  1.0165 -0.4950  0.4889
12609SOL     OW39267   5.385   2.047   7.898 -0.1209  0.7159 -0.3284
12609SOL    HW139268   5.431   1.964   7.912 -0.3019  0.7890  0.8564
12609SOL    HW239269   5.398   2.067   7.806 -0.8517 -1.0996 -0.8613
12610SOL     OW39270   5.022   0.275   7.400 -0.4340 -0.0570 -0.3806
12610SOL    HW139271   4.966   0.353   7.398 -1.3950 -0.7396 -0.8383
12610SOL    HW239272   4.967   0.206   7.436  0.7519 -0.3006  1.0760
12611SOL     OW39273   6.974   0.228   7.305 -0.5979 -0.1454  0.2654
12611SOL    HW139274   7.056   0.203   7.347  0.1012  0.3852 -0.7451
12611SOL    HW239275   6.975   0.182   7.221 -1.1965  0.1038  0.1168
12612SOL     OW39276   4.708   1.355   8.494 -0.0585  0.1264  0.4408
12612SOL    HW139277   4.682   1.277   8.544 -1.2495  0.8813  1.0485
12612SOL    HW239278   4.628   1.381   8.448  0.1518  1.3224  0.7191
12613SOL     OW39279   3.992   0.115   7.384 -0.3000  0.2490  0.1154
12613SOL    HW139280   4.066   0.113   7.446 -0.2184  2.1443  0.1202
12613SOL    HW239281   3.914   0.120   7.440 -0.4843 -1.6033  0.1056
12614SOL     OW39282   3.015   2.336   8.394 -0.7013  0.2287  0.2352
12614SOL    HW139283   3.040   2.254   8.436  0.6059  0.9317  0.8934
12614SOL    HW239284   3.098   2.377   8.369 -1.2141  2.0605  1.3130
12615SOL     OW39285   3.771   2.195   8.488  0.3278 -0.4693  0.0802
12615SOL    HW139286   3.761   2.153   8.574  1.5893 -1.3291 -0.1633
12615SOL    HW239287   3.858   2.235   8.491  0.2141 -0.1561 -0.6559
12616SOL     OW39288   5.250   0.975   9.399  0.3772 -0.5588 -0.0825
12616SOL    HW139289   5.235   0.895   9.450 -1.0027  0.0567  0.5374
12616SOL    HW239290   5.163   1.002   9.371  0.9259  0.2100 -1.1105
12617SOL     OW39291   5.589   0.416   6.273  0.0979 -0.1210 -0.5116
12617SOL    HW139292   5.554   0.502   6.250  0.3653  0.2299  0.3529
12617SOL    HW239293   5.680   0.433   6.298 -0.0466 -0.5360  0.3426
12618SOL     OW39294   5.535   0.072  10.937  0.0269 -0.3475  0.2131
12618SOL    HW139295   5.562   0.070  11.029  0.6010 -1.0918  0.0417
12618SOL    HW239296   5.541   0.164  10.912 -0.8655 -0.0272  1.1243
12619SOL     OW39297   3.866   2.164   9.627 -0.0435 -0.0475  0.6690
12619SOL    HW139298   3.905   2.241   9.586 -1.5505  0.1810 -0.4559
12619SOL    HW239299   3.887   2.092   9.567 -1.3942  0.1081 -0.0443
12620SOL     OW39300   3.644   0.785   7.905  0.0805 -0.0294 -0.1589
12620SOL    HW139301   3.728   0.756   7.868  1.3307 -0.0241  2.4491
12620SOL    HW239302   3.584   0.713   7.887  0.4406  0.1656 -2.5072
12621SOL     OW39303   4.317   0.827   8.866  0.6375  0.1049  0.0597
12621SOL    HW139304   4.397   0.849   8.818  1.4981 -0.9109  0.9905
12621SOL    HW239305   4.269   0.910   8.871  1.8282  0.8315 -0.1394
12622SOL     OW39306   5.980   1.208   8.408  0.5212 -0.1368  0.1756
12622SOL    HW139307   5.921   1.169   8.343  0.7360 -0.8546  0.4073
12622SOL    HW239308   5.923   1.231   8.481  0.5570 -1.0543  0.5011
12623SOL     OW39309   5.423   4.673   7.556  0.0637 -0.5264  0.1329
12623SOL    HW139310   5.429   4.728   7.634 -0.5139 -0.0878 -0.1336
12623SOL    HW239311   5.365   4.720   7.497  1.6010 -0.1485 -1.1592
12624SOL     OW39312   4.413   0.528   7.570  0.4058 -0.2822  0.4805
12624SOL    HW139313   4.479   0.587   7.536 -1.0581  1.1989  0.0778
12624SOL    HW239314   4.408   0.548   7.664 -0.7187  0.9430  0.1894
12625SOL     OW39315   4.271   6.352   8.480  0.4385 -0.4245 -0.4239
12625SOL    HW139316   4.183   6.349   8.444  0.4152  2.5294 -0.8681
12625SOL    HW239317   4.325   6.386   8.409  1.5251 -0.1795  0.4873
12626SOL     OW39318   2.667   0.701   6.660 -0.1371  0.2172  0.0680
12626SOL    HW139319   2.710   0.747   6.587  0.7960  2.0814  1.6786
12626SOL    HW239320   2.726   0.629   6.681  0.2618  0.4582 -0.1993
12627SOL     OW39321   5.923   1.580  10.319  0.4342 -0.4242  0.7062
12627SOL    HW139322   6.001   1.601  10.371  0.5730 -1.2467  0.8531
12627SOL    HW239323   5.872   1.661  10.317  1.4686  0.2288  0.2998
12628SOL     OW39324   3.723   7.411   8.118 -0.0624  0.0384  0.0166
12628SOL    HW139325   3.630   7.392   8.104 -0.6838  1.5613  1.6321
12628SOL    HW239326   3.725   7.460   8.200  2.0214  1.2747 -0.6943
12629SOL     OW39327   4.008   0.393   8.604 -0.2504 -0.0230 -0.0223
12629SOL    HW139328   4.016   0.300   8.625  1.7371  0.0795 -0.1554
12629SOL    HW239329   4.058   0.404   8.523 -0.3739  1.1787  0.0459
12630SOL     OW39330   4.671   1.018   7.532 -0.4585 -0.8551  0.2460
12630SOL    HW139331   4.749   1.067   7.560 -0.6149  0.9172 -2.1291
12630SOL    HW239332   4.599   1.056   7.581 -0.3561  0.3200 -0.4813
12631SOL     OW39333   6.136   2.047   7.138 -0.1763  0.1070 -0.4522
12631SOL    HW139334   6.101   2.115   7.195 -2.7565 -2.1649  0.9601
12631SOL    HW239335   6.216   2.018   7.181 -0.3518  0.6114  0.2234
12632SOL     OW39336   4.821   1.150   9.206 -0.0967 -0.4578  0.0298
12632SOL    HW139337   4.746   1.204   9.230  0.7451  1.6847 -1.9020
12632SOL    HW239338   4.817   1.143   9.111  0.0608 -3.6043  0.1277
12633SOL     OW39339   3.383   0.297   9.884  0.4226  0.4627 -0.0251
12633SOL    HW139340   3.400   0.210   9.921 -3.3766  0.1545  1.4685
12633SOL    HW239341   3.320   0.281   9.814 -0.2121  1.9716  0.1614
12634SOL     OW39342   6.939   1.205   6.500 -0.4310  0.7190  0.0878
12634SOL    HW139343   6.930   1.158   6.583  0.6934  1.9204  0.9298
12634SOL    HW239344   6.855   1.249   6.488 -0.7145  0.2781  0.4255
12635SOL     OW39345   4.718   7.103   7.953 -0.0280  0.0350  0.1098
12635SOL    HW139346   4.812   7.109   7.940  0.0428 -0.2036  0.4982
12635SOL    HW239347   4.702   7.147   8.037 -0.2493 -0.0196  0.0978
12636SOL     OW39348   2.999   7.781   8.502 -0.3809  0.1800  0.2998
12636SOL    HW139349   3.006   7.848   8.570 -0.6110  0.2705  0.2355
12636SOL    HW239350   3.084   7.781   8.459  0.7400 -1.6748  2.2607
12637SOL     OW39351   6.504   0.520   7.208 -0.2102 -0.8365  0.5946
12637SOL    HW139352   6.532   0.611   7.197 -2.4012 -0.3048 -1.1174
12637SOL    HW239353   6.578   0.469   7.174  0.4481  0.3331  0.1853
12638SOL     OW39354   5.309   7.876   8.083  0.0166 -0.2507 -0.3899
12638SOL    HW139355   5.288   7.829   8.163 -0.7919  0.0744 -0.4041
12638SOL    HW239356   5.357   7.813   8.029  0.5614 -0.4712  0.3410
12639SOL     OW39357   3.653   1.115   7.984 -0.1684 -0.0754 -0.4860
12639SOL    HW139358   3.564   1.150   7.976 -0.3828 -0.6452 -0.6182
12639SOL    HW239359   3.646   1.024   7.954  0.4863 -0.0825 -0.6323
12640SOL     OW39360   5.550   1.065   7.357 -0.6040 -0.0070 -0.2570
12640SOL    HW139361   5.639   1.079   7.389 -0.5601 -0.2884 -0.2506
12640SOL    HW239362   5.561   1.024   7.272 -0.7022  2.2290 -1.4187
12641SOL     OW39363   3.345   7.968   7.590  0.7899  0.4019  0.4015
12641SOL    HW139364   3.326   7.979   7.683 -0.2217  0.7312  0.1726
12641SOL    HW239365   3.435   7.998   7.580  0.5736  1.3250  1.1098
12642SOL     OW39366   2.760   0.037   8.382 -0.2093  0.1845 -0.4824
12642SOL    HW139367   2.812  -0.021   8.327  0.9368  0.7014  0.0423
12642SOL    HW239368   2.670   0.005   8.371  0.2706 -1.0884 -0.9431
12643SOL     OW39369   3.799   7.821   7.949 -0.4684 -0.2094 -0.6030
12643SOL    HW139370   3.742   7.745   7.959 -1.3740  0.5261  0.0618
12643SOL    HW239371   3.884   7.785   7.925 -1.2210 -1.3429 -1.6615
12644SOL     OW39372   6.758   2.212   9.332 -0.0714  0.2488  0.7392
12644SOL    HW139373   6.784   2.300   9.362 -0.4663  1.2805 -1.7257
12644SOL    HW239374   6.833   2.157   9.352  0.9340  1.5496  0.7063
12645SOL     OW39375   4.082   7.499   7.927  0.0521 -0.0943  0.0828
12645SOL    HW139376   4.051   7.586   7.952 -0.1414  0.2464 -1.2663
12645SOL    HW239377   4.162   7.515   7.877 -1.1955 -0.4803 -2.1641
12646SOL     OW39378   3.734   1.283   9.604 -1.0031 -0.5288  0.1612
12646SOL    HW139379   3.780   1.363   9.578  0.4821 -0.8743  1.5403
12646SOL    HW239380   3.805   1.222   9.625 -2.1233 -1.7730  0.4150
12647SOL     OW39381   5.493   1.419   7.393  0.1948 -0.7175 -0.0760
12647SOL    HW139382   5.471   1.505   7.357 -0.3001 -0.9649 -0.3788
12647SOL    HW239383   5.570   1.435   7.448 -0.1624  0.0032  0.2350
12648SOL     OW39384   5.491   1.615   9.997  0.2220 -0.2747 -0.3013
12648SOL    HW139385   5.442   1.583  10.073  0.1361 -1.5381 -0.8678
12648SOL    HW239386   5.433   1.679   9.956  0.2958  0.4622  0.7243
12649SOL     OW39387   3.847   7.721   7.258  0.5247 -0.3289  0.9562
12649SOL    HW139388   3.824   7.749   7.346  1.0091 -1.1565  1.3577
12649SOL    HW239389   3.827   7.628   7.256 -0.5871 -0.0875 -0.1979
12650SOL     OW39390   3.974   2.051  10.231 -0.2911  0.4379  0.2071
12650SOL    HW139391   3.974   2.127  10.172  1.4719  1.1616  1.0662
12650SOL    HW239392   4.055   2.005  10.211 -1.3539 -1.3334 -0.3439
12651SOL     OW39393   5.013   7.862   9.015 -0.2183 -0.2825 -0.0126
12651SOL    HW139394   4.920   7.843   9.032 -0.0158 -0.7573  0.6197
12651SOL    HW239395   5.012   7.944   8.965 -1.0179 -0.8135 -0.8954
12652SOL     OW39396   4.529   2.112   7.144  0.1713 -0.3807  0.1665
12652SOL    HW139397   4.477   2.046   7.096  0.4940  0.4600 -1.4089
12652SOL    HW239398   4.469   2.185   7.156  0.8569  0.4999 -1.4474
12653SOL     OW39399   3.543   0.694   7.050 -0.2504  0.6632 -0.7947
12653SOL    HW139400   3.496   0.727   6.974 -3.6586 -0.0491  0.7904
12653SOL    HW239401   3.542   0.599   7.041 -1.2266  0.5346  0.3401
12654SOL     OW39402   4.858   0.786   9.177 -0.6253  0.1445 -0.2655
12654SOL    HW139403   4.809   0.815   9.101  1.0405  0.3429 -1.3184
12654SOL    HW239404   4.793   0.744   9.234 -1.7981 -0.6121 -2.0895
12655SOL     OW39405   5.213   1.307   7.498 -0.1041  0.1839 -0.1857
12655SOL    HW139406   5.304   1.328   7.520 -0.0475 -0.7417  0.5134
12655SOL    HW239407   5.171   1.293   7.583 -1.0014  0.9782 -0.4865
12656SOL     OW39408   4.278   0.049   8.362  0.1311 -0.0735  0.7384
12656SOL    HW139409   4.276   0.120   8.298 -0.6709 -0.2454  0.5538
12656SOL    HW239410   4.348  -0.009   8.332 -1.2692 -0.9947 -0.9477
12657SOL     OW39411   5.412   0.725   6.854  0.1782  0.4846  0.5705
12657SOL    HW139412   5.342   0.790   6.845 -1.0190 -0.9397 -1.0510
12657SOL    HW239413   5.382   0.669   6.927  0.8853  1.3213  1.5279
12658SOL     OW39414   3.797   7.175   7.460 -0.2744  0.2425  0.3269
12658SOL    HW139415   3.719   7.121   7.444 -0.9642  1.1790  0.3929
12658SOL    HW239416   3.776   7.222   7.541  0.8359 -0.3008  0.9591
12659SOL     OW39417   3.591   0.748   9.269 -0.0310 -0.4991 -0.5212
12659SOL    HW139418   3.657   0.813   9.247 -1.8272  1.5492 -0.1325
12659SOL    HW239419   3.633   0.693   9.336  1.3863  0.5318 -0.5214
12660SOL     OW39420   4.049   7.835   9.349  1.0380 -0.2056  0.6089
12660SOL    HW139421   4.130   7.880   9.375  0.7714  1.6669 -1.5301
12660SOL    HW239422   3.980   7.881   9.396  0.7815  1.7098 -1.4607
12661SOL     OW39423   3.844   1.107   8.246  0.1502 -0.5214  0.5075
12661SOL    HW139424   3.784   1.147   8.309 -0.9672  0.6424 -1.1964
12661SOL    HW239425   3.827   1.154   8.164  1.1793 -2.3039 -0.7968
12662SOL     OW39426   3.713   0.526   8.865 -0.3343 -0.0919  0.2107
12662SOL    HW139427   3.658   0.527   8.944 -3.4445 -2.1934 -1.7027
12662SOL    HW239428   3.677   0.596   8.811  1.5880  1.1387  0.4456
12663SOL     OW39429   4.323   1.047   8.280 -0.0521 -0.4787 -0.4561
12663SOL    HW139430   4.324   1.133   8.321  1.8098 -0.4881 -0.3792
12663SOL    HW239431   4.235   1.014   8.296 -0.3463  0.7984  0.8240
12664SOL     OW39432   6.128   0.315   7.192 -0.5481 -0.3612 -0.1635
12664SOL    HW139433   6.165   0.384   7.137 -0.5276 -0.5185 -0.3450
12664SOL    HW239434   6.041   0.299   7.156 -0.5197 -0.4916 -0.1746
12665SOL     OW39435   2.636   7.129   7.352 -0.2086  0.4099 -0.0137
12665SOL    HW139436   2.727   7.117   7.325 -0.4551 -1.3721 -0.2078
12665SOL    HW239437   2.639   7.127   7.448 -0.0136  0.6479 -0.0144
12666SOL     OW39438   3.674   1.264   6.743  0.1525 -0.0498 -0.5057
12666SOL    HW139439   3.594   1.313   6.760  0.1346 -0.5777  1.1634
12666SOL    HW239440   3.711   1.248   6.830  1.3155 -1.0576 -1.1492
12667SOL     OW39441   3.185   0.653   7.838 -0.7803  0.5405 -0.2788
12667SOL    HW139442   3.137   0.736   7.839 -1.1550  0.3230  0.3128
12667SOL    HW239443   3.127   0.593   7.792 -2.0776 -0.2773  2.2127
12668SOL     OW39444   3.165   7.135   8.214 -0.1397 -0.4524  0.6690
12668SOL    HW139445   3.189   7.042   8.218  2.1576  0.0968  1.1278
12668SOL    HW239446   3.235   7.180   8.262 -0.6623  1.6092 -0.3888
12669SOL     OW39447   5.623   7.173   8.318 -0.5449  0.4342 -0.1048
12669SOL    HW139448   5.549   7.209   8.270  0.3308  1.0878 -0.9957
12669SOL    HW239449   5.655   7.246   8.370  0.9000  0.8384 -1.4997
12670SOL     OW39450   4.064   0.548   6.754 -0.0938 -0.0485 -0.1961
12670SOL    HW139451   4.151   0.584   6.772 -0.1692  0.9947 -1.6969
12670SOL    HW239452   4.074   0.454   6.762  1.7433 -0.1186 -2.3840
12671SOL     OW39453   3.428   7.847   7.842 -0.2289 -0.5948 -0.1194
12671SOL    HW139454   3.499   7.908   7.861 -0.7302 -0.1203  0.2608
12671SOL    HW239455   3.413   7.801   7.925 -0.5046 -0.5395 -0.1368
12672SOL     OW39456   5.654   0.435   8.808 -0.6348  0.1366  0.3133
12672SOL    HW139457   5.661   0.373   8.881 -1.1511  0.6593  0.8156
12672SOL    HW239458   5.737   0.427   8.762  0.3580  0.9716  1.8958
12673SOL     OW39459   4.777   1.531   8.269  0.1823  0.1677  0.2300
12673SOL    HW139460   4.839   1.604   8.268 -0.6906  0.9213 -1.1378
12673SOL    HW239461   4.803   1.479   8.346  1.5332  1.2772  0.5697
12674SOL     OW39462   4.315   0.456  10.427 -0.1351  0.8798 -0.3111
12674SOL    HW139463   4.408   0.469  10.448 -0.4303  1.8047  0.5213
12674SOL    HW239464   4.316   0.416  10.341  1.0552  0.4296 -0.1153
12675SOL     OW39465   5.416   1.952   8.638 -0.0617  0.0271 -0.3670
12675SOL    HW139466   5.331   1.940   8.680  0.7896 -0.4479  1.2923
12675SOL    HW239467   5.441   2.042   8.660  0.7044 -0.4537  0.7669
12676SOL     OW39468   6.512   0.520   7.498 -0.0167 -0.1802  0.0991
12676SOL    HW139469   6.590   0.517   7.553  1.2262 -0.0827 -1.5602
12676SOL    HW239470   6.543   0.489   7.412 -2.5391 -3.5122  0.1702
12677SOL     OW39471   3.879   0.479   9.141  0.3455 -0.1687  0.0022
12677SOL    HW139472   3.844   0.514   9.059  1.8314  2.1016  0.2539
12677SOL    HW239473   3.804   0.475   9.200 -0.3019  0.4923 -0.7566
12678SOL     OW39474   5.110   1.101   7.940 -0.5162 -0.3322 -0.0597
12678SOL    HW139475   5.094   1.158   7.865 -2.2886 -2.1451 -1.1459
12678SOL    HW239476   5.204   1.081   7.935 -0.4025  0.3954 -1.1466
12679SOL     OW39477   2.967   0.717   9.601 -0.1031 -0.0777 -0.5297
12679SOL    HW139478   3.038   0.763   9.645 -0.4961 -1.7071  2.0253
12679SOL    HW239479   3.007   0.678   9.523  2.0974 -1.5814  1.2248
12680SOL     OW39480   4.279   1.165   9.937 -0.1471  0.3404  0.6661
12680SOL    HW139481   4.186   1.161   9.959 -0.3484 -1.0804 -0.2954
12680SOL    HW239482   4.309   1.074   9.943  0.7365  0.5064 -0.7833
12681SOL     OW39483   4.588   1.200   8.720  0.0107 -0.2162  0.5716
12681SOL    HW139484   4.670   1.238   8.752 -0.3212  0.0292  1.1401
12681SOL    HW239485   4.600   1.105   8.730 -0.0720 -0.1442  1.3850
12682SOL     OW39486   4.753   1.033   6.999 -0.0547 -0.2442  0.4501
12682SOL    HW139487   4.666   1.061   6.972  0.4435 -0.7291 -1.8959
12682SOL    HW239488   4.804   1.114   7.007 -0.1575 -0.0856 -0.4122
12683SOL     OW39489   3.778   1.626   7.431 -0.6510  0.5607  0.6311
12683SOL    HW139490   3.684   1.643   7.433 -1.0736 -0.7075 -2.5106
12683SOL    HW239491   3.810   1.675   7.356  1.0975  0.3731  1.2023
12684SOL     OW39492   6.904   1.195   8.063 -0.4579  0.5860 -0.0714
12684SOL    HW139493   6.962   1.227   8.132  2.4070 -3.9929  0.0324
12684SOL    HW239494   6.830   1.156   8.110  0.3431 -0.4817  0.3386
12685SOL     OW39495   4.041   0.825   8.591  0.5989  0.0496  0.6544
12685SOL    HW139496   4.077   0.788   8.510  0.7243  0.6939  0.4096
12685SOL    HW239497   4.035   0.751   8.651 -0.3813 -0.6313 -0.2528
12686SOL     OW39498   5.075   7.236   8.094 -0.6308  0.0178 -0.1419
12686SOL    HW139499   5.107   7.158   8.141 -0.8520  0.6084  1.0394
12686SOL    HW239500   5.054   7.204   8.006  0.2564 -1.0355 -0.0003
12687SOL     OW39501   4.557   0.296   9.728  0.1223 -0.2655 -0.5824
12687SOL    HW139502   4.563   0.314   9.635  0.2588 -0.5900 -0.6399
12687SOL    HW239503   4.641   0.326   9.764 -0.2724  0.6513 -0.4234
12688SOL     OW39504   4.982   1.306   9.594  0.3450  0.4321  0.4998
12688SOL    HW139505   4.899   1.279   9.634 -1.2188  2.9214 -0.8838
12688SOL    HW239506   4.981   1.267   9.507  0.4792  0.7577  0.3513
12689SOL     OW39507   5.291   0.551   7.032 -0.0586  0.7509  0.0751
12689SOL    HW139508   5.208   0.564   7.077  0.1246 -1.0434  1.0269
12689SOL    HW239509   5.268   0.510   6.949 -0.0706 -1.5867  1.1626
12690SOL     OW39510   4.548   7.930   8.714 -0.2839 -0.5864 -0.4544
12690SOL    HW139511   4.619   7.869   8.694 -1.1131 -1.9748  0.6775
12690SOL    HW239512   4.525   7.911   8.805 -0.2776  1.7495  0.0999
12691SOL     OW39513   4.248   1.124   8.670  0.0961  0.1258  0.0012
12691SOL    HW139514   4.254   1.216   8.646 -0.5026  0.0914 -0.3081
12691SOL    HW239515   4.324   1.083   8.627 -0.7484  0.1317 -1.5790
12692SOL     OW39516   3.297   1.581   8.173  0.7057  0.4426  0.6687
12692SOL    HW139517   3.346   1.538   8.243  1.9280  1.4383  0.4577
12692SOL    HW239518   3.362   1.630   8.124 -0.3927  1.1789 -0.1178
12693SOL     OW39519   4.116   0.664   8.985  0.9491  0.1999 -0.0725
12693SOL    HW139520   4.079   0.615   8.911 -0.7477 -0.0209  0.8691
12693SOL    HW239521   4.179   0.724   8.945  1.6975 -1.4286 -1.4461
12694SOL     OW39522   4.812   0.497   6.117 -0.1178  0.2541 -0.1991
12694SOL    HW139523   4.728   0.451   6.125  0.3118 -0.9959 -2.0937
12694SOL    HW239524   4.842   0.510   6.207 -1.8041 -0.2918  0.4663
12695SOL     OW39525   3.961   0.270   8.926  0.3771  0.0266  0.3361
12695SOL    HW139526   3.917   0.347   8.890 -3.9305 -2.1595  0.2478
12695SOL    HW239527   3.990   0.221   8.850  1.7757  0.7549  0.3591
12696SOL     OW39528   6.663   0.417   8.921  0.5206 -0.0737 -0.2325
12696SOL    HW139529   6.603   0.345   8.936  0.9989 -0.1930  1.3210
12696SOL    HW239530   6.648   0.476   8.995  0.6918  1.0295 -1.0633
12697SOL     OW39531   6.943   2.810   6.840  0.2948 -0.3882  1.0418
12697SOL    HW139532   7.025   2.799   6.792  0.3311  1.3628  0.6367
12697SOL    HW239533   6.904   2.889   6.803 -0.2575  0.3496  3.0533
12698SOL     OW39534   6.050   0.108   9.090  0.1929 -0.5989  0.3411
12698SOL    HW139535   6.010   0.177   9.143 -0.7901 -0.7180 -0.2100
12698SOL    HW239536   6.137   0.096   9.127  0.7409  1.5663 -0.0902
12699SOL     OW39537   4.816   2.146   9.553  0.4107  0.2618 -0.0347
12699SOL    HW139538   4.901   2.114   9.582 -0.4061 -1.9304  0.1993
12699SOL    HW239539   4.787   2.081   9.489 -1.0038  1.0592 -0.2572
12700SOL     OW39540   2.719   6.804   9.571  0.1329  0.2633  0.2665
12700SOL    HW139541   2.739   6.722   9.527 -0.5183  0.2086  0.0585
12700SOL    HW239542   2.795   6.860   9.554  0.8327 -0.4707  0.8728
12701SOL     OW39543   6.003   1.270   7.038  0.2153  0.2138 -0.4039
12701SOL    HW139544   6.066   1.282   7.109 -0.4231 -2.0702  0.6472
12701SOL    HW239545   5.936   1.211   7.075 -0.9722  0.2103 -2.4107
12702SOL     OW39546   5.997   1.619   7.862  0.3744 -0.3131 -0.5840
12702SOL    HW139547   5.933   1.686   7.836  0.7964  0.4536  0.3183
12702SOL    HW239548   6.056   1.613   7.787 -1.2367 -1.6971 -1.8315
12703SOL     OW39549   3.328   1.817  10.046  0.6067  0.5806 -0.1348
12703SOL    HW139550   3.281   1.894  10.016  1.5826  0.7846 -1.2315
12703SOL    HW239551   3.360   1.776   9.965 -0.8468 -1.6359  0.3066
12704SOL     OW39552   3.833   7.649   8.226 -0.3606  0.2940  0.0779
12704SOL    HW139553   3.775   7.725   8.220  0.5354  1.0061  0.2294
12704SOL    HW239554   3.918   7.682   8.198 -0.1165 -0.8460 -0.5746
12705SOL     OW39555   3.390   7.471   9.080 -0.2051 -0.3245  0.1422
12705SOL    HW139556   3.367   7.447   8.990 -0.1288 -2.1251  0.5627
12705SOL    HW239557   3.354   7.401   9.133  1.9659 -0.6715  1.2758
12706SOL     OW39558   7.280   1.168   7.170 -0.5587  0.0197  0.3881
12706SOL    HW139559   7.270   1.257   7.204 -0.5253 -0.1874  0.9515
12706SOL    HW239560   7.214   1.116   7.217 -1.2354 -0.0674 -0.6464
12707SOL     OW39561   6.004   1.568   9.339  0.4218 -0.2671 -0.0688
12707SOL    HW139562   5.958   1.529   9.265  1.8641  0.4720 -1.3965
12707SOL    HW239563   6.087   1.521   9.344  1.3013  1.2036 -0.3757
12708SOL     OW39564   5.048   1.086   8.492  0.6143  0.1626 -0.1342
12708SOL    HW139565   5.128   1.036   8.506  0.8353  0.4201 -0.4533
12708SOL    HW239566   4.977   1.024   8.510  0.8830 -0.4382 -1.1059
12709SOL     OW39567   6.483   0.338   7.783  0.2645 -0.0256 -0.7605
12709SOL    HW139568   6.558   0.360   7.728 -0.4986  2.4657 -0.9366
12709SOL    HW239569   6.434   0.273   7.732  1.8977 -1.1666 -0.9366
12710SOL     OW39570   5.858   1.757   8.197  0.0216  0.3124  0.1697
12710SOL    HW139571   5.802   1.719   8.265 -0.5049 -0.0804 -0.4688
12710SOL    HW239572   5.873   1.847   8.225 -0.3075  0.1905  0.7342
12711SOL     OW39573   4.865   1.296   8.003  0.0180 -0.3314  0.1007
12711SOL    HW139574   4.785   1.348   8.007  0.1455 -0.1877  0.8774
12711SOL    HW239575   4.935   1.359   8.021  0.3507 -0.3743 -0.9421
12712SOL     OW39576   3.635   0.072   7.916 -0.5404 -0.1153  0.0602
12712SOL    HW139577   3.622   0.115   8.000  0.1516 -0.5559  0.3934
12712SOL    HW239578   3.699   0.003   7.933  0.1751  0.2666 -0.9766
12713SOL     OW39579   6.316   0.698   8.652  0.1193  0.2893 -0.4498
12713SOL    HW139580   6.295   0.636   8.582 -0.2274  0.1051 -0.1891
12713SOL    HW239581   6.411   0.702   8.652  0.1485 -0.2634 -0.4586
12714SOL     OW39582   4.190   1.299   8.372  0.3380 -0.2763  0.5600
12714SOL    HW139583   4.175   1.386   8.409 -0.5255  0.0028 -0.3971
12714SOL    HW239584   4.114   1.248   8.398 -0.0471 -0.2099 -0.4164
12715SOL     OW39585   4.989   2.888   8.994  0.2623 -0.6612 -0.3875
12715SOL    HW139586   5.028   2.801   8.985  0.5565 -0.9440  2.5208
12715SOL    HW239587   5.026   2.938   8.921  0.6050 -2.7587 -1.7487
12716SOL     OW39588   4.219   0.008   6.977 -0.4989 -0.4640 -0.4566
12716SOL    HW139589   4.291  -0.045   6.940 -0.5623  0.9226 -2.7606
12716SOL    HW239590   4.162  -0.056   7.020  0.6068 -1.9742 -1.1451
12717SOL     OW39591   4.281   7.326   7.631 -0.2869 -0.2157 -0.4297
12717SOL    HW139592   4.297   7.300   7.540 -1.5107 -2.5135 -0.0456
12717SOL    HW239593   4.298   7.248   7.683 -2.5789  0.1330  0.9986
12718SOL     OW39594   4.693   1.824   7.564  0.1582 -0.0963 -0.5244
12718SOL    HW139595   4.670   1.790   7.478  1.1014 -0.8577 -0.4865
12718SOL    HW239596   4.770   1.878   7.549  1.3848 -1.6185  0.0671
12719SOL     OW39597   6.700   0.132   9.155 -0.1387 -0.1077 -0.3204
12719SOL    HW139598   6.650   0.070   9.102  0.9082 -0.6024 -0.7451
12719SOL    HW239599   6.765   0.168   9.094  1.8238 -1.4955  0.8365
12720SOL     OW39600   5.512   1.096   5.297 -0.1881 -0.1880  0.5122
12720SOL    HW139601   5.547   1.185   5.301 -0.8927  0.0484  2.2867
12720SOL    HW239602   5.587   1.042   5.271  0.5179  0.7801  0.4917
12721SOL     OW39603   2.946   1.708   8.771 -0.3246 -0.7499 -0.6698
12721SOL    HW139604   2.970   1.800   8.786  1.2723 -1.0356 -1.2959
12721SOL    HW239605   2.986   1.661   8.843  0.5809 -1.1770 -1.4305
12722SOL     OW39606   5.446   7.035   7.761  0.5888 -0.3163 -0.9345
12722SOL    HW139607   5.374   6.980   7.730  0.7504 -0.5542 -0.8940
12722SOL    HW239608   5.411   7.124   7.760 -0.8004 -0.6893  1.9802
12723SOL     OW39609   5.701   1.439   6.458 -0.2651  0.5869  0.3874
12723SOL    HW139610   5.688   1.405   6.369  1.6048  0.5459  0.0946
12723SOL    HW239611   5.698   1.361   6.513  1.1063  0.2733  0.0496
12724SOL     OW39612   4.313   0.630   8.666  0.1082  0.8733 -0.2206
12724SOL    HW139613   4.363   0.685   8.605  0.0949  0.8930 -0.2134
12724SOL    HW239614   4.316   0.677   8.749  0.2616  0.7684 -0.1657
12725SOL     OW39615   2.982   6.888   7.529 -0.0025  0.2599 -0.3800
12725SOL    HW139616   3.021   6.875   7.442  0.4432 -1.2635  0.0132
12725SOL    HW239617   2.917   6.818   7.537  0.8131 -0.3791  0.9787
12726SOL     OW39618   5.565   0.660   6.171 -0.8267 -0.5940 -0.0861
12726SOL    HW139619   5.502   0.732   6.181 -0.3523 -0.0079 -1.2151
12726SOL    HW239620   5.589   0.661   6.079  2.1017  0.2914  0.5748
12727SOL     OW39621   3.373   0.895   9.054 -0.6604  0.5601 -0.2046
12727SOL    HW139622   3.345   0.822   9.110 -0.8194  0.0061 -0.9802
12727SOL    HW239623   3.427   0.950   9.110 -0.7902  0.0008  0.4766
12728SOL     OW39624   5.409   1.526   8.040  0.3794  0.3056 -0.1098
12728SOL    HW139625   5.406   1.439   8.002 -1.8806  0.4060 -0.3146
12728SOL    HW239626   5.383   1.513   8.131 -2.5882  0.9425 -0.7414
12729SOL     OW39627   4.671   0.739   8.948  0.1198 -0.6350 -0.3664
12729SOL    HW139628   4.621   0.659   8.962 -0.3251 -0.1798  0.7604
12729SOL    HW239629   4.652   0.763   8.857 -2.0661 -0.2731  0.1217
12730SOL     OW39630   3.859   0.866   9.176  0.2363 -0.3520 -0.2008
12730SOL    HW139631   3.932   0.923   9.152  0.7708 -0.8853  0.1446
12730SOL    HW239632   3.884   0.827   9.259  0.4364 -2.0230 -1.0033
12731SOL     OW39633   4.037   2.008   9.269  0.2457 -0.1826 -0.4195
12731SOL    HW139634   4.108   2.017   9.205  1.9644 -1.9695  1.0879
12731SOL    HW239635   3.985   1.934   9.236  0.2259 -0.1195 -0.5305
12732SOL     OW39636   4.252   2.259   8.610  0.0132 -0.3235 -0.6092
12732SOL    HW139637   4.340   2.251   8.574 -0.8161 -1.2172 -2.5969
12732SOL    HW239638   4.237   2.353   8.618  1.5181 -0.1526  0.8900
12733SOL     OW39639   4.572   0.754   8.001  0.1206 -0.3782 -0.1628
12733SOL    HW139640   4.484   0.740   7.967  0.0009 -2.9472  0.9649
12733SOL    HW239641   4.630   0.713   7.936  0.4693  0.8255 -0.6342
12734SOL     OW39642   2.253   7.502   7.830  0.4355  0.2035  0.0019
12734SOL    HW139643   2.250   7.572   7.894  0.2759  0.4917 -0.3183
12734SOL    HW239644   2.214   7.427   7.875  1.4529  0.0476  0.6628
12735SOL     OW39645   4.425   0.615   8.393  0.4732 -0.0866  0.0217
12735SOL    HW139646   4.424   0.527   8.431  0.6154 -0.9390 -1.8482
12735SOL    HW239647   4.504   0.616   8.338  2.1906  2.2767  2.2685
12736SOL     OW39648   5.006   1.626   7.917  0.1587  0.3849 -0.1403
12736SOL    HW139649   5.019   1.588   8.004 -0.0755 -1.7640 -0.9704
12736SOL    HW239650   5.087   1.674   7.899  2.1144 -2.7594 -0.4312
12737SOL     OW39651   5.534   0.984   7.611  0.4352 -0.3547  0.7391
12737SOL    HW139652   5.517   1.009   7.520  0.9367 -0.6355  0.5649
12737SOL    HW239653   5.487   0.902   7.623  0.9741 -0.7009  0.5078
12738SOL     OW39654   5.306   2.296   6.580  0.1631 -0.4702  0.4997
12738SOL    HW139655   5.249   2.232   6.622 -0.8088  0.2470  0.3039
12738SOL    HW239656   5.272   2.305   6.491  0.6169 -0.0840  0.3574
12739SOL     OW39657   3.485   0.921   7.748  0.2972  0.6464  0.0605
12739SOL    HW139658   3.550   0.898   7.815 -0.8351 -0.2091  0.9230
12739SOL    HW239659   3.500   0.858   7.678  0.8988  0.9598 -0.0983
12740SOL     OW39660   4.860   0.493   7.463  0.5435 -0.5761  0.0616
12740SOL    HW139661   4.884   0.577   7.424  0.9323 -0.8545 -0.2979
12740SOL    HW239662   4.834   0.515   7.552  0.7938 -0.0933  0.0184
12741SOL     OW39663   3.647   2.505   8.702  0.7895  0.3948  0.5376
12741SOL    HW139664   3.737   2.527   8.678  1.4219 -0.7188  1.7757
12741SOL    HW239665   3.611   2.586   8.738  0.6075  1.4063 -1.7526
12742SOL     OW39666   4.741   1.808   6.161  0.8494  0.0693 -0.2840
12742SOL    HW139667   4.788   1.843   6.237 -0.0405  2.6970 -0.8431
12742SOL    HW239668   4.810   1.779   6.102  1.6210  0.0183  0.6217
12743SOL     OW39669   4.713   0.657   7.808 -0.3966 -0.2036 -0.0240
12743SOL    HW139670   4.751   0.570   7.816 -0.6170 -0.1453  2.1858
12743SOL    HW239671   4.784   0.710   7.770 -0.0068 -1.1530 -0.6556
12744SOL     OW39672   5.129   0.764   9.095 -0.7555  0.4741 -0.3933
12744SOL    HW139673   5.139   0.745   9.188  1.1606  2.8522 -0.0296
12744SOL    HW239674   5.035   0.772   9.082 -1.0563  0.0336  1.3153
12745SOL     OW39675   2.708   6.771   6.518 -0.1467  0.8523 -0.1796
12745SOL    HW139676   2.771   6.836   6.547  0.6948 -0.3804  0.9061
12745SOL    HW239677   2.749   6.729   6.442  0.0795  0.4572  0.1578
12746SOL     OW39678   4.835   1.607   8.986  0.0136  0.0924  0.0134
12746SOL    HW139679   4.804   1.538   9.045  2.5444  0.6359  2.1640
12746SOL    HW239680   4.850   1.682   9.043  0.2177  1.4774 -1.7738
12747SOL     OW39681   4.282   7.725   8.487  0.6805 -0.0282  0.4117
12747SOL    HW139682   4.354   7.668   8.514  0.0060 -1.9139 -1.5582
12747SOL    HW239683   4.324   7.790   8.430  0.9889 -0.5494  0.0326
12748SOL     OW39684   5.261   1.628   7.767 -0.2303 -0.1361  0.0826
12748SOL    HW139685   5.305   1.589   7.842  0.9845  1.1922  0.1236
12748SOL    HW239686   5.329   1.629   7.698 -0.8254  0.1180 -0.5152
12749SOL     OW39687   4.595   0.730   7.551 -0.2431 -0.0350  0.2199
12749SOL    HW139688   4.623   0.820   7.534  0.3327 -0.2204  0.1640
12749SOL    HW239689   4.618   0.714   7.642  0.2228 -0.3250  0.0580
12750SOL     OW39690   4.292   0.925   7.675  0.8420 -0.0759 -0.1276
12750SOL    HW139691   4.302   0.919   7.580 -0.0432 -0.9008 -0.1799
12750SOL    HW239692   4.342   1.003   7.700  0.4441  0.5839 -1.3584
12751SOL     OW39693   4.278   1.985   6.212 -0.1913 -0.4740  0.0327
12751SOL    HW139694   4.355   1.930   6.226 -0.1453 -0.5839 -0.6059
12751SOL    HW239695   4.211   1.924   6.180 -1.1548 -0.7305  2.3757
12752SOL     OW39696   6.320   0.076   6.637  0.2265  0.1084 -0.1019
12752SOL    HW139697   6.272  -0.006   6.629 -0.6293  0.6272 -0.3976
12752SOL    HW239698   6.272   0.126   6.704  1.0073  0.1910  0.4103
12753SOL     OW39699   5.365   0.804   7.700 -0.2680 -0.0761  0.6896
12753SOL    HW139700   5.320   0.769   7.777 -0.8654 -0.3803  0.2096
12753SOL    HW239701   5.306   0.785   7.627 -0.2779  1.2727  0.3059
12754SOL     OW39702   5.338   1.063   7.029 -0.3215  0.0804 -0.3375
12754SOL    HW139703   5.379   1.001   7.088 -0.5494  0.4583  0.2268
12754SOL    HW239704   5.282   1.009   6.973  0.2104 -0.3255 -0.4924
12755SOL     OW39705   3.664   0.569   6.060 -0.4292  0.1081  0.0108
12755SOL    HW139706   3.684   0.659   6.036 -1.7378  0.5490  0.4808
12755SOL    HW239707   3.598   0.576   6.129 -0.0537 -1.1985  0.5386
12756SOL     OW39708   4.586   2.817   7.414 -0.1573 -0.2866 -0.1566
12756SOL    HW139709   4.531   2.895   7.421  0.1577 -0.0242 -0.5367
12756SOL    HW239710   4.545   2.766   7.343 -1.9411 -1.7836  1.8287
12757SOL     OW39711   1.895   0.836  10.195  0.3261 -0.1503 -0.0762
12757SOL    HW139712   1.859   0.922  10.174 -2.2835 -0.5816  2.0319
12757SOL    HW239713   1.970   0.854  10.252  0.6504  0.7421 -0.7704
12758SOL     OW39714   3.608   7.732  11.193 -0.0589  0.1342 -0.1602
12758SOL    HW139715   3.512   7.734  11.198 -0.1908 -2.2357 -0.5758
12758SOL    HW239716   3.637   7.801  11.252 -2.0125  1.0519 -0.1952
12759SOL     OW39717   4.203   7.920  10.080 -0.3878  0.6503  0.1224
12759SOL    HW139718   4.135   7.902  10.015 -2.9527  0.9491  2.5420
12759SOL    HW239719   4.192   7.852  10.147  2.5525 -0.0195  0.0769
12760SOL     OW39720   4.383   0.567   0.443 -0.0466 -0.2325 -0.1190
12760SOL    HW139721   4.475   0.566   0.415  0.0749  0.3553  0.2515
12760SOL    HW239722   4.334   0.587   0.363  0.2655  0.9135 -0.0497
12761SOL     OW39723   5.450   0.436   9.907 -0.2127 -0.3929 -0.2601
12761SOL    HW139724   5.447   0.519   9.953  1.7129 -1.0847  1.2953
12761SOL    HW239725   5.544   0.420   9.894 -0.6108 -1.1018 -2.9095
12762SOL     OW39726   3.040   0.126   8.954  0.0465  0.7787  0.2307
12762SOL    HW139727   3.025   0.194   8.889  1.0417  0.8706  0.0880
12762SOL    HW239728   3.015   0.166   9.037 -0.2708  0.9971  0.0305
12763SOL     OW39729   3.382   1.718   9.819  0.1117  0.1556 -0.9427
12763SOL    HW139730   3.414   1.784   9.757 -0.1688  0.2752 -0.9619
12763SOL    HW239731   3.310   1.675   9.774 -0.9596  1.1338 -0.2170
12764SOL     OW39732   5.327   7.403  11.845  0.5970  0.2761 -0.0403
12764SOL    HW139733   5.336   7.310  11.822  0.6290  0.0209  0.9437
12764SOL    HW239734   5.341   7.449  11.763 -0.8837 -0.6511 -0.8747
12765SOL     OW39735   3.253   0.265  10.474 -0.1176  0.3839 -0.0724
12765SOL    HW139736   3.165   0.268  10.512 -0.6503 -1.0490 -1.1426
12765SOL    HW239737   3.308   0.304  10.542 -1.4812  0.7989  0.8591
12766SOL     OW39738   5.515   0.664  11.741  0.6006  0.3650 -0.2292
12766SOL    HW139739   5.463   0.690  11.817 -0.0368  1.1453 -0.9127
12766SOL    HW239740   5.458   0.607  11.690  1.4856 -1.2605  0.5113
12767SOL     OW39741   3.527   0.773  10.079  0.4821  0.4112  0.6201
12767SOL    HW139742   3.494   0.684  10.068  1.1459  0.0991  1.1248
12767SOL    HW239743   3.463   0.816  10.136  0.0865  0.3157  0.2626
12768SOL     OW39744   2.512   0.518   0.719 -0.5163  0.1143  0.2584
12768SOL    HW139745   2.494   0.578   0.792 -1.6748 -0.1463  0.2082
12768SOL    HW239746   2.459   0.441   0.739  1.1545 -1.0366  0.4679
12769SOL     OW39747   6.976   0.721  10.042 -0.4097  0.2180  0.5673
12769SOL    HW139748   6.966   0.737   9.949 -0.2302  1.8925  0.8170
12769SOL    HW239749   6.903   0.768  10.083  0.2744  0.6204  1.3623
12770SOL     OW39750   3.332   0.554   8.648 -0.3573  0.6868 -0.3507
12770SOL    HW139751   3.265   0.540   8.581 -0.6584 -1.4296  0.3201
12770SOL    HW239752   3.284   0.555   8.730  0.2134  1.4199 -0.0128
12771SOL     OW39753   5.738   0.568  10.912  0.1667  0.0805 -0.0755
12771SOL    HW139754   5.652   0.595  10.882  0.5289  1.2163 -0.1486
12771SOL    HW239755   5.740   0.590  11.005  1.2802  2.5938 -0.6172
12772SOL     OW39756   1.325   1.317   8.496  0.2930 -0.2780 -0.4109
12772SOL    HW139757   1.405   1.369   8.491 -1.2138  2.4202  1.4059
12772SOL    HW239758   1.267   1.355   8.430  0.0660 -1.4395 -0.9013
12773SOL     OW39759   3.769   0.410  10.604  0.3379  0.7041  0.6098
12773SOL    HW139760   3.839   0.413  10.539  0.5910 -1.9004  0.6452
12773SOL    HW239761   3.796   0.473  10.671  2.1976  0.4367  0.1768
12774SOL     OW39762   5.321   0.861  10.850  0.0548 -0.2695 -0.3145
12774SOL    HW139763   5.312   0.935  10.790  1.8670 -1.1137 -1.7089
12774SOL    HW239764   5.360   0.900  10.929  0.0849  0.4067 -0.6518
12775SOL     OW39765   4.027   1.529  11.100  0.0882 -0.0809 -0.2836
12775SOL    HW139766   4.097   1.464  11.093 -0.0597 -0.1306 -1.5599
12775SOL    HW239767   4.024   1.570  11.013 -2.1059 -0.7316 -0.5714
12776SOL     OW39768   4.958   7.639   8.237  0.3073 -0.4710 -0.0465
12776SOL    HW139769   5.047   7.674   8.247 -0.1358  1.1410 -1.3913
12776SOL    HW239770   4.963   7.551   8.275  2.2405 -0.0852  0.7239
12777SOL     OW39771   4.106   1.697   9.402 -0.9274  0.2882 -0.1880
12777SOL    HW139772   4.039   1.743   9.351 -2.5067 -0.6799  0.9457
12777SOL    HW239773   4.059   1.628   9.448  0.6623  0.3286  1.6166
12778SOL     OW39774   3.517   1.566   9.979  0.7255  0.5229  0.1100
12778SOL    HW139775   3.498   1.625  10.051 -0.5252  1.2598 -0.7845
12778SOL    HW239776   3.464   1.598   9.906  1.5255 -0.5199 -0.9924
12779SOL     OW39777   2.852   1.380   7.240 -0.1951 -0.5772 -0.2636
12779SOL    HW139778   2.900   1.433   7.304 -1.0823 -1.0394  0.8316
12779SOL    HW239779   2.802   1.444   7.189 -0.8036 -0.3016  0.6564
12780SOL     OW39780   5.327   0.949   8.762 -0.4138  0.3252  0.4745
12780SOL    HW139781   5.347   1.034   8.723 -2.0729  0.2298 -0.6644
12780SOL    HW239782   5.382   0.888   8.714  1.8302  0.8520  2.2225
12781SOL     OW39783   5.869   3.411  10.262 -0.0059  0.0119  0.3955
12781SOL    HW139784   5.799   3.451  10.315  0.3097  1.6034 -0.3444
12781SOL    HW239785   5.845   3.432  10.172  0.9026 -0.3262  0.0719
12782SOL     OW39786   4.484   1.922  10.943  0.0012 -0.1189  0.4669
12782SOL    HW139787   4.419   1.990  10.961  0.5482  0.4348  0.3795
12782SOL    HW239788   4.568   1.967  10.950  0.3260 -0.1967 -2.0092
12783SOL     OW39789   3.419   1.613  11.402 -0.4249  0.6498 -0.9829
12783SOL    HW139790   3.462   1.684  11.353  1.0459 -0.2095 -0.9968
12783SOL    HW239791   3.461   1.533  11.370  0.9744  0.0624  1.9827
12784SOL     OW39792   4.057   0.330   9.401 -0.4513 -1.0932  0.3276
12784SOL    HW139793   4.023   0.339   9.490 -1.3222  2.7500 -0.1771
12784SOL    HW239794   4.142   0.373   9.403 -1.6067  1.5125 -1.0890
12785SOL     OW39795   5.501   1.631   7.624 -0.8638 -0.1426  0.1952
12785SOL    HW139796   5.514   1.704   7.685 -2.3476  0.0999  0.2430
12785SOL    HW239797   5.590   1.605   7.599 -0.2837  0.9075  1.0891
12786SOL     OW39798   4.519   0.495  10.210  0.3380  0.4026  0.2588
12786SOL    HW139799   4.541   0.521  10.299  2.1224  0.6412 -0.2092
12786SOL    HW239800   4.529   0.400  10.209 -1.0849  0.2416  0.6631
12787SOL     OW39801   5.145   2.004   9.331 -0.0084 -0.2156  0.4213
12787SOL    HW139802   5.095   1.995   9.413  0.0828  1.5160  0.7053
12787SOL    HW239803   5.188   1.920   9.320 -0.0657 -0.5068  2.1464
12788SOL     OW39804   4.753   2.197  12.444 -0.1597  0.0097  0.0421
12788SOL    HW139805   4.823   2.221  12.505 -0.4015  0.8625  0.0051
12788SOL    HW239806   4.775   2.109  12.415  0.7656  0.1737  0.2150
12789SOL     OW39807   3.983   0.280   0.188 -0.4406 -0.0546  0.3913
12789SOL    HW139808   3.936   0.277   0.272  0.2560  0.1619  0.7976
12789SOL    HW239809   3.952   0.360   0.146 -2.0681 -0.9972 -0.3456
12790SOL     OW39810   4.443   1.771  11.197  0.1096 -0.0837 -0.2112
12790SOL    HW139811   4.417   1.826  11.123 -0.2876 -0.8060 -0.6165
12790SOL    HW239812   4.538   1.765  11.191  0.2732  1.3851  0.4365
12791SOL     OW39813   4.919   1.241   9.981  0.1212  0.4141  0.0775
12791SOL    HW139814   4.889   1.151   9.992 -0.1325  0.1080 -2.3958
12791SOL    HW239815   4.853   1.295  10.025 -1.0137 -0.5280 -0.4307
12792SOL     OW39816   4.361   0.168  10.513 -0.0441  0.5835  0.6536
12792SOL    HW139817   4.292   0.205  10.458  0.8532  0.5368 -0.5397
12792SOL    HW239818   4.362   0.223  10.591 -1.9095  0.1398  1.0396
12793SOL     OW39819   4.801   7.861  10.131  0.6844  0.3652  0.0136
12793SOL    HW139820   4.713   7.899  10.135  1.0829  1.4537 -1.0078
12793SOL    HW239821   4.854   7.929  10.091  1.8511 -0.5585 -0.0440
12794SOL     OW39822   4.790   0.751  10.981  0.7999  0.4205  0.2967
12794SOL    HW139823   4.700   0.777  11.004  0.5111 -0.7062  0.5183
12794SOL    HW239824   4.781   0.661  10.949  1.9008  0.1787  0.6435
12795SOL     OW39825   5.272   1.129  10.401  0.0737 -0.2774 -0.4540
12795SOL    HW139826   5.314   1.214  10.399  0.4397 -0.4308  0.3336
12795SOL    HW239827   5.331   1.073  10.451 -1.0166 -0.5104  0.6283
12796SOL     OW39828   4.873   1.316  12.450  0.0938 -0.0351  0.0572
12796SOL    HW139829   4.911   1.315  12.362  0.4384 -1.4701  0.1938
12796SOL    HW239830   4.790   1.270  12.441 -0.1721  0.3802  0.3616
12797SOL     OW39831   5.098   7.714  10.137 -0.2059  0.0864  0.1820
12797SOL    HW139832   5.126   7.635  10.089 -0.1233 -1.3154  2.4145
12797SOL    HW239833   5.148   7.785  10.097  0.1091 -1.0339 -1.5542
12798SOL     OW39834   5.711   0.774  11.123 -0.2534  0.2719 -0.0580
12798SOL    HW139835   5.780   0.733  11.176 -0.7174  0.7801  0.9576
12798SOL    HW239836   5.757   0.807  11.046  1.1468  2.8131  1.7046
12799SOL     OW39837   4.062   7.935  10.382 -0.3545  0.0034  0.4138
12799SOL    HW139838   4.017   7.985  10.450  0.1479  0.5349  0.3703
12799SOL    HW239839   4.122   7.878  10.430 -1.1084 -0.7428  0.4744
12800SOL     OW39840   3.411   0.839  11.143 -0.0575 -0.0057  0.2031
12800SOL    HW139841   3.449   0.919  11.180 -1.3644  0.5681  0.3448
12800SOL    HW239842   3.455   0.829  11.059  0.4149  0.6270  0.3622
12801SOL     OW39843   3.640   2.306  11.841  0.0407 -0.5966 -0.4656
12801SOL    HW139844   3.614   2.338  11.927 -2.1923 -0.1567 -1.2601
12801SOL    HW239845   3.690   2.378  11.802 -0.1528 -0.2646 -0.0973
12802SOL     OW39846   6.709   0.909  10.072  0.2106 -0.0951 -0.5286
12802SOL    HW139847   6.734   0.918   9.980  1.0039 -0.0354 -0.3138
12802SOL    HW239848   6.650   0.983  10.088 -0.6176 -0.5919 -1.2083
12803SOL     OW39849   5.975   7.897  10.579  0.2637 -0.3032  0.0742
12803SOL    HW139850   5.954   7.808  10.553 -1.5003  0.3599 -0.9242
12803SOL    HW239851   5.942   7.905  10.669 -1.1833 -0.1704 -0.4428
12804SOL     OW39852   5.849   2.188  10.386  0.1801 -0.0531 -0.0889
12804SOL    HW139853   5.809   2.103  10.370  1.2332 -0.3723 -1.1762
12804SOL    HW239854   5.895   2.178  10.470 -1.3068  0.0763  0.7664
12805SOL     OW39855   5.502   7.952   9.836  0.0872  0.2374  0.4438
12805SOL    HW139856   5.507   7.906   9.752  0.2559 -2.0290  1.6076
12805SOL    HW239857   5.435   8.019   9.824 -0.3571 -0.4827 -1.3015
12806SOL     OW39858   4.334   0.361   8.734 -0.3018 -0.1388 -0.1571
12806SOL    HW139859   4.283   0.290   8.694 -0.1940  0.0795 -0.6814
12806SOL    HW239860   4.320   0.436   8.677 -0.5277  0.3070  0.4783
12807SOL     OW39861   4.704   2.740   9.736  0.0559  0.2784  0.2266
12807SOL    HW139862   4.712   2.744   9.831  0.7699  0.4119  0.1657
12807SOL    HW239863   4.683   2.830   9.710  0.7241  0.4309  0.1900
12808SOL     OW39864   4.921   0.142   9.111  0.4931  0.5813  0.0012
12808SOL    HW139865   4.849   0.092   9.150  1.7678 -1.8348 -0.5474
12808SOL    HW239866   4.895   0.153   9.019 -0.7023  2.8203  0.5333
12809SOL     OW39867   5.180   0.004  11.183 -0.5412  0.6113  0.3661
12809SOL    HW139868   5.237   0.078  11.160  1.9682 -0.7710  1.7507
12809SOL    HW239869   5.146   0.026  11.269 -1.4419  1.0113 -0.0729
12810SOL     OW39870   3.161   0.311  11.135  0.4278  0.1409 -0.2133
12810SOL    HW139871   3.223   0.384  11.138  0.3525  0.1825  0.5092
12810SOL    HW239872   3.215   0.234  11.120  0.9714 -0.1327  2.5923
12811SOL     OW39873   3.715   2.092   9.264 -0.0678  0.5997  0.0633
12811SOL    HW139874   3.774   2.165   9.285  0.9995 -0.0695 -0.5089
12811SOL    HW239875   3.668   2.121   9.186  3.1428 -0.6998 -2.6228
12812SOL     OW39876   4.279   1.668  12.315  0.0385 -0.1742 -0.4462
12812SOL    HW139877   4.215   1.646  12.247 -1.4857  0.4128  0.7301
12812SOL    HW239878   4.287   1.763  12.310  0.5359 -0.2076 -0.3209
12813SOL     OW39879   5.405   1.919   9.665 -0.3430 -0.3245 -0.2950
12813SOL    HW139880   5.384   1.859   9.737 -1.2262 -0.1399 -0.3799
12813SOL    HW239881   5.323   1.966   9.649  0.2545  0.6965 -0.4384
12814SOL     OW39882   5.193   7.120   9.876 -0.0625  0.1175  0.3358
12814SOL    HW139883   5.175   7.069   9.955 -1.8172  0.5294  0.2336
12814SOL    HW239884   5.202   7.055   9.807  0.0912 -0.1687  0.6221
12815SOL     OW39885   4.884   1.547   8.552 -0.4847  1.0240  0.1023
12815SOL    HW139886   4.950   1.489   8.591  1.5676  3.1131 -0.0501
12815SOL    HW239887   4.807   1.491   8.540  1.0350 -1.3853  0.8669
12816SOL     OW39888   4.286   0.758  11.381 -0.0527 -0.0018 -0.2240
12816SOL    HW139889   4.316   0.808  11.457 -0.3242  0.8488 -0.6656
12816SOL    HW239890   4.301   0.666  11.405 -0.3438  0.2413  0.9468
12817SOL     OW39891   5.230   0.084   7.889  0.0825 -0.9668 -0.0619
12817SOL    HW139892   5.148   0.134   7.884 -0.1805 -1.1068  2.0444
12817SOL    HW239893   5.229   0.044   7.976  1.8065 -2.0329 -0.4743
12818SOL     OW39894   3.678   2.940  10.100 -0.3378 -0.2106 -0.0501
12818SOL    HW139895   3.686   3.012  10.163 -2.3499 -0.4549  0.5611
12818SOL    HW239896   3.740   2.962  10.031 -0.8769  2.1326  0.1191
12819SOL     OW39897   3.830   1.520   9.423 -0.2380 -0.3409 -0.2857
12819SOL    HW139898   3.864   1.585   9.361  1.2186 -0.4377  0.3630
12819SOL    HW239899   3.869   1.546   9.507 -3.6392  0.9504  1.0775
12820SOL     OW39900   3.196   0.356   9.141  0.0281 -0.2760 -0.0625
12820SOL    HW139901   3.254   0.358   9.065 -0.6999  2.4722 -0.6830
12820SOL    HW239902   3.118   0.404   9.112 -0.3236  0.7329  2.3464
12821SOL     OW39903   6.375   6.660  11.109 -0.4651  0.0735  0.3817
12821SOL    HW139904   6.453   6.714  11.123 -1.1574  1.4211 -0.6689
12821SOL    HW239905   6.315   6.688  11.178  0.3136 -1.7348  1.8677
12822SOL     OW39906   5.378   0.734   8.094  0.0640  0.0348 -0.4088
12822SOL    HW139907   5.302   0.746   8.037 -0.8325 -0.6413  0.6058
12822SOL    HW239908   5.356   0.659   8.149  1.2237  0.1900  0.3150
12823SOL     OW39909   4.877   0.423  11.059 -0.1192  0.9159 -0.6038
12823SOL    HW139910   4.949   0.368  11.029  0.7693  1.7445 -0.0519
12823SOL    HW239911   4.826   0.441  10.980  0.0528  0.0065 -0.9298
12824SOL     OW39912   4.134   3.189  11.102  0.0401  0.0251  0.0407
12824SOL    HW139913   4.039   3.187  11.094 -0.0011 -2.3083  0.3612
12824SOL    HW239914   4.153   3.269  11.151 -2.0126 -0.9009  2.5875
12825SOL     OW39915   5.471   1.526  11.037 -0.0147 -0.3213 -0.1318
12825SOL    HW139916   5.418   1.497  11.112 -0.0073 -1.1600 -0.4333
12825SOL    HW239917   5.538   1.458  11.028  0.5291  0.2335 -0.3539
12826SOL     OW39918   3.390   0.358  10.679  0.2014 -0.4768  0.3552
12826SOL    HW139919   3.464   0.408  10.715  0.3593 -0.5301  0.1086
12826SOL    HW239920   3.371   0.291  10.745 -1.4484  1.2484  1.7525
12827SOL     OW39921   5.104   0.335   9.490  0.0589 -0.3002 -0.0212
12827SOL    HW139922   5.127   0.253   9.447 -0.9843  0.1469 -1.5297
12827SOL    HW239923   5.084   0.310   9.580  0.1722 -1.6406 -0.3435
12828SOL     OW39924   5.093   0.559   9.350 -0.4456  0.3540 -0.3268
12828SOL    HW139925   5.067   0.512   9.271  0.0967 -2.0111  0.8253
12828SOL    HW239926   5.092   0.493   9.419  0.9114  1.9224  1.2882
12829SOL     OW39927   6.566   0.687  11.720  0.2115  0.1382  0.8554
12829SOL    HW139928   6.597   0.688  11.811  1.2940  2.9896  0.5660
12829SOL    HW239929   6.644   0.705  11.668 -0.6646  0.0664 -0.5246
12830SOL     OW39930   3.949   7.078  10.871  0.1996  0.5243  0.7669
12830SOL    HW139931   3.985   6.991  10.853  2.4286  1.5269  0.0732
12830SOL    HW239932   3.881   7.089  10.804  1.0409 -0.0622 -0.2230
12831SOL     OW39933   4.484   1.298  10.131 -0.1190 -1.0242  0.3256
12831SOL    HW139934   4.414   1.317  10.194 -1.1925 -1.8645 -0.5763
12831SOL    HW239935   4.439   1.277  10.050  1.2395  0.4207 -0.8894
12832SOL     OW39936   3.627   0.982   9.740  0.4059 -0.2568  0.1498
12832SOL    HW139937   3.637   0.967   9.646 -0.6471 -0.8317  0.1149
12832SOL    HW239938   3.533   0.994   9.752  0.7869  4.1054  0.5229
12833SOL     OW39939   4.066   1.032   9.089  0.1681  0.7404  0.0456
12833SOL    HW139940   4.030   1.041   9.001  0.5524 -0.4806 -0.2545
12833SOL    HW239941   4.160   1.045   9.078  0.2347  0.4434  0.2497
12834SOL     OW39942   3.799   2.126  10.644 -0.0521  0.7229 -0.3978
12834SOL    HW139943   3.894   2.136  10.655  0.0807 -0.7470  0.1415
12834SOL    HW239944   3.790   2.062  10.574 -0.6871  1.6473 -1.1775
12835SOL     OW39945   5.498   0.962   8.170  0.2295  0.1486 -0.0298
12835SOL    HW139946   5.439   0.889   8.151 -1.7075  1.6850 -0.2214
12835SOL    HW239947   5.527   0.992   8.084  1.4241 -0.6457  0.0650
12836SOL     OW39948   4.185   1.325   9.016  0.0292  0.4262 -0.2285
12836SOL    HW139949   4.134   1.245   9.007 -0.7889  1.0998 -1.8943
12836SOL    HW239950   4.120   1.395   9.020  0.7569  1.0888  0.3361
12837SOL     OW39951   4.776   7.901  10.740  0.4601 -0.4120  0.7487
12837SOL    HW139952   4.781   7.987  10.698  1.3184 -0.5641  0.5268
12837SOL    HW239953   4.723   7.848  10.680 -0.2117 -0.0067  0.9628
12838SOL     OW39954   4.473   7.344  11.217 -0.0766 -0.3943 -0.1265
12838SOL    HW139955   4.473   7.407  11.144 -0.5277  1.7798  1.6225
12838SOL    HW239956   4.542   7.375  11.275  0.3336 -2.1397  0.3597
12839SOL     OW39957   4.786   7.267   9.788 -0.0770 -0.3833 -0.0092
12839SOL    HW139958   4.868   7.316   9.789 -0.7589  0.8033 -0.2549
12839SOL    HW239959   4.747   7.285   9.703 -1.8941  1.3550  1.1008
12840SOL     OW39960   6.067   0.285   9.927 -0.1578 -0.7524 -0.6065
12840SOL    HW139961   5.976   0.265   9.951  0.0533 -2.0891 -0.8733
12840SOL    HW239962   6.102   0.203   9.893  1.6361 -0.6801  0.9372
12841SOL     OW39963   3.357   0.940   9.420  0.0202  0.3718 -0.6893
12841SOL    HW139964   3.426   0.906   9.477 -0.0686  0.2687 -0.6448
12841SOL    HW239965   3.401   1.006   9.367 -0.3748  2.1221  1.0473
12842SOL     OW39966   6.007   0.934  10.021  0.1727  0.2086 -0.4699
12842SOL    HW139967   5.912   0.936  10.008 -0.3298  0.0748  2.4540
12842SOL    HW239968   6.028   0.841  10.028  0.5318  0.2405 -1.0644
12843SOL     OW39969   5.196   0.542   9.809 -0.4665 -0.4857 -0.3659
12843SOL    HW139970   5.139   0.465   9.812 -1.4084  0.1492 -1.1323
12843SOL    HW239971   5.279   0.509   9.776 -0.7824 -1.2204 -0.4486
12844SOL     OW39972   5.242   7.575   8.539 -0.4359 -0.4518  0.1134
12844SOL    HW139973   5.271   7.528   8.617 -0.1478  1.0762  0.9631
12844SOL    HW239974   5.223   7.663   8.569  0.7506  0.5036 -1.7315
12845SOL     OW39975   5.804   6.626   8.833  0.3791  0.3139 -0.0991
12845SOL    HW139976   5.723   6.575   8.826  2.4275 -3.4025  1.0374
12845SOL    HW239977   5.777   6.706   8.877 -2.9719  0.1664 -1.5337
12846SOL     OW39978   3.940   7.825  10.172  0.2656  0.3416  0.0171
12846SOL    HW139979   3.980   7.739  10.159  2.0197  1.1419 -0.1574
12846SOL    HW239980   3.984   7.860  10.249 -1.3783  0.5902  0.8885
12847SOL     OW39981   5.698   1.350  11.079 -0.2361 -0.0925  0.5142
12847SOL    HW139982   5.769   1.408  11.051 -0.3325  0.6718  1.7677
12847SOL    HW239983   5.707   1.347  11.175 -1.2027 -0.8987  0.5904
12848SOL     OW39984   3.306   1.539  12.096 -0.0087  0.9239 -0.2109
12848SOL    HW139985   3.369   1.468  12.086 -0.1389  0.5048  1.5815
12848SOL    HW239986   3.252   1.534  12.018  0.9819  0.0665 -0.8669
12849SOL     OW39987   6.392   2.530   9.422  0.2172 -0.0525  0.2016
12849SOL    HW139988   6.410   2.585   9.346  0.0614 -0.4951 -0.1584
12849SOL    HW239989   6.403   2.588   9.497  0.5059  0.3519 -0.1527
12850SOL     OW39990   5.797   0.869   9.840 -0.0177  0.1400  0.7534
12850SOL    HW139991   5.747   0.788   9.829  0.2752  0.0406  0.0814
12850SOL    HW239992   5.731   0.938   9.843 -0.1971  0.0955 -0.9195
12851SOL     OW39993   5.370   1.862   9.102  0.2397  0.2185  0.0571
12851SOL    HW139994   5.319   1.782   9.095 -0.9558  0.9360  0.3637
12851SOL    HW239995   5.375   1.879   9.196 -0.9037  1.3446 -0.0506
12852SOL     OW39996   4.604   0.137  11.771  0.2891  0.1427 -0.2295
12852SOL    HW139997   4.614   0.162  11.863  1.3196  2.3393 -0.8727
12852SOL    HW239998   4.520   0.175  11.745  0.8427  1.1173 -0.6441
12853SOL     OW39999   4.796   1.753  11.028 -0.4980 -0.0066 -0.5023
12853SOL    HW140000   4.776   1.694  10.955 -0.6005 -0.2040 -0.3153
12853SOL    HW240001   4.743   1.720  11.100  0.0244 -0.1491 -0.1833
12854SOL     OW40002   4.471   7.972  10.143 -0.0224 -0.1577  0.0603
12854SOL    HW140003   4.474   7.912  10.218  1.8650 -1.7149 -1.1618
12854SOL    HW240004   4.384   7.958  10.105 -1.3290  1.2152  2.2928
12855SOL     OW40005   4.977   0.976   9.346  0.0704 -0.4806  0.1954
12855SOL    HW140006   4.907   1.039   9.331 -0.8492 -1.6753 -0.7344
12855SOL    HW240007   4.954   0.901   9.291  1.5318 -1.3243  0.6810
12856SOL     OW40008   2.435   1.723   9.167 -0.2951 -0.0310 -0.1973
12856SOL    HW140009   2.503   1.785   9.193 -0.0049  0.5979 -2.2422
12856SOL    HW240010   2.388   1.768   9.096 -0.2408 -2.0138 -1.5736
12857SOL     OW40011   2.931   0.152  10.117  0.4640 -0.4372 -0.8902
12857SOL    HW140012   2.852   0.183  10.073 -0.4233 -1.8051 -0.3251
12857SOL    HW240013   2.959   0.077  10.064  1.3964  0.0337 -1.0804
12858SOL     OW40014   4.193   0.258   0.015  0.9434  0.1333  0.0094
12858SOL    HW140015   4.109   0.264   0.059  0.9303 -0.9193  0.1411
12858SOL    HW240016   4.246   0.328   0.055  0.4580  0.1572  0.6239
12859SOL     OW40017   5.230   2.767   9.990  0.0280  0.8146 -0.0997
12859SOL    HW140018   5.320   2.768   9.957  0.1079 -1.9629 -0.1971
12859SOL    HW240019   5.178   2.807   9.920  1.0255  1.3641 -0.5533
12860SOL     OW40020   4.978   2.197   9.189 -0.2154  0.1912  0.5886
12860SOL    HW140021   4.940   2.261   9.130  1.8042 -0.0853 -1.1493
12860SOL    HW240022   4.923   2.120   9.181 -0.9887  0.7540  0.4559
12861SOL     OW40023   3.951   7.210   7.859 -0.1316 -0.2679  0.9455
12861SOL    HW140024   4.030   7.219   7.807 -0.8944  2.0296  0.0719
12861SOL    HW240025   3.946   7.116   7.879  2.3593 -0.5880  0.3937
12862SOL     OW40026   3.303   2.575   9.941 -0.1179 -0.2942 -0.1360
12862SOL    HW140027   3.241   2.545   9.874 -0.1108 -1.4170  0.3264
12862SOL    HW240028   3.384   2.593   9.894  0.8622 -3.9859 -0.1404
12863SOL     OW40029   3.861   1.517   0.777 -0.5782  0.5300 -0.6525
12863SOL    HW140030   3.846   1.575   0.851  2.3490 -0.5751  0.9583
12863SOL    HW240031   3.922   1.566   0.720  0.4895 -0.1902 -0.1707
12864SOL     OW40032   5.662   1.753  11.261  0.8536 -0.3805 -0.0305
12864SOL    HW140033   5.589   1.762  11.201 -0.4660  0.7862  1.6534
12864SOL    HW240034   5.655   1.664  11.295 -0.2374 -0.0665  0.6179
12865SOL     OW40035   4.336   0.323  10.760 -0.0882  0.2302 -0.1350
12865SOL    HW140036   4.424   0.360  10.754 -0.0502  0.3337  0.9627
12865SOL    HW240037   4.277   0.397  10.751 -0.0262  0.4326  1.0112
12866SOL     OW40038   2.756   1.297  10.775  0.5026  1.0248  0.3380
12866SOL    HW140039   2.686   1.361  10.788 -0.8320 -0.8348  3.3193
12866SOL    HW240040   2.724   1.242  10.703 -1.2764  0.1678  1.6849
12867SOL     OW40041   4.754   1.552  10.830 -0.0929 -0.1016 -0.7120
12867SOL    HW140042   4.730   1.466  10.863  1.2452  0.1916  1.1985
12867SOL    HW240043   4.671   1.589  10.798 -1.1358 -1.2145  0.5546
12868SOL     OW40044   4.218   2.661  10.050 -0.1229  0.3647 -0.3396
12868SOL    HW140045   4.281   2.603  10.008  0.8081 -0.2491  1.7781
12868SOL    HW240046   4.171   2.702   9.977 -0.5609 -2.7225 -1.9589
12869SOL     OW40047   3.893   6.949   7.926 -0.6070 -0.3220 -0.2411
12869SOL    HW140048   3.910   6.856   7.938 -1.2119 -0.7213 -2.1905
12869SOL    HW240049   3.798   6.956   7.918 -0.6262  0.5635  0.5294
12870SOL     OW40050   5.099   1.292  10.548  0.0750 -0.2186 -0.4108
12870SOL    HW140051   5.089   1.265  10.639 -1.2444 -1.0537 -0.7691
12870SOL    HW240052   5.083   1.212  10.497  3.6361 -0.4889 -1.3671
12871SOL     OW40053   3.895   0.775   9.423 -0.8552 -0.4541 -0.3617
12871SOL    HW140054   3.860   0.719   9.492 -0.2044 -0.8792 -0.3712
12871SOL    HW240055   3.973   0.730   9.392 -1.2040 -0.3360 -1.4689
12872SOL     OW40056   3.998   1.656  10.847  0.7395  0.6001 -0.1521
12872SOL    HW140057   3.926   1.654  10.783 -0.3886 -1.0701  1.0709
12872SOL    HW240058   4.025   1.747  10.849 -0.7038  1.1099 -1.3747
12873SOL     OW40059   6.092   0.427  10.291  0.0046 -0.7421  0.0100
12873SOL    HW140060   6.182   0.444  10.318  0.8836 -0.1181 -3.0046
12873SOL    HW240061   6.090   0.333  10.272 -0.2218 -0.8951  0.7315
12874SOL     OW40062   4.234   0.173  10.272 -0.2619  0.0803  0.5729
12874SOL    HW140063   4.275   0.118  10.206 -1.6345  2.1039 -2.2054
12874SOL    HW240064   4.173   0.115  10.318 -1.4235 -0.8811 -1.9972
12875SOL     OW40065   4.724   0.904   7.261 -0.6419 -0.5245 -0.0421
12875SOL    HW140066   4.686   0.952   7.335  0.8789  0.8712 -0.0912
12875SOL    HW240067   4.763   0.973   7.206  0.3249 -1.7195 -0.9043
12876SOL     OW40068   6.113   7.804   9.648  0.2113 -0.0352  0.1388
12876SOL    HW140069   6.089   7.774   9.736  0.0864  2.0846  0.8885
12876SOL    HW240070   6.207   7.820   9.653  0.8024 -2.6120 -1.0299
12877SOL     OW40071   5.287   3.035  11.800 -0.1802 -0.1054 -0.5219
12877SOL    HW140072   5.211   2.992  11.759  0.5379 -1.3253 -0.6076
12877SOL    HW240073   5.297   2.991  11.884  0.5932 -0.1237 -0.6224
12878SOL     OW40074   5.184   2.003   9.996 -0.0268  0.0719  0.2820
12878SOL    HW140075   5.165   2.054  10.076  1.4833  3.3976 -1.2912
12878SOL    HW240076   5.122   2.037   9.932 -0.4205 -1.7065 -0.3105
12879SOL     OW40077   4.400   7.821  11.023 -0.6351 -0.4263 -0.1854
12879SOL    HW140078   4.394   7.731  10.992 -1.0798 -0.3665 -0.2868
12879SOL    HW240079   4.430   7.871  10.947  0.5712 -0.6337  0.1436
12880SOL     OW40080   4.575   0.954   8.373 -0.2207  0.6309  0.4656
12880SOL    HW140081   4.482   0.973   8.359 -0.2398  0.7740  0.7687
12880SOL    HW240082   4.580   0.923   8.463  0.0282  0.6496  0.4603
12881SOL     OW40083   5.101   7.270   8.582 -0.0898  0.0308  0.5484
12881SOL    HW140084   5.148   7.310   8.655 -0.7427  0.8100  0.5568
12881SOL    HW240085   5.043   7.339   8.550 -0.5783 -0.6303 -0.0267
12882SOL     OW40086   4.437   1.642   9.794  0.4759  0.0180  0.3227
12882SOL    HW140087   4.398   1.687   9.719 -1.7246 -0.1274  1.3027
12882SOL    HW240088   4.362   1.607   9.842  1.7717  0.3957  2.7744
12883SOL     OW40089   3.534   1.701  10.550 -0.3795 -0.0756  0.3737
12883SOL    HW140090   3.483   1.621  10.532  1.0156 -0.9227  0.0623
12883SOL    HW240091   3.476   1.772  10.522 -1.7457 -0.9410  0.8558
12884SOL     OW40092   4.512   7.481  10.398  0.0722  0.2148  0.1591
12884SOL    HW140093   4.537   7.417  10.331 -1.4626 -1.4932  1.1328
12884SOL    HW240094   4.562   7.457  10.475 -1.7319 -0.9393  1.0313
12885SOL     OW40095   5.255   7.949  10.095  0.1332 -0.3866 -0.2770
12885SOL    HW140096   5.236   7.939  10.188 -0.0611 -1.4312 -0.4119
12885SOL    HW240097   5.299   8.034  10.088  0.9796 -0.6974  0.8954
12886SOL     OW40098   4.722   0.932  10.532  0.2692 -0.1845  0.0788
12886SOL    HW140099   4.741   0.839  10.518  0.9968  0.1408 -1.2889
12886SOL    HW240100   4.770   0.955  10.611 -1.2170 -1.3331  1.3544
12887SOL     OW40101   2.479   1.249   8.887 -0.8704  0.0268  0.2468
12887SOL    HW140102   2.563   1.204   8.876 -1.3470 -0.7616 -0.3022
12887SOL    HW240103   2.491   1.303   8.965 -0.4163 -1.3908  1.2074
12888SOL     OW40104   3.073   1.620   9.988 -0.2034  0.0125  0.4456
12888SOL    HW140105   3.108   1.531   9.989  0.9372  0.4368  0.7796
12888SOL    HW240106   3.143   1.673  10.027 -0.7770  1.0775  0.0668
12889SOL     OW40107   4.059   2.158  11.039 -0.0894 -0.1211 -0.2584
12889SOL    HW140108   4.138   2.189  10.994 -0.0217  0.5785  0.3213
12889SOL    HW240109   3.992   2.223  11.018 -0.3395 -0.3737 -0.2382
12890SOL     OW40110   4.018   1.442  11.935 -0.1810  0.0930  0.1902
12890SOL    HW140111   4.073   1.446  11.856 -0.5284 -1.5085 -0.1713
12890SOL    HW240112   3.941   1.391  11.908 -0.7985  0.4069  1.2924
12891SOL     OW40113   4.065   0.118   8.741 -0.3607  0.5101 -0.4194
12891SOL    HW140114   4.152   0.098   8.706  0.2104  2.3417 -0.1386
12891SOL    HW240115   4.024   0.032   8.753  2.0388 -0.5247  1.1013
12892SOL     OW40116   4.051   0.817  10.014 -0.0094  0.4201  0.6565
12892SOL    HW140117   3.975   0.855   9.970  0.0566 -0.6616 -0.4549
12892SOL    HW240118   4.124   0.875   9.990 -0.2649  0.7790  0.7337
12893SOL     OW40119   3.843   1.507  11.318  0.0300  0.2173  0.1933
12893SOL    HW140120   3.840   1.597  11.350 -0.7984  0.2709 -0.0067
12893SOL    HW240121   3.913   1.507  11.253  0.4655  0.5607  0.6579
12894SOL     OW40122   6.388   0.491  10.235  0.9521  0.1996  0.7749
12894SOL    HW140123   6.390   0.493  10.331  0.2910  3.2128  0.8407
12894SOL    HW240124   6.438   0.569  10.209 -2.6899  2.1736 -1.0771
12895SOL     OW40125   3.505   3.162   9.207  0.1112  0.4652  0.6227
12895SOL    HW140126   3.470   3.093   9.149 -0.6576  1.3746 -0.0411
12895SOL    HW240127   3.482   3.243   9.162  1.8940  1.1390  0.8932
12896SOL     OW40128   4.938   0.694  10.211  0.2399 -0.0908  0.5930
12896SOL    HW140129   4.961   0.607  10.180 -0.0966  0.1480 -0.3394
12896SOL    HW240130   5.023   0.736  10.228  0.5376  0.4751 -1.9668
12897SOL     OW40131   5.021   1.302  12.186 -0.2303 -0.2964 -0.1098
12897SOL    HW140132   5.044   1.343  12.102  0.9267  0.1744  0.4118
12897SOL    HW240133   4.926   1.300  12.187 -0.2631 -1.2982 -1.9113
12898SOL     OW40134   3.000   0.393   9.691 -0.4007 -0.0557  0.1372
12898SOL    HW140135   2.933   0.349   9.743 -1.8583  2.2680  0.3832
12898SOL    HW240136   2.954   0.466   9.650  1.1771 -0.5290 -2.7471
12899SOL     OW40137   3.167   1.331  10.008  0.0779  0.7678 -0.0294
12899SOL    HW140138   3.185   1.304  10.098 -1.6117  0.8663  0.3763
12899SOL    HW240139   3.247   1.309   9.960  0.6504 -0.2080  1.2952
12900SOL     OW40140   5.535   1.723   8.627  0.1814 -0.0971 -0.3752
12900SOL    HW140141   5.576   1.717   8.712 -2.5184 -2.8333  0.9486
12900SOL    HW240142   5.488   1.806   8.628  0.6176  0.1424  0.5672
12901SOL     OW40143   4.608   1.173  11.605 -0.4147  0.7795  0.5906
12901SOL    HW140144   4.628   1.150  11.515 -1.9530  0.3947  0.3216
12901SOL    HW240145   4.655   1.255  11.621  0.7588  0.2799 -0.1864
12902SOL     OW40146   5.856   1.408   9.156  0.8921 -0.8816 -1.0590
12902SOL    HW140147   5.764   1.434   9.161  1.4551  1.1587 -0.3916
12902SOL    HW240148   5.863   1.333   9.215 -0.0193 -0.0086  0.2123
12903SOL     OW40149   6.026   1.740   8.978 -0.2941  0.1864 -0.1126
12903SOL    HW140150   6.071   1.677   9.034  0.5430  0.5512 -0.3619
12903SOL    HW240151   6.091   1.764   8.912 -1.9309 -2.0865 -2.8139
12904SOL     OW40152   4.227   1.498  10.533  0.1891  0.4514 -0.0406
12904SOL    HW140153   4.251   1.590  10.533  0.4058  0.4184 -1.2373
12904SOL    HW240154   4.132   1.497  10.522  0.3748  0.5682 -2.3166
12905SOL     OW40155   3.894   2.692  10.214 -0.5065 -0.5850  0.4927
12905SOL    HW140156   3.843   2.683  10.133  0.7237  0.3068 -0.4117
12905SOL    HW240157   3.835   2.738  10.273 -1.1442 -0.5379 -0.1581
12906SOL     OW40158   6.145   4.604  10.445 -0.3338 -0.2378 -0.3317
12906SOL    HW140159   6.080   4.588  10.377 -2.0663  1.0621  0.9070
12906SOL    HW240160   6.128   4.537  10.511  0.6567 -0.8564 -0.6784
12907SOL     OW40161   4.924   2.675   9.608  0.0305  0.0619  0.1500
12907SOL    HW140162   4.925   2.592   9.558 -0.3698  0.6160 -0.8169
12907SOL    HW240163   4.831   2.691   9.624 -0.0006  0.9551 -0.7912
12908SOL     OW40164   3.866   2.622   9.939  0.1219 -0.0348 -0.4408
12908SOL    HW140165   3.939   2.679   9.912  0.8197 -1.9143 -2.8268
12908SOL    HW240166   3.802   2.632   9.869 -0.7105 -0.5239  0.2458
12909SOL     OW40167   3.998   1.528   9.630 -0.3833  0.1525  0.1298
12909SOL    HW140168   3.982   1.589   9.702  2.2906  1.6340 -0.4071
12909SOL    HW240169   4.058   1.464   9.666 -1.4273 -0.9169  0.0316
12910SOL     OW40170   3.112   1.468  11.133 -0.3060 -0.0900 -0.1424
12910SOL    HW140171   3.122   1.378  11.164  1.5963  0.4820  1.0550
12910SOL    HW240172   3.028   1.496  11.168  0.1900 -0.6356  1.5490
12911SOL     OW40173   3.845   1.793  11.189 -0.4936 -0.0443  0.0972
12911SOL    HW140174   3.936   1.815  11.168  0.5511 -1.8412  2.2657
12911SOL    HW240175   3.836   1.815  11.282 -1.5553 -1.9046  0.4975
12912SOL     OW40176   7.982   2.679  11.977  0.2575 -0.1351 -0.3774
12912SOL    HW140177   8.070   2.659  12.007 -0.2570 -0.1532  1.2257
12912SOL    HW240178   7.968   2.620  11.903  1.6890  0.1014 -0.8629
12913SOL     OW40179   5.780   0.054   9.899  0.1112 -0.4429  0.0243
12913SOL    HW140180   5.782   0.102   9.982 -1.7457 -0.9407  0.4008
12913SOL    HW240181   5.694   0.011   9.898  1.3414 -3.0491 -0.7114
12914SOL     OW40182   4.132   0.414  10.143 -0.1407  0.4567 -0.3217
12914SOL    HW140183   4.112   0.376  10.229 -0.9585 -0.4472 -0.8867
12914SOL    HW240184   4.100   0.349  10.080 -2.4087  2.4034 -1.3586
12915SOL     OW40185   2.782   0.875   9.723  0.3497  0.1782  0.2703
12915SOL    HW140186   2.843   0.947   9.733  0.9560 -0.1834 -0.7264
12915SOL    HW240187   2.829   0.811   9.670 -0.9452 -0.0429 -0.6432
12916SOL     OW40188   6.345   2.771   7.461  0.4293  0.7680  0.2298
12916SOL    HW140189   6.379   2.768   7.371  0.5629  1.1322  0.2687
12916SOL    HW240190   6.409   2.822   7.509  1.3074 -0.9403  0.9485
12917SOL     OW40191   5.458   0.111   9.399 -0.0161  0.2516 -0.3304
12917SOL    HW140192   5.370   0.094   9.366 -1.1985  0.7486  2.3530
12917SOL    HW240193   5.476   0.038   9.458  1.6838 -0.1776 -1.2894
12918SOL     OW40194   5.348   2.299  10.381 -0.2303 -0.3289  0.7063
12918SOL    HW140195   5.437   2.320  10.410  1.2707 -0.7560 -2.9755
12918SOL    HW240196   5.340   2.205  10.397  0.9834 -0.7760 -0.9069
12919SOL     OW40197   4.663   1.205  10.370 -0.1480  0.2358  0.3223
12919SOL    HW140198   4.637   1.223  10.460 -1.2751  0.1259  0.0429
12919SOL    HW240199   4.637   1.283  10.321  2.1319  1.0709  0.3611
12920SOL     OW40200   4.371   2.147  11.713  0.2232 -0.3943 -0.2192
12920SOL    HW140201   4.290   2.120  11.756 -0.0197  0.7991  0.1030
12920SOL    HW240202   4.439   2.094  11.753 -0.1473 -0.0509  0.8910
12921SOL     OW40203   4.881   7.512  11.678  0.1885  0.3001  0.9586
12921SOL    HW140204   4.963   7.529  11.630  0.7889  1.3365  2.2734
12921SOL    HW240205   4.816   7.496  11.609  1.6397 -1.4367 -0.1051
12922SOL     OW40206   5.129   1.708  10.528 -0.6166  0.4640 -0.3930
12922SOL    HW140207   5.181   1.659  10.592 -1.9436 -0.7099 -0.1585
12922SOL    HW240208   5.042   1.715  10.568 -0.8448  1.7735 -1.0652
12923SOL     OW40209   5.320   1.355  10.692  0.4197 -0.4813  0.1122
12923SOL    HW140210   5.304   1.442  10.730 -0.0065 -0.4692 -0.0942
12923SOL    HW240211   5.266   1.353  10.613  0.7454 -0.7807 -0.1054
12924SOL     OW40212   4.209   7.663  10.735  0.5010  0.1360 -0.7077
12924SOL    HW140213   4.267   7.641  10.807  2.2936  1.7916 -1.5472
12924SOL    HW240214   4.134   7.707  10.776 -0.6765 -2.7696  0.4652
12925SOL     OW40215   3.419   1.592  11.066 -0.1144 -0.2602  0.4050
12925SOL    HW140216   3.491   1.652  11.044 -0.7148 -0.0562 -1.1325
12925SOL    HW240217   3.454   1.539  11.138  1.4742  0.0395 -0.0890
12926SOL     OW40218   5.349   0.533  11.529  0.1578  0.4964  0.6798
12926SOL    HW140219   5.310   0.494  11.606  0.8066  1.8292  1.7308
12926SOL    HW240220   5.300   0.614  11.515 -1.3360 -0.6844 -1.6094
12927SOL     OW40221   3.536   7.257   9.543  0.1165 -0.6040  0.0512
12927SOL    HW140222   3.457   7.304   9.518 -0.0428 -0.7481  0.2754
12927SOL    HW240223   3.531   7.175   9.494 -0.2701 -0.9498  0.6572
12928SOL     OW40224   4.841   7.937   9.389 -0.5239  0.0684 -0.0940
12928SOL    HW140225   4.830   7.963   9.480 -0.4939 -0.7388  0.1435
12928SOL    HW240226   4.770   7.981   9.342 -1.5383 -0.8187  0.5775
12929SOL     OW40227   4.996   6.001   8.660  0.5628 -0.3501  0.0288
12929SOL    HW140228   5.026   5.938   8.727  0.1695  0.2815  0.8091
12929SOL    HW240229   4.908   6.026   8.689  0.6708  0.4650 -0.3522
12930SOL     OW40230   3.423   7.969   8.487 -0.6760  1.0765 -0.1208
12930SOL    HW140231   3.378   8.044   8.447 -1.2705 -0.1570 -1.8562
12930SOL    HW240232   3.380   7.892   8.450  1.7170 -0.1659 -0.5517
12931SOL     OW40233   4.856   0.798  11.329  0.3973 -0.1792  0.2961
12931SOL    HW140234   4.780   0.857  11.326  0.8908  0.5679  1.6679
12931SOL    HW240235   4.926   0.846  11.284  0.3262 -0.4914 -0.1635
12932SOL     OW40236   4.418   2.490   9.908 -0.2093  0.4587  0.6057
12932SOL    HW140237   4.365   2.425   9.862 -0.9967 -0.0775  2.1822
12932SOL    HW240238   4.422   2.565   9.849 -4.7469  1.4791  1.2789
12933SOL     OW40239   4.149   0.968  12.238  0.0266 -0.3119  0.0717
12933SOL    HW140240   4.092   0.899  12.271 -1.3874  1.3779  1.3408
12933SOL    HW240241   4.113   0.990  12.152 -0.4843 -0.0862  0.3413
12934SOL     OW40242   6.505   7.865  10.226 -0.1728 -0.6377 -0.8968
12934SOL    HW140243   6.525   7.959  10.231  0.5413 -0.8511  0.7955
12934SOL    HW240244   6.427   7.860  10.170 -1.3279  1.1530  0.4336
12935SOL     OW40245   3.946   2.078  11.394 -0.0264 -0.4479 -0.1937
12935SOL    HW140246   3.895   2.092  11.314  2.3177  0.8910 -1.5683
12935SOL    HW240247   4.037   2.085  11.366  0.9493 -2.0425  2.2647
12936SOL     OW40248   4.830   0.963  10.787  0.0408  0.3871  0.5366
12936SOL    HW140249   4.805   1.038  10.840  1.1125  0.3767  1.0723
12936SOL    HW240250   4.837   0.891  10.849 -0.8862 -0.1525  0.0386
12937SOL     OW40251   4.866   7.027   8.436  0.5221  0.1173 -0.3398
12937SOL    HW140252   4.920   7.083   8.492  1.3677 -0.9855 -0.0152
12937SOL    HW240253   4.809   6.981   8.497 -0.9100  1.3313 -0.6844
12938SOL     OW40254   4.446   6.383   8.838  0.5098 -0.1622  0.3588
12938SOL    HW140255   4.390   6.403   8.913  0.1903 -0.3877  0.1822
12938SOL    HW240256   4.415   6.441   8.769  1.3375  0.6212  0.6387
12939SOL     OW40257   4.322   0.997  11.682 -0.2500  0.3613  0.7337
12939SOL    HW140258   4.366   1.031  11.760  2.2208 -0.2009 -0.3224
12939SOL    HW240259   4.392   0.986  11.618 -1.7558 -1.7819 -0.6798
12940SOL     OW40260   5.556   1.490   9.257 -0.1310  0.2896 -0.0555
12940SOL    HW140261   5.538   1.527   9.343  0.0671  0.7955 -0.2256
12940SOL    HW240262   5.484   1.429   9.241 -0.6414  0.8442  0.0962
12941SOL     OW40263   4.165   7.412   8.748 -0.2310  0.0311  0.2006
12941SOL    HW140264   4.094   7.352   8.722  1.0545 -1.0128 -1.0778
12941SOL    HW240265   4.234   7.355   8.780  0.8567  0.8421 -0.6177
12942SOL     OW40266   5.191   2.054  10.591 -0.1008 -0.2160  0.4785
12942SOL    HW140267   5.240   2.043  10.510  1.9553 -1.2648  1.7777
12942SOL    HW240268   5.168   1.965  10.618  1.2808 -0.1058  2.1810
12943SOL     OW40269   4.441   0.256   8.954 -0.6657  0.3810  0.2796
12943SOL    HW140270   4.444   0.280   8.862  0.1509 -1.7937 -0.3294
12943SOL    HW240271   4.409   0.166   8.954 -0.1078  0.1400  2.0642
12944SOL     OW40272   4.258   2.058  10.141 -0.2298  0.3924  0.3833
12944SOL    HW140273   4.225   2.052  10.052  1.6602  0.0510 -0.3304
12944SOL    HW240274   4.353   2.059  10.132  0.0090  0.3206  2.3982
12945SOL     OW40275   2.892   0.728  10.897  0.2934  0.1070  0.3533
12945SOL    HW140276   2.942   0.647  10.891  0.1491  0.0080  0.4720
12945SOL    HW240277   2.816   0.712  10.841 -0.1836 -0.1734  1.0621
12946SOL     OW40278   5.578   2.000  10.138  0.3984 -0.2123  0.6214
12946SOL    HW140279   5.512   1.933  10.154  0.9780 -0.3755  2.6636
12946SOL    HW240280   5.661   1.957  10.159  1.3979 -0.4166 -3.1282
12947SOL     OW40281   6.070   0.677  10.091 -0.5687 -0.1066  0.1352
12947SOL    HW140282   6.106   0.650  10.175  0.3888  0.8091  0.0351
12947SOL    HW240283   5.982   0.638  10.089 -0.6527 -0.0504  1.5911
12948SOL     OW40284   4.343   0.687  11.058  0.3958  0.3029  0.3214
12948SOL    HW140285   4.303   0.725  11.136  0.7640  0.0223  0.6484
12948SOL    HW240286   4.320   0.594  11.062 -0.4316  0.4596 -0.4306
12949SOL     OW40287   6.498   1.874   9.916 -0.5222 -0.1855 -0.4856
12949SOL    HW140288   6.459   1.801   9.963  0.9372 -0.3454  0.5736
12949SOL    HW240289   6.465   1.952   9.961  1.1561 -0.3464  1.1385
12950SOL     OW40290   1.615   0.206   9.603  0.0650  0.4819 -0.0170
12950SOL    HW140291   1.683   0.273   9.598  3.1676 -2.1774  2.0646
12950SOL    HW240292   1.647   0.134   9.548 -0.1794 -1.4385  2.1786
12951SOL     OW40293   4.155   1.188  11.508  0.5455 -0.1871 -0.0437
12951SOL    HW140294   4.201   1.107  11.530 -0.0380 -0.5262 -0.0503
12951SOL    HW240295   4.064   1.171  11.531  0.3571  0.3474 -0.3735
12952SOL     OW40296   4.214   0.250  12.211 -0.2768  0.3847  0.2098
12952SOL    HW140297   4.289   0.308  12.211  0.9570 -1.1417 -0.3699
12952SOL    HW240298   4.170   0.267  12.295  1.4100  0.4513  1.1151
12953SOL     OW40299   4.577   2.287  10.729 -0.0762 -0.2121  0.5594
12953SOL    HW140300   4.507   2.292  10.664  0.6835 -1.3779 -0.3830
12953SOL    HW240301   4.538   2.323  10.809 -2.2376 -2.1603  0.4795
12954SOL     OW40302   6.805   7.790  10.334 -0.0949  0.4168  0.0280
12954SOL    HW140303   6.803   7.846  10.412 -2.1071  0.4130  0.0402
12954SOL    HW240304   6.720   7.746  10.335 -0.0543  0.2004 -2.0311
12955SOL     OW40305   4.990   2.230   9.888  0.0496  0.5341  0.0273
12955SOL    HW140306   4.961   2.140   9.871 -0.0059  0.4368  0.6204
12955SOL    HW240307   5.021   2.261   9.803  0.9630 -0.3717  0.0012
12956SOL     OW40308   4.551   0.208   7.998  0.1318 -0.0573  0.5632
12956SOL    HW140309   4.500   0.127   7.996  1.8189 -1.2861  2.6675
12956SOL    HW240310   4.587   0.212   8.086 -0.2779  3.3119  0.7173
12957SOL     OW40311   4.462   7.749  10.334  0.1425  0.0553  0.2168
12957SOL    HW140312   4.397   7.765  10.403  0.3421  1.0221  0.1988
12957SOL    HW240313   4.480   7.655  10.339 -3.8245 -1.0560 -2.0704
12958SOL     OW40314   7.530   7.863   9.441  0.3237  0.0170 -0.2585
12958SOL    HW140315   7.462   7.796   9.432  0.0405  0.3557 -0.7097
12958SOL    HW240316   7.576   7.862   9.357  0.3830  0.3093 -0.2307
12959SOL     OW40317   2.626   1.331   9.828  0.1636  0.0277 -0.0834
12959SOL    HW140318   2.700   1.392   9.834  0.2663 -0.1181  0.1446
12959SOL    HW240319   2.567   1.371   9.764 -0.9017  1.5655  1.7540
12960SOL     OW40320   3.575   0.485   9.689  0.3208 -0.0645 -0.5606
12960SOL    HW140321   3.571   0.391   9.709 -0.0241 -0.0875 -0.7235
12960SOL    HW240322   3.491   0.504   9.647 -0.6472  0.8188  1.6185
12961SOL     OW40323   4.815   0.898  12.166 -0.1420  0.0469 -0.1887
12961SOL    HW140324   4.764   0.979  12.164  0.5702  0.5022 -1.2646
12961SOL    HW240325   4.760   0.834  12.121 -0.7847 -0.1293  0.8278
12962SOL     OW40326   5.080   7.299  12.055  0.2585  0.1553  0.0087
12962SOL    HW140327   5.009   7.336  12.107 -1.2536 -0.7710 -1.3000
12962SOL    HW240328   5.126   7.240  12.114 -2.8907 -2.7773 -0.1601
12963SOL     OW40329   4.490   1.428  12.255  0.0836 -0.2037  0.0088
12963SOL    HW140330   4.490   1.520  12.281 -3.1925 -0.3279  0.8985
12963SOL    HW240331   4.427   1.423  12.183  0.3684 -1.7507 -0.1727
12964SOL     OW40332   5.007   7.817  12.435 -0.0057  0.3240  0.0185
12964SOL    HW140333   5.036   7.820  12.526  0.4077  0.4723 -0.1144
12964SOL    HW240334   5.078   7.771  12.389 -0.3258  0.0271 -0.1858
12965SOL     OW40335   5.633   2.586  11.449 -0.3347 -0.2672  0.1305
12965SOL    HW140336   5.693   2.517  11.418 -0.9847 -0.6863 -0.2165
12965SOL    HW240337   5.560   2.538  11.489 -1.1428  0.1881 -0.7484
12966SOL     OW40338   3.669   2.159  12.412 -0.2297 -0.1856  0.3973
12966SOL    HW140339   3.742   2.200  12.459  0.5846 -1.0352 -0.0793
12966SOL    HW240340   3.600   2.225  12.413 -0.6701 -0.5477  3.6847
12967SOL     OW40341   6.648   0.102  10.901 -0.4592  0.5107 -0.1010
12967SOL    HW140342   6.638   0.159  10.978  0.8995 -0.0960  0.5686
12967SOL    HW240343   6.675   0.017  10.938  0.5324  0.2924 -1.2607
12968SOL     OW40344   5.148   1.281  11.808  0.3514  0.3486 -0.0102
12968SOL    HW140345   5.159   1.374  11.786  1.7337  0.4399  1.0052
12968SOL    HW240346   5.055   1.273  11.829  0.3913  1.7055  0.7798
12969SOL     OW40347   3.981   7.622  11.999  0.3025  0.4105  0.4668
12969SOL    HW140348   3.887   7.606  12.006  0.4544 -1.5608 -1.1367
12969SOL    HW240349   3.990   7.716  12.008 -1.7293  0.5597  1.4930
12970SOL     OW40350   3.244   7.431   0.459 -0.1196 -0.2684 -0.5756
12970SOL    HW140351   3.261   7.450   0.366  0.1187  0.6475 -0.3554
12970SOL    HW240352   3.149   7.442   0.468  0.0320  1.1204 -0.4116
12971SOL     OW40353   5.253   2.487  10.840 -0.1188 -0.0692 -0.3486
12971SOL    HW140354   5.323   2.478  10.905  0.4884  2.2792 -0.5886
12971SOL    HW240355   5.276   2.424  10.771  1.4036  0.1842 -0.1052
12972SOL     OW40356   4.076   1.757  11.429 -0.1360  0.0252  0.1704
12972SOL    HW140357   4.005   1.820  11.436  1.4668  2.1088 -1.0092
12972SOL    HW240358   4.101   1.739  11.520 -1.9311 -0.5355  0.5880
12973SOL     OW40359   4.210   1.740  10.620  0.2066 -0.3118  0.6302
12973SOL    HW140360   4.255   1.710  10.699  1.0440  0.4681  0.4699
12973SOL    HW240361   4.131   1.783  10.652  0.7900  0.4483  1.0974
12974SOL     OW40362   4.322   0.119  11.343 -0.2420 -0.0523 -0.1076
12974SOL    HW140363   4.392   0.164  11.389  0.7968 -1.5013 -0.1906
12974SOL    HW240364   4.279   0.187  11.291  2.3164  0.5669 -1.5355
12975SOL     OW40365   3.623   7.838  12.109 -0.3426 -0.2993 -0.1073
12975SOL    HW140366   3.561   7.869  12.175 -0.7773 -0.9935 -0.1762
12975SOL    HW240367   3.703   7.887  12.127 -0.6958  0.0983  0.4312
12976SOL     OW40368   5.744   2.312  11.432  0.1518 -0.4211 -0.0209
12976SOL    HW140369   5.750   2.370  11.509  0.7029 -1.1965  0.5326
12976SOL    HW240370   5.664   2.261  11.447 -0.0395 -0.1865 -0.2389
12977SOL     OW40371   3.603   1.842  11.728 -0.4233 -0.1054  0.1456
12977SOL    HW140372   3.664   1.897  11.777 -0.5676 -1.0177  1.4035
12977SOL    HW240373   3.550   1.904  11.677 -0.1999  0.8660  1.0688
12978SOL     OW40374   6.166   0.966   0.314 -0.0079 -0.2762  0.0073
12978SOL    HW140375   6.176   0.919   0.397 -0.3651  0.2247  0.3376
12978SOL    HW240376   6.220   0.916   0.252  2.5491  0.8773  1.1385
12979SOL     OW40377   5.156   0.735  11.709  0.0258 -0.2605 -0.6062
12979SOL    HW140378   5.167   0.797  11.781  2.1006  0.0293 -1.1102
12979SOL    HW240379   5.091   0.776  11.652 -0.0246  0.5495  0.0087
12980SOL     OW40380   4.060   2.572  11.268  0.0487 -0.1016 -0.1674
12980SOL    HW140381   4.014   2.653  11.245  1.4264  0.4739 -1.0638
12980SOL    HW240382   3.994   2.519  11.313 -1.8310  0.2045 -2.3501
12981SOL     OW40383   5.424   7.801  11.201  0.2550  0.3372  0.2296
12981SOL    HW140384   5.357   7.866  11.224  1.0628  0.6389  1.9006
12981SOL    HW240385   5.457   7.771  11.286 -1.5098 -3.8551 -0.3114
12982SOL     OW40386   4.986   1.485  11.118  0.1136  0.4910 -0.3209
12982SOL    HW140387   4.924   1.550  11.083  0.0703  1.0189  0.7076
12982SOL    HW240388   5.031   1.531  11.188 -0.4323 -0.8081  0.9202
12983SOL     OW40389   4.407   3.952  10.106  0.0072  0.2821  0.1917
12983SOL    HW140390   4.315   3.947  10.079  0.3935 -2.4176 -0.8915
12983SOL    HW240391   4.455   3.914  10.032  1.8009 -0.4786  1.6930
12984SOL     OW40392   5.270   3.604  11.708 -0.1386 -0.3268 -0.1226
12984SOL    HW140393   5.195   3.607  11.768  0.5737  3.6257  0.8768
12984SOL    HW240394   5.343   3.574  11.763 -0.6314 -2.8959 -0.7639
12985SOL     OW40395   5.105   6.923  10.932  0.1595 -0.0680 -0.1276
12985SOL    HW140396   5.098   7.018  10.941  0.5281  0.0268 -0.7626
12985SOL    HW240397   5.021   6.896  10.897 -0.3138 -0.1074  1.0150
12986SOL     OW40398   5.213   0.224  11.657  0.3418  0.2132 -0.2724
12986SOL    HW140399   5.248   0.309  11.683  0.6419  0.1938 -0.5999
12986SOL    HW240400   5.276   0.191  11.593  0.0990 -0.1471 -0.3287
12987SOL     OW40401   7.925   2.971  11.694  0.5015  0.0779 -0.1186
12987SOL    HW140402   7.883   2.924  11.622  0.7040 -1.5274  0.7638
12987SOL    HW240403   7.853   3.004  11.747  0.3465 -0.6061  0.1014
12988SOL     OW40404   3.970   1.423   0.388  0.0239  0.1560 -0.2738
12988SOL    HW140405   4.046   1.475   0.365  1.3807 -1.1620  1.0680
12988SOL    HW240406   3.918   1.479   0.446  1.1926  0.2140  0.7329
12989SOL     OW40407   4.163   1.862  11.980 -0.4231 -0.0403  0.0228
12989SOL    HW140408   4.087   1.839  11.926  0.9143 -1.6979 -1.2607
12989SOL    HW240409   4.168   1.792  12.045  1.4552 -1.4296 -1.5196
12990SOL     OW40410   4.248   0.594   0.193 -0.3662 -0.1324 -0.3006
12990SOL    HW140411   4.275   0.510   0.231  0.4342  0.0745 -0.3882
12990SOL    HW240412   4.264   0.584   0.099 -1.4276 -0.3052 -0.4692
12991SOL     OW40413   4.312   1.383  11.640  0.3765  0.7545 -0.5510
12991SOL    HW140414   4.400   1.350  11.626  0.3786  0.0721  0.9434
12991SOL    HW240415   4.255   1.318  11.598  0.5821  1.4256 -1.9070
12992SOL     OW40416   4.866   1.243  11.187  0.2521  0.6010  0.3283
12992SOL    HW140417   4.918   1.320  11.165  0.3565  0.5882  0.5323
12992SOL    HW240418   4.810   1.230  11.110 -0.0107  1.0854  0.4311
12993SOL     OW40419   3.692   0.203   9.973 -0.2180  0.1437 -0.2459
12993SOL    HW140420   3.615   0.179  10.025 -0.5107  0.0320 -0.7224
12993SOL    HW240421   3.702   0.297   9.988 -0.8830  0.3059 -0.7334
12994SOL     OW40422   3.355   0.635  10.879 -0.1506  0.5015  0.8118
12994SOL    HW140423   3.384   0.726  10.884 -1.7433  1.1231 -0.5021
12994SOL    HW240424   3.431   0.588  10.846  0.2444  1.6214  0.0514
12995SOL     OW40425   5.120   2.147  11.959 -0.6935 -0.0514 -0.9023
12995SOL    HW140426   5.171   2.067  11.949 -0.1264  0.2764 -0.6939
12995SOL    HW240427   5.039   2.131  11.910 -1.5034 -1.5136  0.8152
12996SOL     OW40428   6.515   2.556  10.565 -0.3651  1.3932  0.0097
12996SOL    HW140429   6.545   2.498  10.635  0.7412  0.8920 -0.8540
12996SOL    HW240430   6.594   2.573  10.513 -1.6345 -0.4149 -2.6894
12997SOL     OW40431   3.158   0.163   1.021 -0.0878  0.0654 -0.0471
12997SOL    HW140432   3.139   0.146   0.929 -0.5366 -2.6411  0.4508
12997SOL    HW240433   3.229   0.102   1.043  0.2165  0.8603  1.3335
12998SOL     OW40434   5.560   0.991   9.932  0.4437 -0.1195  0.6595
12998SOL    HW140435   5.536   0.952   9.847 -1.1623  1.4115  0.3455
12998SOL    HW240436   5.476   1.014   9.972  1.2659  1.0889  1.7508
12999SOL     OW40437   4.025   0.824   0.571  0.0247 -0.6816 -0.3359
12999SOL    HW140438   4.082   0.877   0.515 -1.8091  0.1854 -1.5080
12999SOL    HW240439   4.006   0.881   0.646 -0.6065 -0.3032 -0.7721
13000SOL     OW40440   6.331   1.342  10.442  0.2265 -0.9777 -0.0248
13000SOL    HW140441   6.313   1.268  10.499 -0.7053 -0.8843 -0.1872
13000SOL    HW240442   6.356   1.413  10.502  0.9561 -1.3551  0.1392
13001SOL     OW40443   3.775   1.743  11.450  0.0221 -0.3384  0.4661
13001SOL    HW140444   3.680   1.754  11.448  0.0002 -0.2114  1.5649
13001SOL    HW240445   3.795   1.725  11.542  0.9178 -1.6997  0.0397
13002SOL     OW40446   6.338   7.318   9.918  0.6277  0.5972  0.4034
13002SOL    HW140447   6.350   7.244   9.859 -1.0145 -0.0907  0.8749
13002SOL    HW240448   6.316   7.391   9.861  1.6652  0.5887 -0.0229
13003SOL     OW40449   2.950   1.052  11.868 -0.0862 -0.1051 -0.4485
13003SOL    HW140450   2.956   1.134  11.917 -0.6248  1.4117 -2.7693
13003SOL    HW240451   2.983   1.073  11.781  3.2037 -3.2926 -0.2485
13004SOL     OW40452   5.402   2.109  11.924 -0.2241  0.6576 -0.2079
13004SOL    HW140453   5.342   2.170  11.881  0.6894  0.6881 -1.5163
13004SOL    HW240454   5.485   2.120  11.877 -0.1338 -1.8796 -0.7905
13005SOL     OW40455   5.263   0.615  11.037  0.1436  0.0061  0.7276
13005SOL    HW140456   5.336   0.662  11.077 -0.3319 -0.5783  2.3912
13005SOL    HW240457   5.220   0.572  11.111 -1.4315 -0.2730 -0.3089
13006SOL     OW40458   4.252   0.571  12.429  0.1234  0.0638 -0.0786
13006SOL    HW140459   4.319   0.533  12.372 -0.4041 -0.9189 -0.0663
13006SOL    HW240460   4.174   0.578  12.373 -0.1670 -0.1495  0.2981
13007SOL     OW40461   4.973   1.802   0.324  0.5473 -0.0566  0.1211
13007SOL    HW140462   5.054   1.833   0.283  0.9236  2.5029  2.5226
13007SOL    HW240463   4.904   1.854   0.283  0.7065  1.0968  1.2501
13008SOL     OW40464   4.864   7.233  11.165 -0.1201  0.2360 -0.1580
13008SOL    HW140465   4.816   7.252  11.084  0.4814  0.1413 -0.5407
13008SOL    HW240466   4.882   7.319  11.202  1.1272  0.3872 -1.0335
13009SOL     OW40467   3.854   1.246   0.717  0.6908 -0.3338  0.1965
13009SOL    HW140468   3.829   1.212   0.804  2.1530  0.9535  1.1578
13009SOL    HW240469   3.876   1.337   0.732  0.5070  0.0573 -1.6601
13010SOL     OW40470   6.896   1.646   8.804  0.5052  0.3928 -0.2877
13010SOL    HW140471   6.971   1.607   8.849  0.1810  0.8475  0.6732
13010SOL    HW240472   6.913   1.740   8.805  0.4090  0.4197 -0.9635
13011SOL     OW40473   4.953   0.847  11.582  0.1489 -0.2077 -0.0475
13011SOL    HW140474   4.953   0.943  11.580 -1.1483 -0.1858  0.0587
13011SOL    HW240475   4.908   0.822  11.501 -0.0355 -0.7171  0.2137
13012SOL     OW40476   6.009   1.510  11.599 -0.0268 -0.1982 -0.1279
13012SOL    HW140477   5.985   1.556  11.519 -2.1083 -1.5131 -0.3325
13012SOL    HW240478   5.926   1.490  11.641  0.9555  2.9685  3.9506
13013SOL     OW40479   4.118   1.816  11.131 -0.2910  0.0694 -0.2341
13013SOL    HW140480   4.137   1.904  11.164  0.4661 -0.1121 -0.1746
13013SOL    HW240481   4.064   1.830  11.053 -2.7148  0.4906  1.4192
13014SOL     OW40482   3.282   1.394  11.733 -0.2413 -0.1178 -0.5062
13014SOL    HW140483   3.311   1.358  11.817 -0.5173  0.7457 -0.0342
13014SOL    HW240484   3.356   1.446  11.703 -0.6050  0.5843 -0.1950
13015SOL     OW40485   5.077   2.593  10.686  0.5289 -0.1170 -0.5145
13015SOL    HW140486   5.103   2.685  10.685 -1.0407  0.3609 -1.4932
13015SOL    HW240487   5.143   2.550  10.740  0.0302  1.9754  1.9918
13016SOL     OW40488   4.958   0.535   0.466  0.8304  0.4407  0.3189
13016SOL    HW140489   4.937   0.515   0.557  1.5444 -1.9546  0.0417
13016SOL    HW240490   4.882   0.505   0.416  1.5245 -0.7893 -0.0482
13017SOL     OW40491   6.139   0.459  12.384 -0.1152 -0.1247 -0.2186
13017SOL    HW140492   6.187   0.421  12.311  1.6891  1.3572  0.1275
13017SOL    HW240493   6.140   0.553  12.368 -1.4430  0.0821  0.7062
13018SOL     OW40494   2.814   0.562  11.455  0.0629  0.4301  0.1222
13018SOL    HW140495   2.862   0.631  11.411  0.3420  1.0727  1.3963
13018SOL    HW240496   2.801   0.594  11.545 -2.3863  0.1229 -0.0408
13019SOL     OW40497   5.707   2.389  11.165 -0.0774  0.0040 -0.4029
13019SOL    HW140498   5.788   2.383  11.114 -0.1752 -0.1952 -0.5395
13019SOL    HW240499   5.736   2.387  11.256  0.2012  1.7936 -0.4178
13020SOL     OW40500   5.403   1.075  10.696  0.0122 -0.3641  0.3967
13020SOL    HW140501   5.491   1.099  10.722  0.1948 -0.6435  0.0419
13020SOL    HW240502   5.354   1.158  10.695  0.5038 -0.0764 -0.3236
13021SOL     OW40503   4.226   1.412  11.367 -0.0998  0.1307 -0.1186
13021SOL    HW140504   4.220   1.320  11.392 -0.6882  0.9288  3.1639
13021SOL    HW240505   4.302   1.445  11.416 -1.8242  2.0384  1.4416
13022SOL     OW40506   5.151   0.395  11.271  0.1761 -0.2410  0.5201
13022SOL    HW140507   5.154   0.449  11.350 -0.8293 -0.2336  0.5603
13022SOL    HW240508   5.078   0.335  11.286 -1.0961  0.8389 -1.0801
13023SOL     OW40509   6.311   2.704  11.674  0.2463 -0.0767  0.1013
13023SOL    HW140510   6.353   2.644  11.735  1.5230  0.0905 -0.5898
13023SOL    HW240511   6.364   2.784  11.677  0.3838 -0.0860 -1.2613
13024SOL     OW40512   4.706   1.682  11.263  0.0090 -0.1613  0.1496
13024SOL    HW140513   4.754   1.733  11.328  1.5687 -0.7510 -0.4893
13024SOL    HW240514   4.709   1.592  11.296  0.0313 -0.3197 -0.2725
13025SOL     OW40515   4.011   0.168  11.212 -0.3826  0.2025 -0.0659
13025SOL    HW140516   4.020   0.247  11.159  0.1703  0.5752  0.5620
13025SOL    HW240517   4.032   0.196  11.301  1.6545 -0.9876 -0.0888
13026SOL     OW40518   2.762   7.750   0.273  0.2441 -0.6033  0.4191
13026SOL    HW140519   2.789   7.832   0.313  0.8839 -0.4654 -0.2660
13026SOL    HW240520   2.718   7.776   0.192  0.3040 -0.9287  0.2799
13027SOL     OW40521   6.052   0.556  10.771 -0.4369  0.1149  0.3702
13027SOL    HW140522   6.043   0.564  10.866  0.3111  0.5671  0.4162
13027SOL    HW240523   6.107   0.478  10.759 -2.8174 -1.6449  0.1665
13028SOL     OW40524   4.151   2.544  10.523 -0.2837 -0.3636  0.3287
13028SOL    HW140525   4.132   2.508  10.436  1.0185  0.2018 -0.2384
13028SOL    HW240526   4.244   2.570  10.517  0.5794 -2.5537  2.6846
13029SOL     OW40527   4.421   1.274   1.047 -0.4375  0.3425 -0.4453
13029SOL    HW140528   4.481   1.200   1.044 -0.8083 -0.0634  1.3374
13029SOL    HW240529   4.337   1.238   1.018 -0.0567  0.7356 -2.1904
13030SOL     OW40530   4.912   0.781   0.824  0.4130 -0.1896  0.4001
13030SOL    HW140531   4.905   0.776   0.919  0.5232 -0.8331  0.3764
13030SOL    HW240532   4.822   0.796   0.795  0.6734  2.5844  0.7301
13031SOL     OW40533   5.101   2.890  11.686  0.4029 -0.2612  0.2792
13031SOL    HW140534   5.130   2.798  11.689 -1.6589 -1.0119 -0.7312
13031SOL    HW240535   5.051   2.896  11.605  0.9530  1.9405  0.0611
13032SOL     OW40536   5.844   0.428  12.449  0.4187  0.0231  0.5776
13032SOL    HW140537   5.927   0.473  12.434  0.3385  0.8123  2.3506
13032SOL    HW240538   5.783   0.470  12.389  0.8028  0.9372  0.8129
13033SOL     OW40539   5.833   2.639  10.968 -0.2403  0.2007 -0.1175
13033SOL    HW140540   5.809   2.687  10.888  0.0148  0.2791 -0.1465
13033SOL    HW240541   5.843   2.706  11.035  2.3991  0.4612 -0.6816
13034SOL     OW40542   4.336   1.490  11.891 -0.1408 -0.7493  0.1422
13034SOL    HW140543   4.378   1.576  11.889 -2.2101  0.3480  0.3844
13034SOL    HW240544   4.342   1.458  11.801  1.4856 -0.8178  0.2472
13035SOL     OW40545   5.402   7.622  10.859 -0.2589 -0.0322  0.2078
13035SOL    HW140546   5.337   7.690  10.872 -0.6555 -0.5740  1.1411
13035SOL    HW240547   5.476   7.647  10.914  1.0487  1.4335 -2.0507
13036SOL     OW40548   4.050   0.568  11.652 -0.0883 -0.1931 -0.5532
13036SOL    HW140549   4.072   0.546  11.742 -1.0245 -1.7813 -0.6747
13036SOL    HW240550   4.074   0.661  11.643 -1.4502  0.4603  1.7850
13037SOL     OW40551   3.920   1.173  12.398  0.6596 -0.1228 -0.5396
13037SOL    HW140552   3.992   1.110  12.396  0.3940 -0.5544  1.4100
13037SOL    HW240553   3.943   1.234  12.468 -0.5389  0.1349 -0.3521
13038SOL     OW40554   7.631   1.959  11.080 -0.0184 -0.2882 -0.5886
13038SOL    HW140555   7.577   2.005  11.016 -0.9116 -1.6131 -0.8398
13038SOL    HW240556   7.569   1.905  11.130  1.0125 -1.6757 -0.7266
13039SOL     OW40557   3.536   1.625   0.263 -0.6901 -0.3206  0.1666
13039SOL    HW140558   3.561   1.685   0.334 -0.2492 -0.8869  0.4918
13039SOL    HW240559   3.614   1.618   0.209 -0.5558 -1.0476  0.4460
13040SOL     OW40560   3.004   0.967   1.922 -0.4913  0.1705 -0.1577
13040SOL    HW140561   2.923   1.013   1.900  0.2686  1.2269 -0.8110
13040SOL    HW240562   3.069   1.037   1.933 -0.0969 -0.4896  2.3829
13041SOL     OW40563   4.548   0.393  11.261 -0.5281 -0.2376 -0.7330
13041SOL    HW140564   4.532   0.361  11.349 -1.4011  0.8588 -0.4724
13041SOL    HW240565   4.630   0.441  11.267 -1.3990  1.2268 -0.1128
13042SOL     OW40566   4.720   1.704   0.156  0.4733  0.1947 -0.2014
13042SOL    HW140567   4.704   1.796   0.135 -1.7064  0.1465  0.8868
13042SOL    HW240568   4.641   1.659   0.125  1.3916 -1.2745 -0.4739
13043SOL     OW40569   3.749   7.179   0.758 -0.1408 -0.3419  0.3285
13043SOL    HW140570   3.730   7.223   0.841  0.9155 -0.5388  0.6908
13043SOL    HW240571   3.789   7.096   0.783 -0.5995 -0.7842 -0.3733
13044SOL     OW40572   7.097   7.261   0.735  0.0746 -0.9082 -0.0004
13044SOL    HW140573   7.137   7.329   0.680  0.0553 -0.8815  0.0188
13044SOL    HW240574   7.049   7.206   0.673 -1.5412  0.2104  0.1695
13045SOL     OW40575   5.459   0.172  11.543  0.7485 -0.3437 -0.0453
13045SOL    HW140576   5.492   0.087  11.515 -0.2298 -0.2842 -1.4730
13045SOL    HW240577   5.514   0.236  11.498  0.3549 -0.2324 -0.3688
13046SOL     OW40578   5.694   7.206  12.150  0.2817  0.0388 -0.1236
13046SOL    HW140579   5.715   7.176  12.238 -0.0036 -0.1141 -0.1048
13046SOL    HW240580   5.605   7.174  12.134 -0.7509  2.3572  0.5670
13047SOL     OW40581   4.530   1.881  10.596 -0.6742  0.0434 -0.2008
13047SOL    HW140582   4.459   1.941  10.573 -1.0770  0.0944  1.1212
13047SOL    HW240583   4.606   1.938  10.610  0.1403 -0.1155 -3.1946
13048SOL     OW40584   6.036   0.802  10.615  0.5651  0.5024 -0.3090
13048SOL    HW140585   6.078   0.777  10.698  1.1328  1.6954 -0.2196
13048SOL    HW240586   6.094   0.868  10.578 -1.0380  1.9669 -0.3473
13049SOL     OW40587   3.473   2.033  12.271  0.6961 -0.0532  0.1497
13049SOL    HW140588   3.499   1.993  12.188  2.4139  1.5989 -0.1831
13049SOL    HW240589   3.556   2.046  12.318 -0.0383  1.0292  1.1876
13050SOL     OW40590   3.278   7.875   0.804 -0.5783 -0.3467  0.1655
13050SOL    HW140591   3.323   7.946   0.851  0.8685 -0.4874 -0.9166
13050SOL    HW240592   3.301   7.796   0.853  1.5364 -0.5908 -1.0807
13051SOL     OW40593   3.643   1.564   1.665 -0.0790  0.1672  0.4519
13051SOL    HW140594   3.558   1.572   1.622 -0.0956  0.8522  0.5948
13051SOL    HW240595   3.625   1.514   1.745 -0.6571  1.5863  1.2547
13052SOL     OW40596   3.102   1.792  11.190  0.5698 -0.4849 -0.3483
13052SOL    HW140597   3.081   1.704  11.158  0.0300 -0.6773  0.4952
13052SOL    HW240598   3.128   1.778  11.282  2.0781  0.0401 -0.6645
13053SOL     OW40599   2.920   2.009   0.503  0.5496 -0.1451  0.6311
13053SOL    HW140600   2.925   2.099   0.535  0.3557 -0.0572  0.4142
13053SOL    HW240601   2.833   2.002   0.464  1.1504  0.0596 -0.8006
13054SOL     OW40602   5.454   0.509  10.553  0.0415 -0.4556 -0.2669
13054SOL    HW140603   5.491   0.588  10.591  0.0543  0.3577 -1.8791
13054SOL    HW240604   5.515   0.439  10.577  1.1612  0.3913 -0.5632
13055SOL     OW40605   4.027   0.023   0.304  0.6727 -0.0889  0.1840
13055SOL    HW140606   3.941  -0.009   0.331  0.4247 -1.4675 -2.0259
13055SOL    HW240607   4.010   0.110   0.269 -0.1115 -0.9011 -1.5452
13056SOL     OW40608   3.472   0.709   1.260 -0.4152 -0.2033 -0.1861
13056SOL    HW140609   3.556   0.738   1.225 -1.9298  0.2075 -3.9439
13056SOL    HW240610   3.479   0.613   1.261  1.1372 -0.1641  2.7605
13057SOL     OW40611   4.485   0.770  12.380 -0.0185 -0.2618  0.1288
13057SOL    HW140612   4.390   0.759  12.373 -0.0017 -0.0230 -0.5114
13057SOL    HW240613   4.518   0.681  12.392 -0.4896 -0.1518  2.7246
13058SOL     OW40614   3.049   6.876  12.460 -0.2483 -0.0822  0.2220
13058SOL    HW140615   3.143   6.879  12.472 -0.1272 -3.5202  1.2728
13058SOL    HW240616   3.018   6.964  12.482  2.7168  1.3930 -1.0017
13059SOL     OW40617   2.787   1.629  12.475 -0.2328 -0.2295 -0.0961
13059SOL    HW140618   2.833   1.600  12.396 -3.4443 -0.2671 -2.1227
13059SOL    HW240619   2.818   1.570  12.544  3.7618  0.6837 -0.8154
13060SOL     OW40620   5.154   0.071  10.579 -0.5859  0.1081  0.2725
13060SOL    HW140621   5.200   0.049  10.660 -1.1434  1.7604  1.0747
13060SOL    HW240622   5.125   0.161  10.591 -1.4903  0.0838 -1.4041
13061SOL     OW40623   3.727   2.538  11.730 -0.2877 -0.3104 -0.9152
13061SOL    HW140624   3.819   2.564  11.727 -0.3378  0.2507  1.1702
13061SOL    HW240625   3.685   2.605  11.783 -1.2940 -2.1807  0.7746
13062SOL     OW40626   6.545   1.426  12.359  0.2535  0.8812  0.2281
13062SOL    HW140627   6.539   1.491  12.289 -0.6156  0.9449  0.3512
13062SOL    HW240628   6.459   1.429  12.402  0.2683 -0.2183  0.3579
13063SOL     OW40629   4.307   1.412   1.481  0.3380 -0.4694  0.2119
13063SOL    HW140630   4.214   1.432   1.493  0.7840  1.0795  1.5144
13063SOL    HW240631   4.330   1.454   1.398 -0.1917 -1.1468 -0.2847
13064SOL     OW40632   4.780   1.681   1.804 -0.0428  0.3455  0.3796
13064SOL    HW140633   4.805   1.771   1.785  1.9959 -0.2920 -0.1954
13064SOL    HW240634   4.698   1.668   1.755  0.2617  1.5168 -0.4910
13065SOL     OW40635   3.909   1.401  11.556 -0.0909  0.2479 -0.2889
13065SOL    HW140636   3.887   1.308  11.553 -2.1973  0.7124 -0.3601
13065SOL    HW240637   3.875   1.437  11.474 -2.1696  1.6334  1.0861
13066SOL     OW40638   5.577   7.880   0.180  0.5221 -0.1982 -0.4524
13066SOL    HW140639   5.639   7.939   0.223 -0.2269  0.0569  0.3005
13066SOL    HW240640   5.559   7.921   0.096  0.8932  0.0491 -0.4133
13067SOL     OW40641   5.977   0.499   9.750  0.2584 -0.0657  0.0624
13067SOL    HW140642   6.028   0.441   9.806 -1.2051 -0.4291  1.0537
13067SOL    HW240643   5.909   0.534   9.806  0.2087  1.4740 -0.8986
13068SOL     OW40644   5.602   7.776  11.005 -0.0769  0.6421  0.1068
13068SOL    HW140645   5.684   7.813  11.039 -0.4187 -0.5440  2.4253
13068SOL    HW240646   5.543   7.775  11.081 -0.9391 -2.1037 -0.4889
13069SOL     OW40647   2.706   1.948   9.579 -0.2897  0.0957 -0.2436
13069SOL    HW140648   2.687   1.861   9.545 -3.5194  0.3338  0.6405
13069SOL    HW240649   2.773   1.983   9.520 -3.0822 -0.7907 -4.3609
13070SOL     OW40650   5.683   2.637   0.381 -0.1972  0.3857 -0.3564
13070SOL    HW140651   5.703   2.712   0.437  0.1107  0.0226  0.0163
13070SOL    HW240652   5.761   2.626   0.328 -0.8013  1.2770 -1.4940
13071SOL     OW40653   5.807   7.900  10.790 -0.6514  0.1111  0.2301
13071SOL    HW140654   5.792   7.950  10.870 -0.6656  1.0041 -0.3147
13071SOL    HW240655   5.720   7.888  10.752 -0.4912  1.3416 -0.6024
13072SOL     OW40656   4.793   7.883  12.174 -0.2977 -0.2451 -0.3563
13072SOL    HW140657   4.829   7.909  12.089  1.0932  0.2848  0.3720
13072SOL    HW240658   4.698   7.891  12.162 -0.0908  1.4011 -1.3820
13073SOL     OW40659   6.475   2.333  11.174 -0.1051 -0.5003  0.2110
13073SOL    HW140660   6.535   2.265  11.204 -2.0437 -2.5975 -0.4000
13073SOL    HW240661   6.421   2.353  11.250 -0.2696 -0.4426  0.0787
13074SOL     OW40662   4.891   1.171  11.856 -0.1561 -0.2042  0.0081
13074SOL    HW140663   4.824   1.239  11.853 -1.5077 -1.4752  0.4771
13074SOL    HW240664   4.845   1.093  11.886  1.2133 -1.5102 -1.1337
13075SOL     OW40665   4.383   0.302  11.821  0.0172  0.0808 -0.1774
13075SOL    HW140666   4.462   0.346  11.852  0.7919 -0.0213 -1.9110
13075SOL    HW240667   4.319   0.373  11.812  1.2336  0.9862 -2.8930
13076SOL     OW40668   4.665   1.576  12.002  0.1081  0.2699 -0.1444
13076SOL    HW140669   4.587   1.544  11.957 -0.4343  1.2481  0.0593
13076SOL    HW240670   4.715   1.620  11.934  1.0644 -1.3284 -0.5136
13077SOL     OW40671   4.126   1.798   1.065  0.1427  0.6157 -0.2738
13077SOL    HW140672   4.102   1.728   1.125  0.3998  0.7778  0.0181
13077SOL    HW240673   4.165   1.865   1.120  2.1166 -0.0162 -0.8312
13078SOL     OW40674   4.895   0.880  12.441 -0.0372 -0.1635 -0.4202
13078SOL    HW140675   4.973   0.935  12.444  1.1397 -1.7323 -0.7387
13078SOL    HW240676   4.857   0.896  12.355  0.7087 -0.3918 -0.7989
13079SOL     OW40677   4.705   2.249  11.990 -0.1940 -0.1039  0.2535
13079SOL    HW140678   4.743   2.252  12.078  0.8836 -0.3887 -0.1932
13079SOL    HW240679   4.630   2.308  11.995  0.2967  0.4656  1.1479
13080SOL     OW40680   6.562   0.681  12.426 -0.0476 -0.4517 -0.3396
13080SOL    HW140681   6.520   0.641  12.349 -1.0958  1.1127 -0.6326
13080SOL    HW240682   6.588   0.607  12.480 -0.3975 -1.5646 -1.6210
13081SOL     OW40683   4.619   2.369  10.367 -0.6980  0.1234  0.1825
13081SOL    HW140684   4.599   2.373  10.274  0.5247  0.5439 -0.0727
13081SOL    HW240685   4.639   2.460  10.391  1.7909 -0.3635  0.1880
13082SOL     OW40686   3.003   7.607  11.072 -0.2566  0.0143  0.0856
13082SOL    HW140687   3.049   7.659  11.139  0.2562 -1.7103  1.1519
13082SOL    HW240688   2.946   7.549  11.123 -2.1899  0.7433 -1.1472
13083SOL     OW40689   5.990   0.419  11.974  0.4992  0.3147  0.3374
13083SOL    HW140690   6.069   0.391  12.022 -0.2471 -0.3723  1.1928
13083SOL    HW240691   5.929   0.346  11.983 -0.4500  1.0720  0.1871
13084SOL     OW40692   4.733   2.650  11.253  0.7637  0.5608  0.0875
13084SOL    HW140693   4.718   2.622  11.162  1.1893  1.8640 -0.4154
13084SOL    HW240694   4.655   2.621  11.300  0.7223 -0.5091 -0.6007
13085SOL     OW40695   5.156   2.616   0.951 -0.0115  0.3850  0.0525
13085SOL    HW140696   5.094   2.671   1.000  0.9312  0.8608  0.7499
13085SOL    HW240697   5.213   2.578   1.018 -0.8771 -1.7870 -0.3886
13086SOL     OW40698   6.642   2.018   8.989 -0.0174  0.0952 -0.0128
13086SOL    HW140699   6.717   1.962   9.007  0.3193  0.3432 -0.5882
13086SOL    HW240700   6.674   2.078   8.921 -0.8241  0.0120 -0.4754
13087SOL     OW40701   4.484   7.859  11.850  0.4384  0.5572 -0.7048
13087SOL    HW140702   4.521   7.944  11.873 -1.3727  1.4634 -0.9898
13087SOL    HW240703   4.499   7.805  11.928  2.0608  0.9563 -0.7091
13088SOL     OW40704   3.261   0.250   1.535  0.4037  0.6312  0.0284
13088SOL    HW140705   3.333   0.206   1.580 -2.1098  1.0429  5.2127
13088SOL    HW240706   3.201   0.179   1.511 -0.3074  0.6103  1.7129
13089SOL     OW40707   4.986   1.407  11.534  0.3578 -0.1071  0.0583
13089SOL    HW140708   5.062   1.348  11.532 -1.6040 -2.8542 -1.4528
13089SOL    HW240709   5.000   1.466  11.460  0.8208 -0.9782 -0.5811
13090SOL     OW40710   5.413   1.854  10.765  0.2548  0.5236  0.3165
13090SOL    HW140711   5.485   1.835  10.825  2.2710  2.1680 -1.4236
13090SOL    HW240712   5.449   1.918  10.703 -1.7596 -0.8509 -2.4988
13091SOL     OW40713   4.608   1.262  10.627 -0.1623 -0.4464  0.1348
13091SOL    HW140714   4.642   1.260  10.716 -2.2882 -1.8458  1.0047
13091SOL    HW240715   4.513   1.260  10.637 -0.5123  0.7527 -2.1647
13092SOL     OW40716   3.462   1.362  10.221  0.2129 -0.2164 -0.3224
13092SOL    HW140717   3.419   1.388  10.302  0.7688  0.8690 -0.3553
13092SOL    HW240718   3.425   1.421  10.155  0.5140 -0.4047 -0.6619
13093SOL     OW40719   6.479   2.447  10.911 -0.0037 -0.1199  0.1498
13093SOL    HW140720   6.475   2.393  10.990 -0.6039 -0.4916 -0.1319
13093SOL    HW240721   6.528   2.395  10.848  0.3393  0.1119  0.2213
13094SOL     OW40722   3.910   0.609   0.441 -0.2900 -0.0709 -0.2582
13094SOL    HW140723   3.931   0.684   0.497  0.3683 -0.6590  0.2974
13094SOL    HW240724   3.955   0.627   0.359 -1.1233  0.7162 -0.5657
13095SOL     OW40725   5.410   1.533  11.865  0.3294  0.4085  0.5519
13095SOL    HW140726   5.421   1.463  11.929 -0.6121  0.4026  0.7245
13095SOL    HW240727   5.444   1.611  11.908 -1.3891  0.6511  1.5612
13096SOL     OW40728   6.021   6.400  11.107 -0.6002 -0.2411  0.1830
13096SOL    HW140729   6.072   6.328  11.144  0.8263  0.4339 -0.4039
13096SOL    HW240730   6.009   6.377  11.015  0.2364  0.4391 -0.1155
13097SOL     OW40731   4.913   1.876   1.083 -0.5724  0.6865 -0.7283
13097SOL    HW140732   4.862   1.953   1.106  0.2318  1.0133  0.0272
13097SOL    HW240733   4.989   1.910   1.037 -0.1071  0.3788 -0.2070
13098SOL     OW40734   4.996   1.904  11.228 -0.1573 -0.7315  0.2682
13098SOL    HW140735   5.033   1.910  11.140 -1.5089 -1.6432 -0.4046
13098SOL    HW240736   5.036   1.825  11.265 -1.0783 -1.4981 -0.3134
13099SOL     OW40737   4.574   1.375   0.336  0.4683 -0.4296 -0.3407
13099SOL    HW140738   4.507   1.307   0.327  0.5606 -0.5664 -0.0076
13099SOL    HW240739   4.656   1.326   0.343  0.5820 -0.2681 -0.5207
13100SOL     OW40740   3.617   0.700  10.536 -0.3101 -0.5613 -0.3014
13100SOL    HW140741   3.672   0.713  10.459 -0.8743  0.0642 -0.6119
13100SOL    HW240742   3.632   0.610  10.562 -1.0200 -1.1717 -1.8780
13101SOL     OW40743   3.503   1.086  11.538 -0.1188  0.3684  0.1779
13101SOL    HW140744   3.514   1.085  11.443 -0.0511  0.0728  0.1887
13101SOL    HW240745   3.519   1.177  11.563  1.6209  0.1153  0.1037
13102SOL     OW40746   4.847   1.171   0.660  0.2290 -0.2448 -0.3892
13102SOL    HW140747   4.850   1.081   0.692  2.7351  0.3451  1.3493
13102SOL    HW240748   4.783   1.214   0.717 -2.0041 -1.1089 -2.0842
13103SOL     OW40749   5.446   1.350  11.656 -0.1688 -0.0385  0.1940
13103SOL    HW140750   5.465   1.395  11.738 -0.4690 -0.5396  0.5450
13103SOL    HW240751   5.423   1.421  11.595  2.0300  0.5238 -0.0584
13104SOL     OW40752   2.470   0.914  11.118  0.0207  0.2766  0.0571
13104SOL    HW140753   2.475   0.984  11.184 -0.6075  1.2788 -0.9131
13104SOL    HW240754   2.554   0.869  11.124  1.0194  2.0062 -0.2160
13105SOL     OW40755   4.698   2.097  10.934 -0.0191 -0.5178  0.1857
13105SOL    HW140756   4.703   2.067  10.843  0.4559 -1.5212  0.5264
13105SOL    HW240757   4.685   2.191  10.928  1.5030 -0.3491 -0.9276
13106SOL     OW40758   3.895   2.367   0.526  0.1882  0.2925 -0.8763
13106SOL    HW140759   3.881   2.289   0.471 -0.3852 -0.8175  0.7721
13106SOL    HW240760   3.987   2.362   0.551  0.3435  0.5731 -1.3727
13107SOL     OW40761   3.085   2.741   0.387 -0.7480  0.7090  0.0569
13107SOL    HW140762   3.083   2.645   0.387 -0.4787  0.7022  0.4766
13107SOL    HW240763   3.002   2.766   0.346 -1.8124  0.3039  1.8484
13108SOL     OW40764   3.261   3.814   0.835  0.2864  0.1687 -0.2755
13108SOL    HW140765   3.308   3.743   0.793 -0.9847  0.5076 -2.3858
13108SOL    HW240766   3.171   3.784   0.841 -0.0702  1.1904 -0.2261
13109SOL     OW40767   4.621   3.011  12.434 -0.9634 -0.2726 -0.0246
13109SOL    HW140768   4.581   3.064  12.365  0.0060  1.7838  0.8896
13109SOL    HW240769   4.551   2.997  12.498 -0.8744  1.3475  0.4794
13110SOL     OW40770   5.012   2.918   0.586 -0.1162 -0.1323  0.4016
13110SOL    HW140771   5.058   2.942   0.667  0.1307 -0.2067  0.2841
13110SOL    HW240772   5.013   2.998   0.534  1.7346 -0.6721 -0.4810
13111SOL     OW40773   5.024   1.717  12.153  0.4696 -0.0362 -0.1234
13111SOL    HW140774   4.943   1.735  12.201  0.4489  1.1544 -0.5670
13111SOL    HW240775   5.093   1.722  12.218  0.1879 -1.2211  0.2907
13112SOL     OW40776   4.200   2.847   1.270  0.2738 -0.0192  0.1247
13112SOL    HW140777   4.180   2.755   1.253 -1.4635  0.2994  0.2522
13112SOL    HW240778   4.199   2.854   1.366  1.0665  0.0041  0.1336
13113SOL     OW40779   4.443   2.019   1.952  0.1996  0.0133 -0.2880
13113SOL    HW140780   4.436   1.923   1.944  1.2152 -0.1579  0.6323
13113SOL    HW240781   4.445   2.050   1.861 -2.7333 -0.5785 -0.6523
13114SOL     OW40782   5.168   2.404   0.041 -0.0436 -0.2324  0.1256
13114SOL    HW140783   5.113   2.350   0.098  0.0504 -0.3534  0.1016
13114SOL    HW240784   5.210   2.466   0.101 -2.3906  1.7784 -0.1599
13115SOL     OW40785   3.043   2.074   0.742 -0.0426  0.3378 -0.2631
13115SOL    HW140786   2.977   2.143   0.754 -1.6698 -1.5009  2.3014
13115SOL    HW240787   3.110   2.094   0.807  0.0185  0.1170 -0.2571
13116SOL     OW40788   3.785   3.819   1.591 -0.2023  0.1513 -0.3834
13116SOL    HW140789   3.803   3.725   1.591  1.0775  0.3565  0.5780
13116SOL    HW240790   3.756   3.838   1.680 -1.2886  0.5369 -0.8110
13117SOL     OW40791   5.711   3.538   0.991  0.5672  0.0590 -0.8043
13117SOL    HW140792   5.725   3.554   0.897  2.4355 -1.0602 -0.7645
13117SOL    HW240793   5.752   3.453   1.007 -1.5289 -0.7388  0.6522
13118SOL     OW40794   3.666   3.569   1.801 -0.0157  0.0292  0.5441
13118SOL    HW140795   3.733   3.546   1.736  0.0831  0.4296  0.4978
13118SOL    HW240796   3.600   3.501   1.793  0.1821 -0.1356  0.2900
13119SOL     OW40797   5.064   3.007   0.879 -0.2560 -0.2177  0.0224
13119SOL    HW140798   5.052   3.102   0.881 -0.7092 -0.2626 -0.3052
13119SOL    HW240799   5.159   2.994   0.883 -0.1936  0.2505  0.0466
13120SOL     OW40800   4.304   2.225   1.405  0.2597 -0.3528 -0.1238
13120SOL    HW140801   4.377   2.287   1.412  1.1170 -1.2838 -0.6102
13120SOL    HW240802   4.337   2.156   1.347 -0.6994 -1.2269  0.3489
13121SOL     OW40803   5.302   3.172   0.483 -0.0136 -0.5006  0.0116
13121SOL    HW140804   5.322   3.079   0.485  1.0253 -0.2749  0.6793
13121SOL    HW240805   5.208   3.176   0.466 -0.3152 -1.6959  1.2272
13122SOL     OW40806   3.952   1.982   0.748  0.4625  0.1712  0.4270
13122SOL    HW140807   3.890   2.054   0.763 -1.1081 -0.8078 -0.8999
13122SOL    HW240808   3.917   1.909   0.799 -1.7375 -1.4926 -3.0290
13123SOL     OW40809   2.116   3.730   1.138 -0.0390  0.6072  0.4742
13123SOL    HW140810   2.180   3.786   1.094  0.9022 -0.3638  0.5461
13123SOL    HW240811   2.114   3.650   1.085  1.0075 -0.5245  2.0443
13124SOL     OW40812   5.067   4.085   0.446  0.6048 -0.6585  0.1476
13124SOL    HW140813   5.070   4.175   0.478  0.1094 -0.6015  0.0560
13124SOL    HW240814   5.125   4.084   0.370  0.4104 -0.3487 -0.0072
13125SOL     OW40815   4.610   2.876  10.355  0.4029 -0.5170 -0.0712
13125SOL    HW140816   4.666   2.806  10.388 -0.5992 -1.0888  0.4708
13125SOL    HW240817   4.526   2.833  10.336 -0.0186  0.4056 -0.3620
13126SOL     OW40818   3.391   3.230   0.041 -0.2355 -0.0326  0.3125
13126SOL    HW140819   3.337   3.280  -0.021 -1.4793 -0.2377  1.1666
13126SOL    HW240820   3.393   3.286   0.119  0.2525 -0.3321  0.5142
13127SOL     OW40821   3.515   2.661   0.644  0.4214 -0.1677 -0.3076
13127SOL    HW140822   3.535   2.574   0.609  0.4388 -0.1538 -0.3325
13127SOL    HW240823   3.520   2.651   0.739  0.6331 -0.1440 -0.3155
13128SOL     OW40824   5.468   3.579   1.118 -0.2003  0.7417 -0.1586
13128SOL    HW140825   5.526   3.635   1.066  0.7064 -1.1186 -1.2639
13128SOL    HW240826   5.526   3.521   1.166 -1.1066  0.4388  0.6113
13129SOL     OW40827   5.953   3.212   0.178 -0.0173 -0.0295  0.2948
13129SOL    HW140828   5.861   3.186   0.175 -0.0022 -0.6454  3.0022
13129SOL    HW240829   5.994   3.151   0.239  2.6123 -0.7944 -1.9714
13130SOL     OW40830   6.067   2.982   1.834 -0.0417 -0.0403 -0.3117
13130SOL    HW140831   6.075   3.071   1.800  0.7643  0.0018 -0.0410
13130SOL    HW240832   6.048   2.928   1.756 -1.3759  0.4670 -0.3540
13131SOL     OW40833   5.208   3.553   1.172 -0.0172  0.3976 -0.5116
13131SOL    HW140834   5.185   3.617   1.239 -0.9118  0.2835 -0.6927
13131SOL    HW240835   5.302   3.563   1.160 -0.4836  3.6556 -2.5583
13132SOL     OW40836   4.167   2.752   0.398 -0.6190  0.6113  0.7607
13132SOL    HW140837   4.190   2.758   0.306  2.4091  0.0302  1.3703
13132SOL    HW240838   4.159   2.844   0.427 -1.9208  0.7912 -0.0830
13133SOL     OW40839   3.053   3.245   1.097 -0.4395 -0.2559  0.0817
13133SOL    HW140840   2.978   3.275   1.148 -0.1657  1.0820 -0.2535
13133SOL    HW240841   3.109   3.201   1.161 -1.1167 -0.5377  0.4918
13134SOL     OW40842   5.861   4.577  12.474  0.4408 -0.2963 -0.2345
13134SOL    HW140843   5.813   4.550  12.395 -0.0648 -0.2581  0.0566
13134SOL    HW240844   5.920   4.646  12.443  0.1342 -0.1700 -0.5509
13135SOL     OW40845   6.193   4.342   2.424 -0.1884  0.1583  0.3555
13135SOL    HW140846   6.138   4.315   2.498  1.4032  1.0304  1.9349
13135SOL    HW240847   6.274   4.292   2.434  1.5804  3.0097  1.5273
13136SOL     OW40848   3.227   2.559   3.370 -0.6916 -0.1081  0.0436
13136SOL    HW140849   3.204   2.613   3.445  1.0429  0.1978  0.4015
13136SOL    HW240850   3.180   2.598   3.296  1.0215  2.3521  0.1557
13137SOL     OW40851   4.541   3.608   1.308  0.6287 -0.7384 -0.2174
13137SOL    HW140852   4.540   3.646   1.221  1.4679 -0.8294 -0.2749
13137SOL    HW240853   4.451   3.578   1.322  0.0778  0.7869 -0.3619
13138SOL     OW40854   6.096   3.741   0.817  0.8665  0.1755 -0.0526
13138SOL    HW140855   6.012   3.710   0.784 -0.3059  2.5850  0.4202
13138SOL    HW240856   6.157   3.727   0.745 -0.7278  1.5132 -1.7580
13139SOL     OW40857   4.279   2.382   0.345  0.5485  0.0668  0.2190
13139SOL    HW140858   4.338   2.439   0.297 -1.5390  1.9449 -0.2614
13139SOL    HW240859   4.207   2.365   0.284  0.0170 -1.2419  1.1639
13140SOL     OW40860   6.878   2.893  12.201 -0.2490  0.1974  0.4349
13140SOL    HW140861   6.920   2.936  12.126 -0.8584  0.9189  0.4983
13140SOL    HW240862   6.952   2.859  12.252  0.2083  0.3996 -0.0716
13141SOL     OW40863   2.467   1.535   1.549  0.2472 -0.3211  0.6238
13141SOL    HW140864   2.405   1.505   1.616 -0.5838  0.7299  0.3516
13141SOL    HW240865   2.547   1.555   1.599  0.5050 -1.9599  0.9372
13142SOL     OW40866   5.395   3.205   1.342  0.1066 -0.0412 -0.0060
13142SOL    HW140867   5.358   3.200   1.430 -1.2645 -0.0552 -0.5692
13142SOL    HW240868   5.360   3.286   1.305 -0.4135 -0.7093 -1.0116
13143SOL     OW40869   4.011   3.353   2.381 -0.0943 -0.0607  0.0762
13143SOL    HW140870   4.066   3.352   2.303 -0.4309 -2.5678 -0.1906
13143SOL    HW240871   4.031   3.437   2.422  2.3136  0.0631 -1.1331
13144SOL     OW40872   6.065   1.999   2.406 -0.1244 -0.0239  0.0686
13144SOL    HW140873   6.098   2.083   2.373 -0.4621  0.2726  0.4812
13144SOL    HW240874   5.970   2.003   2.391 -0.1312 -0.3717  0.0071
13145SOL     OW40875   4.725   2.838   0.622  0.0056 -0.5596 -0.0202
13145SOL    HW140876   4.804   2.818   0.571 -0.1028 -0.3811 -0.2612
13145SOL    HW240877   4.691   2.918   0.582  0.1271 -0.2037  0.5761
13146SOL     OW40878   2.372   3.947   0.445 -0.0517 -0.4346  0.0881
13146SOL    HW140879   2.391   3.897   0.524 -1.5396 -2.6094 -0.8183
13146SOL    HW240880   2.441   3.923   0.384  1.7809  2.1349  0.9467
13147SOL     OW40881   3.060   4.815   1.891  0.2633  0.0254 -0.0997
13147SOL    HW140882   3.052   4.724   1.920 -2.0718  1.0747  3.1340
13147SOL    HW240883   3.061   4.866   1.972 -1.8423  3.0891 -1.7920
13148SOL     OW40884   4.756   2.746   1.681 -0.0766  0.1760  0.7567
13148SOL    HW140885   4.776   2.814   1.617 -2.1421  0.5090  0.4028
13148SOL    HW240886   4.733   2.795   1.761  0.3098 -0.1781  1.0897
13149SOL     OW40887   3.984   3.209   1.290  0.2235  0.1020  0.8822
13149SOL    HW140888   4.038   3.222   1.212  0.4807 -0.2058  1.0036
13149SOL    HW240889   4.034   3.250   1.360 -0.0308  0.4215  0.8782
13150SOL     OW40890   6.773   4.185  12.398  0.1059  0.4214 -0.4369
13150SOL    HW140891   6.767   4.268  12.351 -0.7982  0.6012 -0.0240
13150SOL    HW240892   6.799   4.209  12.487 -0.3837  0.2836 -0.2550
13151SOL     OW40893   4.353   1.177   0.721  0.5695  0.7284 -0.3043
13151SOL    HW140894   4.404   1.121   0.780  0.3250  0.8194 -0.0041
13151SOL    HW240895   4.264   1.142   0.726  0.6690  0.3483 -1.0992
13152SOL     OW40896   4.873   1.951   2.049  0.2128 -0.6401  0.3892
13152SOL    HW140897   4.947   1.922   1.995  0.9477 -1.7777  1.9132
13152SOL    HW240898   4.845   2.033   2.010  1.4148 -0.8732 -1.0445
13153SOL     OW40899   2.829   3.175   2.537 -0.2857  0.3221 -0.6184
13153SOL    HW140900   2.756   3.199   2.480 -0.3547  1.1134 -0.2040
13153SOL    HW240901   2.888   3.250   2.535 -1.0295  1.0483  1.5503
13154SOL     OW40902   4.439   2.452   1.496  0.1972 -0.2178 -0.2351
13154SOL    HW140903   4.374   2.508   1.538  0.0327  0.4419 -1.3383
13154SOL    HW240904   4.512   2.511   1.477 -0.0413 -0.3178 -1.5480
13155SOL     OW40905   5.706   2.556   1.684  0.3311  0.4210 -0.4293
13155SOL    HW140906   5.625   2.506   1.670  0.1382  0.5419  0.1952
13155SOL    HW240907   5.729   2.537   1.775  1.2117  0.0945 -0.7149
13156SOL     OW40908   4.346   2.071   0.221  0.2480 -0.8628  0.1173
13156SOL    HW140909   4.345   2.128   0.144  0.6274  0.9698  1.3860
13156SOL    HW240910   4.425   2.097   0.268 -0.7545 -0.8475  1.8712
13157SOL     OW40911   5.166   1.652   1.393  0.0478 -0.3514 -0.2380
13157SOL    HW140912   5.169   1.586   1.323 -2.0777  0.8799 -1.6069
13157SOL    HW240913   5.157   1.601   1.473 -0.6221 -1.7508 -1.1564
13158SOL     OW40914   5.385   3.390   0.633  0.0180  0.5995 -0.1809
13158SOL    HW140915   5.300   3.434   0.621  1.1376  2.3555 -2.4470
13158SOL    HW240916   5.377   3.309   0.584 -0.5014  0.5170  0.0288
13159SOL     OW40917   4.173   2.370   0.608 -0.2549  0.4569  0.2693
13159SOL    HW140918   4.227   2.424   0.550  1.1015 -0.5038  0.5612
13159SOL    HW240919   4.221   2.369   0.691  0.7312 -2.4896 -0.2046
13160SOL     OW40920   3.950   1.407   1.082  0.0075  0.3473 -0.2279
13160SOL    HW140921   3.921   1.318   1.062  0.2462 -0.4873  2.6594
13160SOL    HW240922   3.870   1.460   1.081 -0.8011 -0.7240  1.7054
13161SOL     OW40923   6.513   3.128  11.944  0.3497  0.2516 -1.0485
13161SOL    HW140924   6.540   3.220  11.950  3.0729 -0.5203 -0.1242
13161SOL    HW240925   6.580   3.087  11.890  0.2861 -1.5605  0.1631
13162SOL     OW40926   4.394   3.557   2.425 -0.3319  0.0591  0.3670
13162SOL    HW140927   4.401   3.539   2.331  1.0282  0.8625  0.2780
13162SOL    HW240928   4.364   3.475   2.464  2.1387 -1.3054 -0.4096
13163SOL     OW40929   4.201   2.884   1.542 -0.1800  0.4081 -0.0184
13163SOL    HW140930   4.257   2.942   1.594 -1.5890  1.0858  0.7951
13163SOL    HW240931   4.227   2.796   1.568  3.1679  0.4745 -2.4824
13164SOL     OW40932   2.171   4.081   0.948  0.1238 -0.0780 -0.2444
13164SOL    HW140933   2.149   3.992   0.919  0.3628  0.3736 -1.9018
13164SOL    HW240934   2.183   4.073   1.042  0.3663 -1.8520 -0.3907
13165SOL     OW40935   3.546   3.482   1.499 -0.5352 -0.4258  0.2838
13165SOL    HW140936   3.639   3.477   1.475 -0.8607 -2.6151 -0.7819
13165SOL    HW240937   3.544   3.456   1.591  0.0400  1.3738  0.8501
13166SOL     OW40938   4.439   2.470  12.273 -0.3114 -0.6257  0.0473
13166SOL    HW140939   4.366   2.520  12.237  1.2047  1.7043  0.0067
13166SOL    HW240940   4.481   2.530  12.334  0.0322 -2.8277  2.1357
13167SOL     OW40941   3.167   0.544   2.029 -0.2203  0.1886 -0.2444
13167SOL    HW140942   3.240   0.492   1.995  1.7696  2.2761  0.5382
13167SOL    HW240943   3.095   0.483   2.036  1.0849 -1.7239 -2.2431
13168SOL     OW40944   4.598   1.761   0.533 -0.0331  0.1346  0.2373
13168SOL    HW140945   4.590   1.851   0.504  1.9208 -0.2409 -1.7858
13168SOL    HW240946   4.567   1.708   0.459 -1.1927 -0.8927  1.3974
13169SOL     OW40947   3.496   3.008   1.299 -0.2499  0.2045 -0.2718
13169SOL    HW140948   3.530   3.038   1.215  0.0418  1.1403  0.1709
13169SOL    HW240949   3.573   2.980   1.348 -0.1728  1.6076  0.4468
13170SOL     OW40950   6.204   4.214   0.092  0.1911 -0.4889  0.2461
13170SOL    HW140951   6.253   4.252   0.019  0.8457  0.1366  0.9964
13170SOL    HW240952   6.140   4.282   0.116 -2.5997 -2.0591 -2.0806
13171SOL     OW40953   5.111   3.280   0.842 -0.0052  0.0242 -0.0844
13171SOL    HW140954   5.030   3.303   0.796 -0.5019  0.2725  0.8861
13171SOL    HW240955   5.158   3.363   0.851 -0.6191  0.2506  1.1813
13172SOL     OW40956   4.378   3.336   1.130  0.2782 -0.7853 -0.0433
13172SOL    HW140957   4.454   3.379   1.091  0.1554 -1.5600 -1.1595
13172SOL    HW240958   4.394   3.341   1.224  0.2202  1.7922 -0.0989
13173SOL     OW40959   5.071   2.985  12.249 -0.1764  0.2904  0.2392
13173SOL    HW140960   4.989   2.951  12.285  0.0754  0.3956  0.9235
13173SOL    HW240961   5.044   3.049  12.184 -0.6421  1.1351  1.2361
13174SOL     OW40962   5.718   3.175  12.308  0.0578 -0.3097  0.8294
13174SOL    HW140963   5.699   3.086  12.277 -0.3647 -0.1115  0.5001
13174SOL    HW240964   5.643   3.197  12.364  0.3240 -0.2879  1.1748
13175SOL     OW40965   4.407   1.974   1.335 -0.2546 -0.4174  0.3414
13175SOL    HW140966   4.422   1.997   1.243  0.6396 -2.0205  0.0399
13175SOL    HW240967   4.336   1.910   1.331 -0.6608 -0.0021  0.8450
13176SOL     OW40968   4.346   0.620   0.961 -0.5746  0.6547  0.2739
13176SOL    HW140969   4.299   0.680   1.019 -1.4786  0.5750 -0.3616
13176SOL    HW240970   4.331   0.655   0.873 -0.5632 -0.1382 -0.0525
13177SOL     OW40971   3.669   2.299   2.608  0.0486  0.2239 -0.1843
13177SOL    HW140972   3.729   2.371   2.629 -1.1236  1.4796 -0.9560
13177SOL    HW240973   3.642   2.316   2.518 -0.8852 -0.7267 -0.1071
13178SOL     OW40974   4.421   5.660   0.446 -0.0637  0.4476  0.3951
13178SOL    HW140975   4.409   5.582   0.392 -0.3267  0.2722  0.7053
13178SOL    HW240976   4.464   5.723   0.388  0.5607 -0.0837  0.2796
13179SOL     OW40977   6.174   4.031   0.614  0.1325 -0.0483 -0.4689
13179SOL    HW140978   6.094   4.047   0.664  0.6682 -1.8118  1.0917
13179SOL    HW240979   6.146   4.030   0.523 -1.2455  1.3724 -0.1047
13180SOL     OW40980   5.583   1.877  11.593  0.0299 -1.2501 -0.0400
13180SOL    HW140981   5.564   1.910  11.506 -1.1466 -1.0230  0.2857
13180SOL    HW240982   5.669   1.913  11.614 -0.2505 -0.2291 -0.5898
13181SOL     OW40983   2.734   2.846   1.491 -0.3992  0.2795 -0.1531
13181SOL    HW140984   2.687   2.810   1.416 -0.9295 -0.2881  0.4301
13181SOL    HW240985   2.681   2.921   1.518  0.4936  1.2797 -1.1284
13182SOL     OW40986   6.189   1.509   2.500  0.1944  0.0447 -0.4442
13182SOL    HW140987   6.213   1.599   2.476 -2.0773  0.8366 -0.0985
13182SOL    HW240988   6.239   1.492   2.580  1.1685  0.7535 -0.8864
13183SOL     OW40989   4.587   2.619   0.821  0.6397  0.4362  0.4232
13183SOL    HW140990   4.568   2.618   0.915 -0.2207  1.1301  0.2833
13183SOL    HW240991   4.636   2.539   0.804  0.2581 -0.0063  1.3607
13184SOL     OW40992   3.517   2.307   1.295  0.2991  0.1687 -0.2848
13184SOL    HW140993   3.505   2.393   1.335  1.2700  0.8378 -1.3741
13184SOL    HW240994   3.487   2.317   1.205 -1.0563 -1.0913 -0.0267
13185SOL     OW40995   4.530   3.213   2.001 -0.1885  0.0558 -0.8555
13185SOL    HW140996   4.558   3.126   2.029  1.3577 -0.3247 -3.3030
13185SOL    HW240997   4.609   3.267   2.008 -1.0951  1.2845  0.5075
13186SOL     OW40998   3.614   1.885   1.146  0.1963  0.2432 -0.1827
13186SOL    HW140999   3.647   1.967   1.180 -0.3522  0.2544  0.3504
13186SOL    HW241000   3.567   1.845   1.220  1.4576 -1.1091 -0.0605
13187SOL     OW41001   5.820   3.304   1.007  0.3534 -0.0230  0.5516
13187SOL    HW141002   5.895   3.251   1.033  0.2787 -0.3979  0.0011
13187SOL    HW241003   5.747   3.268   1.057  0.5323  0.3588  1.1078
13188SOL     OW41004   3.834   2.614   0.953  0.2860  0.3134  0.9905
13188SOL    HW141005   3.739   2.613   0.941  0.3441  1.7958  0.0852
13188SOL    HW241006   3.850   2.692   1.006  1.2007  2.0148 -1.5807
13189SOL     OW41007   5.164   3.934   0.667 -0.3011  0.5022  0.0247
13189SOL    HW141008   5.247   3.981   0.678  1.2487 -1.3877 -2.4506
13189SOL    HW241009   5.105   3.999   0.630  1.0385  1.1575 -1.0539
13190SOL     OW41010   5.013   1.697   0.828  0.0202  0.2410  0.0352
13190SOL    HW141011   5.096   1.722   0.869 -0.9797  2.9076  0.6650
13190SOL    HW241012   4.993   1.768   0.768 -0.7188 -1.5015 -1.9168
13191SOL     OW41013   5.576   3.388  12.452 -0.9315 -0.0110 -0.2184
13191SOL    HW141014   5.669   3.393  12.473 -0.6630 -1.3942 -0.9228
13191SOL    HW241015   5.570   3.418  12.361 -1.3423  1.0894  0.1582
13192SOL     OW41016   4.986   2.483   3.013 -0.0094 -0.4102  0.3032
13192SOL    HW141017   4.977   2.442   2.927  0.7084  0.2290 -0.0917
13192SOL    HW241018   5.056   2.547   3.002 -1.2985  1.1577  0.8204
13193SOL     OW41019   4.130   3.319   1.499 -0.1849 -0.0623  0.3655
13193SOL    HW141020   4.218   3.334   1.533  0.2368 -1.3160 -0.1324
13193SOL    HW241021   4.090   3.407   1.497  1.4666  0.7088 -0.5866
13194SOL     OW41022   4.754   4.630   1.981 -0.2394 -0.2376 -0.0624
13194SOL    HW141023   4.762   4.570   1.908  3.0588  0.4000 -0.4088
13194SOL    HW241024   4.730   4.575   2.056  1.7505 -1.9087 -0.5639
13195SOL     OW41025   5.109   2.136  12.234 -0.6401  0.3057 -0.2740
13195SOL    HW141026   5.054   2.057  12.237  2.6679 -2.1750  1.5984
13195SOL    HW241027   5.143   2.138  12.145 -1.0187 -0.1579 -0.4367
13196SOL     OW41028   4.804   1.928   1.719 -0.0091  0.0864 -0.1210
13196SOL    HW141029   4.728   1.980   1.746 -0.2472 -0.0578 -0.5079
13196SOL    HW241030   4.819   1.954   1.628 -0.1742 -0.5726 -0.3381
13197SOL     OW41031   4.887   2.697   3.456 -0.1350  0.3056  0.1354
13197SOL    HW141032   4.963   2.682   3.401 -0.4520  0.0120 -0.2327
13197SOL    HW241033   4.880   2.792   3.463 -0.1951  0.3528 -0.4841
13198SOL     OW41034   3.492   2.329  11.006  0.2031 -0.2933 -0.4199
13198SOL    HW141035   3.481   2.359  11.097 -0.1551 -0.6862 -0.3340
13198SOL    HW241036   3.555   2.391  10.969  0.6325 -0.3427  0.2036
13199SOL     OW41037   4.071   3.972   0.419  0.0824  0.5937 -0.5932
13199SOL    HW141038   3.984   4.008   0.402 -0.8145 -1.4659 -0.6330
13199SOL    HW241039   4.084   3.982   0.513 -0.8209 -0.3282 -0.3529
13200SOL     OW41040   2.485   2.499   1.703 -0.2393  0.2604 -0.4546
13200SOL    HW141041   2.527   2.475   1.621  0.7827 -0.7733  0.3382
13200SOL    HW241042   2.465   2.592   1.695  0.5638  0.3455 -1.5591
13201SOL     OW41043   3.379   3.264   1.475  0.0521 -0.0791 -0.2304
13201SOL    HW141044   3.449   3.241   1.414  0.6496  0.8136  0.0999
13201SOL    HW241045   3.397   3.355   1.499 -1.6932  0.4387 -0.7633
13202SOL     OW41046   4.263   4.015  11.686  0.0861  0.0441  0.9285
13202SOL    HW141047   4.328   3.991  11.752  0.9549  0.3461  0.1989
13202SOL    HW241048   4.290   4.102  11.657 -0.5926  0.1299  0.5434
13203SOL     OW41049   3.212   2.146   0.490  0.1098 -0.1415  0.4277
13203SOL    HW141050   3.263   2.195   0.554  1.7940  1.4172 -1.9588
13203SOL    HW241051   3.146   2.208   0.458  1.0038  0.0042 -1.2183
13204SOL     OW41052   6.534   4.029   0.355 -0.1714 -0.2291  0.4995
13204SOL    HW141053   6.558   4.063   0.269 -1.6479  0.0054  0.1630
13204SOL    HW241054   6.574   3.942   0.358 -2.2683 -1.3704 -1.5254
13205SOL     OW41055   4.973   2.694   2.207 -0.3159  0.0854 -0.2679
13205SOL    HW141056   5.031   2.766   2.229  0.9466 -1.3479  1.4155
13205SOL    HW241057   5.028   2.632   2.159 -0.9252 -0.4647 -0.2763
13206SOL     OW41058   3.645   2.789   0.437 -0.7941  0.0645 -0.1267
13206SOL    HW141059   3.728   2.741   0.429  0.4538  1.9306  1.0088
13206SOL    HW241060   3.608   2.758   0.520 -1.2287 -0.7083 -0.5939
13207SOL     OW41061   2.940   3.395   1.650 -0.0558  0.5842  0.2323
13207SOL    HW141062   2.870   3.453   1.623 -0.0550  0.4179 -0.1260
13207SOL    HW241063   2.895   3.318   1.685 -0.0577  0.0730 -0.8625
13208SOL     OW41064   5.820   2.101   2.844 -0.5442 -0.2314 -0.1981
13208SOL    HW141065   5.787   2.038   2.781 -0.4778  0.2321 -0.7056
13208SOL    HW241066   5.742   2.140   2.883 -0.5862 -0.0959 -0.4200
13209SOL     OW41067   3.008   2.900   1.256 -0.6665  0.0372 -0.4244
13209SOL    HW141068   3.099   2.877   1.274 -0.8434 -0.8172 -0.5918
13209SOL    HW241069   2.972   2.923   1.342 -0.2643  0.4781 -0.3762
13210SOL     OW41070   4.290   2.842   2.249  0.3324  0.0961  0.5715
13210SOL    HW141071   4.285   2.802   2.336 -0.0786  0.7008  0.8340
13210SOL    HW241072   4.292   2.936   2.266  0.6047  0.2074 -0.0631
13211SOL     OW41073   4.441   3.943   0.943 -0.3670  0.3073  0.0389
13211SOL    HW141074   4.346   3.941   0.936 -0.4434  2.8941 -1.0264
13211SOL    HW241075   4.468   4.007   0.877  2.0770 -0.1179  0.5418
13212SOL     OW41076   6.146   2.365   1.385 -0.1261  0.3343 -0.5117
13212SOL    HW141077   6.207   2.403   1.321 -0.3370 -0.4999 -1.2301
13212SOL    HW241078   6.151   2.423   1.460  0.7270  0.9012 -0.9876
13213SOL     OW41079   5.599   1.475   0.457  0.3984  0.3123  0.3764
13213SOL    HW141080   5.517   1.465   0.504  0.7470  0.4299  1.0099
13213SOL    HW241081   5.573   1.499   0.368 -0.4523 -3.1714 -0.5039
13214SOL     OW41082   2.940   2.311   0.812 -0.0127  0.8483 -0.1112
13214SOL    HW141083   3.007   2.377   0.830 -1.3727  2.5177 -0.9189
13214SOL    HW241084   2.910   2.283   0.899  0.6543  1.2130  0.2419
13215SOL     OW41085   3.309   2.799   2.203 -0.2715 -0.1785 -0.8563
13215SOL    HW141086   3.314   2.811   2.109 -1.1780 -0.0725 -0.8986
13215SOL    HW241087   3.394   2.830   2.236 -0.2546  0.5389 -1.5546
13216SOL     OW41088   2.593   2.681  12.408 -0.7632  0.0517  0.1686
13216SOL    HW141089   2.520   2.623  12.432  0.4703 -2.1183 -0.9481
13216SOL    HW241090   2.670   2.639  12.446  0.2131  0.8417 -0.8682
13217SOL     OW41091   3.326   3.000   1.599  0.1679  0.4408 -0.2415
13217SOL    HW141092   3.313   3.060   1.526  1.6314  1.2726  0.1379
13217SOL    HW241093   3.330   3.057   1.676 -1.9212 -0.4544  0.6168
13218SOL     OW41094   4.902   2.855  11.509  0.0207 -0.1214  0.8026
13218SOL    HW141095   4.813   2.856  11.545 -0.2400 -0.4433  0.1799
13218SOL    HW241096   4.898   2.916  11.435  0.5971  0.6702  1.4055
13219SOL     OW41097   4.136   2.910   1.013 -0.4408 -0.1790 -0.2310
13219SOL    HW141098   4.126   3.004   0.997  1.5811 -0.0896 -1.3870
13219SOL    HW241099   4.159   2.904   1.105 -1.2805  0.3898  0.0254
13220SOL     OW41100   3.368   3.790   1.156 -0.2773  0.0131  0.8453
13220SOL    HW141101   3.276   3.765   1.152 -0.5179  0.9175  0.6096
13220SOL    HW241102   3.377   3.860   1.092  0.6862 -0.3994  0.5043
13221SOL     OW41103   4.608   3.571   0.869 -0.5613  0.3475  0.3534
13221SOL    HW141104   4.666   3.495   0.868 -2.3931 -1.1336  0.1286
13221SOL    HW241105   4.522   3.536   0.844 -1.2965  2.6635 -0.6356
13222SOL     OW41106   6.411   3.672   1.170  0.7119 -0.1590 -0.2918
13222SOL    HW141107   6.351   3.678   1.245  2.6865  0.9225  1.3034
13222SOL    HW241108   6.359   3.631   1.101 -1.1165 -1.5624  1.7688
13223SOL     OW41109   4.044   3.260   1.969  0.5747 -0.0231 -0.0572
13223SOL    HW141110   4.124   3.239   1.921 -0.0825 -0.5596 -0.9515
13223SOL    HW241111   3.983   3.190   1.945 -0.2699  0.5560  0.3547
13224SOL     OW41112   5.391   1.557  12.312  0.2185 -0.1904  0.1570
13224SOL    HW141113   5.352   1.471  12.326 -0.9865  0.4420  0.8053
13224SOL    HW241114   5.485   1.543  12.326 -0.0132 -1.2946  0.7163
13225SOL     OW41115   4.755   1.233   0.997 -0.0492  0.1284  0.2266
13225SOL    HW141116   4.838   1.210   1.039 -0.0296 -1.1415 -0.4514
13225SOL    HW241117   4.689   1.184   1.046 -0.6860  2.4869  1.9014
13226SOL     OW41118   5.191   1.204   1.351 -0.1442  0.8265 -0.0633
13226SOL    HW141119   5.144   1.238   1.428  1.4390  1.7233  0.5484
13226SOL    HW241120   5.145   1.122   1.330 -0.7272  0.6371  1.7258
13227SOL     OW41121   2.747   2.058   0.257 -0.3077 -0.0158  0.4355
13227SOL    HW141122   2.725   2.150   0.271 -0.4497 -0.2765  2.1553
13227SOL    HW241123   2.765   2.051   0.163 -1.0868  1.5836  0.1407
13228SOL     OW41124   3.675   3.590   0.879  0.5560  0.5059 -0.1948
13228SOL    HW141125   3.724   3.508   0.875  0.4196  0.4663 -1.3220
13228SOL    HW241126   3.652   3.599   0.972  0.6029 -0.7068 -0.0429
13229SOL     OW41127   3.523   2.107   0.932 -0.5250 -0.2939 -0.2904
13229SOL    HW141128   3.494   2.187   0.976  2.3032  0.0176  1.2203
13229SOL    HW241129   3.520   2.040   1.001 -0.5989 -0.9306 -0.9071
13230SOL     OW41130   4.285   1.719   2.115 -0.2534 -0.1869  0.1585
13230SOL    HW141131   4.309   1.701   2.206 -1.9010  0.4125  0.7457
13230SOL    HW241132   4.223   1.791   2.120 -0.4464 -0.2024 -1.4482
13231SOL     OW41133   3.925   5.519   1.340  0.4708 -0.2291  0.1142
13231SOL    HW141134   3.981   5.443   1.326 -1.1175 -1.4361  0.1433
13231SOL    HW241135   3.868   5.522   1.263  1.3374  1.7193 -0.5221
13232SOL     OW41136   4.652   3.435  12.385  0.6812  0.3971 -0.1422
13232SOL    HW141137   4.723   3.430  12.449 -1.1127  0.4142  1.9952
13232SOL    HW241138   4.604   3.514  12.409 -1.9780 -1.3195  0.7619
13233SOL     OW41139   4.109   3.668   1.496  0.2169  0.2015  1.1680
13233SOL    HW141140   4.031   3.614   1.499  0.7624 -0.7841 -0.8413
13233SOL    HW241141   4.078   3.757   1.517 -1.1374 -0.4181  1.8955
13234SOL     OW41142   5.449   4.542  12.421 -0.2164 -0.0802 -0.0115
13234SOL    HW141143   5.381   4.609  12.424 -1.6899 -1.4406 -1.1260
13234SOL    HW241144   5.418   4.474  12.481 -2.0259 -2.5326 -3.3930
13235SOL     OW41145   3.329   2.207   1.570  0.2872  0.0093  0.0936
13235SOL    HW141146   3.259   2.268   1.594 -0.2542 -0.0680 -1.2143
13235SOL    HW241147   3.346   2.226   1.478  0.9028 -1.0510 -0.0161
13236SOL     OW41148   4.854   3.209  12.060 -0.4894  0.6200 -0.4147
13236SOL    HW141149   4.794   3.219  12.134 -0.5313  0.5443 -0.4379
13236SOL    HW241150   4.798   3.180  11.988 -0.6664  1.9490 -0.8328
13237SOL     OW41151   4.982   2.622   1.229 -0.2025 -0.4654  0.3515
13237SOL    HW141152   4.921   2.552   1.208  0.1279 -0.3451 -1.1380
13237SOL    HW241153   4.951   2.697   1.178  0.9544 -0.3056 -0.1584
13238SOL     OW41154   3.726   2.425   1.865  0.1009 -0.0323 -0.0854
13238SOL    HW141155   3.795   2.359   1.866  1.1063  0.9675  1.6791
13238SOL    HW241156   3.646   2.377   1.841  1.1651 -1.4438 -0.9431
13239SOL     OW41157   6.442   3.308  11.221 -0.1773  0.2776 -0.2622
13239SOL    HW141158   6.518   3.336  11.271 -0.3689  2.0102 -0.8982
13239SOL    HW241159   6.462   3.217  11.197  1.3040  0.4270  0.2813
13240SOL     OW41160   0.868   3.593   2.494  0.4753 -0.7895 -0.5149
13240SOL    HW141161   0.855   3.654   2.421 -0.9993 -1.0964 -0.5279
13240SOL    HW241162   0.839   3.641   2.571  2.1122 -0.4339 -0.0765
13241SOL     OW41163   2.762   4.387   1.388  0.4345 -0.0894 -0.0363
13241SOL    HW141164   2.778   4.351   1.475 -1.8015  0.0141  0.4782
13241SOL    HW241165   2.763   4.310   1.330  0.1991 -0.4076  0.3700
13242SOL     OW41166   4.794   2.479   0.301 -0.1572  0.0450  0.4700
13242SOL    HW141167   4.838   2.496   0.384  0.6125 -1.0551  0.3186
13242SOL    HW241168   4.858   2.429   0.250 -1.8655 -2.4653  0.6005
13243SOL     OW41169   5.535   3.547   1.438 -0.0827  0.2460  0.5231
13243SOL    HW141170   5.513   3.640   1.447  1.1670  0.5478  0.6148
13243SOL    HW241171   5.623   3.546   1.402 -0.8902 -0.9410 -1.6102
13244SOL     OW41172   5.754   2.255   0.684 -0.0004  0.5910 -0.0607
13244SOL    HW141173   5.757   2.345   0.716  1.0474  0.5326  0.0643
13244SOL    HW241174   5.690   2.256   0.613 -1.3585  1.0189  1.1389
13245SOL     OW41175   5.241   2.993  12.453  0.0437  0.7524  0.4628
13245SOL    HW141176   5.187   2.974  12.530 -0.4931 -0.3460 -0.1727
13245SOL    HW241177   5.178   3.013  12.384  0.4984  0.9125  0.0900
13246SOL     OW41178   3.041   3.796   0.527  0.0897 -0.0821  0.1387
13246SOL    HW141179   3.053   3.885   0.560 -0.3577 -0.4186  1.2388
13246SOL    HW241180   2.950   3.776   0.546  0.0481 -0.5896 -0.5779
13247SOL     OW41181   5.831   2.229  12.008 -0.1187 -0.8565 -0.0434
13247SOL    HW141182   5.792   2.224  11.920 -0.1456  0.3754 -0.1073
13247SOL    HW241183   5.760   2.205  12.067 -0.5444 -0.1694 -0.2665
13248SOL     OW41184   4.859   2.248   1.407  0.1761  0.3489  0.1443
13248SOL    HW141185   4.823   2.163   1.380 -1.9602  1.0430  0.5896
13248SOL    HW241186   4.832   2.308   1.337 -2.5558  1.5217  2.0216
13249SOL     OW41187   6.449   2.649  12.216  0.4019  0.5200 -0.0295
13249SOL    HW141188   6.510   2.691  12.155  0.0662 -2.1180 -2.3268
13249SOL    HW241189   6.496   2.572  12.247 -0.4004  0.4805  1.1323
13250SOL     OW41190   3.798   3.212   1.608  0.7372  0.0493  0.0885
13250SOL    HW141191   3.826   3.302   1.592  3.0315 -0.5249  0.5772
13250SOL    HW241192   3.833   3.162   1.535 -0.0125 -0.5509  0.1260
13251SOL     OW41193   4.748   1.817   0.751  0.1994 -0.4887 -0.0590
13251SOL    HW141194   4.720   1.792   0.664  0.8694  1.0508 -0.7595
13251SOL    HW241195   4.800   1.897   0.738  0.8604 -0.5816  1.6702
13252SOL     OW41196   3.708   3.261   1.198 -0.4464  0.0009  0.1021
13252SOL    HW141197   3.796   3.266   1.237 -0.7671  2.9732  0.7030
13252SOL    HW241198   3.695   3.347   1.157 -2.7626 -0.6656 -0.7225
13253SOL     OW41199   5.039   3.953   0.946 -0.0953 -0.1459  0.3463
13253SOL    HW141200   5.000   4.023   0.893  0.2807 -0.8845 -0.9615
13253SOL    HW241201   5.113   3.995   0.990 -0.2106  0.4062  0.0278
13254SOL     OW41202   4.662   1.704   1.129 -0.3653 -0.4673 -0.2076
13254SOL    HW141203   4.579   1.656   1.134 -0.1472 -0.8665 -0.3055
13254SOL    HW241204   4.707   1.683   1.211 -0.2010 -0.5580 -0.3200
13255SOL     OW41205   4.610   3.246   0.121  0.2326  0.4235 -0.8672
13255SOL    HW141206   4.552   3.288   0.184  0.3580 -0.7532  0.0584
13255SOL    HW241207   4.577   3.275   0.035 -0.7750  0.9628 -0.3131
13256SOL     OW41208   2.647   3.722   1.278 -0.2412  0.2084  0.3213
13256SOL    HW141209   2.603   3.764   1.203  2.5229  2.6138 -0.1482
13256SOL    HW241210   2.645   3.789   1.346  0.3712 -0.6239  1.1749
13257SOL     OW41211   7.490   3.335  11.601 -0.1076 -0.2404 -0.5236
13257SOL    HW141212   7.531   3.322  11.686 -1.6639 -0.0782  0.2911
13257SOL    HW241213   7.475   3.430  11.596 -0.5572 -0.3205 -0.7197
13258SOL     OW41214   5.201   3.638  12.427 -0.3328  0.8038  0.2890
13258SOL    HW141215   5.259   3.612  12.498 -0.9062 -1.2022  0.0934
13258SOL    HW241216   5.113   3.614  12.457 -0.9739  2.7717  0.1249
13259SOL     OW41217   4.395   2.916   0.666 -0.0793 -0.4721 -0.2291
13259SOL    HW141218   4.300   2.909   0.662 -0.0597 -1.6501  0.7034
13259SOL    HW241219   4.412   3.010   0.658 -1.4533 -0.0238  1.3405
13260SOL     OW41220   5.028   4.852   1.207 -0.7007 -0.3110 -0.4971
13260SOL    HW141221   5.074   4.928   1.172 -0.3602 -0.9669 -1.5444
13260SOL    HW241222   4.946   4.848   1.157 -1.6610  0.5210  0.9636
13261SOL     OW41223   4.517   2.766   0.373 -0.4342  0.0878 -0.3470
13261SOL    HW141224   4.526   2.726   0.287 -0.5439 -0.7918  0.0324
13261SOL    HW241225   4.471   2.848   0.357  1.0256  0.7652 -1.3187
13262SOL     OW41226   3.840   2.769   0.727  0.2236  0.5161  0.4130
13262SOL    HW141227   3.838   2.714   0.648  1.5188  0.4833  0.3873
13262SOL    HW241228   3.844   2.707   0.800 -0.9220  0.5482  0.5247
13263SOL     OW41229   4.927   3.504   0.454  0.0517  0.3297 -0.0945
13263SOL    HW141230   4.834   3.489   0.471 -0.4594  2.3188 -0.8437
13263SOL    HW241231   4.963   3.416   0.439 -2.4907 -0.3426 -3.6217
13264SOL     OW41232   1.619   0.919   0.851  0.0192 -0.4321  0.8670
13264SOL    HW141233   1.643   0.872   0.772  1.2461  1.0238  0.3086
13264SOL    HW241234   1.635   0.857   0.922  0.6976 -1.1617  0.1045
13265SOL     OW41235   4.649   1.148  12.480 -0.1805 -0.0226 -0.1298
13265SOL    HW141236   4.574   1.106  12.522  0.4843 -0.8444  0.2715
13265SOL    HW241237   4.656   1.105  12.395 -0.9303  0.9546 -0.7016
13266SOL     OW41238   3.487   2.146   2.225 -0.2412 -0.9670  0.0158
13266SOL    HW141239   3.466   2.055   2.247  1.8845 -0.9942  2.2924
13266SOL    HW241240   3.572   2.141   2.181 -0.9316 -0.1694 -1.5005
13267SOL     OW41241   4.164   1.864   1.346 -0.1410 -0.3085  0.8668
13267SOL    HW141242   4.176   1.843   1.439 -0.0531 -0.3005  0.8575
13267SOL    HW241243   4.071   1.883   1.338 -0.1500 -0.3138  0.9526
13268SOL     OW41244   3.317   3.587   2.427  0.3589  0.0235 -0.2577
13268SOL    HW141245   3.317   3.543   2.511  0.7160 -1.8350 -1.1788
13268SOL    HW241246   3.352   3.522   2.365  1.8819  1.9325 -1.5390
13269SOL     OW41247   2.622   1.594   1.153  0.1921  0.3486 -0.7128
13269SOL    HW141248   2.628   1.506   1.189  1.7360 -0.0739 -1.8847
13269SOL    HW241249   2.573   1.583   1.071 -1.1074  0.8863 -0.0344
13270SOL     OW41250   7.440   2.698   0.405  0.2186 -0.1819  0.2061
13270SOL    HW141251   7.386   2.776   0.417  0.2185  0.0031 -0.8348
13270SOL    HW241252   7.407   2.659   0.324  2.1674  0.3917 -0.9312
13271SOL     OW41253   1.933   2.657   1.619  0.0565 -0.0598 -0.4977
13271SOL    HW141254   1.906   2.748   1.612 -1.6511 -0.5182 -0.3848
13271SOL    HW241255   1.945   2.642   1.713 -0.2169 -0.1032 -0.4701
13272SOL     OW41256   5.260   3.759   0.489  0.5187  0.1619  0.4292
13272SOL    HW141257   5.233   3.837   0.536  0.8444  0.7082 -0.2649
13272SOL    HW241258   5.325   3.790   0.426 -0.3177 -0.4483 -0.7714
13273SOL     OW41259   5.673   0.721   2.049 -0.1175 -0.2542 -0.2062
13273SOL    HW141260   5.726   0.772   2.109  1.7104 -0.2974 -1.7000
13273SOL    HW241261   5.583   0.741   2.074  0.3839 -2.4355  4.3523
13274SOL     OW41262   4.841   4.504   1.747 -0.4591  0.5160  0.2197
13274SOL    HW141263   4.814   4.496   1.656  1.4302 -1.1710 -0.2601
13274SOL    HW241264   4.915   4.565   1.745 -1.9660  2.5054  1.0529
13275SOL     OW41265   4.169   4.270   1.765 -0.1320 -0.0944 -0.0847
13275SOL    HW141266   4.075   4.277   1.777 -0.2124 -0.7657 -0.2787
13275SOL    HW241267   4.192   4.341   1.706 -0.1095  1.7518  1.9945
13276SOL     OW41268   5.086   2.294   1.038 -0.2938 -0.6646  0.2257
13276SOL    HW141269   5.002   2.338   1.041 -0.0844  0.0037 -2.1639
13276SOL    HW241270   5.066   2.206   1.004  0.0120 -0.3272 -0.8555
13277SOL     OW41271   3.328   1.248   1.671  0.1044  0.4033  0.1859
13277SOL    HW141272   3.369   1.162   1.661 -0.1581  0.2816  0.1311
13277SOL    HW241273   3.376   1.305   1.610 -0.4306  0.0401 -0.6029
13278SOL     OW41274   5.925   1.782   1.204 -0.4842  0.0846 -0.0631
13278SOL    HW141275   5.845   1.766   1.253  0.3631 -0.8671  1.0733
13278SOL    HW241276   5.988   1.811   1.269  0.3225  0.0466 -0.7984
13279SOL     OW41277   5.923   1.499   1.147  0.7097  0.0265 -1.0128
13279SOL    HW141278   5.938   1.591   1.168 -0.9284  0.0830  0.0085
13279SOL    HW241279   5.885   1.461   1.226  1.0310 -1.4612 -1.5316
13280SOL     OW41280   5.259   2.494   1.168 -0.7069 -0.7183 -0.1848
13280SOL    HW141281   5.223   2.412   1.133  0.6875 -1.3908 -0.1227
13280SOL    HW241282   5.350   2.494   1.140 -0.2435  0.0038  1.2369
13281SOL     OW41283   7.254   3.104   0.722  0.0991  0.3327 -0.3742
13281SOL    HW141284   7.324   3.092   0.657 -0.8356  0.1879 -1.3717
13281SOL    HW241285   7.197   3.170   0.684 -0.2351  0.5629  0.5087
13282SOL     OW41286   4.893   3.347   0.197 -0.1038  0.1147  0.4771
13282SOL    HW141287   4.922   3.300   0.275 -0.7385 -1.2833 -0.0998
13282SOL    HW241288   4.816   3.396   0.225  0.4180  0.6422  1.0216
13283SOL     OW41289   4.353   1.931   0.560  0.3967  0.2488  0.0211
13283SOL    HW141290   4.442   1.964   0.545 -0.2685  2.4191  0.4600
13283SOL    HW241291   4.356   1.840   0.532  2.8459  0.1563  0.3365
13284SOL     OW41292   5.147   3.334  11.234 -0.1634 -0.0437  0.9017
13284SOL    HW141293   5.196   3.341  11.316  1.6007  1.1131 -0.1757
13284SOL    HW241294   5.160   3.243  11.206 -0.7641 -0.4419  1.8670
13285SOL     OW41295   7.019   2.897   0.867 -0.2085 -0.1321  0.2004
13285SOL    HW141296   6.982   2.984   0.876  0.1939  0.3886 -2.3515
13285SOL    HW241297   7.112   2.908   0.885  0.0639  0.2853 -1.2691
13286SOL     OW41298   4.712   4.627   1.176  0.2848  0.3749 -0.0032
13286SOL    HW141299   4.731   4.676   1.096  0.5859  1.2661  0.5817
13286SOL    HW241300   4.765   4.548   1.169 -0.6793 -0.1894 -1.2540
13287SOL     OW41301   3.173   2.500   0.083 -0.3581  0.0681  0.4193
13287SOL    HW141302   3.088   2.521   0.044 -0.4731 -0.5802  0.3016
13287SOL    HW241303   3.199   2.419   0.039  0.7323  0.7216 -0.1763
13288SOL     OW41304   4.778   2.432   0.828  0.3828 -0.0548  0.1753
13288SOL    HW141305   4.818   2.433   0.915  1.1786 -0.6880 -0.1702
13288SOL    HW241306   4.806   2.349   0.790 -0.3622 -0.0019 -0.5051
13289SOL     OW41307   6.370   3.811   2.258  0.5324  0.1727  0.0823
13289SOL    HW141308   6.455   3.790   2.297 -0.0994  0.1837  1.5199
13289SOL    HW241309   6.390   3.876   2.191  1.9498 -1.5351 -1.2685
13290SOL     OW41310   2.040   2.219   1.012  0.0085 -0.0395  0.1006
13290SOL    HW141311   2.086   2.186   0.935 -0.2170  0.6295 -0.3326
13290SOL    HW241312   2.076   2.169   1.086  1.9789  0.9864 -0.1147
13291SOL     OW41313   5.450   2.455   0.483  0.2782 -0.2209  0.5835
13291SOL    HW141314   5.511   2.397   0.438 -0.4917 -1.1241  0.6720
13291SOL    HW241315   5.499   2.536   0.496 -0.0161  0.9346 -3.7112
13292SOL     OW41316   4.537   4.182   0.567  0.1420 -0.1179 -0.0321
13292SOL    HW141317   4.462   4.151   0.617 -2.5147  0.7000 -3.2088
13292SOL    HW241318   4.559   4.109   0.509 -1.2096  1.1513 -2.2361
13293SOL     OW41319   6.801   3.902   0.091 -0.2988 -0.2376 -0.0283
13293SOL    HW141320   6.783   3.909  -0.003 -2.6688  0.7392  0.4179
13293SOL    HW241321   6.887   3.942   0.102  0.2674 -0.8462 -1.8217
13294SOL     OW41322   5.452   1.775   1.316 -0.4939  0.1930 -0.1623
13294SOL    HW141323   5.445   1.835   1.391  1.2031 -1.6152  1.5543
13294SOL    HW241324   5.397   1.701   1.340  1.5113 -1.2466  0.2585
13295SOL     OW41325   4.003   2.379  12.056  0.1251  0.1010 -0.3159
13295SOL    HW141326   4.092   2.379  12.090 -0.1957  0.9743  0.5283
13295SOL    HW241327   3.982   2.471  12.042 -1.1367 -0.0049  0.7891
13296SOL     OW41328   4.974   3.577  12.144 -0.4814 -0.2443 -0.0052
13296SOL    HW141329   4.978   3.671  12.159  0.1130 -0.0431 -1.2892
13296SOL    HW241330   5.065   3.548  12.152 -0.5937 -0.6299 -0.1144
13297SOL     OW41331   3.864   3.131  12.213  0.1174 -0.1874  0.6611
13297SOL    HW141332   3.919   3.091  12.146 -0.3081 -0.7276  0.6275
13297SOL    HW241333   3.825   3.208  12.170  1.3864  0.6174  0.9035
13298SOL     OW41334   6.478   1.378   0.353  0.1315 -0.3443 -0.6103
13298SOL    HW141335   6.435   1.317   0.293  0.0115  0.4534 -1.3486
13298SOL    HW241336   6.570   1.379   0.326 -0.2591  1.4419 -2.0490
13299SOL     OW41337   4.146   1.198   1.306 -0.1158 -0.6995 -0.4353
13299SOL    HW141338   4.116   1.279   1.266  1.1926 -0.6205 -1.3209
13299SOL    HW241339   4.119   1.205   1.398  0.7041  1.1206 -0.2961
13300SOL     OW41340   4.282   0.646   0.678 -0.0533 -0.0125  0.2472
13300SOL    HW141341   4.321   0.603   0.602 -1.3232 -0.0724 -0.3923
13300SOL    HW241342   4.238   0.723   0.643  0.3951  0.6515  1.1031
13301SOL     OW41343   3.284   2.685  12.404  0.5582  0.8519  0.2136
13301SOL    HW141344   3.300   2.645  12.318 -2.9376  0.6846 -0.4940
13301SOL    HW241345   3.284   2.611  12.465  0.8563  0.6943  0.0285
13302SOL     OW41346   5.658   4.578  11.729 -0.0101  0.0460  0.6019
13302SOL    HW141347   5.682   4.648  11.668 -1.0238 -0.5976 -0.5837
13302SOL    HW241348   5.605   4.621  11.796 -0.0840  0.5300  0.2362
13303SOL     OW41349   3.283   2.352   2.522 -0.2376  0.0911  0.4889
13303SOL    HW141350   3.278   2.439   2.483  0.5650  0.4003  1.0544
13303SOL    HW241351   3.357   2.310   2.479 -1.0916 -0.6129 -0.3389
13304SOL     OW41352   3.893   1.920   1.372  0.3813  0.0691  0.0885
13304SOL    HW141353   3.823   1.941   1.310 -0.4151  0.1704  0.9894
13304SOL    HW241354   3.909   2.001   1.419  0.2222 -0.2693  0.7438
13305SOL     OW41355   3.898   2.807   2.555 -0.1886 -0.5796  0.0559
13305SOL    HW141356   3.948   2.756   2.491  1.9089 -0.2050  1.3032
13305SOL    HW241357   3.897   2.896   2.519 -2.0485 -1.0174 -1.0994
13306SOL     OW41358   6.371   5.405   3.824  0.0262 -0.5107 -0.4164
13306SOL    HW141359   6.316   5.332   3.853  0.3258 -0.8431 -0.6649
13306SOL    HW241360   6.363   5.403   3.729 -0.2222 -0.0110 -0.4049
13307SOL     OW41361   5.530   0.978   2.535 -0.3293 -0.0577 -0.6987
13307SOL    HW141362   5.531   0.905   2.596  1.0141  0.6472  0.1804
13307SOL    HW241363   5.615   0.973   2.490 -0.5572  0.4782 -1.2019
13308SOL     OW41364   5.744   2.091   1.404  0.2756  0.0605  0.0402
13308SOL    HW141365   5.664   2.046   1.434  0.6275 -0.2943  0.4653
13308SOL    HW241366   5.813   2.056   1.461  0.5245  1.3077  0.5309
13309SOL     OW41367   4.799   1.809   3.672  0.3343  0.0508 -0.2065
13309SOL    HW141368   4.738   1.749   3.715  1.2489  0.3415  1.5885
13309SOL    HW241369   4.768   1.896   3.697  0.1624  0.2819 -1.1898
13310SOL     OW41370   3.613   2.447   3.000 -0.1490  0.2510  0.0799
13310SOL    HW141371   3.615   2.541   2.986 -1.3622  0.3860  0.6806
13310SOL    HW241372   3.522   2.422   2.982  0.0584 -0.7395  0.3451
13311SOL     OW41373   5.613   3.755   3.558 -0.2852  0.3918  0.8086
13311SOL    HW141374   5.556   3.741   3.634 -0.6012  1.1308  0.7185
13311SOL    HW241375   5.579   3.835   3.518  0.6821  0.7156  0.6204
13312SOL     OW41376   4.455   3.237   3.854 -0.1233 -0.4597  0.5477
13312SOL    HW141377   4.398   3.185   3.797  0.5345  0.4556 -0.9895
13312SOL    HW241378   4.404   3.315   3.874 -0.2548 -0.6629  1.0082
13313SOL     OW41379   6.038   1.792   3.280  0.0334  0.1014  0.4317
13313SOL    HW141380   6.105   1.836   3.227  0.3457 -0.7918  0.0516
13313SOL    HW241381   5.965   1.779   3.220 -0.5647  1.2354  0.8973
13314SOL     OW41382   4.625   3.076   2.749  0.5881 -0.1010  0.4057
13314SOL    HW141383   4.601   3.024   2.671  0.3080 -0.4739  0.7365
13314SOL    HW241384   4.626   3.166   2.718  1.7806 -0.3544 -0.3612
13315SOL     OW41385   5.932   1.604   3.649  0.0292 -0.3809  0.4843
13315SOL    HW141386   5.875   1.533   3.678  1.2536 -1.1588  1.0245
13315SOL    HW241387   5.888   1.683   3.681 -0.8560 -0.9382  0.7056
13316SOL     OW41388   3.551   3.648   2.072 -0.2314  0.3059 -0.1932
13316SOL    HW141389   3.465   3.684   2.046 -1.0549 -1.4268  0.0391
13316SOL    HW241390   3.585   3.609   1.991 -0.3568 -0.3495  0.0696
13317SOL     OW41391   4.536   3.959   3.016 -0.1755  0.1191  0.1708
13317SOL    HW141392   4.596   3.998   3.079  0.2857  1.0035 -0.7890
13317SOL    HW241393   4.585   3.885   2.979 -0.6105 -0.6860  1.1247
13318SOL     OW41394   3.907   4.066   2.942 -0.1495  0.2993 -0.1788
13318SOL    HW141395   3.857   3.987   2.964  0.5305  0.1027  0.7286
13318SOL    HW241396   3.925   4.058   2.848 -1.1550  0.0041 -0.3614
13319SOL     OW41397   4.994   1.819   2.762  0.4650  0.1771  0.2140
13319SOL    HW141398   5.087   1.819   2.739  0.6555  0.8758  0.9398
13319SOL    HW241399   4.953   1.874   2.695  0.5203 -0.3756 -0.2820
13320SOL     OW41400   4.679   1.224   1.850 -0.6313 -0.0288  0.1217
13320SOL    HW141401   4.668   1.292   1.783 -0.0131 -0.3762 -0.3485
13320SOL    HW241402   4.692   1.272   1.931 -1.1745  0.4043 -0.0407
13321SOL     OW41403   2.621   2.198   2.285 -0.0524  0.1326  0.0060
13321SOL    HW141404   2.567   2.165   2.357 -0.8690  0.7803 -0.3008
13321SOL    HW241405   2.710   2.198   2.320 -0.1710 -1.3680  0.3698
13322SOL     OW41406   5.066   3.333   2.228  0.7476  0.7455  0.3744
13322SOL    HW141407   5.010   3.256   2.223  0.4320  0.9888  0.1544
13322SOL    HW241408   5.082   3.357   2.137  2.3088 -0.1060  0.3882
13323SOL     OW41409   3.680   3.915   2.636  0.7543 -0.0620  0.3780
13323SOL    HW141410   3.587   3.897   2.641  0.9154 -0.6254  1.9502
13323SOL    HW241411   3.686   3.999   2.590 -0.6040  0.5354  1.2399
13324SOL     OW41412   6.575   3.555   2.690  0.0137 -0.0190  0.1241
13324SOL    HW141413   6.576   3.587   2.780  1.2386 -1.0940  0.5366
13324SOL    HW241414   6.584   3.460   2.699  0.6887 -0.0945 -1.1481
13325SOL     OW41415   5.767   4.180   1.186 -0.1032 -0.1325  0.2705
13325SOL    HW141416   5.699   4.199   1.251  0.8024  0.1461  1.1661
13325SOL    HW241417   5.835   4.245   1.203 -0.2165  0.5058 -1.5522
13326SOL     OW41418   3.856   2.354   2.981  0.0140  0.1962 -0.1908
13326SOL    HW141419   3.776   2.397   3.009 -0.1587 -0.4623  0.3457
13326SOL    HW241420   3.829   2.298   2.908 -0.0128 -0.0119 -0.0218
13327SOL     OW41421   5.274   3.310   3.522  0.2617 -0.3324  0.2888
13327SOL    HW141422   5.251   3.233   3.575 -1.7855  0.6720  0.9907
13327SOL    HW241423   5.198   3.322   3.464  0.2926  1.4521  0.5711
13328SOL     OW41424   5.143   3.250   1.618  0.3915  0.5089 -0.2644
13328SOL    HW141425   5.150   3.186   1.688  1.0982  0.8924  0.0306
13328SOL    HW241426   5.223   3.303   1.626  0.2345  0.8765 -1.0372
13329SOL     OW41427   3.363   1.010   2.667 -0.2382 -0.0683 -0.2397
13329SOL    HW141428   3.429   0.991   2.734 -1.5675 -1.1679  0.8353
13329SOL    HW241429   3.368   0.936   2.606 -0.3488 -0.0723 -0.2446
13330SOL     OW41430   5.579   1.133   4.624  0.1290  0.0320  0.2640
13330SOL    HW141431   5.565   1.222   4.592  0.1910  0.0619  0.3196
13330SOL    HW241432   5.518   1.125   4.698 -0.3329 -0.1883 -0.1375
13331SOL     OW41433   5.523   2.690   4.221  0.3173  0.1532  0.1669
13331SOL    HW141434   5.501   2.627   4.290 -0.1172  0.6825  0.5202
13331SOL    HW241435   5.443   2.742   4.209  0.4015  0.1020 -0.7065
13332SOL     OW41436   3.282   1.744   2.080  0.0465 -0.0150 -0.2228
13332SOL    HW141437   3.262   1.729   1.987 -1.6845 -0.1647  0.1405
13332SOL    HW241438   3.196   1.742   2.123  0.8434 -0.1652  1.4139
13333SOL     OW41439   4.957   3.321   2.823  0.4567  0.0595 -0.1101
13333SOL    HW141440   4.908   3.402   2.837 -1.9586 -1.2688 -0.2951
13333SOL    HW241441   4.941   3.299   2.731 -1.0358 -1.8325  0.5246
13334SOL     OW41442   5.522   5.863   2.527  0.6484 -0.2279 -0.1782
13334SOL    HW141443   5.486   5.795   2.470  1.1807  0.8698 -1.8851
13334SOL    HW241444   5.446   5.912   2.557  0.4073 -0.4118 -0.4839
13335SOL     OW41445   5.339   1.554   2.683 -0.5539 -0.3221 -0.5144
13335SOL    HW141446   5.318   1.461   2.683 -1.1927 -0.1889 -0.4844
13335SOL    HW241447   5.280   1.592   2.617 -1.0305  0.1998  0.1832
13336SOL     OW41448   5.391   2.220   1.243  0.2725 -0.1121  0.0694
13336SOL    HW141449   5.375   2.302   1.290  0.5133 -0.5253  0.8954
13336SOL    HW241450   5.484   2.202   1.257 -0.0461 -1.1586  0.9506
13337SOL     OW41451   4.924   3.867   4.169 -0.1880  0.2948 -0.0340
13337SOL    HW141452   4.854   3.862   4.233  1.0288  1.1011  1.4397
13337SOL    HW241453   4.896   3.810   4.097 -1.6669 -0.5341  1.1463
13338SOL     OW41454   5.481   2.178   2.704 -0.3258  0.0955 -0.1513
13338SOL    HW141455   5.501   2.149   2.793  0.4685 -0.8408 -0.6169
13338SOL    HW241456   5.480   2.274   2.710  0.5957  0.0688  0.6794
13339SOL     OW41457   5.400   2.510   3.046  0.2952 -0.3893 -0.1981
13339SOL    HW141458   5.327   2.556   3.004  0.3931 -0.4756 -0.4632
13339SOL    HW241459   5.369   2.420   3.057 -0.3217 -0.0095  1.3466
13340SOL     OW41460   6.524   2.579   3.973 -0.4433  0.1378 -0.0933
13340SOL    HW141461   6.502   2.660   3.927  2.2240  1.9153  1.4493
13340SOL    HW241462   6.599   2.544   3.924  0.7023  0.6056  1.2729
13341SOL     OW41463   4.191   2.292   1.889  0.0487 -0.2465  0.2205
13341SOL    HW141464   4.167   2.211   1.934 -3.5546  0.9763  0.8124
13341SOL    HW241465   4.120   2.352   1.909  2.1115  2.8080 -0.9825
13342SOL     OW41466   4.220   2.796   2.556  0.4589 -0.7026 -0.5878
13342SOL    HW141467   4.205   2.889   2.544  0.2261 -0.5248  0.8996
13342SOL    HW241468   4.298   2.791   2.612 -0.2540 -1.3458  0.3837
13343SOL     OW41469   4.182   2.604   1.590 -0.1704  0.0470 -0.2301
13343SOL    HW141470   4.113   2.629   1.528 -0.3098  1.4103  0.4429
13343SOL    HW241471   4.156   2.517   1.621 -0.8533 -0.0405 -1.0036
13344SOL     OW41472   5.078   2.932   5.458 -0.2696  0.2063 -0.1622
13344SOL    HW141473   5.046   3.000   5.516 -1.4502 -1.0512  0.7176
13344SOL    HW241474   5.096   2.858   5.516  1.0133 -0.2433 -1.0858
13345SOL     OW41475   4.008   2.924   2.164 -0.2466 -0.0928 -0.0966
13345SOL    HW141476   3.942   2.894   2.102  0.8568  0.4324 -1.5723
13345SOL    HW241477   4.091   2.915   2.117  0.4622  1.8504  0.7027
13346SOL     OW41478   2.423   3.171   1.175 -0.4333  0.2859 -0.2582
13346SOL    HW141479   2.445   3.167   1.082  3.0145  0.0620  0.4270
13346SOL    HW241480   2.370   3.092   1.190 -1.4176  0.5525 -2.0574
13347SOL     OW41481   5.178   3.034   2.765 -0.6899  0.4184  0.4227
13347SOL    HW141482   5.101   3.021   2.820  0.2512 -0.8008  1.5166
13347SOL    HW241483   5.172   2.967   2.697 -0.5953  0.3184  0.5123
13348SOL     OW41484   4.071   2.820   2.827  0.8175 -0.3583  0.1767
13348SOL    HW141485   4.161   2.848   2.844  0.4372  0.1901  1.3588
13348SOL    HW241486   4.070   2.802   2.733  1.6257  1.5910 -0.2610
13349SOL     OW41487   5.960   2.032   3.103 -0.1598  0.4903 -0.0189
13349SOL    HW141488   5.898   1.973   3.147  1.7419 -1.1143  0.6319
13349SOL    HW241489   5.936   2.026   3.011  0.4023 -1.9352 -0.0802
13350SOL     OW41490   4.893   2.288   3.698 -0.6129 -0.7108  0.1607
13350SOL    HW141491   4.975   2.312   3.656 -1.2431  0.0084 -0.6986
13350SOL    HW241492   4.836   2.364   3.685 -0.9606 -0.5921  2.0262
13351SOL     OW41493   3.267   3.147   1.247  0.2250  0.3352 -0.3707
13351SOL    HW141494   3.340   3.086   1.255  0.5163  0.7203 -0.0599
13351SOL    HW241495   3.271   3.199   1.327 -0.2989  0.4591 -0.4245
13352SOL     OW41496   3.858   2.902   3.796  0.1579  0.1102  0.4469
13352SOL    HW141497   3.887   2.993   3.805  0.9445 -0.1465  0.5717
13352SOL    HW241498   3.809   2.900   3.714  0.1455  0.6383  0.4387
13353SOL     OW41499   3.699   3.019   3.487  0.2675  0.0131 -0.2321
13353SOL    HW141500   3.603   3.017   3.493  0.2671  1.0368  0.2903
13353SOL    HW241501   3.717   3.038   3.395 -0.0616  0.8076 -0.1415
13354SOL     OW41502   4.774   3.413   1.999 -0.4157 -0.2380 -0.2362
13354SOL    HW141503   4.844   3.477   2.012  0.1382 -1.0402  0.9531
13354SOL    HW241504   4.742   3.429   1.910  0.4304  0.9652 -0.3441
13355SOL     OW41505   3.538   1.216   3.588  0.3970 -0.0672 -0.1522
13355SOL    HW141506   3.518   1.140   3.641  2.5219 -2.5472 -2.5930
13355SOL    HW241507   3.613   1.257   3.631 -0.2291  0.2084  0.7090
13356SOL     OW41508   6.858   3.921   3.020  0.2632  0.5557 -0.1876
13356SOL    HW141509   6.815   3.976   2.954  0.9837 -0.2942 -1.3936
13356SOL    HW241510   6.918   3.866   2.970  1.0719  0.1163  1.2243
13357SOL     OW41511   4.536   3.845   1.467  0.4512 -0.3020  0.1683
13357SOL    HW141512   4.542   3.761   1.422  1.1963 -0.6643  0.9054
13357SOL    HW241513   4.507   3.906   1.400  1.8393 -0.7549 -0.8908
13358SOL     OW41514   5.509   2.726   2.115  0.3326 -0.3562  0.0450
13358SOL    HW141515   5.483   2.805   2.069 -1.2374 -0.5306  0.5878
13358SOL    HW241516   5.428   2.691   2.152  1.0809 -1.8838  0.3434
13359SOL     OW41517   3.610   2.957   1.698  0.0743 -0.2887 -0.2617
13359SOL    HW141518   3.669   2.969   1.623 -0.2460  1.5628 -0.2675
13359SOL    HW241519   3.523   2.954   1.659  0.0573 -1.6409 -0.1396
13360SOL     OW41520   4.876   0.739   5.319  0.4617 -0.1021  0.3351
13360SOL    HW141521   4.963   0.771   5.341  0.9052 -0.8889 -0.2499
13360SOL    HW241522   4.885   0.644   5.312 -0.6161 -0.2812  1.0405
13361SOL     OW41523   2.910   1.636   1.019 -0.0154 -0.7462  0.1041
13361SOL    HW141524   2.869   1.717   0.988  0.4227 -0.6059 -0.1133
13361SOL    HW241525   2.995   1.664   1.053  0.0371 -1.0839  0.2494
13362SOL     OW41526   3.882   3.656   2.101 -0.1591 -0.0052 -0.3819
13362SOL    HW141527   3.965   3.671   2.146  0.1373 -0.0872 -0.8900
13362SOL    HW241528   3.907   3.618   2.017 -0.8052 -1.6123  0.1264
13363SOL     OW41529   4.687   2.175   2.781  0.4359 -0.6074  0.9275
13363SOL    HW141530   4.654   2.086   2.794 -0.4559 -0.3055  0.8213
13363SOL    HW241531   4.627   2.230   2.832  0.8951 -0.0540  0.8795
13364SOL     OW41532   5.200   2.085   2.310  0.0024 -0.4550  0.3119
13364SOL    HW141533   5.204   2.081   2.406  1.3972  0.7405  0.3367
13364SOL    HW241534   5.277   2.136   2.285  0.3116 -1.7074 -1.5223
13365SOL     OW41535   3.263   4.169   1.821 -0.2226 -0.0200 -0.1268
13365SOL    HW141536   3.251   4.227   1.896  0.6070  0.1166 -0.0863
13365SOL    HW241537   3.322   4.217   1.763  1.0569 -1.1063  0.2402
13366SOL     OW41538   5.831   3.649   2.512 -1.3913 -0.1161 -0.5187
13366SOL    HW141539   5.800   3.669   2.600  0.3140 -1.1028  0.3631
13366SOL    HW241540   5.820   3.555   2.503  0.8677 -0.4664 -0.2851
13367SOL     OW41541   1.695   2.525   1.725  0.5349  0.3260 -0.4508
13367SOL    HW141542   1.719   2.617   1.715 -1.2271  1.0519  1.3126
13367SOL    HW241543   1.600   2.525   1.722  0.3894 -1.0871  1.8776
13368SOL     OW41544   2.941   1.878   1.225 -0.1940 -0.0305  0.2399
13368SOL    HW141545   2.847   1.876   1.205  0.1600 -1.1484 -1.5498
13368SOL    HW241546   2.984   1.880   1.140  1.4386  1.3915  1.0336
13369SOL     OW41547   6.267   2.407   2.948 -0.0710  0.7936  0.5170
13369SOL    HW141548   6.242   2.323   2.987  2.1320 -1.0330 -1.6640
13369SOL    HW241549   6.356   2.423   2.980 -0.0160  1.6574 -0.0262
13370SOL     OW41550   4.603   3.474   2.204 -0.9229 -0.8305 -0.0093
13370SOL    HW141551   4.623   3.397   2.257  0.0709 -1.6219 -1.4650
13370SOL    HW241552   4.659   3.466   2.127 -1.3508  0.9650 -0.5707
13371SOL     OW41553   4.805   3.559   2.576 -0.2864 -0.0820 -0.2107
13371SOL    HW141554   4.779   3.536   2.666 -0.6419 -0.1357 -0.3266
13371SOL    HW241555   4.881   3.617   2.588 -0.3561 -0.0540  0.1261
13372SOL     OW41556   2.464   2.618   2.170  0.0068 -0.0095 -0.2399
13372SOL    HW141557   2.414   2.676   2.227  3.1599  0.8668  1.9015
13372SOL    HW241558   2.490   2.672   2.096 -0.7346 -0.0002 -0.5031
13373SOL     OW41559   3.516   0.883   4.900 -0.3787  0.3420 -0.0996
13373SOL    HW141560   3.525   0.813   4.835 -1.9191  1.3995 -1.5173
13373SOL    HW241561   3.438   0.931   4.874 -0.1579  1.7697  1.6530
13374SOL     OW41562   4.721   2.578   3.108  0.2603  0.8991  0.7363
13374SOL    HW141563   4.810   2.544   3.094  0.4768  1.4945  0.6433
13374SOL    HW241564   4.724   2.667   3.073 -0.6785  0.5531 -0.2836
13375SOL     OW41565   4.757   2.563   2.483 -0.1092 -0.6918 -0.0623
13375SOL    HW141566   4.765   2.653   2.450 -1.5501  0.0316  1.3930
13375SOL    HW241567   4.672   2.534   2.451 -0.5490 -0.7740  1.1601
13376SOL     OW41568   5.923   2.017   3.547 -0.5917 -0.5140  0.2548
13376SOL    HW141569   5.913   2.085   3.614 -2.4847 -0.3829 -0.1183
13376SOL    HW241570   5.999   1.967   3.576 -0.7083  0.2045  1.9280
13377SOL     OW41571   3.206   2.875   2.991  0.3227 -0.0601  0.5304
13377SOL    HW141572   3.228   2.935   2.919  0.4610 -1.4613 -0.6337
13377SOL    HW241573   3.208   2.788   2.951 -1.1524 -0.7524  1.8764
13378SOL     OW41574   5.152   2.349   3.232 -0.2562 -0.0233 -0.1257
13378SOL    HW141575   5.137   2.384   3.144  1.8094 -0.1086 -0.5621
13378SOL    HW241576   5.092   2.275   3.239 -1.0719  0.5199 -1.1231
13379SOL     OW41577   5.337   2.425   2.703  0.1938 -0.3508  0.0306
13379SOL    HW141578   5.356   2.431   2.609 -0.6346 -1.8108 -0.2520
13379SOL    HW241579   5.311   2.514   2.728 -2.5222 -0.5367 -1.8001
13380SOL     OW41580   4.361   2.851   1.815  0.0686  0.1606 -0.1790
13380SOL    HW141581   4.441   2.902   1.827 -0.8645  1.9732 -1.3081
13380SOL    HW241582   4.367   2.782   1.881  1.1468  2.0194  1.7889
13381SOL     OW41583   3.717   4.453   2.745 -0.1396 -0.3943  0.1616
13381SOL    HW141584   3.660   4.376   2.736 -2.1847  1.1840 -1.3717
13381SOL    HW241585   3.789   4.436   2.684 -0.1522 -1.3995  0.3961
13382SOL     OW41586   6.684   1.885   2.871 -0.1683 -0.5861 -0.1564
13382SOL    HW141587   6.675   1.849   2.959  2.8711 -0.5361  0.2642
13382SOL    HW241588   6.671   1.979   2.883 -0.0979 -0.6179  0.1980
13383SOL     OW41589   3.575   2.619   0.958 -0.1075  0.0636  0.2914
13383SOL    HW141590   3.513   2.551   0.986  0.7957 -0.5958  0.7135
13383SOL    HW241591   3.521   2.698   0.952 -0.7474 -0.2049  1.9322
13384SOL     OW41592   5.520   2.457   4.382  0.0966 -0.2775 -0.3860
13384SOL    HW141593   5.586   2.432   4.317 -1.3795  0.0683 -2.1223
13384SOL    HW241594   5.444   2.404   4.360 -0.9316  0.9457  0.1030
13385SOL     OW41595   2.633   3.237   2.370 -0.2568 -0.6904 -0.0814
13385SOL    HW141596   2.622   3.175   2.298 -0.8916  1.0213 -1.5307
13385SOL    HW241597   2.675   3.313   2.330  0.0712  0.0127  1.5249
13386SOL     OW41598   5.963   3.900   4.190  0.6806 -0.2211  0.1476
13386SOL    HW141599   5.941   3.956   4.115  0.0734 -2.6433 -1.6252
13386SOL    HW241600   6.023   3.953   4.243  0.0795  2.0912 -1.3258
13387SOL     OW41601   5.208   1.587   3.687  0.6705  0.2787 -0.7224
13387SOL    HW141602   5.195   1.492   3.680 -0.3008  0.5156 -3.1690
13387SOL    HW241603   5.152   1.614   3.759  1.1917 -1.0170  0.2153
13388SOL     OW41604   5.974   3.094   5.117  0.1063  0.6195 -0.0857
13388SOL    HW141605   5.976   3.147   5.197 -1.5054  0.1359  0.3172
13388SOL    HW241606   5.916   3.143   5.058 -0.5985 -0.1659 -0.0689
13389SOL     OW41607   4.497   2.524   2.419  0.0811 -0.0740  0.5662
13389SOL    HW141608   4.434   2.454   2.403  0.2022  0.0888 -0.6657
13389SOL    HW241609   4.481   2.588   2.350 -0.0828  1.1787  1.7096
13390SOL     OW41610   4.889   2.979   3.454 -0.4974  0.0814  0.2092
13390SOL    HW141611   4.829   3.053   3.454  0.3977  0.9258 -2.1037
13390SOL    HW241612   4.961   3.007   3.510 -1.4262 -0.2217  1.5873
13391SOL     OW41613   4.443   2.392   3.994 -0.1903 -0.3855  0.4210
13391SOL    HW141614   4.350   2.407   3.978  0.1989 -0.2475 -2.0749
13391SOL    HW241615   4.447   2.363   4.086 -2.6018  0.1250  0.7559
13392SOL     OW41616   5.576   1.481   4.921  0.6535  0.0301  0.3503
13392SOL    HW141617   5.645   1.482   4.854 -0.1522  0.2316 -0.5023
13392SOL    HW241618   5.532   1.397   4.908  1.0548 -0.3217  1.2313
13393SOL     OW41619   5.206   3.243   4.008 -0.3432  0.2958  0.0065
13393SOL    HW141620   5.141   3.235   3.938 -1.4845  0.0342  1.0737
13393SOL    HW241621   5.221   3.337   4.016 -1.7889  0.4819  0.8071
13394SOL     OW41622   5.310   2.902   0.565  0.1640 -0.4765  0.1900
13394SOL    HW141623   5.265   2.827   0.603  0.9724 -0.7353  0.6738
13394SOL    HW241624   5.376   2.863   0.506  0.8540 -0.1734  0.7435
13395SOL     OW41625   3.613   2.359   2.359 -0.4178 -0.1178  0.0738
13395SOL    HW141626   3.613   2.416   2.281 -2.0583 -1.5658 -1.0735
13395SOL    HW241627   3.559   2.285   2.333 -0.8527 -0.7444  2.5737
13396SOL     OW41628   5.961   2.813   2.711  0.1050 -0.5512 -0.0910
13396SOL    HW141629   5.975   2.903   2.741  1.6164 -0.8256  0.1340
13396SOL    HW241630   6.031   2.799   2.646  0.6941 -1.9597  0.7964
13397SOL     OW41631   6.326   3.590   3.312 -0.1675  0.8504 -0.5916
13397SOL    HW141632   6.307   3.545   3.230 -0.8166  1.7237 -0.9344
13397SOL    HW241633   6.252   3.569   3.369 -0.1563  0.9681 -0.5326
13398SOL     OW41634   5.158   2.507   2.087 -0.2443 -0.4215 -0.5045
13398SOL    HW141635   5.106   2.427   2.081  1.2047 -1.3322 -1.3946
13398SOL    HW241636   5.242   2.484   2.048  0.7117  1.1220  0.5551
13399SOL     OW41637   2.623   1.717   2.184  0.3412 -0.2539 -0.1618
13399SOL    HW141638   2.687   1.662   2.138  0.3870  0.1852 -0.6265
13399SOL    HW241639   2.620   1.798   2.133 -0.1969 -0.0685  0.1604
13400SOL     OW41640   5.477   2.066   5.086  0.3884  0.3795  0.2452
13400SOL    HW141641   5.444   2.052   4.997  1.8629  1.8438 -0.5747
13400SOL    HW241642   5.416   2.018   5.141 -0.0977 -1.2896 -1.6036
13401SOL     OW41643   5.197   1.189   3.105 -0.3440  0.0669  0.1939
13401SOL    HW141644   5.280   1.202   3.060 -0.2382 -0.1340  0.3330
13401SOL    HW241645   5.207   1.235   3.188 -0.9773  1.4874 -0.4881
13402SOL     OW41646   3.739   0.727   4.208  0.9964 -0.5111 -0.2901
13402SOL    HW141647   3.655   0.720   4.164 -0.1608  0.0357  1.7179
13402SOL    HW241648   3.771   0.637   4.214  1.5856 -0.5591 -2.8105
13403SOL     OW41649   2.955   2.591   2.059  0.1139 -0.7437  0.4336
13403SOL    HW141650   3.037   2.607   2.013 -0.1298 -0.3227  0.1328
13403SOL    HW241651   2.891   2.577   1.989  0.0792 -1.8856  0.6736
13404SOL     OW41652   3.808   3.271   2.149  0.2492 -0.3241 -0.3256
13404SOL    HW141653   3.801   3.229   2.063  0.1048 -0.0592 -0.4458
13404SOL    HW241654   3.901   3.293   2.158  0.2408 -0.2299 -0.4731
13405SOL     OW41655   5.126   2.892   2.307 -0.4351  0.4639  0.1846
13405SOL    HW141656   5.084   2.978   2.316 -1.1111  0.1886 -0.2308
13405SOL    HW241657   5.102   2.846   2.388 -1.8242 -0.0464 -0.4753
13406SOL     OW41658   4.400   1.793   3.211 -0.3163 -0.2144  0.1487
13406SOL    HW141659   4.419   1.746   3.129  1.0025  0.0465  0.2826
13406SOL    HW241660   4.472   1.769   3.269  0.6868  2.3412  0.0655
13407SOL     OW41661   5.324   2.971   3.346 -0.0378  0.4568  0.3992
13407SOL    HW141662   5.319   3.003   3.436 -0.4446  0.3058  0.4306
13407SOL    HW241663   5.340   2.877   3.355  1.5507  0.6887  0.3080
13408SOL     OW41664   6.166   2.890   0.894 -0.2850  0.2392 -0.1727
13408SOL    HW141665   6.203   2.802   0.902 -1.3951 -0.2484 -0.2889
13408SOL    HW241666   6.098   2.893   0.961 -0.6116  0.8178 -0.5254
13409SOL     OW41667   5.243   3.661   4.476 -0.2871 -0.3868  0.1259
13409SOL    HW141668   5.220   3.719   4.548 -2.0607 -2.6874  1.6058
13409SOL    HW241669   5.174   3.676   4.411 -0.5776 -0.5685  0.3830
13410SOL     OW41670   2.526   2.217   3.101  0.2287 -0.0212 -0.3567
13410SOL    HW141671   2.506   2.158   3.173 -0.0585 -1.1943 -1.3671
13410SOL    HW241672   2.440   2.241   3.065  0.4173 -0.5802 -1.1903
13411SOL     OW41673   5.481   0.468   2.369  0.5550  0.0619  0.1749
13411SOL    HW141674   5.566   0.476   2.412  0.5344  0.9954  0.0544
13411SOL    HW241675   5.457   0.558   2.346  0.1678 -0.3317 -1.0185
13412SOL     OW41676   5.106   1.831   1.958 -0.1414  0.1875 -0.5047
13412SOL    HW141677   5.125   1.741   1.986  0.1586  0.2797 -0.4102
13412SOL    HW241678   5.107   1.826   1.862 -0.9958 -0.0900 -0.5072
13413SOL     OW41679   4.502   2.477   3.246 -0.3280  0.0267  0.3341
13413SOL    HW141680   4.530   2.451   3.333  2.0204 -0.4037 -0.4708
13413SOL    HW241681   4.575   2.531   3.212 -1.7308  1.2542 -0.8950
13414SOL     OW41682   3.799   2.470   5.143 -0.1986 -0.0600  0.1701
13414SOL    HW141683   3.784   2.533   5.215  0.3813  0.3913 -0.0938
13414SOL    HW241684   3.809   2.386   5.187 -2.2908 -0.2114  0.4431
13415SOL     OW41685   3.285   2.829   2.627  0.5999 -0.5744  0.4434
13415SOL    HW141686   3.363   2.772   2.634  0.6526 -0.7393 -1.0759
13415SOL    HW241687   3.214   2.776   2.663  1.1086 -0.5566  1.5269
13416SOL     OW41688   2.901   2.497   1.184  0.1456  0.4241  0.0694
13416SOL    HW141689   2.851   2.419   1.160  1.5909 -0.2757 -0.7773
13416SOL    HW241690   2.907   2.548   1.103  1.3732  0.1487 -0.0345
13417SOL     OW41691   5.329   2.566   1.551  0.1418 -0.2014  0.2199
13417SOL    HW141692   5.384   2.644   1.547 -2.3362  1.7057  1.2897
13417SOL    HW241693   5.339   2.533   1.640 -1.6515  1.1653  0.9810
13418SOL     OW41694   5.217   2.159   2.572 -0.1864  0.2015 -0.4307
13418SOL    HW141695   5.297   2.210   2.578 -0.1259 -0.0646  1.8782
13418SOL    HW241696   5.168   2.181   2.652 -1.4469 -1.2245 -0.7575
13419SOL     OW41697   3.202   2.665   1.586 -0.1798 -0.2066 -0.8963
13419SOL    HW141698   3.290   2.688   1.616 -0.4769 -0.0285 -0.1378
13419SOL    HW241699   3.198   2.697   1.496  0.3666  0.2193 -0.7735
13420SOL     OW41700   3.385   2.601   2.360 -0.0259 -0.1541  0.5041
13420SOL    HW141701   3.305   2.627   2.315  0.5249 -0.6408 -0.7917
13420SOL    HW241702   3.456   2.620   2.298  0.7148 -1.2127  0.9899
13421SOL     OW41703   4.288   2.184   2.828  0.5491 -0.0429  0.0471
13421SOL    HW141704   4.369   2.206   2.873  0.4306  0.1098  0.1857
13421SOL    HW241705   4.246   2.119   2.885  0.2648  0.3588  0.2969
13422SOL     OW41706   4.316   1.702   3.765 -0.2089  1.1744 -0.2538
13422SOL    HW141707   4.342   1.663   3.682  0.8716  1.7288 -0.1991
13422SOL    HW241708   4.316   1.629   3.827  3.2719  1.3835  0.1871
13423SOL     OW41709   3.490   4.794   3.159 -0.1152  0.3943  0.1253
13423SOL    HW141710   3.535   4.780   3.242  0.0800  0.9873  0.1271
13423SOL    HW241711   3.524   4.878   3.128 -1.6402  1.1403  0.3971
13424SOL     OW41712   5.650   1.645   3.505  0.0982  0.1632 -0.1993
13424SOL    HW141713   5.676   1.731   3.474  0.5546  0.6613  1.4484
13424SOL    HW241714   5.724   1.588   3.482  0.6698  0.6320  0.4202
13425SOL     OW41715   4.026   0.281   2.888 -0.4568  0.0411  0.0433
13425SOL    HW141716   4.057   0.217   2.825 -0.5162 -0.3754  0.4295
13425SOL    HW241717   4.007   0.359   2.836 -0.6102 -0.3315 -0.4662
13426SOL     OW41718   1.439   1.347   5.520 -0.3557 -0.0513  0.3016
13426SOL    HW141719   1.476   1.301   5.444  0.3229 -0.2074  0.7165
13426SOL    HW241720   1.515   1.380   5.567 -0.8406  1.8014 -0.1505
13427SOL     OW41721   5.225   1.395   3.299  0.1635 -0.1695 -0.2064
13427SOL    HW141722   5.142   1.379   3.344 -0.4279  1.0409 -0.8313
13427SOL    HW241723   5.287   1.334   3.341 -1.4463 -2.5516 -1.0882
13428SOL     OW41724   3.646   1.350   0.529  0.1553  0.4801  0.5865
13428SOL    HW141725   3.684   1.436   0.548 -1.0938  1.2927 -0.4457
13428SOL    HW241726   3.700   1.289   0.579  0.9883  1.8665  1.4530
13429SOL     OW41727   5.315   2.689   3.393  0.5554  0.1464  0.5604
13429SOL    HW141728   5.230   2.677   3.350  0.3805 -0.3355  1.0333
13429SOL    HW241729   5.313   2.630   3.467  1.3199  0.1154  0.5644
13430SOL     OW41730   4.043   2.600   2.439 -0.9701 -0.0877  0.0207
13430SOL    HW141731   4.088   2.677   2.475 -0.6647  0.2818 -1.0908
13430SOL    HW241732   4.031   2.542   2.514 -0.3065  0.6132  0.6951
13431SOL     OW41733   5.651   2.440   2.973  0.0369  0.2248 -0.0898
13431SOL    HW141734   5.565   2.481   2.966 -0.5698 -1.2075 -1.6230
13431SOL    HW241735   5.700   2.474   2.898 -0.4582 -1.6992 -1.3498
13432SOL     OW41736   3.004   1.163   6.041 -0.1880  0.9922 -0.3925
13432SOL    HW141737   3.052   1.241   6.069  0.9215 -0.0324  0.6452
13432SOL    HW241738   2.941   1.147   6.110  1.4530 -0.5874  0.8378
13433SOL     OW41739   4.714   0.915   2.520  0.3081 -0.0032  0.2388
13433SOL    HW141740   4.661   0.970   2.462 -0.8397 -0.1625  1.0928
13433SOL    HW241741   4.803   0.926   2.489 -0.1168  0.9876 -0.6917
13434SOL     OW41742   5.130   3.057   1.783 -0.0105  0.0039 -0.5785
13434SOL    HW141743   5.173   2.975   1.806  1.8071  0.5838 -1.7382
13434SOL    HW241744   5.041   3.031   1.760  0.0701 -1.4104  0.5697
13435SOL     OW41745   6.834   4.934   4.041 -0.2211  0.1427  0.4729
13435SOL    HW141746   6.789   4.966   4.119  0.4475  1.2310  0.4363
13435SOL    HW241747   6.834   5.009   3.981 -0.0910 -0.4575 -0.2905
13436SOL     OW41748   5.413   4.406   4.085 -0.3467  0.7164 -0.5464
13436SOL    HW141749   5.359   4.412   4.164 -0.2287 -2.6058 -0.0556
13436SOL    HW241750   5.496   4.447   4.111 -0.6333  0.5408  0.7513
13437SOL     OW41751   5.569   1.970   2.100 -0.5789  0.1534 -0.0453
13437SOL    HW141752   5.540   1.953   2.011  0.2060  0.4679 -0.3597
13437SOL    HW241753   5.597   2.061   2.100 -2.0970  0.6737  0.9381
13438SOL     OW41754   6.337   3.065   1.239  0.4604  0.9441  0.3502
13438SOL    HW141755   6.252   3.023   1.240  0.9488 -0.0706  1.0396
13438SOL    HW241756   6.334   3.124   1.164 -1.3460  2.0059  1.1878
13439SOL     OW41757   6.354   3.866   3.420  0.3705  0.2687  0.4383
13439SOL    HW141758   6.308   3.790   3.385 -0.4278  1.1959 -0.5985
13439SOL    HW241759   6.298   3.896   3.492  2.2197 -1.8883  2.9692
13440SOL     OW41760   3.754   1.659   3.725  0.0945  0.7756 -0.5923
13440SOL    HW141761   3.787   1.660   3.815 -2.2502 -2.0451  0.4515
13440SOL    HW241762   3.830   1.682   3.672  1.6614  2.1885  2.0134
13441SOL     OW41763   4.780   3.931   2.205  0.0891  0.2822 -0.1596
13441SOL    HW141764   4.810   3.896   2.122 -0.3881 -1.0452  0.2039
13441SOL    HW241765   4.771   3.855   2.262  0.7812  1.2038  1.2394
13442SOL     OW41766   5.666   2.793   3.453 -0.5171  0.1132 -0.1044
13442SOL    HW141767   5.631   2.757   3.372 -1.3443 -0.3343  0.4355
13442SOL    HW241768   5.610   2.757   3.522 -0.0974  0.8231  0.6321
13443SOL     OW41769   4.408   1.215   1.860 -0.3552  0.3119  0.2492
13443SOL    HW141770   4.389   1.172   1.777 -1.3993  1.0679  0.0646
13443SOL    HW241771   4.502   1.229   1.859  0.1461 -2.5308  0.6358
13444SOL     OW41772   3.318   1.636   1.786  0.4815 -0.5544 -0.7552
13444SOL    HW141773   3.364   1.604   1.708  0.0289 -0.8693 -0.8945
13444SOL    HW241774   3.229   1.603   1.777  1.1968 -3.6873  1.6189
13445SOL     OW41775   5.195   1.953   1.457 -0.5591  0.7082 -0.0591
13445SOL    HW141776   5.173   1.867   1.419 -0.4153 -0.0490  1.4711
13445SOL    HW241777   5.177   2.015   1.387 -1.1832 -0.5214 -1.0466
13446SOL     OW41778   4.712   3.216   3.444  0.2935  0.2116 -0.0459
13446SOL    HW141779   4.631   3.215   3.494  0.0528  1.8658 -0.3442
13446SOL    HW241780   4.710   3.300   3.397  1.9945  0.1068 -0.3591
13447SOL     OW41781   6.048   2.796   4.100  0.1718  0.1786  0.2957
13447SOL    HW141782   6.007   2.717   4.135 -2.0653  0.3250 -1.7304
13447SOL    HW241783   6.137   2.769   4.077 -0.5810 -1.8468 -0.4783
13448SOL     OW41784   3.828   2.887   1.959  0.0078  0.2166  0.2011
13448SOL    HW141785   3.817   2.797   1.928  0.5256  0.0648  0.4368
13448SOL    HW241786   3.889   2.927   1.897 -0.4018  0.4750 -0.0344
13449SOL     OW41787   5.210   3.297   2.798 -0.3469  0.1844 -0.2225
13449SOL    HW141788   5.116   3.313   2.786 -0.0989 -0.1976 -3.1965
13449SOL    HW241789   5.219   3.202   2.791  0.2943  0.2180  0.1117
13450SOL     OW41790   5.086   3.091   5.925 -0.0997  0.4033 -0.4293
13450SOL    HW141791   5.061   3.072   5.834 -2.7715  2.3726 -0.2360
13450SOL    HW241792   5.010   3.064   5.977  1.4250 -0.7993  1.2867
13451SOL     OW41793   4.422   3.345   0.836  0.2363  0.5896 -0.7998
13451SOL    HW141794   4.387   3.289   0.905  0.2204  1.6135  0.0500
13451SOL    HW241795   4.420   3.290   0.757 -0.8135 -0.2334 -0.2304
13452SOL     OW41796   5.877   0.451   2.908 -0.0770 -0.1813 -0.1763
13452SOL    HW141797   5.885   0.492   2.993  1.1617 -1.8180  0.5422
13452SOL    HW241798   5.799   0.395   2.916  0.7210 -1.2508  0.3128
13453SOL     OW41799   4.301   2.930   2.826 -0.4088  0.0012  0.1234
13453SOL    HW141800   4.395   2.913   2.830 -0.4344 -0.1654  4.2283
13453SOL    HW241801   4.294   3.025   2.840 -0.9122  0.4464 -2.5228
13454SOL     OW41802   4.601   1.638   3.781  0.1428 -0.1403  0.5565
13454SOL    HW141803   4.565   1.613   3.866  0.9314 -0.4111  0.8210
13454SOL    HW241804   4.591   1.560   3.726 -0.3848  0.0411  0.3910
13455SOL     OW41805   4.407   3.015   3.153  0.8914  0.1627  0.0357
13455SOL    HW141806   4.494   3.027   3.191  0.7751 -0.9598  0.7068
13455SOL    HW241807   4.366   2.948   3.207 -0.7602  1.3397  0.3255
13456SOL     OW41808   3.735   2.621   3.738  0.0598 -0.1112  0.4681
13456SOL    HW141809   3.749   2.661   3.652  0.8745 -1.0415  0.1440
13456SOL    HW241810   3.650   2.654   3.766  0.0968  0.7606 -0.3810
13457SOL     OW41811   4.465   1.658   2.317  0.5265  0.3128 -0.1328
13457SOL    HW141812   4.471   1.709   2.398  2.0698 -0.2676  0.1335
13457SOL    HW241813   4.536   1.691   2.262  1.3756 -1.3284 -0.0715
13458SOL     OW41814   3.482   0.724   4.086  0.1623 -0.3028  0.7378
13458SOL    HW141815   3.443   0.706   4.171 -2.3092  0.5462 -0.1249
13458SOL    HW241816   3.421   0.686   4.023  1.8802 -0.8299 -0.7025
13459SOL     OW41817   5.630   3.733   4.034  0.2251 -0.3672  0.3473
13459SOL    HW141818   5.642   3.644   4.066 -0.5942 -0.8990 -0.7549
13459SOL    HW241819   5.594   3.781   4.109  1.1730 -0.8181  1.1078
13460SOL     OW41820   4.091   1.982   3.398  0.2064 -0.3434  0.1311
13460SOL    HW141821   4.137   1.910   3.355 -1.8747 -0.4126 -2.1730
13460SOL    HW241822   4.043   1.940   3.470  1.0278 -0.7989  0.4291
13461SOL     OW41823   4.547   4.449   1.592  0.1018 -0.0306  0.5288
13461SOL    HW141824   4.560   4.449   1.497 -0.8249  0.3748  0.3911
13461SOL    HW241825   4.501   4.366   1.609  0.6932 -0.3324  0.6977
13462SOL     OW41826   3.015   0.765   2.094 -0.6247  0.0077  0.3260
13462SOL    HW141827   2.995   0.839   2.036  1.4269 -0.4807 -1.1106
13462SOL    HW241828   3.069   0.707   2.041  0.3497 -1.0615  2.3723
13463SOL     OW41829   5.283   3.575   2.637  0.3262  0.1275 -0.4462
13463SOL    HW141830   5.256   3.546   2.550 -1.1263 -1.1358  0.3845
13463SOL    HW241831   5.203   3.610   2.676  0.4029 -1.3882  1.1705
13464SOL     OW41832   2.414   3.028   3.151 -0.1680  0.0822 -0.2949
13464SOL    HW141833   2.371   3.106   3.114  1.5097 -0.0896 -2.7804
13464SOL    HW241834   2.357   2.955   3.127 -1.6784  0.4269  1.9309
13465SOL     OW41835   5.306   3.887   3.328 -0.2354 -0.1711  0.4013
13465SOL    HW141836   5.285   3.830   3.255 -0.6672 -1.4503  1.4840
13465SOL    HW241837   5.259   3.968   3.309  3.1457  1.3043 -2.9566
13466SOL     OW41838   3.626   2.646   1.438 -0.1542 -0.2174 -0.5219
13466SOL    HW141839   3.702   2.587   1.432  0.1285  0.2466 -1.6467
13466SOL    HW241840   3.661   2.732   1.414 -0.8734  0.1479 -0.2665
13467SOL     OW41841   5.044   3.420   3.379  0.5930 -0.0335  0.2296
13467SOL    HW141842   4.988   3.378   3.314 -0.2441  1.5256 -0.1286
13467SOL    HW241843   4.984   3.444   3.450  1.1352  0.0973  0.6520
13468SOL     OW41844   7.129   2.868   4.009  0.5251 -0.0988 -0.4850
13468SOL    HW141845   7.149   2.806   4.079 -0.3755  1.0631  0.8586
13468SOL    HW241846   7.064   2.926   4.047  0.5212  0.9921 -2.0809
13469SOL     OW41847   3.985   2.749   3.295 -0.0471  0.2477  0.2629
13469SOL    HW141848   3.997   2.667   3.247  2.0344  0.8759 -0.3691
13469SOL    HW241849   3.964   2.813   3.227 -0.8382  0.4321  0.6657
13470SOL     OW41850   3.551   2.922   1.995  0.5033  0.2306 -0.1449
13470SOL    HW141851   3.643   2.912   1.969  0.8925  2.2481  0.2609
13470SOL    HW241852   3.549   2.901   2.088  0.0224 -2.2897 -0.6623
13471SOL     OW41853   4.424   3.373   1.652 -0.1205 -0.0164 -0.5860
13471SOL    HW141854   4.367   3.445   1.679 -1.5716 -1.8555  1.5487
13471SOL    HW241855   4.512   3.400   1.679 -0.6674  0.8496  0.3823
13472SOL     OW41856   5.464   3.010   4.988  0.4810 -0.1571 -0.3209
13472SOL    HW141857   5.541   2.976   5.035  0.2339 -1.7068 -0.9896
13472SOL    HW241858   5.427   3.075   5.048 -1.4885 -4.0079  3.1173
13473SOL     OW41859   4.305   2.705   3.133  0.2405 -0.0195  0.3208
13473SOL    HW141860   4.321   2.641   3.202  2.5549 -0.8634 -0.8679
13473SOL    HW241861   4.267   2.780   3.178 -0.7404 -1.4746  2.0564
13474SOL     OW41862   6.494   0.326   2.713 -0.5538 -0.1699  0.0323
13474SOL    HW141863   6.530   0.372   2.637 -1.2371 -0.7220 -0.6540
13474SOL    HW241864   6.437   0.391   2.755 -0.2667  0.1023  0.0071
13475SOL     OW41865   2.773   2.846   2.910 -0.5795 -0.0245  0.4123
13475SOL    HW141866   2.724   2.829   2.829 -0.7783 -0.3997  0.6084
13475SOL    HW241867   2.826   2.767   2.922 -1.4656 -0.5078  1.3021
13476SOL     OW41868   5.488   3.562   4.588  0.1829 -0.0798 -0.4639
13476SOL    HW141869   5.571   3.555   4.636 -0.3886 -0.0190  0.5477
13476SOL    HW241870   5.470   3.656   4.583  0.8660  0.0128 -1.9374
13477SOL     OW41871   4.995   2.032   3.501  0.2410 -0.1960  0.7460
13477SOL    HW141872   5.032   2.119   3.514 -0.4996  0.3923 -0.8287
13477SOL    HW241873   4.954   2.011   3.584 -0.2515  1.3103  0.9125
13478SOL     OW41874   5.017   3.688   2.746 -0.1492 -0.4348 -0.7285
13478SOL    HW141875   4.978   3.626   2.808  1.6279  0.4649  1.4362
13478SOL    HW241876   4.976   3.772   2.767 -0.2993 -0.3001 -1.5294
13479SOL     OW41877   4.586   2.225   2.104  0.2530 -0.2811 -0.8435
13479SOL    HW141878   4.508   2.187   2.064  0.1806  0.6196 -1.6048
13479SOL    HW241879   4.598   2.176   2.185 -0.2061 -1.4619 -1.4558
13480SOL     OW41880   5.675   2.475   3.452 -0.7181  0.4573 -0.2275
13480SOL    HW141881   5.628   2.538   3.397 -0.5578 -0.1795 -1.1144
13480SOL    HW241882   5.703   2.406   3.391  0.3329  0.2323  0.4848
13481SOL     OW41883   5.025   4.149   1.312  0.3672 -0.5784 -0.3102
13481SOL    HW141884   5.012   4.055   1.315 -0.9230 -0.4178 -0.4123
13481SOL    HW241885   5.029   4.176   1.404  1.4917 -0.8033 -0.2720
13482SOL     OW41886   5.894   1.634   2.538  0.3250 -0.6918  0.0741
13482SOL    HW141887   5.980   1.595   2.521  0.3831 -1.3395  1.6317
13482SOL    HW241888   5.915   1.719   2.578  0.2395 -0.5765 -0.1287
13483SOL     OW41889   5.078   1.837   1.675  0.0802  0.3069 -0.1912
13483SOL    HW141890   4.994   1.883   1.680 -0.0138  0.1343 -0.1648
13483SOL    HW241891   5.131   1.891   1.616  0.0696  0.6002  0.0651
13484SOL     OW41892   6.785   2.803   2.726 -0.0622  0.0074  0.0205
13484SOL    HW141893   6.812   2.850   2.805 -0.3620 -1.2570  0.8947
13484SOL    HW241894   6.866   2.774   2.686  0.1613  1.5999 -0.7783
13485SOL     OW41895   2.871   1.496   0.779 -0.0021 -0.0850  0.1095
13485SOL    HW141896   2.846   1.414   0.820 -0.1318  0.6905  1.6753
13485SOL    HW241897   2.844   1.563   0.842 -0.3720  1.1904 -1.3486
13486SOL     OW41898   4.820   3.376   1.189  0.1925 -0.7066 -0.0628
13486SOL    HW141899   4.900   3.328   1.166  1.1629  1.3549 -1.2695
13486SOL    HW241900   4.760   3.359   1.115  0.7234  0.2813 -0.7438
13487SOL     OW41901   4.382   2.076   3.285 -0.4419 -0.0051  0.1037
13487SOL    HW141902   4.391   1.980   3.286 -2.5911 -0.2432  0.4466
13487SOL    HW241903   4.446   2.106   3.351  1.2060 -1.0571 -0.9443
13488SOL     OW41904   3.959   3.071   5.050 -0.0290 -0.2785 -0.0323
13488SOL    HW141905   3.926   2.984   5.029 -0.7913 -0.4958  1.8709
13488SOL    HW241906   3.916   3.094   5.133  0.6375  1.6450 -0.1590
13489SOL     OW41907   4.168   2.924   4.703  0.1948  0.4031 -0.0208
13489SOL    HW141908   4.134   3.001   4.749 -0.5985  1.4118 -2.1517
13489SOL    HW241909   4.199   2.958   4.619  2.5437 -1.1930  0.1005
13490SOL     OW41910   6.070   3.615   4.203  0.5086  0.0517  0.2564
13490SOL    HW141911   6.008   3.688   4.202  1.0724  0.5389 -0.4156
13490SOL    HW241912   6.155   3.657   4.212  0.6724 -0.6981  2.8203
13491SOL     OW41913   3.238   3.038   5.394 -0.3048 -0.3822  0.1125
13491SOL    HW141914   3.169   3.063   5.332 -0.9800  0.0822  1.0133
13491SOL    HW241915   3.314   3.090   5.368 -0.7183  0.1552 -0.0399
13492SOL     OW41916   4.477   2.823   4.785 -0.4200  0.5431  0.1454
13492SOL    HW141917   4.388   2.853   4.764 -0.2294  0.5096 -0.7478
13492SOL    HW241918   4.485   2.739   4.739  0.1458  0.6469  0.0535
13493SOL     OW41919   3.317   2.340   4.457 -0.2950  0.0881 -0.0078
13493SOL    HW141920   3.310   2.425   4.500 -1.9816 -0.6683  1.3615
13493SOL    HW241921   3.247   2.340   4.391 -0.7675 -0.4528  0.4718
13494SOL     OW41922   2.916   1.771   6.381 -0.1869  0.4533 -0.3743
13494SOL    HW141923   2.954   1.795   6.466 -0.0959  0.9033 -0.5379
13494SOL    HW241924   2.928   1.849   6.327 -0.5894  0.3009 -0.6860
13495SOL     OW41925   4.758   2.069   3.760  0.3875  0.5408 -0.2123
13495SOL    HW141926   4.672   2.088   3.797 -0.5531 -0.4749 -1.7897
13495SOL    HW241927   4.793   2.156   3.738 -0.2665  0.9564  0.3180
13496SOL     OW41928   4.228   3.664   5.568 -0.1036 -0.2584  0.0535
13496SOL    HW141929   4.186   3.606   5.504  0.9191  0.0659 -0.9676
13496SOL    HW241930   4.177   3.744   5.565 -1.7072 -1.1683  1.6947
13497SOL     OW41931   5.052   3.992   4.362  0.3952  0.2580 -0.7351
13497SOL    HW141932   5.027   3.958   4.276 -0.5547  1.9444 -1.1724
13497SOL    HW241933   5.040   4.087   4.354  0.7289  0.4836  1.1282
13498SOL     OW41934   4.070   0.915   4.816  0.2830 -0.3984 -0.3755
13498SOL    HW141935   4.027   0.881   4.895  0.9391 -0.9334 -0.2410
13498SOL    HW241936   4.154   0.949   4.847  0.2779 -0.0341 -0.7505
13499SOL     OW41937   4.979   1.403   3.450 -0.3516  0.0826  0.4498
13499SOL    HW141938   4.958   1.492   3.478 -0.2922  0.2005  0.1246
13499SOL    HW241939   4.894   1.361   3.435 -0.3863  0.6655 -1.2039
13500SOL     OW41940   5.616   2.672   7.228 -0.0234  0.3127 -0.5115
13500SOL    HW141941   5.674   2.715   7.290  0.0486 -1.8536  1.0099
13500SOL    HW241942   5.570   2.744   7.184  0.9710  1.9370  1.0019
13501SOL     OW41943   3.125   2.639   2.742  0.9123 -0.1574  0.5636
13501SOL    HW141944   3.076   2.575   2.691 -0.4723  1.6919 -0.5472
13501SOL    HW241945   3.170   2.587   2.809 -1.3078 -2.1404  0.6471
13502SOL     OW41946   3.722   3.490   4.629 -0.3100  0.2325  0.2187
13502SOL    HW141947   3.695   3.580   4.614 -0.0220  0.4364  0.8666
13502SOL    HW241948   3.671   3.462   4.706 -0.4369 -0.1744 -0.0100
13503SOL     OW41949   4.159   2.811   4.310 -0.0887 -0.1323 -0.2566
13503SOL    HW141950   4.188   2.900   4.287 -1.1014  0.0557 -0.8568
13503SOL    HW241951   4.129   2.819   4.401 -0.2211  0.1543 -0.3227
13504SOL     OW41952   4.576   1.259   4.630  0.5703  0.7015  0.1331
13504SOL    HW141953   4.631   1.188   4.596  0.8665  0.2206  1.5458
13504SOL    HW241954   4.487   1.236   4.604  0.7970  0.4086 -0.3925
13505SOL     OW41955   3.198   2.961   3.868 -0.1838  0.2201  0.2576
13505SOL    HW141956   3.236   2.994   3.949 -0.2191  2.0145 -0.4176
13505SOL    HW241957   3.136   2.894   3.897  1.0507 -0.4124  1.5794
13506SOL     OW41958   5.170   3.841   4.681  0.1471  0.9136  0.1757
13506SOL    HW141959   5.075   3.829   4.688  0.5163 -2.6527  1.1387
13506SOL    HW241960   5.193   3.891   4.760 -0.6993 -0.4165  1.3177
13507SOL     OW41961   5.695   3.872   5.509 -0.0066  0.3711 -0.5388
13507SOL    HW141962   5.653   3.786   5.498  4.4833 -1.9463 -2.0937
13507SOL    HW241963   5.727   3.871   5.599  0.9296 -0.1242 -0.8608
13508SOL     OW41964   4.909   2.236   4.848  0.4340  0.5552  0.7091
13508SOL    HW141965   4.847   2.174   4.809  0.3733  1.4614 -0.7473
13508SOL    HW241966   4.922   2.205   4.937  1.2524 -2.1672 -0.2648
13509SOL     OW41967   1.959   3.053   5.754 -0.0498 -0.2198 -0.5449
13509SOL    HW141968   2.007   2.972   5.771 -0.6628 -0.4876 -0.0987
13509SOL    HW241969   2.027   3.114   5.723  0.6273 -0.5060  0.3410
13510SOL     OW41970   5.107   2.558   5.033 -0.2906  0.6441 -0.6729
13510SOL    HW141971   5.059   2.563   5.115  1.5825 -0.3845  0.5684
13510SOL    HW241972   5.154   2.642   5.028 -0.3464  0.6773 -0.6407
13511SOL     OW41973   4.732   1.310   3.461  0.2165 -0.1377  0.0883
13511SOL    HW141974   4.668   1.359   3.512  1.1223  0.2116  0.9284
13511SOL    HW241975   4.687   1.231   3.435 -1.1349  0.9078 -0.8828
13512SOL     OW41976   3.605   0.807   5.170 -0.1722  0.2529  0.5742
13512SOL    HW141977   3.586   0.832   5.080  1.6635  0.6264  0.2493
13512SOL    HW241978   3.611   0.712   5.169 -0.4799  0.2350  0.3818
13513SOL     OW41979   6.069   2.914   3.694  0.1752  0.6001  0.0103
13513SOL    HW141980   6.105   2.968   3.765  1.8371 -0.4666  0.0269
13513SOL    HW241981   5.981   2.893   3.723  0.7481  0.3304  1.7200
13514SOL     OW41982   3.972   2.542   5.920  0.4541 -0.0698  0.0421
13514SOL    HW141983   3.946   2.627   5.955  0.4592  0.0203 -0.1683
13514SOL    HW241984   3.899   2.517   5.862  1.2529  0.6251 -1.3064
13515SOL     OW41985   4.140   3.204   4.779 -0.1306 -0.3605  0.4902
13515SOL    HW141986   4.104   3.235   4.696 -0.1218  1.1826  1.0263
13515SOL    HW241987   4.232   3.183   4.759 -0.5294 -1.5078 -0.2210
13516SOL     OW41988   5.017   2.205   3.967  0.3406 -0.1568  0.1942
13516SOL    HW141989   5.009   2.156   4.048  1.8035 -0.7509  0.0043
13516SOL    HW241990   4.930   2.201   3.927 -0.3417 -0.0014  1.6345
13517SOL     OW41991   5.455   3.374   4.839  0.7993 -0.0087 -0.0263
13517SOL    HW141992   5.372   3.328   4.841  1.2746 -1.2577 -2.9955
13517SOL    HW241993   5.432   3.466   4.829 -0.1540  0.0461  2.1867
13518SOL     OW41994   3.597   1.975   2.551  0.3531  0.0916  0.2136
13518SOL    HW141995   3.661   1.947   2.487  0.2890  1.5127 -0.5223
13518SOL    HW241996   3.634   2.055   2.589 -0.7734  0.7259  0.0547
13519SOL     OW41997   4.419   2.833   4.472 -0.4492  0.0230 -0.3619
13519SOL    HW141998   4.398   2.798   4.385 -1.0258  0.0999 -0.2586
13519SOL    HW241999   4.362   2.909   4.481  0.9098  1.1128 -0.6506
13520SOL     OW42000   6.794   3.931   5.024 -0.8263 -0.7349  0.5474
13520SOL    HW142001   6.854   3.872   4.977 -0.8916  0.2876 -0.8855
13520SOL    HW242002   6.817   4.018   4.992 -3.5041 -0.3676 -0.5696
13521SOL     OW42003   4.461   3.099   4.959 -0.3807  0.4566  0.3284
13521SOL    HW142004   4.463   3.195   4.963  2.9138  0.4757  0.7132
13521SOL    HW242005   4.430   3.079   4.870 -2.1182  1.7932  0.5808
13522SOL     OW42006   5.730   1.063   5.886  0.2034 -0.2459 -0.4909
13522SOL    HW142007   5.759   0.988   5.938 -0.4210 -0.4764 -0.4777
13522SOL    HW242008   5.639   1.076   5.910  0.4955  0.9611  0.0252
13523SOL     OW42009   3.517   2.306   6.149 -0.3446  0.6847  0.1734
13523SOL    HW142010   3.540   2.324   6.058 -0.4487 -0.1707 -0.0349
13523SOL    HW242011   3.453   2.234   6.143 -0.4785  0.7407  0.9109
13524SOL     OW42012   3.215   2.926   5.101  0.0821  0.5000 -0.2670
13524SOL    HW142013   3.307   2.953   5.104  1.5632 -3.8419 -0.5429
13524SOL    HW242014   3.213   2.841   5.143 -4.1174  0.8278  0.6627
13525SOL     OW42015   4.534   2.152   4.766  0.1003  0.2489 -0.6382
13525SOL    HW142016   4.553   2.228   4.820 -0.9208 -0.9853  1.5526
13525SOL    HW242017   4.614   2.099   4.770 -0.6567 -0.8479  1.5224
13526SOL     OW42018   5.156   3.307   3.075  0.1066 -0.3090 -0.5922
13526SOL    HW142019   5.190   3.305   2.985  0.4875 -0.6131 -0.4436
13526SOL    HW242020   5.173   3.396   3.105 -0.7918  0.0510 -1.1100
13527SOL     OW42021   4.270   3.475   4.552  0.5791 -0.5103 -0.7845
13527SOL    HW142022   4.360   3.474   4.586  0.6635  1.0557 -0.9335
13527SOL    HW242023   4.256   3.386   4.520  1.5541 -1.1977  0.5802
13528SOL     OW42024   2.874   2.364   3.945  0.6933  0.3038  0.6145
13528SOL    HW142025   2.809   2.404   4.004  0.0145 -1.3413  1.0480
13528SOL    HW242026   2.886   2.429   3.875 -2.1814  0.2964 -0.0114
13529SOL     OW42027   5.297   3.084   6.654 -0.5149  0.3402 -0.1179
13529SOL    HW142028   5.220   3.140   6.648 -1.2559 -0.7535 -1.3172
13529SOL    HW242029   5.364   3.129   6.603 -0.0667  1.6671  1.5363
13530SOL     OW42030   4.454   2.471   7.235 -0.3972 -0.1370 -0.1465
13530SOL    HW142031   4.417   2.558   7.218  0.7301  0.6076  1.0124
13530SOL    HW242032   4.439   2.422   7.155  0.6320  1.7435 -1.5552
13531SOL     OW42033   4.099   2.003   4.695  0.4126 -0.3901  0.0911
13531SOL    HW142034   4.057   2.089   4.692  0.7153 -0.2469 -0.2183
13531SOL    HW242035   4.130   1.995   4.786 -0.8900 -0.8095  0.5173
13532SOL     OW42036   3.066   2.086   3.258  0.0347  0.0088 -0.2244
13532SOL    HW142037   3.035   2.047   3.176  2.9471 -0.1640 -1.3816
13532SOL    HW242038   3.122   2.158   3.230 -0.7999  1.5036  1.7465
13533SOL     OW42039   5.310   3.894   5.228 -0.3043  0.3856  0.4611
13533SOL    HW142040   5.268   3.952   5.291 -1.3669  1.7246 -1.3988
13533SOL    HW242041   5.249   3.889   5.155 -0.1971 -3.0211  0.4559
13534SOL     OW42042   3.132   2.963   6.722 -0.6269 -0.3899 -0.1676
13534SOL    HW142043   3.076   2.896   6.761 -1.1674 -0.6908 -1.4247
13534SOL    HW242044   3.220   2.940   6.752 -0.9982 -0.6674  0.7693
13535SOL     OW42045   3.642   1.295   4.440  0.1893  0.3208 -0.2411
13535SOL    HW142046   3.570   1.237   4.417 -1.0396  2.4549 -2.2458
13535SOL    HW242047   3.654   1.282   4.534 -3.2959  0.2979  0.3577
13536SOL     OW42048   5.002   2.010   5.878  0.4605  0.2083  0.0294
13536SOL    HW142049   4.993   2.105   5.886 -0.5364  0.0285  1.5576
13536SOL    HW242050   5.091   1.996   5.847  0.0544  1.6964 -2.0240
13537SOL     OW42051   2.430   3.657   3.989  0.4622 -0.1381  0.9152
13537SOL    HW142052   2.392   3.669   3.902  0.5431  1.9069  1.1245
13537SOL    HW242053   2.434   3.562   4.000 -0.7900 -0.4289 -0.7598
13538SOL     OW42054   4.792   3.713   3.980  0.7159  0.1232  0.7249
13538SOL    HW142055   4.708   3.748   4.009  0.2659  0.6969 -1.1326
13538SOL    HW242056   4.797   3.737   3.887  1.6228 -2.4527  0.0422
13539SOL     OW42057   3.753   2.162   6.186  0.8369  0.4148  0.2553
13539SOL    HW142058   3.815   2.221   6.143  0.6201 -0.1007 -0.7977
13539SOL    HW242059   3.670   2.210   6.185  0.3440 -0.3758 -1.7975
13540SOL     OW42060   6.069   3.354   4.679  0.8323 -0.0425 -0.4555
13540SOL    HW142061   6.117   3.380   4.600  0.8082  1.3074 -0.0522
13540SOL    HW242062   5.977   3.372   4.658  0.8063  0.1440 -0.1811
13541SOL     OW42063   6.052   1.300   3.463 -0.9382  0.5141 -0.1400
13541SOL    HW142064   5.979   1.361   3.453 -2.4222 -0.9091  1.4118
13541SOL    HW242065   6.061   1.288   3.557  0.3281 -0.5033 -0.3598
13542SOL     OW42066   4.030   3.958   4.628  0.2608 -0.3538  0.3660
13542SOL    HW142067   4.083   4.037   4.643  0.2001 -0.1154 -0.6056
13542SOL    HW242068   4.061   3.896   4.694  1.6650 -0.1646 -0.0763
13543SOL     OW42069   3.530   2.824   5.561  0.2143  0.3904  0.7201
13543SOL    HW142070   3.479   2.751   5.527  0.8055 -0.2637  1.2043
13543SOL    HW242071   3.488   2.845   5.645 -0.4647  1.1629  0.1949
13544SOL     OW42072   4.052   7.568   5.101  0.4201  0.1595 -0.3923
13544SOL    HW142073   4.075   7.593   5.012 -0.0225 -0.4191 -0.6754
13544SOL    HW242074   3.978   7.508   5.091 -1.8947  2.6911  0.5249
13545SOL     OW42075   5.593   0.254   3.190  0.5223 -0.5112 -0.6324
13545SOL    HW142076   5.574   0.184   3.251 -0.3250  0.2229 -0.0285
13545SOL    HW242077   5.509   0.277   3.152  0.8332 -0.0320 -1.0521
13546SOL     OW42078   4.147   1.711   5.076  0.1396  0.0468  0.0550
13546SOL    HW142079   4.158   1.799   5.040 -1.2215  1.1458  2.0928
13546SOL    HW242080   4.218   1.703   5.141 -0.1854 -0.0420  0.4035
13547SOL     OW42081   5.525   2.862   5.325 -0.7047 -0.2373 -0.4285
13547SOL    HW142082   5.581   2.925   5.279 -1.0660  0.7616  0.4429
13547SOL    HW242083   5.560   2.777   5.300  2.2283  0.3216  1.2321
13548SOL     OW42084   4.088   2.627   5.234 -0.0541  0.6454  0.4621
13548SOL    HW142085   4.148   2.586   5.296 -2.1151 -0.5843  1.7813
13548SOL    HW242086   4.081   2.718   5.264 -0.3538  0.2827  1.5497
13549SOL     OW42087   3.839   3.290   4.361  0.0348  0.1137  0.1433
13549SOL    HW142088   3.932   3.266   4.362  0.6591  2.3458  0.1077
13549SOL    HW242089   3.809   3.266   4.274  0.9739  0.7092 -0.3598
13550SOL     OW42090   4.485   2.333   4.277 -0.0852 -0.1969  0.2076
13550SOL    HW142091   4.441   2.249   4.282  0.5449 -0.5391  0.0481
13550SOL    HW242092   4.453   2.381   4.353  1.6910 -1.6109  1.9142
13551SOL     OW42093   1.984   3.117   2.468 -0.1494 -0.2039  0.1239
13551SOL    HW142094   2.078   3.131   2.481 -0.4117  0.4122  1.6513
13551SOL    HW242095   1.975   3.088   2.377  1.6557 -1.7065  0.3734
13552SOL     OW42096   4.949   2.856   3.070  0.0922  0.1933  0.5096
13552SOL    HW142097   4.920   2.878   2.982  0.2457 -1.4209  0.0122
13552SOL    HW242098   4.990   2.935   3.104  0.8818  0.5579 -1.2357
13553SOL     OW42099   2.707   1.782   4.094  0.0755  0.4279 -0.1284
13553SOL    HW142100   2.617   1.755   4.077  1.1966 -2.6887 -2.2400
13553SOL    HW242101   2.720   1.766   4.187 -1.6134  1.3442  0.3027
13554SOL     OW42102   4.789   2.304   4.263 -0.0349 -0.3225  0.2879
13554SOL    HW142103   4.697   2.279   4.248  0.4215 -1.3850 -1.0099
13554SOL    HW242104   4.810   2.362   4.190  0.2200  0.2508  0.8080
13555SOL     OW42105   4.446   1.579   5.001 -0.6813  0.2396 -0.2794
13555SOL    HW142106   4.443   1.491   4.965  1.3171  0.5528 -1.3237
13555SOL    HW242107   4.365   1.587   5.052 -0.9051 -2.1610 -0.1772
13556SOL     OW42108   4.861   3.192   3.669  0.2917 -0.2758  0.2482
13556SOL    HW142109   4.856   3.230   3.581  0.2634  0.8183  0.7177
13556SOL    HW242110   4.785   3.133   3.673 -0.2479  0.3768 -0.1321
13557SOL     OW42111   4.916   4.388   4.445 -0.0674 -0.1703 -0.1675
13557SOL    HW142112   4.907   4.479   4.470  0.3141 -0.3785  0.7587
13557SOL    HW242113   4.879   4.339   4.519 -0.7922 -0.7575 -0.8999
13558SOL     OW42114   5.989   1.711   4.849 -0.0175  0.1168 -0.7828
13558SOL    HW142115   6.009   1.661   4.928  1.2512  1.4546 -0.2001
13558SOL    HW242116   5.964   1.645   4.785 -1.0738 -1.0185  0.7047
13559SOL     OW42117   3.753   2.823   5.749 -0.6004 -0.0944  0.7812
13559SOL    HW142118   3.767   2.914   5.724  1.3046 -0.0840  1.7337
13559SOL    HW242119   3.674   2.797   5.701 -1.4683  2.1823  0.8515
13560SOL     OW42120   3.429   2.653   5.095 -0.6013  0.0776  0.0869
13560SOL    HW142121   3.521   2.678   5.108 -0.8450  1.9266 -1.3246
13560SOL    HW242122   3.390   2.661   5.182  0.6673 -1.3649  0.8458
13561SOL     OW42123   5.246   3.278   5.074 -0.2087 -0.0718  0.1705
13561SOL    HW142124   5.163   3.285   5.120 -0.4096 -3.1011  0.4867
13561SOL    HW242125   5.309   3.252   5.142  0.0937 -1.7252 -0.6828
13562SOL     OW42126   2.890   1.537   4.658  0.0479  0.4183  0.1932
13562SOL    HW142127   2.980   1.515   4.679  0.6711 -0.8306 -3.0709
13562SOL    HW242128   2.887   1.632   4.660  1.5480  0.4878  0.0945
13563SOL     OW42129   6.735   5.136   3.624  0.2197  0.1648 -0.3371
13563SOL    HW142130   6.690   5.053   3.638 -0.4923  0.6563  0.3799
13563SOL    HW242131   6.729   5.151   3.530 -1.0691  0.1868 -0.2612
13564SOL     OW42132   5.156   1.656   5.213 -0.1273  0.1496 -0.2291
13564SOL    HW142133   5.103   1.594   5.263 -0.1380 -1.2330 -1.8702
13564SOL    HW242134   5.099   1.733   5.204  0.0531  0.6568  2.2031
13565SOL     OW42135   5.555   2.203   7.090 -0.2929  0.7118  0.2488
13565SOL    HW142136   5.596   2.286   7.065  0.2394  0.4507  0.2420
13565SOL    HW242137   5.625   2.138   7.080 -1.4034 -0.2276 -2.5454
13566SOL     OW42138   3.975   2.149   3.152  1.0127 -0.1944  0.2981
13566SOL    HW142139   3.915   2.119   3.220  1.6310 -0.0185  0.9341
13566SOL    HW242140   3.923   2.210   3.099  0.5778 -0.1886  0.7223
13567SOL     OW42141   4.928   1.145   1.772 -0.5011 -0.1975  0.0175
13567SOL    HW142142   4.852   1.169   1.826 -0.1316 -0.1273  0.5167
13567SOL    HW242143   4.928   1.049   1.772 -0.2531 -0.1987  0.5030
13568SOL     OW42144   4.796   2.479   5.066  0.0120 -0.0788 -0.2543
13568SOL    HW142145   4.753   2.561   5.044 -1.2149 -0.7668 -0.5153
13568SOL    HW242146   4.854   2.501   5.139 -0.7704  0.8987  0.0927
13569SOL     OW42147   3.380   2.252   5.613  0.2827 -0.0643  0.1040
13569SOL    HW142148   3.448   2.275   5.550 -1.0938  0.0564 -1.4193
13569SOL    HW242149   3.326   2.187   5.567 -0.3606 -0.5060  1.4354
13570SOL     OW42150   5.277   3.662   5.989  0.1475 -0.5058  0.3530
13570SOL    HW142151   5.213   3.607   6.034 -0.4999 -1.2297 -1.3719
13570SOL    HW242152   5.238   3.679   5.903  1.2875  0.9088  0.0774
13571SOL     OW42153   3.862   2.641   4.831 -0.3943  0.2531  0.9464
13571SOL    HW142154   3.818   2.603   4.755  2.1963 -0.9759 -0.0473
13571SOL    HW242155   3.881   2.731   4.804 -1.4709  0.5326  1.0638
13572SOL     OW42156   2.600   2.008   3.803  0.5845 -0.2830  0.4226
13572SOL    HW142157   2.511   1.975   3.808  0.6288 -0.2413  1.7352
13572SOL    HW242158   2.607   2.047   3.716 -0.7331 -0.1074  0.3839
13573SOL     OW42159   5.166   7.794   5.140 -0.0708 -0.1766 -0.3347
13573SOL    HW142160   5.106   7.865   5.119  0.5924  0.6799  0.5791
13573SOL    HW242161   5.120   7.742   5.205 -0.4839 -0.4817 -0.8668
13574SOL     OW42162   4.641   3.608   4.931 -0.2406  0.4182  0.1101
13574SOL    HW142163   4.691   3.690   4.935 -0.1179  0.3001  1.6347
13574SOL    HW242164   4.587   3.609   5.010 -1.1205 -0.4359 -0.4631
13575SOL     OW42165   3.959   3.148   3.622  0.0757 -0.1907  0.4140
13575SOL    HW142166   3.988   3.151   3.530 -1.8730  1.0879 -0.2250
13575SOL    HW242167   3.955   3.240   3.648  0.1500 -0.5295  1.6443
13576SOL     OW42168   3.413   3.749   3.944  0.6337 -0.3450 -0.1948
13576SOL    HW142169   3.463   3.676   3.979  0.9720 -1.9871 -3.6880
13576SOL    HW242170   3.324   3.716   3.935  0.2777  0.4622  0.2429
13577SOL     OW42171   4.168   0.490   3.777  0.1520  0.3572  0.0895
13577SOL    HW142172   4.154   0.396   3.787  0.8530  0.3372  0.9789
13577SOL    HW242173   4.199   0.500   3.687 -1.6710 -0.0370 -0.6238
13578SOL     OW42174   3.600   3.592   5.120 -0.1706  0.2251  0.1114
13578SOL    HW142175   3.570   3.503   5.137  2.7993 -1.2179 -1.4432
13578SOL    HW242176   3.538   3.626   5.055 -1.2527 -0.7572  0.5913
13579SOL     OW42177   4.180   3.183   5.248 -0.3139  0.5367 -0.0650
13579SOL    HW142178   4.103   3.218   5.293 -1.0590 -0.3553 -0.6234
13579SOL    HW242179   4.254   3.216   5.299 -1.1279 -1.5881  2.7861
13580SOL     OW42180   5.368   2.913   4.197  0.3932 -0.1699 -0.4185
13580SOL    HW142181   5.353   3.007   4.203 -0.7058 -0.4249  2.5674
13580SOL    HW242182   5.288   2.874   4.234  0.3846 -2.3500 -2.5020
13581SOL     OW42183   5.496   3.166   7.386  0.0252  0.3463  0.0759
13581SOL    HW142184   5.499   3.215   7.469 -2.1059  1.3252 -0.3493
13581SOL    HW242185   5.579   3.118   7.384  1.2427  2.1914  1.6063
13582SOL     OW42186   5.416   2.303   4.753  0.1719 -0.5937  0.1794
13582SOL    HW142187   5.390   2.386   4.793  1.6819  0.2400 -0.4922
13582SOL    HW242188   5.333   2.262   4.730 -0.6279  1.3552 -0.6951
13583SOL     OW42189   3.610   2.917   5.078 -0.1018  0.1424  0.1495
13583SOL    HW142190   3.662   2.997   5.075 -0.6309  0.4884  0.2321
13583SOL    HW242191   3.527   2.940   5.038 -0.2962 -0.3402  0.2640
13584SOL     OW42192   4.368   3.357   5.381  0.3330 -0.3294  0.0592
13584SOL    HW142193   4.414   3.326   5.459  1.0716 -1.0408 -0.6354
13584SOL    HW242194   4.321   3.435   5.410  2.7567  1.0348  0.6086
13585SOL     OW42195   5.144   1.223   6.884 -0.2119  0.0267  0.0106
13585SOL    HW142196   5.208   1.180   6.940  0.3154  0.6310 -0.1106
13585SOL    HW242197   5.139   1.167   6.807  1.6544  0.9359 -0.8540
13586SOL     OW42198   3.788   2.817   5.429  0.4715 -0.3710 -0.5053
13586SOL    HW142199   3.718   2.832   5.493  1.3325 -1.7954  0.8067
13586SOL    HW242200   3.804   2.904   5.391 -0.4627  0.3997  0.7773
13587SOL     OW42201   3.562   0.990   5.834 -0.0262 -0.1803  0.1174
13587SOL    HW142202   3.615   1.067   5.811 -2.1106  1.3967  0.3324
13587SOL    HW242203   3.611   0.949   5.906  0.6946  1.4852  0.6461
13588SOL     OW42204   4.268   3.126   3.416  0.8302 -0.5498  0.5212
13588SOL    HW142205   4.174   3.146   3.412  0.6084 -1.3902  1.3278
13588SOL    HW242206   4.282   3.065   3.344  1.2564  1.3768 -1.1240
13589SOL     OW42207   4.130   2.464   4.902 -0.3400 -0.2924  0.1907
13589SOL    HW142208   4.223   2.480   4.888 -0.7093  1.3519 -0.5637
13589SOL    HW242209   4.090   2.475   4.816 -1.5653  1.6695  0.9430
13590SOL     OW42210   6.359   0.967   4.325 -0.1165 -0.4628 -0.4718
13590SOL    HW142211   6.293   0.899   4.310 -0.3110 -0.3271 -0.2417
13590SOL    HW242212   6.419   0.959   4.251  0.4630 -1.5834  0.1042
13591SOL     OW42213   3.381   2.801   5.784 -0.3881  0.4289  0.4585
13591SOL    HW142214   3.440   2.850   5.840 -1.3528  0.5363  1.3985
13591SOL    HW242215   3.318   2.761   5.843 -1.2538  0.2895 -0.5200
13592SOL     OW42216   3.931   2.065   5.957 -0.5160 -0.2686  0.5051
13592SOL    HW142217   3.925   2.152   5.997  0.8215  1.7272 -3.1849
13592SOL    HW242218   3.841   2.042   5.934 -0.8683  0.1305  1.4334
13593SOL     OW42219   5.890   2.098   6.186 -0.0174 -0.3460  0.3524
13593SOL    HW142220   5.826   2.036   6.151  0.0928 -0.7213  0.8070
13593SOL    HW242221   5.946   2.045   6.242 -0.8538  0.4247  1.9800
13594SOL     OW42222   4.027   1.818   2.859  0.0636 -0.4325 -0.2071
13594SOL    HW142223   4.085   1.869   2.915  2.0118 -2.2891 -0.3865
13594SOL    HW242224   4.060   1.728   2.866 -2.3954 -1.4716 -0.8929
13595SOL     OW42225   5.598   1.417   4.422 -0.3957  0.3750 -0.9383
13595SOL    HW142226   5.614   1.505   4.459 -1.5821  0.5360 -0.7741
13595SOL    HW242227   5.684   1.374   4.426 -0.3158  0.5869  1.5184
13596SOL     OW42228   4.941   2.027   2.589 -0.7094  0.0544  0.4528
13596SOL    HW142229   4.904   2.110   2.559 -1.6636 -0.3640  0.4240
13596SOL    HW242230   4.991   1.995   2.514  0.9136  1.2895  0.9549
13597SOL     OW42231   4.132   2.763   4.951 -0.1127 -0.1375 -0.0465
13597SOL    HW142232   4.184   2.822   5.006 -1.3737 -0.6643  1.8332
13597SOL    HW242233   4.138   2.800   4.863  1.5189  1.0932  0.5292
13598SOL     OW42234   5.289   3.239   5.708  0.4181 -0.2937  0.1915
13598SOL    HW142235   5.300   3.262   5.801  1.0516 -1.3886  0.4068
13598SOL    HW242236   5.368   3.191   5.686 -0.1557 -0.8695 -0.6676
13599SOL     OW42237   4.616   2.937   5.955 -0.3346 -0.2596  0.0485
13599SOL    HW142238   4.572   3.015   5.921  1.3625  1.0847  0.7892
13599SOL    HW242239   4.548   2.892   6.005 -0.9850  1.6559  1.0271
13600SOL     OW42240   5.406   2.065   3.988  0.4491  0.3656 -0.2061
13600SOL    HW142241   5.448   1.979   3.998  1.0758  0.6669 -0.1763
13600SOL    HW242242   5.343   2.070   4.060  1.5822  0.5961  0.8083
13601SOL     OW42243   4.963   3.366   4.255  0.5398 -0.4484  0.0834
13601SOL    HW142244   4.894   3.372   4.322 -1.0298  1.0997 -1.5478
13601SOL    HW242245   5.044   3.356   4.305 -0.4223  1.7407  2.3047
13602SOL     OW42246   3.952   4.053   5.096 -0.8450  0.2145  0.2289
13602SOL    HW142247   4.018   4.106   5.141  0.0485  0.1675 -0.9784
13602SOL    HW242248   3.877   4.112   5.086 -0.7058  0.5206  0.9189
13603SOL     OW42249   4.284   2.758   3.555 -0.4517  0.4557  0.1565
13603SOL    HW142250   4.353   2.691   3.564  0.2155  1.0647 -0.3154
13603SOL    HW242251   4.219   2.734   3.621 -1.4819 -2.1474 -1.6255
13604SOL     OW42252   3.455   1.588   4.382  0.0839 -0.1105 -0.1080
13604SOL    HW142253   3.372   1.544   4.399  0.2206 -0.6738 -0.8421
13604SOL    HW242254   3.433   1.681   4.380 -0.3724 -0.1950  0.5419
13605SOL     OW42255   6.044   1.269   6.370  0.0868  0.3683 -0.0416
13605SOL    HW142256   6.100   1.222   6.432 -0.5000 -0.2612  0.0194
13605SOL    HW242257   5.984   1.320   6.426 -0.3167 -0.0511 -0.0858
13606SOL     OW42258   2.077   2.062   5.470 -0.0297  1.0210  0.1795
13606SOL    HW142259   2.105   2.138   5.419 -2.3077  1.2165 -0.8814
13606SOL    HW242260   2.042   2.099   5.551  2.4337  0.7873  1.4316
13607SOL     OW42261   3.487   4.055   4.532  0.3598  0.5405 -1.1587
13607SOL    HW142262   3.483   3.975   4.480  0.1239 -0.5960  0.5232
13607SOL    HW242263   3.575   4.054   4.571 -0.5580 -0.4177  1.0665
13608SOL     OW42264   4.115   3.705   4.967  0.9178  0.1817 -0.0921
13608SOL    HW142265   4.154   3.735   4.885  0.0484 -0.2150 -0.6785
13608SOL    HW242266   4.076   3.620   4.944  0.8845 -0.0521  0.8011
13609SOL     OW42267   3.629   2.836   4.734  0.1299 -0.1358 -0.4400
13609SOL    HW142268   3.553   2.888   4.760 -0.0983 -1.1650  1.0650
13609SOL    HW242269   3.702   2.898   4.735 -0.3110  0.3807  0.3356
13610SOL     OW42270   3.940   2.327   6.082  0.2807  0.5636 -0.3133
13610SOL    HW142271   3.988   2.363   6.157 -1.0734 -0.8704  1.3125
13610SOL    HW242272   3.942   2.397   6.017  1.7497  1.7537  0.9274
13611SOL     OW42273   3.427   3.017   3.452  0.2024 -0.6366 -0.0953
13611SOL    HW142274   3.363   3.009   3.522  0.2964 -1.4688 -0.0824
13611SOL    HW242275   3.385   2.976   3.376  0.6903 -1.1634 -0.0937
13612SOL     OW42276   4.151   1.432   4.245 -0.1207  0.2020  0.0395
13612SOL    HW142277   4.245   1.449   4.246 -0.2118  0.7048  0.5547
13612SOL    HW242278   4.115   1.492   4.310 -0.7252 -0.4413  0.3154
13613SOL     OW42279   2.458   2.775   3.538 -0.1377  0.4039  0.5140
13613SOL    HW142280   2.545   2.757   3.503 -0.4707  1.8682 -1.1972
13613SOL    HW242281   2.398   2.730   3.479 -0.6240  1.0344  0.5234
13614SOL     OW42282   4.394   0.681   4.733 -0.3478 -0.5321 -0.2735
13614SOL    HW142283   4.477   0.707   4.773  0.0748 -2.0469 -0.1175
13614SOL    HW242284   4.342   0.647   4.806  1.0324 -4.8704 -1.0255
13615SOL     OW42285   4.715   1.055   5.741  0.3792  0.2326  0.5781
13615SOL    HW142286   4.745   1.011   5.821 -0.9586 -0.9306  0.4822
13615SOL    HW242287   4.638   1.105   5.769  1.1771  1.5908  0.4309
13616SOL     OW42288   4.176   4.311   6.647 -0.5678  0.1173  0.4538
13616SOL    HW142289   4.230   4.303   6.569 -0.3417  0.4509  0.5709
13616SOL    HW242290   4.147   4.402   6.647 -0.1649  0.2604  1.0089
13617SOL     OW42291   3.214   1.760   2.752 -0.8576  0.0341 -0.1589
13617SOL    HW142292   3.253   1.673   2.741  0.9531  1.1186 -3.7247
13617SOL    HW242293   3.289   1.819   2.756 -1.8205  1.9270 -4.3982
13618SOL     OW42294   4.036   2.459   2.105  0.3383  0.1380  0.3584
13618SOL    HW142295   3.987   2.492   2.180  0.0527 -0.3119  0.3779
13618SOL    HW242296   4.036   2.364   2.116 -0.0971  0.0319 -0.4440
13619SOL     OW42297   4.855   1.902   4.429  0.2890  0.0607 -0.4733
13619SOL    HW142298   4.824   1.829   4.482 -0.4262  0.2247 -0.6526
13619SOL    HW242299   4.791   1.972   4.445 -0.1958 -0.0226 -1.8685
13620SOL     OW42300   5.901   3.995   5.412 -0.2717  0.5422 -0.3006
13620SOL    HW142301   5.811   3.962   5.412  0.1656 -0.7130 -0.9869
13620SOL    HW242302   5.892   4.090   5.404 -1.6078  0.7742  2.5384
13621SOL     OW42303   4.734   3.961   5.371  0.5584  0.1816 -0.1572
13621SOL    HW142304   4.793   4.011   5.315 -0.3265  1.1830 -0.2272
13621SOL    HW242305   4.768   3.973   5.460 -0.2895  1.9106 -0.0267
13622SOL     OW42306   3.231   3.933   4.674 -0.3203 -0.0052  0.2324
13622SOL    HW142307   3.301   3.986   4.711 -1.6057  1.5738  0.4771
13622SOL    HW242308   3.226   3.857   4.732  2.3386 -1.1095 -0.7976
13623SOL     OW42309   4.783   3.162   5.339 -0.3158 -0.2921  0.7092
13623SOL    HW142310   4.721   3.212   5.286  0.0223 -0.5253  0.0812
13623SOL    HW242311   4.864   3.213   5.334 -0.9043  1.0022  3.0339
13624SOL     OW42312   6.315   0.946   3.741 -0.3628  0.3850 -0.0341
13624SOL    HW142313   6.351   0.995   3.668 -1.7143 -0.3898 -1.2732
13624SOL    HW242314   6.390   0.899   3.778  0.1680 -0.0703 -1.6259
13625SOL     OW42315   5.030   2.502   3.912  0.4128 -0.2705 -0.0611
13625SOL    HW142316   5.058   2.501   3.820  0.0810  2.4173 -0.2729
13625SOL    HW242317   5.047   2.413   3.943  2.0955 -0.8082 -2.2555
13626SOL     OW42318   4.603   3.303   5.197  0.0712  0.1644  0.0600
13626SOL    HW142319   4.514   3.332   5.217 -0.3166  0.7723 -2.3064
13626SOL    HW242320   4.652   3.384   5.184  0.9780 -0.1702  1.2510
13627SOL     OW42321   4.460   2.812   5.723  0.0911  0.0338 -0.1322
13627SOL    HW142322   4.520   2.847   5.788  0.1049  0.5904 -0.4389
13627SOL    HW242323   4.429   2.889   5.675 -0.7693 -0.2570 -0.0585
13628SOL     OW42324   5.509   3.350   5.277  0.2509 -0.0169 -0.1554
13628SOL    HW142325   5.465   3.284   5.330  0.7941  0.4501  0.9160
13628SOL    HW242326   5.459   3.431   5.293 -0.7198 -0.2267 -1.8495
13629SOL     OW42327   4.492   1.925   5.361 -0.1953  0.0677 -0.1943
13629SOL    HW142328   4.417   1.882   5.402 -1.6345  2.0617 -0.5647
13629SOL    HW242329   4.458   2.008   5.329  1.9810  0.6536 -1.2401
13630SOL     OW42330   2.742   0.601   4.862 -0.2736  0.5670  0.2833
13630SOL    HW142331   2.751   0.572   4.772 -0.2544  2.1431 -0.2547
13630SOL    HW242332   2.737   0.697   4.856  3.1382  1.0274  2.1489
13631SOL     OW42333   4.787   3.118   2.981 -0.0953  0.0438 -0.2350
13631SOL    HW142334   4.839   3.184   2.934  2.6306 -2.3466 -0.8569
13631SOL    HW242335   4.719   3.093   2.918 -1.4078  2.3729  0.1352
13632SOL     OW42336   4.118   2.626   4.122 -0.2561 -0.1385  0.4149
13632SOL    HW142337   4.070   2.563   4.175  3.6321 -3.2770  0.7263
13632SOL    HW242338   4.129   2.702   4.180 -0.8733 -1.2147  2.0225
13633SOL     OW42339   4.068   2.238   5.076  0.6773  0.1111  0.1275
13633SOL    HW142340   4.094   2.324   5.044  0.5441  0.0956 -0.0206
13633SOL    HW242341   4.044   2.253   5.168  0.1586  0.3300 -0.0390
13634SOL     OW42342   5.828   3.906   3.623 -0.1685 -0.2092  0.7397
13634SOL    HW142343   5.794   3.816   3.619  0.2346 -0.3224 -1.1188
13634SOL    HW242344   5.878   3.916   3.542  0.5384  1.4167  1.3362
13635SOL     OW42345   4.210   3.958   5.344 -0.6860 -0.0891 -0.0372
13635SOL    HW142346   4.225   4.043   5.386  1.2648  0.1427 -1.0565
13635SOL    HW242347   4.276   3.900   5.383 -1.1580 -0.8025 -0.2728
13636SOL     OW42348   4.746   2.913   4.768 -0.3132 -0.5746 -0.9149
13636SOL    HW142349   4.757   2.995   4.816  1.0097 -1.7527  0.8932
13636SOL    HW242350   4.652   2.893   4.776 -0.2205 -0.4801  0.8202
13637SOL     OW42351   4.155   2.935   5.357  0.5103 -0.1873 -0.5367
13637SOL    HW142352   4.245   2.947   5.388 -0.0110 -0.1168  0.9951
13637SOL    HW242353   4.132   3.020   5.318  1.2236 -0.3267 -1.2955
13638SOL     OW42354   4.832   0.865   5.069  0.0463 -0.9032  0.3515
13638SOL    HW142355   4.821   0.960   5.070 -1.0401 -1.0150  0.3035
13638SOL    HW242356   4.819   0.839   5.160  0.0564 -1.0304  0.3164
13639SOL     OW42357   4.029   2.705   3.716 -0.3754 -0.7056  0.1331
13639SOL    HW142358   3.942   2.668   3.700 -1.0068  0.8550 -0.2360
13639SOL    HW242359   4.012   2.786   3.763  0.8470 -0.0623 -0.4854
13640SOL     OW42360   4.500   3.606   5.170  0.2158 -0.5331  0.3151
13640SOL    HW142361   4.440   3.680   5.173 -1.0218 -1.4972  0.2395
13640SOL    HW242362   4.549   3.612   5.252 -0.3106  0.0191  0.5976
13641SOL     OW42363   4.075   2.162   5.640  0.6382  0.1709 -0.2835
13641SOL    HW142364   4.160   2.205   5.629  0.1591  0.9117 -1.2400
13641SOL    HW242365   4.023   2.225   5.689  0.2887  0.2128 -0.7004
13642SOL     OW42366   1.172   1.596   7.558 -0.0638  0.1177  0.0906
13642SOL    HW142367   1.082   1.622   7.578 -0.0158 -0.0753  0.5917
13642SOL    HW242368   1.208   1.669   7.509  0.4958  1.6612  2.6009
13643SOL     OW42369   4.684   3.453   5.489 -0.6630 -0.0968 -0.3522
13643SOL    HW142370   4.632   3.389   5.538 -0.8748 -0.7992 -1.4524
13643SOL    HW242371   4.631   3.533   5.491 -0.2100  0.2059  1.3840
13644SOL     OW42372   2.730   2.084   5.818  0.1522  0.2782  0.5505
13644SOL    HW142373   2.675   2.007   5.805  0.5605  0.0827 -0.1154
13644SOL    HW242374   2.726   2.130   5.734 -0.2882  1.1172  1.0233
13645SOL     OW42375   4.878   3.472   3.594 -0.1735 -0.2911  0.1268
13645SOL    HW142376   4.798   3.423   3.612  0.9490 -2.0967  0.4950
13645SOL    HW242377   4.886   3.534   3.666 -0.9963 -0.4183  0.3338
13646SOL     OW42378   3.320   2.166   4.149 -0.0090 -0.0402  0.3044
13646SOL    HW142379   3.389   2.223   4.182  0.9253 -0.6440 -0.5366
13646SOL    HW242380   3.361   2.118   4.077 -1.4418 -0.0793 -0.5241
13647SOL     OW42381   6.046   3.438   6.098  0.5228  0.1741 -0.3034
13647SOL    HW142382   5.982   3.369   6.082 -1.0834  1.4531  0.3452
13647SOL    HW242383   5.998   3.519   6.084  1.3447  1.2274  2.3481
13648SOL     OW42384   4.816   1.340   5.369 -0.0994 -0.4522 -0.1560
13648SOL    HW142385   4.748   1.316   5.431  0.8932  2.1607  2.1253
13648SOL    HW242386   4.879   1.268   5.374 -1.5466 -1.8152 -0.6382
13649SOL     OW42387   4.028   2.299   4.647  0.2036  0.1654  0.0390
13649SOL    HW142388   4.120   2.277   4.661  0.0073 -0.4313  0.4211
13649SOL    HW242389   4.030   2.382   4.600  0.9270  0.4414  0.5443
13650SOL     OW42390   3.884   3.894   4.408 -1.1358 -0.3065  0.0929
13650SOL    HW142391   3.929   3.910   4.491  1.8860 -0.7154 -1.3261
13650SOL    HW242392   3.896   3.975   4.359 -0.8682 -0.8608 -0.7723
13651SOL     OW42393   4.894   2.661   4.781 -0.0333 -0.0149  0.3323
13651SOL    HW142394   4.860   2.675   4.693  2.4386  0.9961 -0.5282
13651SOL    HW242395   4.892   2.748   4.822 -0.0230 -0.2577  0.8613
13652SOL     OW42396   4.875   1.004   4.775 -0.0969 -0.5105  0.5782
13652SOL    HW142397   4.942   1.072   4.780 -0.3638 -0.0099 -1.6234
13652SOL    HW242398   4.892   0.948   4.850  1.0757  1.1265  1.6127
13653SOL     OW42399   3.775   2.544   5.422  0.1205 -0.1299 -1.2101
13653SOL    HW142400   3.781   2.640   5.419  1.9434 -0.2176 -1.4397
13653SOL    HW242401   3.863   2.516   5.447 -0.6045 -1.7250 -0.3641
13654SOL     OW42402   4.519   1.438   5.345 -0.1852  0.0389  0.3255
13654SOL    HW142403   4.527   1.435   5.440 -1.3206 -0.4750  0.4164
13654SOL    HW242404   4.477   1.356   5.321 -1.4762  0.8801 -0.4374
13655SOL     OW42405   5.538   2.267   5.488 -0.7106  0.2503 -0.4361
13655SOL    HW142406   5.602   2.200   5.510 -0.6166  0.2931 -0.5827
13655SOL    HW242407   5.583   2.350   5.504 -0.2918  0.2959 -1.7924
13656SOL     OW42408   4.410   3.172   4.676 -0.6538 -0.4037 -0.1404
13656SOL    HW142409   4.482   3.229   4.650 -0.2004 -0.6313  0.5905
13656SOL    HW242410   4.377   3.137   4.593  0.6692 -1.0039 -0.4477
13657SOL     OW42411   4.464   3.687   4.743 -0.2693  0.1514  0.0805
13657SOL    HW142412   4.522   3.671   4.818  0.1811 -0.7714 -0.4446
13657SOL    HW242413   4.499   3.630   4.674 -0.5596  1.1313 -0.8908
13658SOL     OW42414   3.601   1.584   5.223  0.3994  0.5587  0.4536
13658SOL    HW142415   3.596   1.556   5.314 -0.7645 -0.1345  0.1962
13658SOL    HW242416   3.681   1.543   5.189  0.0541 -0.4186  0.7772
13659SOL     OW42417   5.634   4.142   5.489 -0.0273  0.2190 -0.5318
13659SOL    HW142418   5.564   4.180   5.543  0.2778  1.0877 -0.7405
13659SOL    HW242419   5.631   4.048   5.509  0.7478  0.6204  1.8064
13660SOL     OW42420   3.707   3.150   3.221 -0.0534  0.3534 -0.7444
13660SOL    HW142421   3.637   3.134   3.158 -0.3588 -0.3698 -0.2446
13660SOL    HW242422   3.782   3.102   3.187 -0.8332 -1.9069  0.5092
13661SOL     OW42423   4.030   4.168   5.519 -0.0546  0.4377  0.1174
13661SOL    HW142424   4.047   4.254   5.556 -1.4894  0.0785  1.7447
13661SOL    HW242425   3.940   4.173   5.486  0.3193 -0.0385 -1.0286
13662SOL     OW42426   4.278   1.190   5.474 -0.1076 -0.3432  0.2430
13662SOL    HW142427   4.301   1.234   5.555  0.3191 -2.0077  1.0677
13662SOL    HW242428   4.200   1.138   5.495  0.2923 -1.1750 -0.2615
13663SOL     OW42429   3.223   2.300   3.213  0.3412  0.5895 -0.2942
13663SOL    HW142430   3.208   2.380   3.263  1.4800  0.7479 -0.1838
13663SOL    HW242431   3.248   2.331   3.126  1.5836  0.3856 -0.0237
13664SOL     OW42432   4.819   3.765   3.718  0.1897  0.1557  0.1347
13664SOL    HW142433   4.724   3.778   3.710  0.1103  0.0022  0.7161
13664SOL    HW242434   4.856   3.809   3.642 -0.4013 -0.4504 -0.5175
13665SOL     OW42435   2.153   0.390   5.512  0.2882  0.1007  0.0455
13665SOL    HW142436   2.122   0.383   5.603  0.2330  0.0063  0.0197
13665SOL    HW242437   2.096   0.456   5.473  0.5715  0.4266  0.1886
13666SOL     OW42438   4.487   3.379   4.905 -1.0465  0.0364 -0.2084
13666SOL    HW142439   4.472   3.377   4.811  0.8162 -3.0701 -0.5746
13666SOL    HW242440   4.547   3.452   4.919 -1.1943  0.4119 -1.4518
13667SOL     OW42441   3.941   1.114   6.025 -0.1966 -0.5047  0.6064
13667SOL    HW142442   4.002   1.143   5.957 -2.2542  1.2262 -0.6545
13667SOL    HW242443   3.898   1.037   5.987 -1.4241  0.5263 -0.1983
13668SOL     OW42444   3.674   2.196   4.593  0.0209 -0.2130  0.3820
13668SOL    HW142445   3.658   2.200   4.687 -2.8055  1.2560 -0.0597
13668SOL    HW242446   3.718   2.279   4.572 -0.2515 -0.1012  0.2546
13669SOL     OW42447   4.121   3.510   5.379  0.7424  0.4302 -0.0024
13669SOL    HW142448   4.067   3.430   5.382  0.8050  0.4107  0.8024
13669SOL    HW242449   4.107   3.545   5.291  1.4130 -0.9474 -0.6868
13670SOL     OW42450   4.835   1.753   4.117 -0.1719 -0.2591 -0.4174
13670SOL    HW142451   4.746   1.775   4.144  0.6095 -0.3141  2.6093
13670SOL    HW242452   4.885   1.832   4.135  0.5334 -0.4427 -1.4825
13671SOL     OW42453   4.741   1.836   2.468  0.5900 -0.0548  0.0571
13671SOL    HW142454   4.774   1.752   2.436 -0.2688  0.1695 -1.5430
13671SOL    HW242455   4.820   1.884   2.496  1.2526 -0.7966 -0.4923
13672SOL     OW42456   5.161   0.709   2.315 -0.1834 -0.4560 -0.1549
13672SOL    HW142457   5.117   0.731   2.233 -0.4878  0.2657  0.1941
13672SOL    HW242458   5.124   0.770   2.379 -0.7409 -1.6887  0.7516
13673SOL     OW42459   4.240   2.638   5.771 -0.0565  0.5828 -0.0053
13673SOL    HW142460   4.186   2.669   5.698 -0.6786  3.3968  1.5096
13673SOL    HW242461   4.320   2.690   5.767  0.9368 -0.8608  0.0354
13674SOL     OW42462   3.870   1.914   7.242 -0.1165  0.1214 -0.4353
13674SOL    HW142463   3.785   1.922   7.286  0.5106  1.2634  0.6368
13674SOL    HW242464   3.932   1.957   7.302  1.1987 -0.5849 -1.2478
13675SOL     OW42465   3.496   2.954   5.977 -0.0605  0.3142  0.1530
13675SOL    HW142466   3.519   2.909   6.058 -0.1445  1.6530  0.9560
13675SOL    HW242467   3.545   3.036   5.981  1.4761 -0.4083 -2.0878
13676SOL     OW42468   6.286   3.923   6.639 -0.1518  0.0957  0.0459
13676SOL    HW142469   6.209   3.876   6.610  0.6292 -1.1736 -0.0401
13676SOL    HW242470   6.275   3.932   6.734  0.8724 -2.6117  0.4988
13677SOL     OW42471   5.132   1.772   7.049  0.4587  0.4627  0.2675
13677SOL    HW142472   5.061   1.830   7.076 -1.7475 -1.5415 -0.8279
13677SOL    HW242473   5.199   1.782   7.116 -0.0706  3.7300  0.4413
13678SOL     OW42474   4.867   2.373   8.099  0.2226 -0.0445 -0.1730
13678SOL    HW142475   4.936   2.391   8.163  0.7340 -0.6647 -0.5494
13678SOL    HW242476   4.815   2.454   8.098 -0.4143 -0.3712  1.7696
13679SOL     OW42477   2.751   2.989   6.810 -0.6513  0.1157 -0.2330
13679SOL    HW142478   2.782   2.961   6.724 -0.0922  0.2854 -0.0912
13679SOL    HW242479   2.825   3.036   6.849 -0.9196  0.1030  0.3134
13680SOL     OW42480   4.366   1.673   9.021  0.0711  0.4364  0.4732
13680SOL    HW142481   4.344   1.649   8.931 -0.4585  0.9582  0.4587
13680SOL    HW242482   4.382   1.590   9.065 -0.7154  0.1123  0.1621
13681SOL     OW42483   4.543   2.543   4.719  0.1966 -0.6074  0.2171
13681SOL    HW142484   4.588   2.503   4.644  0.0384  0.1730 -0.3076
13681SOL    HW242485   4.567   2.488   4.793  0.0274 -1.6456 -0.4696
13682SOL     OW42486   5.271   3.035   7.005  0.3619 -0.0943 -0.1745
13682SOL    HW142487   5.182   3.051   6.973  0.0428  4.8885  2.3036
13682SOL    HW242488   5.325   3.037   6.926 -1.3150  1.8734 -1.3804
13683SOL     OW42489   4.153   1.266   8.101  0.2570 -0.0295 -0.2420
13683SOL    HW142490   4.067   1.233   8.074  0.0488 -0.9477  1.4260
13683SOL    HW242491   4.139   1.300   8.189  1.5034  0.2858 -0.1520
13684SOL     OW42492   4.437   2.641   6.655 -0.3256  0.0129 -0.5856
13684SOL    HW142493   4.405   2.705   6.718  0.5765  1.4220 -1.5047
13684SOL    HW242494   4.506   2.594   6.701 -0.0090  0.6910 -0.3573
13685SOL     OW42495   3.988   3.165   6.196  0.0855  0.4318  0.4082
13685SOL    HW142496   4.045   3.096   6.162 -0.2968  0.7506 -0.9316
13685SOL    HW242497   4.042   3.244   6.198 -0.6600  1.1225 -2.4185
13686SOL     OW42498   3.082   1.842   6.611 -0.1605  0.6076  0.4196
13686SOL    HW142499   3.070   1.936   6.622  1.2300  0.8960 -0.3314
13686SOL    HW242500   3.107   1.810   6.698  1.2134  1.2549  0.2837
13687SOL     OW42501   4.301   2.528   5.387  0.7040  0.4810 -0.1766
13687SOL    HW142502   4.367   2.462   5.367 -1.1230 -1.7127  0.7269
13687SOL    HW242503   4.349   2.594   5.439  1.9566 -1.7107  1.6229
13688SOL     OW42504   3.637   1.383   8.240 -0.0113  1.0714  0.5251
13688SOL    HW142505   3.705   1.436   8.281  1.0410 -0.2661  0.5993
13688SOL    HW242506   3.655   1.293   8.270  1.6042 -0.2416 -3.6167
13689SOL     OW42507   3.021   1.643   6.108 -0.1428 -0.4708  0.1800
13689SOL    HW142508   3.093   1.698   6.138 -2.1491  2.2610  0.3771
13689SOL    HW242509   2.965   1.632   6.184 -0.9377 -0.8718 -0.4370
13690SOL     OW42510   5.398   2.748   6.418 -0.4217  0.3162  0.6995
13690SOL    HW142511   5.382   2.687   6.490 -0.7285  1.8328  1.9648
13690SOL    HW242512   5.467   2.805   6.450 -0.7769  1.2209 -0.0987
13691SOL     OW42513   5.512   1.284   6.976 -0.0937  0.3000  0.2113
13691SOL    HW142514   5.503   1.322   6.889  1.0861 -1.1942 -0.6001
13691SOL    HW242515   5.467   1.200   6.971  1.3760 -0.5447  0.5173
13692SOL     OW42516   4.658   2.986   5.124  0.0223 -0.3942  0.6026
13692SOL    HW142517   4.599   3.007   5.051 -0.6205 -2.3258  0.5106
13692SOL    HW242518   4.689   3.071   5.155  0.4363  0.5060 -1.9989
13693SOL     OW42519   5.578   3.982   7.987  0.0466 -0.4325  0.1873
13693SOL    HW142520   5.505   4.016   7.936  1.1929 -0.3273 -1.4778
13693SOL    HW242521   5.544   3.973   8.076 -1.9422 -0.3273 -0.5242
13694SOL     OW42522   4.876   2.846   7.406 -0.2074 -0.0128 -0.2666
13694SOL    HW142523   4.784   2.824   7.388  0.1905 -0.4413 -1.9125
13694SOL    HW242524   4.915   2.765   7.437 -0.7552  0.5905  2.2570
13695SOL     OW42525   4.507   1.175   7.020  0.3374  0.1086  0.6533
13695SOL    HW142526   4.534   1.261   6.990 -1.2275 -0.0327 -1.4164
13695SOL    HW242527   4.411   1.179   7.020  0.2424 -1.2654  1.7239
13696SOL     OW42528   2.656   2.595   8.275  0.3129  0.6186 -0.1224
13696SOL    HW142529   2.664   2.500   8.273  1.5899  0.7195 -0.6531
13696SOL    HW242530   2.562   2.611   8.284  0.1476 -0.6877  0.7634
13697SOL     OW42531   5.002   3.226   6.708 -0.0169 -0.0959 -0.5542
13697SOL    HW142532   5.019   3.218   6.615  0.0889  1.8163 -0.7421
13697SOL    HW242533   4.962   3.313   6.718  0.1196 -0.1892  1.1993
13698SOL     OW42534   4.714   0.624   8.596 -0.1963 -0.7240  0.0709
13698SOL    HW142535   4.638   0.582   8.556  0.3404  0.4461 -2.4074
13698SOL    HW242536   4.681   0.707   8.630 -0.0270 -0.0420 -1.3442
13699SOL     OW42537   6.416   3.936   5.598  0.2000  0.3126  0.7839
13699SOL    HW142538   6.460   3.855   5.623  1.9981  0.7809 -0.5679
13699SOL    HW242539   6.350   3.909   5.534 -0.1601 -0.2257  1.3805
13700SOL     OW42540   5.197   4.055   5.860 -0.0792 -0.2367 -0.3470
13700SOL    HW142541   5.115   4.010   5.840 -0.3177  0.9204 -2.2150
13700SOL    HW242542   5.197   4.063   5.955 -1.1964 -1.9398 -0.1432
13701SOL     OW42543   2.576   1.199   6.318  0.5456  1.0324 -0.0378
13701SOL    HW142544   2.548   1.112   6.346 -0.4781  1.0891 -0.8327
13701SOL    HW242545   2.662   1.184   6.278 -0.2254  0.1310 -1.4488
13702SOL     OW42546   5.042   1.815   7.344  0.1187  0.1805  0.5030
13702SOL    HW142547   5.063   1.725   7.317 -0.1738 -0.0448  1.0084
13702SOL    HW242548   5.125   1.861   7.342  0.1168  0.1814 -0.7885
13703SOL     OW42549   5.146   4.319   5.371  0.1726 -0.0764  0.4508
13703SOL    HW142550   5.068   4.329   5.316  0.5153 -2.9274 -0.7262
13703SOL    HW242551   5.204   4.263   5.320  2.5347  0.9792  1.8103
13704SOL     OW42552   4.655   1.406   7.433 -0.2789  0.3360 -0.0809
13704SOL    HW142553   4.669   1.453   7.351  1.7334  0.3163  0.2017
13704SOL    HW242554   4.634   1.316   7.405  0.5637  0.2859 -0.5875
13705SOL     OW42555   4.623   2.240   5.323 -0.2472  0.9703  0.6988
13705SOL    HW142556   4.553   2.188   5.364  0.2757 -0.5361 -0.2230
13705SOL    HW242557   4.578   2.295   5.259 -0.5417 -0.7929 -0.6818
13706SOL     OW42558   5.293   3.615   6.963 -0.3357 -0.0222  0.5803
13706SOL    HW142559   5.266   3.651   7.048  1.0559  0.0336  1.0287
13706SOL    HW242560   5.232   3.654   6.900 -0.7316  0.7647  1.4247
13707SOL     OW42561   5.389   2.839   7.168 -0.2899  0.1097 -0.2402
13707SOL    HW142562   5.373   2.875   7.255  0.8281  1.6097 -0.6150
13707SOL    HW242563   5.334   2.890   7.109  0.7654  0.7813 -0.6869
13708SOL     OW42564   5.245   1.199   6.545  0.2552 -0.5278  0.6188
13708SOL    HW142565   5.261   1.184   6.452  0.1457  0.4896  0.4249
13708SOL    HW242566   5.331   1.185   6.586  0.3399 -0.8164  0.3507
13709SOL     OW42567   3.663   2.967   6.453  0.0399 -0.0729  0.6499
13709SOL    HW142568   3.634   3.052   6.418 -1.8518 -1.0197 -0.2380
13709SOL    HW242569   3.755   2.962   6.430 -0.3337  0.8317 -1.2711
13710SOL     OW42570   3.794   4.081   7.756 -0.3808 -0.5942 -0.0117
13710SOL    HW142571   3.783   4.081   7.661  0.3772  1.5828 -0.1497
13710SOL    HW242572   3.767   4.169   7.783  2.3155 -0.0948  1.3758
13711SOL     OW42573   4.133   1.986   4.967 -0.3883  0.0324  0.1115
13711SOL    HW142574   4.218   2.027   4.983  0.2674 -0.3796 -2.0343
13711SOL    HW242575   4.070   2.058   4.972  0.7036  1.4158 -3.3554
13712SOL     OW42576   4.884   3.464   6.835  0.1404 -0.1882  0.6707
13712SOL    HW142577   4.964   3.467   6.887  1.7061 -0.9373 -1.5326
13712SOL    HW242578   4.896   3.532   6.768 -0.4141 -1.1871 -0.5026
13713SOL     OW42579   5.383   3.619   5.262 -0.1275  0.1887 -0.2380
13713SOL    HW142580   5.313   3.596   5.323  0.8644 -0.1094  0.8378
13713SOL    HW242581   5.363   3.709   5.236 -1.3761 -0.1877 -0.6385
13714SOL     OW42582   4.052   2.008   7.039 -0.4069 -0.1036  0.0633
13714SOL    HW142583   4.026   2.100   7.047  1.4656  0.3955  0.9919
13714SOL    HW242584   4.003   1.964   7.108  0.0068  0.5212  0.7723
13715SOL     OW42585   5.393   2.253   8.139  0.1165 -0.0832 -0.3302
13715SOL    HW142586   5.359   2.184   8.196 -1.3513  0.7457 -0.1549
13715SOL    HW242587   5.391   2.214   8.051  1.4333 -1.0090  0.0148
13716SOL     OW42588   5.100   2.855   7.248  0.3183 -0.6145 -0.5831
13716SOL    HW142589   5.155   2.930   7.269  0.4185 -0.0567 -2.6696
13716SOL    HW242590   5.026   2.862   7.308  0.4251  1.0452 -0.5925
13717SOL     OW42591   4.350   2.794   6.363 -0.7242 -0.3011  0.4360
13717SOL    HW142592   4.302   2.715   6.388  0.6144 -1.2582  0.1068
13717SOL    HW242593   4.413   2.808   6.434  1.3366 -1.5468 -1.0310
13718SOL     OW42594   4.577   3.124   6.482  0.3026  0.5226 -0.1002
13718SOL    HW142595   4.482   3.115   6.476  0.4322 -0.2310 -1.7673
13718SOL    HW242596   4.592   3.210   6.521 -1.0549  0.3667  0.8015
13719SOL     OW42597   2.327   2.017   6.027 -0.2628 -0.2809  0.4295
13719SOL    HW142598   2.357   1.927   6.025 -0.5453 -0.3751  0.2520
13719SOL    HW242599   2.402   2.068   6.057  0.3177 -0.4188 -0.7386
13720SOL     OW42600   3.919   2.623   7.678  0.2046  0.4455  0.3518
13720SOL    HW142601   3.840   2.672   7.656  0.2111  0.0529 -0.5830
13720SOL    HW242602   3.932   2.639   7.772 -0.5942  1.0609  0.3656
13721SOL     OW42603   4.742   1.832   5.374  0.5318  0.0576 -0.5981
13721SOL    HW142604   4.770   1.742   5.357 -0.0992  0.2529 -3.0201
13721SOL    HW242605   4.646   1.829   5.370  0.4384  0.6318  0.6286
13722SOL     OW42606   3.874   2.768   4.489 -0.0964  0.5260 -0.3008
13722SOL    HW142607   3.779   2.755   4.486 -0.0803 -0.0729  0.9966
13722SOL    HW242608   3.884   2.863   4.500 -0.6592  0.3996  1.7589
13723SOL     OW42609   4.838   2.174   8.800  0.1680 -0.3003  0.1304
13723SOL    HW142610   4.776   2.114   8.841 -1.0194  1.0477  0.3604
13723SOL    HW242611   4.844   2.144   8.709 -0.9291 -0.3735  0.0716
13724SOL     OW42612   4.234   0.291   4.876 -0.4227  0.2382 -0.1453
13724SOL    HW142613   4.140   0.309   4.883 -0.1615  1.4921  0.3241
13724SOL    HW242614   4.251   0.231   4.948 -0.6624  0.9078  0.4831
13725SOL     OW42615   5.704   1.483   7.533 -0.1603  0.4258 -0.5566
13725SOL    HW142616   5.747   1.437   7.605  0.8350  1.3126 -0.5583
13725SOL    HW242617   5.749   1.453   7.455 -0.4165  0.3817 -0.6875
13726SOL     OW42618   4.725   3.166   6.840  0.4659 -0.3135  0.3825
13726SOL    HW142619   4.715   3.165   6.935 -0.1254  1.6477  0.3888
13726SOL    HW242620   4.791   3.233   6.823  0.6859 -0.7579 -0.5843
13727SOL     OW42621   5.115   1.477   6.776 -0.1579  0.2037  0.3147
13727SOL    HW142622   5.069   1.393   6.779 -0.6280  0.4800  1.7546
13727SOL    HW242623   5.176   1.474   6.849  0.6863  0.6582 -0.3473
13728SOL     OW42624   4.485   3.052   6.767 -0.1506  0.0145 -0.0384
13728SOL    HW142625   4.495   3.055   6.672  1.8333 -2.6103 -0.0513
13728SOL    HW242626   4.573   3.072   6.801 -0.2401 -1.2560  1.0789
13729SOL     OW42627   4.734   1.971   7.266 -0.5971  0.0264  0.1744
13729SOL    HW142628   4.659   2.001   7.214 -1.1840 -0.7887  0.5271
13729SOL    HW242629   4.701   1.972   7.356  0.0757  0.4212  0.4178
13730SOL     OW42630   3.870   1.520   6.956  0.2889 -0.5142  0.3044
13730SOL    HW142631   3.819   1.444   6.983 -1.7642  0.0269 -1.7129
13730SOL    HW242632   3.815   1.595   6.980  1.1288  0.2154 -0.0087
13731SOL     OW42633   4.308   2.301   4.677 -0.4838 -0.0355  1.0533
13731SOL    HW142634   4.376   2.234   4.684  0.3004  0.3815 -1.6032
13731SOL    HW242635   4.355   2.384   4.684 -0.7763  0.2532 -0.1463
13732SOL     OW42636   4.459   2.223   6.798  0.0355 -0.1497  0.4054
13732SOL    HW142637   4.531   2.286   6.797  0.7429 -0.9466 -0.5756
13732SOL    HW242638   4.501   2.138   6.798 -0.9188 -0.6485  1.2364
13733SOL     OW42639   3.654   1.508   6.424  0.2347 -0.0563 -0.1576
13733SOL    HW142640   3.643   1.508   6.328 -1.1829  1.4101 -0.0375
13733SOL    HW242641   3.633   1.418   6.450  1.1179 -0.6045 -1.2568
13734SOL     OW42642   4.644   2.195   6.034 -0.6253  0.4885 -0.2355
13734SOL    HW142643   4.560   2.185   6.080  0.0298  0.1464  0.9354
13734SOL    HW242644   4.625   2.255   5.962 -1.7634  0.8285  0.3257
13735SOL     OW42645   4.132   2.939   6.134  0.7646  1.0858  0.3578
13735SOL    HW142646   4.200   2.905   6.076  0.5614  1.0944  0.1143
13735SOL    HW242647   4.104   2.863   6.186 -0.4993  0.6020 -0.9769
13736SOL     OW42648   3.226   0.574   7.115  0.1143  0.4341  0.0337
13736SOL    HW142649   3.278   0.646   7.078  0.4898 -1.0198 -2.5042
13736SOL    HW242650   3.272   0.552   7.196  1.4464  1.4347 -0.3949
13737SOL     OW42651   2.820   2.175   7.784 -1.0982 -0.5048  0.0705
13737SOL    HW142652   2.909   2.180   7.750 -0.4960 -1.4086  1.4533
13737SOL    HW242653   2.769   2.233   7.727  0.4995  0.5854 -0.2939
13738SOL     OW42654   3.635   1.904   7.398 -0.0158 -0.4157  0.2043
13738SOL    HW142655   3.587   1.825   7.372 -1.5937  0.8163 -0.8563
13738SOL    HW242656   3.647   1.894   7.493 -0.0198 -1.9888  0.0783
13739SOL     OW42657   3.375   2.857   6.768  0.0650 -0.1610 -0.3869
13739SOL    HW142658   3.463   2.839   6.736 -0.2678 -0.5667 -1.0978
13739SOL    HW242659   3.365   2.803   6.846 -0.2197 -1.6012 -1.3830
13740SOL     OW42660   3.280   1.306   6.428  0.2150  0.2538  0.1163
13740SOL    HW142661   3.258   1.223   6.471  1.6868 -0.8354 -1.1042
13740SOL    HW242662   3.375   1.312   6.433  0.2901  0.9328 -1.4332
13741SOL     OW42663   4.838   2.787   5.576  0.3510  0.3137  0.1304
13741SOL    HW142664   4.772   2.848   5.610 -0.4798  0.2822 -1.3183
13741SOL    HW242665   4.882   2.836   5.507  0.6044 -0.2806 -0.1348
13742SOL     OW42666   4.425   2.169   5.488 -0.7041 -0.9808  0.3997
13742SOL    HW142667   4.403   2.108   5.560 -1.7057  0.2554  1.1840
13742SOL    HW242668   4.486   2.231   5.528 -2.0805  0.3509  0.5547
13743SOL     OW42669   6.395   2.643   7.172  0.0730 -0.1313  0.3405
13743SOL    HW142670   6.476   2.607   7.136 -0.8690 -1.4387 -0.5481
13743SOL    HW242671   6.410   2.738   7.174  0.6937 -0.1210 -2.2071
13744SOL     OW42672   7.324   3.178   6.862  0.2968 -0.4747  0.1813
13744SOL    HW142673   7.295   3.087   6.870 -3.1635  0.5092  0.3668
13744SOL    HW242674   7.270   3.226   6.925  0.3251  2.0403 -1.5827
13745SOL     OW42675   5.124   3.683   5.764 -0.1019 -0.3154 -0.0485
13745SOL    HW142676   5.137   3.712   5.674 -0.7467 -0.1251 -0.0904
13745SOL    HW242677   5.039   3.638   5.762  0.4878 -1.4626  0.1913
13746SOL     OW42678   4.168   0.605   4.914 -0.1397  0.0829 -0.0847
13746SOL    HW142679   4.099   0.636   4.856 -0.0815  2.7614  1.1275
13746SOL    HW242680   4.124   0.589   4.998  0.1803 -1.5035 -0.1804
13747SOL     OW42681   6.313   3.143   6.400 -0.0060 -0.5532 -0.7960
13747SOL    HW142682   6.298   3.205   6.329 -2.1011  0.1452  0.1558
13747SOL    HW242683   6.229   3.097   6.409  0.7632 -1.8470  0.0923
13748SOL     OW42684   4.616   2.805   6.966 -0.2880 -0.4546  0.1116
13748SOL    HW142685   4.613   2.781   6.873  1.2909  1.6210 -0.5542
13748SOL    HW242686   4.676   2.741   7.005  0.0861 -0.5344 -0.5787
13749SOL     OW42687   4.623   3.364   6.581  0.6899 -0.1761 -0.2876
13749SOL    HW142688   4.577   3.439   6.543  1.1918  0.1071 -0.3472
13749SOL    HW242689   4.602   3.368   6.675  0.3417 -0.2323 -0.3637
13750SOL     OW42690   4.850   2.952   7.131  0.3332 -0.0978  0.3612
13750SOL    HW142691   4.916   2.948   7.200 -1.4543  0.0309  2.1613
13750SOL    HW242692   4.800   2.870   7.141 -0.0104 -0.0415 -0.7426
13751SOL     OW42693   4.041   2.443   5.508  0.1254  0.5240  0.2200
13751SOL    HW142694   4.065   2.490   5.588 -0.3204  0.4683  0.3935
13751SOL    HW242695   4.100   2.477   5.441 -0.2166  1.3812  0.3289
13752SOL     OW42696   5.405   1.088   8.525 -0.2694  0.1575  0.0333
13752SOL    HW142697   5.436   1.148   8.592 -0.3265  0.6320 -0.3582
13752SOL    HW242698   5.461   1.011   8.534 -0.3062  0.2013  0.6471
13753SOL     OW42699   4.181   2.462   7.882  0.0145 -0.3371 -0.2339
13753SOL    HW142700   4.134   2.416   7.952  0.2446 -2.1113 -1.1925
13753SOL    HW242701   4.154   2.553   7.892  0.3887 -0.4404  2.4327
13754SOL     OW42702   4.880   3.418   6.551  0.2106 -0.0793 -0.1679
13754SOL    HW142703   4.915   3.393   6.465  0.1494  0.7435 -0.4368
13754SOL    HW242704   4.788   3.390   6.549  0.0160  0.5658 -0.6458
13755SOL     OW42705   4.937   2.470   5.973  0.2683 -0.1196 -0.2966
13755SOL    HW142706   4.958   2.560   5.995  2.1032 -0.3930 -0.7710
13755SOL    HW242707   4.927   2.426   6.057 -0.7000  0.5231 -0.0654
13756SOL     OW42708   4.819   2.641   7.067 -0.1148 -0.3294 -0.2318
13756SOL    HW142709   4.908   2.608   7.076  0.2683  0.4238 -1.1090
13756SOL    HW242710   4.774   2.612   7.147  1.3190  0.5534  0.9430
13757SOL     OW42711   4.245   3.802   7.744 -0.3706 -0.5287  0.0369
13757SOL    HW142712   4.240   3.771   7.653 -0.6364  0.7984 -0.4195
13757SOL    HW242713   4.160   3.840   7.761 -0.5647 -1.4000  1.1092
13758SOL     OW42714   1.710   2.142   5.141  0.2583  0.0711 -0.4082
13758SOL    HW142715   1.702   2.086   5.218 -0.1084 -0.0788 -0.5543
13758SOL    HW242716   1.774   2.097   5.086 -0.6403 -0.6362 -0.8954
13759SOL     OW42717   4.209   2.372   5.815  0.0009  0.4260 -0.9306
13759SOL    HW142718   4.191   2.360   5.908  0.8896 -0.0122 -0.8045
13759SOL    HW242719   4.227   2.466   5.806  0.3403  0.3970 -0.5802
13760SOL     OW42720   3.077   3.388   7.116  0.1651  0.4516 -0.0787
13760SOL    HW142721   3.135   3.399   7.191 -0.3978 -0.3564  0.4917
13760SOL    HW242722   3.128   3.334   7.055 -0.0475 -0.4613  0.5207
13761SOL     OW42723   4.077   2.920   6.644 -0.0800  0.1598  0.3444
13761SOL    HW142724   4.001   2.880   6.685  0.0994 -1.9704 -1.2194
13761SOL    HW242725   4.047   2.946   6.557  1.2725 -2.4400 -1.0466
13762SOL     OW42726   4.117   1.683   6.428 -0.6628 -0.3280 -0.0892
13762SOL    HW142727   4.188   1.668   6.366 -0.0170  1.4003  0.1817
13762SOL    HW242728   4.138   1.628   6.503  2.0400  2.2512  1.2292
13763SOL     OW42729   2.689   2.377   6.966  0.3568 -0.0911  0.4610
13763SOL    HW142730   2.758   2.404   6.906  0.0540 -0.1202  0.0917
13763SOL    HW242731   2.614   2.433   6.944  0.3820  0.2179  1.1304
13764SOL     OW42732   5.128   1.919   8.743 -0.0283 -0.3279 -0.0977
13764SOL    HW142733   5.094   1.903   8.831 -0.0359  0.8506  0.1360
13764SOL    HW242734   5.132   2.015   8.736  1.1346 -0.4127 -0.9280
13765SOL     OW42735   6.384   1.016   6.604 -0.7885 -0.0659 -0.0632
13765SOL    HW142736   6.313   1.044   6.662 -1.5924 -1.0247 -0.5701
13765SOL    HW242737   6.343   0.959   6.540  0.3688 -0.3016 -0.6297
13766SOL     OW42738   3.763   1.096   7.320 -0.0510  0.0338 -0.0702
13766SOL    HW142739   3.755   1.022   7.381 -1.8679  1.7295  1.9492
13766SOL    HW242740   3.816   1.161   7.367  0.1528  0.6636 -1.1239
13767SOL     OW42741   2.763   1.652   7.362  0.1310  0.1562 -0.4499
13767SOL    HW142742   2.715   1.588   7.414  2.1523  1.1092  2.8410
13767SOL    HW242743   2.721   1.648   7.276 -2.8360 -2.1911  0.9042
13768SOL     OW42744   5.377   2.394   7.583  0.2341  0.0586 -0.7306
13768SOL    HW142745   5.398   2.484   7.556  1.4527 -0.1206 -0.4428
13768SOL    HW242746   5.362   2.400   7.677 -0.3127  0.0521 -0.8116
13769SOL     OW42747   3.009   2.269   5.532  0.1983  0.1663  0.5121
13769SOL    HW142748   3.040   2.285   5.621  0.4071  0.8140  0.3244
13769SOL    HW242749   2.914   2.259   5.542  0.0089  1.8260  0.6131
13770SOL     OW42750   4.194   1.147   6.683  0.2254  0.0760  0.3930
13770SOL    HW142751   4.182   1.241   6.671  0.4013  0.3649  2.1991
13770SOL    HW242752   4.288   1.135   6.691  0.1929 -0.2282  0.3562
13771SOL     OW42753   4.729   2.279   6.914  0.1761  0.5168 -0.4957
13771SOL    HW142754   4.679   2.213   6.963  0.1393  0.6398 -0.3680
13771SOL    HW242755   4.800   2.305   6.973  0.3268  0.4251 -0.6334
13772SOL     OW42756   5.118   3.246   7.493  0.0990 -0.2242 -0.3499
13772SOL    HW142757   5.056   3.284   7.555 -0.9675 -3.3679  0.6897
13772SOL    HW242758   5.063   3.204   7.427  1.1629 -0.7670 -0.9220
13773SOL     OW42759   2.328   0.499   6.287  0.2986  0.0236 -0.0076
13773SOL    HW142760   2.285   0.430   6.338 -0.7263 -1.5039 -2.7081
13773SOL    HW242761   2.257   0.538   6.235  1.5238  0.2099 -1.6337
13774SOL     OW42762   3.906   1.667   6.705 -0.0100 -0.1634 -0.2631
13774SOL    HW142763   3.887   1.675   6.799 -1.8115 -1.8168 -0.4097
13774SOL    HW242764   3.971   1.597   6.700  1.7051  1.3464 -0.1712
13775SOL     OW42765   5.044   1.354   5.104 -0.4160 -0.1956 -0.4130
13775SOL    HW142766   5.130   1.390   5.080 -0.1747 -1.1562 -1.0499
13775SOL    HW242767   4.981   1.416   5.066 -0.0486  1.5058  1.5909
13776SOL     OW42768   7.529   3.566   6.333 -0.2823 -0.2993 -0.0312
13776SOL    HW142769   7.536   3.476   6.301  0.0416 -0.1791 -0.3002
13776SOL    HW242770   7.617   3.602   6.324 -0.2377 -0.1882  0.7884
13777SOL     OW42771   4.779   1.599   6.469 -0.1824 -0.3964 -0.0652
13777SOL    HW142772   4.840   1.557   6.409 -0.0708 -0.9615  0.4292
13777SOL    HW242773   4.699   1.611   6.418  1.0839  2.7057 -1.5354
13778SOL     OW42774   4.543   0.192   5.165 -0.6254 -0.0584  0.0915
13778SOL    HW142775   4.497   0.275   5.159 -0.3039  0.1625  0.5736
13778SOL    HW242776   4.514   0.154   5.248 -2.6744 -1.6156 -1.2419
13779SOL     OW42777   4.438   2.369   5.186 -0.0734  0.3666  0.4555
13779SOL    HW142778   4.421   2.458   5.155  1.4622  0.9196  1.0894
13779SOL    HW242779   4.355   2.323   5.174 -1.1480  2.0991  0.8846
13780SOL     OW42780   5.874   1.311   5.830  0.6810 -0.2941  0.1416
13780SOL    HW142781   5.826   1.233   5.858 -1.9218  1.0623 -0.2822
13780SOL    HW242782   5.835   1.382   5.880  1.2956  1.0821 -1.2769
13781SOL     OW42783   3.946   1.319   5.509  0.2373 -0.1286 -0.0988
13781SOL    HW142784   3.960   1.326   5.414  1.5201  1.3624  0.1611
13781SOL    HW242785   3.864   1.364   5.524  0.6139  0.6593 -0.3734
13782SOL     OW42786   4.317   1.723   7.803  0.0060 -1.1715  0.9694
13782SOL    HW142787   4.276   1.803   7.769  1.1673 -0.6996  0.6369
13782SOL    HW242788   4.275   1.710   7.888 -0.0434 -0.0812  1.1336
13783SOL     OW42789   5.423   2.606   7.423 -0.5204 -0.3233  0.0099
13783SOL    HW142790   5.474   2.626   7.345 -4.2446  1.3370 -2.2755
13783SOL    HW242791   5.438   2.681   7.481 -1.2878  0.7915 -1.1929
13784SOL     OW42792   5.436   2.091   7.603 -0.0159  0.5148 -0.4801
13784SOL    HW142793   5.412   2.179   7.574  0.7334  1.3582  1.2952
13784SOL    HW242794   5.415   2.034   7.529  0.7818  2.3707 -2.2221
13785SOL     OW42795   3.668   2.012   5.888  0.0938 -0.7150 -0.1738
13785SOL    HW142796   3.618   1.950   5.941 -2.0838  0.5582 -0.6203
13785SOL    HW242797   3.681   1.968   5.804 -0.3654 -1.0422 -0.0750
13786SOL     OW42798   3.187   7.470   8.152 -0.4605 -0.1513  0.4483
13786SOL    HW142799   3.136   7.411   8.208  0.4257  0.2908  1.7750
13786SOL    HW242800   3.209   7.544   8.209 -0.4275  0.8448 -0.8100
13787SOL     OW42801   7.086   1.438   7.525  0.0022 -0.2398 -0.1263
13787SOL    HW142802   7.107   1.442   7.618  2.2515 -1.5278 -0.5084
13787SOL    HW242803   7.005   1.386   7.521 -0.3368  0.1688  1.1132
13788SOL     OW42804   4.304   2.836   9.324  0.3841 -0.0569  0.0199
13788SOL    HW142805   4.318   2.922   9.365 -1.8377  0.4139 -0.0867
13788SOL    HW242806   4.303   2.855   9.230  0.0238 -0.2214 -0.0086
13789SOL     OW42807   5.447   1.918   6.992 -0.2803 -0.0460  0.3195
13789SOL    HW142808   5.538   1.925   7.021 -0.2649 -2.5116  1.0960
13789SOL    HW242809   5.402   1.875   7.064 -1.4777 -1.2924 -1.0987
13790SOL     OW42810   5.837   2.920   6.577 -0.5852  0.6576  0.0843
13790SOL    HW142811   5.744   2.915   6.599 -0.9794 -1.4200 -1.6763
13790SOL    HW242812   5.882   2.880   6.652 -1.1775  0.7973  0.5198
13791SOL     OW42813   4.289   2.054   7.329 -0.3985  0.0120  0.3377
13791SOL    HW142814   4.342   2.125   7.364 -0.8132  0.9799 -0.9291
13791SOL    HW242815   4.217   2.044   7.392 -0.4195  0.8288  0.4501
13792SOL     OW42816   4.207   2.723   7.038  0.3110 -0.1541  0.1845
13792SOL    HW142817   4.226   2.752   6.949 -0.5785 -0.3699 -0.0857
13792SOL    HW242818   4.273   2.766   7.092  0.8415  0.0022 -0.5741
13793SOL     OW42819   4.550   2.665   5.534  0.2385  0.1035 -0.2175
13793SOL    HW142820   4.644   2.679   5.525  0.4029 -1.2269 -0.7456
13793SOL    HW242821   4.525   2.716   5.611  1.3969  0.4153 -0.0376
13794SOL     OW42822   5.513   2.232   8.678  0.2404 -0.2385  0.2964
13794SOL    HW142823   5.453   2.295   8.637 -0.7602 -1.3580 -0.0331
13794SOL    HW242824   5.499   2.244   8.772  0.0196 -0.0095  0.2372
13795SOL     OW42825   6.189   3.326   4.969  0.2123 -0.0668  0.0180
13795SOL    HW142826   6.117   3.346   4.909 -0.0106  0.8920  0.5881
13795SOL    HW242827   6.163   3.244   5.011  0.1203 -0.4653 -0.7943
13796SOL     OW42828   7.208   3.768   5.390 -0.3799  0.1969 -0.4213
13796SOL    HW142829   7.258   3.820   5.453 -1.8757 -1.7717  2.6361
13796SOL    HW242830   7.274   3.729   5.334  1.6204 -1.4641  2.7782
13797SOL     OW42831   4.077   1.389   4.871 -0.4429 -0.3655 -0.0652
13797SOL    HW142832   4.135   1.347   4.933  0.1121  0.5540  0.0599
13797SOL    HW242833   4.131   1.454   4.827 -1.3062  0.3721 -0.0891
13798SOL     OW42834   5.224   4.380   7.156  0.0995  0.1757 -0.1259
13798SOL    HW142835   5.174   4.334   7.090  1.3588 -0.6090 -0.5749
13798SOL    HW242836   5.193   4.345   7.240  0.0914 -0.5140 -0.4123
13799SOL     OW42837   3.856   3.068   8.085 -0.6426  0.2054 -0.6654
13799SOL    HW142838   3.884   3.061   8.176  0.1822 -0.4192 -0.9477
13799SOL    HW242839   3.808   3.151   8.080  0.8637  1.1542 -0.0563
13800SOL     OW42840   5.865   3.923   7.189 -0.1869 -0.3937 -0.1354
13800SOL    HW142841   5.776   3.904   7.218 -0.4003 -0.7872 -1.0187
13800SOL    HW242842   5.866   3.899   7.096  0.9778 -0.8731 -0.0208
13801SOL     OW42843   6.415   4.518   7.299 -0.1394 -0.0725  0.1859
13801SOL    HW142844   6.336   4.571   7.310 -0.9452 -1.1800 -0.0868
13801SOL    HW242845   6.421   4.467   7.380 -1.4374 -2.1765 -0.9420
13802SOL     OW42846   5.791   1.759   5.167 -0.0988  0.5821 -0.0897
13802SOL    HW142847   5.745   1.778   5.248 -1.7018  0.5767 -0.9507
13802SOL    HW242848   5.792   1.842   5.119 -0.3755  0.2765 -0.6399
13803SOL     OW42849   4.842   1.796   5.697  0.0230 -0.4246  0.8156
13803SOL    HW142850   4.861   1.808   5.604 -1.5315  1.0394  0.6420
13803SOL    HW242851   4.894   1.865   5.740  0.3818 -0.8067  1.0037
13804SOL     OW42852   4.163   2.432   6.259  0.3319 -0.2194 -0.3777
13804SOL    HW142853   4.228   2.361   6.254 -0.8856 -1.4309  0.5118
13804SOL    HW242854   4.138   2.435   6.351 -1.2870 -0.1652 -0.7972
13805SOL     OW42855   2.806   3.159   6.482 -0.1061  0.2204 -0.2715
13805SOL    HW142856   2.842   3.179   6.396  1.8697 -0.6189  0.3117
13805SOL    HW242857   2.876   3.180   6.544 -0.7661 -1.0287  0.9587
13806SOL     OW42858   4.639   2.617   6.459 -0.0562 -0.3927  0.0523
13806SOL    HW142859   4.574   2.628   6.529  0.7358  0.1720  0.7182
13806SOL    HW242860   4.715   2.666   6.489  0.0983  0.3566 -1.4897
13807SOL     OW42861   5.072   2.368   7.816  0.0523  0.2950  0.2354
13807SOL    HW142862   5.066   2.353   7.911  0.0149  1.6878  0.4676
13807SOL    HW242863   5.130   2.443   7.807 -1.9980  1.8807 -0.6702
13808SOL     OW42864   5.748   1.921   6.059 -0.3923  0.1160 -0.1129
13808SOL    HW142865   5.711   1.842   6.098 -0.8975  0.9488  1.1573
13808SOL    HW242866   5.777   1.894   5.972 -0.0650 -1.5825  0.4949
13809SOL     OW42867   4.341   2.830   6.798  0.1477  0.1198  0.0424
13809SOL    HW142868   4.267   2.846   6.739  0.1981 -0.1753 -0.1048
13809SOL    HW242869   4.388   2.913   6.800  1.3721 -0.4372 -2.0674
13810SOL     OW42870   4.170   1.206   5.086 -0.0474 -0.0512  0.3444
13810SOL    HW142871   4.098   1.228   5.145 -1.3305 -0.7560 -0.8913
13810SOL    HW242872   4.201   1.121   5.116 -2.5045 -1.7358 -1.5163
13811SOL     OW42873   7.075   1.807   7.227  0.2389 -0.4223  0.0525
13811SOL    HW142874   7.031   1.727   7.253 -1.5347  0.4535 -0.0938
13811SOL    HW242875   7.036   1.875   7.282  2.1226  0.2895  0.5985
13812SOL     OW42876   4.253   2.083   6.589 -0.2966  0.9537  0.0508
13812SOL    HW142877   4.321   2.135   6.631 -1.7945  2.2141  1.0059
13812SOL    HW242878   4.219   2.027   6.659 -0.4239  0.4977 -0.3649
13813SOL     OW42879   4.317   0.581   6.840 -0.0569  0.5890  0.3720
13813SOL    HW142880   4.385   0.580   6.772  0.2909  0.5241  0.7153
13813SOL    HW242881   4.355   0.532   6.912 -0.5616  0.3682  0.4862
13814SOL     OW42882   4.628   2.318   6.413  0.4568  0.2366 -0.0501
13814SOL    HW142883   4.639   2.405   6.452 -0.3490  0.9050 -1.2506
13814SOL    HW242884   4.577   2.333   6.333 -0.2480 -1.4242  0.0367
13815SOL     OW42885   3.986   2.752   6.276 -0.0744  0.0323  0.2124
13815SOL    HW142886   3.936   2.770   6.196  0.6300  0.5328 -0.1279
13815SOL    HW242887   3.944   2.675   6.313 -2.7171  1.8130  1.2627
13816SOL     OW42888   6.235   1.871   6.736  0.4985  0.5189  0.2995
13816SOL    HW142889   6.329   1.885   6.735  0.5457  0.2140 -0.1304
13816SOL    HW242890   6.224   1.780   6.764  0.3055  0.7147  0.8718
13817SOL     OW42891   6.278   3.013   5.914  0.4343  0.3205  0.2091
13817SOL    HW142892   6.227   2.948   5.866  2.1414 -1.4249  0.6138
13817SOL    HW242893   6.317   3.069   5.846 -0.8771  0.8151 -0.1541
13818SOL     OW42894   3.193   2.081   6.379 -0.3209  0.1246 -0.0602
13818SOL    HW142895   3.227   1.992   6.371 -0.0833  0.3174 -1.2557
13818SOL    HW242896   3.270   2.136   6.392 -0.2433  0.4120 -1.5589
13819SOL     OW42897   5.353   3.552   6.656  0.1324 -0.5634 -0.2690
13819SOL    HW142898   5.375   3.630   6.706 -0.9610 -0.4057 -0.0095
13819SOL    HW242899   5.415   3.486   6.686 -0.3466 -0.4088  1.1506
13820SOL     OW42900   7.250   0.670   6.666  0.8650  0.2889  0.2554
13820SOL    HW142901   7.337   0.633   6.683  0.3974 -0.5642  0.9055
13820SOL    HW242902   7.235   0.653   6.573 -0.1729 -3.1998  0.8966
13821SOL     OW42903   5.747   3.830   7.816 -0.2599 -0.3096 -0.2799
13821SOL    HW142904   5.692   3.872   7.882  0.4404  1.6678 -0.8757
13821SOL    HW242905   5.837   3.844   7.848  0.0055 -2.0730 -0.1329
13822SOL     OW42906   3.452   3.202   7.252 -0.0809  0.3195  0.9223
13822SOL    HW142907   3.424   3.294   7.251  0.5504  0.5257  0.2387
13822SOL    HW242908   3.541   3.205   7.215 -0.3909 -0.6726  0.0621
13823SOL     OW42909   4.657   2.518   6.768  0.2053  0.7175  0.4678
13823SOL    HW142910   4.733   2.541   6.715  0.6531 -0.3526  0.6237
13823SOL    HW242911   4.689   2.451   6.828 -1.3152 -1.3434 -0.8722
13824SOL     OW42912   4.982   1.142   5.943  0.1259  0.3200  0.0616
13824SOL    HW142913   4.969   1.204   5.871  1.0970  1.4787  0.8363
13824SOL    HW242914   4.933   1.180   6.016 -0.5563 -0.6554  0.1208
13825SOL     OW42915   3.874   2.756   6.794  0.3767  0.1086 -0.8631
13825SOL    HW142916   3.845   2.798   6.874  0.8725 -2.1530  0.6009
13825SOL    HW242917   3.940   2.693   6.823  1.1028 -0.2847 -3.1547
13826SOL     OW42918   5.704   2.356   6.786  0.1587 -0.0949 -0.4572
13826SOL    HW142919   5.785   2.307   6.768 -0.1893 -0.4332 -1.1143
13826SOL    HW242920   5.690   2.410   6.708 -0.6023 -0.5303 -0.6315
13827SOL     OW42921   5.400   1.928   6.555 -0.7339 -0.3185 -0.4483
13827SOL    HW142922   5.405   1.908   6.648 -0.5774  0.6337 -0.2409
13827SOL    HW242923   5.453   1.861   6.513  0.2934  0.0314  0.2674
13828SOL     OW42924   4.273   3.423   5.053 -0.4260  0.2016  0.0204
13828SOL    HW142925   4.329   3.444   4.979 -2.1795  0.7432 -1.2249
13828SOL    HW242926   4.325   3.447   5.130  1.2842  0.0016 -1.0284
13829SOL     OW42927   5.396   3.996   7.052 -0.5270  0.2213 -0.6141
13829SOL    HW142928   5.445   4.070   7.089 -0.3662 -0.0271 -0.3211
13829SOL    HW242929   5.314   3.995   7.102  0.0871 -0.6988  0.4129
13830SOL     OW42930   2.977   2.829   6.912 -0.2432  0.0291 -0.5729
13830SOL    HW142931   2.919   2.886   6.964 -0.6723 -1.5890  0.8374
13830SOL    HW242932   2.917   2.779   6.856 -0.2316 -1.3047  0.5433
13831SOL     OW42933   3.545   2.994   7.423 -0.3049  0.1486  0.0950
13831SOL    HW142934   3.626   2.996   7.372  0.4750  1.1473  1.3008
13831SOL    HW242935   3.488   3.057   7.380 -1.2617 -1.9254 -1.9233
13832SOL     OW42936   7.574   1.272   7.594  0.0074 -0.2885  0.1172
13832SOL    HW142937   7.565   1.367   7.585  1.1851 -0.2885 -1.5204
13832SOL    HW242938   7.501   1.237   7.544  1.0343 -0.2214 -1.4988
13833SOL     OW42939   3.578   3.206   5.943  0.4806  0.1891  0.1112
13833SOL    HW142940   3.484   3.217   5.956  0.3107 -2.1070  1.3638
13833SOL    HW242941   3.615   3.292   5.963 -1.2401  0.8377  0.7095
13834SOL     OW42942   6.598   1.877   6.992 -0.4167 -0.1032 -0.5009
13834SOL    HW142943   6.623   1.846   7.080 -0.0444  0.2777 -0.4677
13834SOL    HW242944   6.671   1.933   6.966 -0.9060  0.4352 -0.7190
13835SOL     OW42945   5.444   3.235   7.126  0.0605  0.3446  0.0135
13835SOL    HW142946   5.474   3.221   7.215 -0.1160  1.5600  0.2783
13835SOL    HW242947   5.392   3.157   7.105  2.4997 -1.3654 -0.1103
13836SOL     OW42948   6.377   1.479   6.200  0.1680 -0.2791  0.6590
13836SOL    HW142949   6.466   1.503   6.176  0.5236 -0.2313  1.9536
13836SOL    HW242950   6.382   1.456   6.293 -1.1994 -0.1051  0.8019
13837SOL     OW42951   5.847   2.891   5.881  0.3177  0.7166  0.3448
13837SOL    HW142952   5.851   2.927   5.792  0.8235  0.9501  0.4578
13837SOL    HW242953   5.854   2.967   5.938 -3.2773  0.9686  0.6520
13838SOL     OW42954   4.387   1.587   5.628 -0.4136  0.2356  0.0480
13838SOL    HW142955   4.468   1.606   5.675 -0.0926  0.3498 -0.5394
13838SOL    HW242956   4.352   1.672   5.603 -1.2441  0.2358  1.1563
13839SOL     OW42957   2.881   3.104   6.217  0.2740  0.1033  0.0309
13839SOL    HW142958   2.892   3.037   6.150 -0.2372  0.6395 -0.6038
13839SOL    HW242959   2.969   3.141   6.229  0.4074 -0.1439 -0.1889
13840SOL     OW42960   3.201   2.804   7.531  0.1968 -0.6019 -0.3432
13840SOL    HW142961   3.193   2.874   7.465 -1.3228 -0.4676 -0.0509
13840SOL    HW242962   3.287   2.818   7.570 -0.4557  1.7583  0.3977
13841SOL     OW42963   4.260   2.015   9.492  0.0281 -0.2951 -0.2016
13841SOL    HW142964   4.175   1.992   9.454  0.3050 -0.0663 -0.9910
13841SOL    HW242965   4.316   2.034   9.416  0.4312  0.7805  0.3349
13842SOL     OW42966   4.556   1.797   7.061 -0.5459  0.7289  0.1062
13842SOL    HW142967   4.543   1.706   7.086  1.5892  0.7838  1.6719
13842SOL    HW242968   4.470   1.837   7.070 -1.0321 -0.6002  1.7968
13843SOL     OW42969   5.651   2.403   7.546 -0.1221  0.7843  0.0453
13843SOL    HW142970   5.557   2.396   7.560 -0.1335  0.5120 -0.1643
13843SOL    HW242971   5.677   2.482   7.593 -0.6750  1.6115 -0.9786
13844SOL     OW42972   5.651   2.544   9.274  0.3028 -0.1483 -0.0263
13844SOL    HW142973   5.588   2.606   9.310  0.1839 -0.9677  1.2416
13844SOL    HW242974   5.612   2.458   9.292  2.1663 -0.7242  1.6459
13845SOL     OW42975   6.637   1.561   6.003  0.3005 -0.0181 -0.6283
13845SOL    HW142976   6.723   1.592   5.975  0.7417 -0.2136  0.4533
13845SOL    HW242977   6.651   1.469   6.023 -0.0156  0.0835  0.0885
13846SOL     OW42978   4.793   1.965   9.154 -0.2830  0.7297  0.5431
13846SOL    HW142979   4.739   1.969   9.075 -0.1093  0.0619  0.3859
13846SOL    HW242980   4.741   1.914   9.216  1.5093 -3.0782 -0.7532
13847SOL     OW42981   4.297   2.084   8.835 -0.0887  0.2305 -0.4000
13847SOL    HW142982   4.378   2.114   8.876 -0.7407 -0.2898  1.3393
13847SOL    HW242983   4.286   2.141   8.759  1.5932  0.6845 -0.3313
13848SOL     OW42984   4.221   2.914   9.070 -0.0384  0.1586 -0.1605
13848SOL    HW142985   4.258   2.984   9.016  0.1088 -0.1260 -0.4310
13848SOL    HW242986   4.132   2.943   9.089 -0.6764 -0.4939 -1.9487
13849SOL     OW42987   5.096   2.902   9.734  0.1538  0.5335 -0.4811
13849SOL    HW142988   5.057   2.835   9.678  0.4197  0.0037 -0.0517
13849SOL    HW242989   5.030   2.972   9.737  0.0693  0.4971 -1.3054
13850SOL     OW42990   3.237   1.563   9.645 -0.1942 -0.1942  0.0383
13850SOL    HW142991   3.278   1.476   9.649  0.6449  0.2367  2.1791
13850SOL    HW242992   3.192   1.564   9.561  0.9682 -2.1662 -0.6864
13851SOL     OW42993   6.802   2.054   6.935 -0.6415 -0.0680  0.2064
13851SOL    HW142994   6.831   2.144   6.935 -1.1438  0.1530  2.0619
13851SOL    HW242995   6.882   2.002   6.929 -0.0459  0.5275  2.1904
13852SOL     OW42996   3.796   3.835   7.203  0.2355  0.2568 -0.3560
13852SOL    HW142997   3.872   3.892   7.188  1.8069 -1.8982 -1.0947
13852SOL    HW242998   3.780   3.794   7.118 -0.1177 -1.2165  0.3962
13853SOL     OW42999   5.321   2.341   8.533  0.0219 -0.2094 -0.1157
13853SOL    HW143000   5.275   2.424   8.545  0.8701  0.1698  0.6422
13853SOL    HW243001   5.384   2.359   8.463  0.6008 -0.0293  0.4405
13854SOL     OW43002   3.212   2.762   7.891  0.1763  0.1077  0.3627
13854SOL    HW143003   3.191   2.854   7.872  0.9371 -0.2022 -2.5511
13854SOL    HW243004   3.307   2.757   7.880 -0.0097 -1.2654 -1.0536
13855SOL     OW43005   4.732   1.649   7.843 -0.2899 -0.2415  0.1551
13855SOL    HW143006   4.825   1.628   7.845 -0.5046 -1.2465  1.6909
13855SOL    HW243007   4.695   1.599   7.916 -1.8543  1.0031  0.2691
13856SOL     OW43008   4.433   1.305   8.070  0.0529 -0.0033  0.2158
13856SOL    HW143009   4.445   1.216   8.037 -1.0297 -0.4248  0.9117
13856SOL    HW243010   4.344   1.328   8.044  0.3130  0.8658  0.0774
13857SOL     OW43011   4.517   1.511   7.643 -0.2537  0.1157 -0.4059
13857SOL    HW143012   4.440   1.455   7.650  1.0690 -1.6636  1.6496
13857SOL    HW243013   4.573   1.467   7.578  0.2561 -0.3028  0.2968
13858SOL     OW43014   4.339   3.112   8.193  0.4690  0.1495  0.3950
13858SOL    HW143015   4.262   3.126   8.248 -0.2530 -1.2092 -0.2201
13858SOL    HW243016   4.345   3.191   8.139 -0.2860  0.4211  0.6969
13859SOL     OW43017   4.055   3.359   8.151  0.0245 -0.0435  0.5760
13859SOL    HW143018   4.006   3.427   8.197 -0.2875 -0.1440  0.3957
13859SOL    HW243019   4.078   3.296   8.219 -0.3694 -0.1540  0.6124
13860SOL     OW43020   6.120   2.928   8.050 -0.2005 -0.0614  0.2738
13860SOL    HW143021   6.112   3.006   7.994  0.2820 -0.8484 -0.9359
13860SOL    HW243022   6.034   2.919   8.091 -0.7378  0.2605 -0.7455
13861SOL     OW43023   5.073   2.883   7.621  0.5073 -0.6297  0.6914
13861SOL    HW143024   5.027   2.962   7.650  0.8603 -0.3969  0.6194
13861SOL    HW243025   5.005   2.830   7.579  0.4774  0.0996 -0.1903
13862SOL     OW43026   3.072   2.555   8.019 -0.0848  0.4387 -0.5406
13862SOL    HW143027   3.101   2.635   7.974 -0.6138  1.7900  1.3969
13862SOL    HW243028   3.131   2.547   8.094 -2.0176  0.9124  1.1287
13863SOL     OW43029   4.226   3.407   8.459 -0.1427  0.3147  0.2601
13863SOL    HW143030   4.200   3.470   8.392 -1.3586 -0.7183 -0.2845
13863SOL    HW243031   4.174   3.329   8.441  0.2963 -0.3806  1.7561
13864SOL     OW43032   4.339   3.361   8.027 -0.3116  0.1097 -0.2677
13864SOL    HW143033   4.349   3.442   8.076 -0.5447  0.3548 -0.6186
13864SOL    HW243034   4.424   3.346   7.986 -0.9477  1.4986 -2.2072
13865SOL     OW43035   3.719   1.283   7.022 -0.1120 -0.1348 -0.0590
13865SOL    HW143036   3.750   1.192   7.014 -0.3709 -0.5244  2.5185
13865SOL    HW243037   3.679   1.287   7.109 -3.5080  1.4876 -1.5081
13866SOL     OW43038   3.426   2.417   8.514 -0.6809 -0.2051 -0.5513
13866SOL    HW143039   3.465   2.334   8.488 -0.9077 -0.2074 -0.8921
13866SOL    HW243040   3.490   2.457   8.572 -0.5327 -0.5798 -0.4546
13867SOL     OW43041   5.484   2.940   8.056 -0.1072 -0.7962  0.2301
13867SOL    HW143042   5.389   2.949   8.061 -0.1595 -0.5601 -0.9115
13867SOL    HW243043   5.517   2.998   8.124 -0.7775 -0.9786  0.7283
13868SOL     OW43044   3.108   1.908   9.187  0.3474  0.1119  0.5043
13868SOL    HW143045   3.138   1.825   9.149  3.0335  0.6672  1.1629
13868SOL    HW243046   3.077   1.958   9.112  0.6979 -0.7116 -0.2120
13869SOL     OW43047   4.837   2.482   7.722 -0.4170  0.4381  0.9710
13869SOL    HW143048   4.912   2.431   7.754 -0.0590 -1.0361 -1.9287
13869SOL    HW243049   4.761   2.439   7.762 -0.0357 -1.7988 -0.4930
13870SOL     OW43050   5.616   2.658   7.722 -0.3141  0.4355  0.4241
13870SOL    HW143051   5.693   2.622   7.766 -1.0534 -0.3982  1.0802
13870SOL    HW243052   5.596   2.738   7.771 -0.3501  0.2053  0.7933
13871SOL     OW43053   3.422   1.185   6.888 -0.1840  0.5404  0.3219
13871SOL    HW143054   3.485   1.218   6.952  0.7953  2.0642 -1.3383
13871SOL    HW243055   3.447   1.094   6.874  1.4858  1.0160 -0.0570
13872SOL     OW43056   3.794   7.408   7.220 -0.1707  0.2522  0.6510
13872SOL    HW143057   3.803   7.369   7.133 -0.3558  1.8613 -0.1280
13872SOL    HW243058   3.719   7.364   7.259 -1.9372  1.4768 -1.1659
13873SOL     OW43059   5.273   4.061   8.150 -0.1350  0.7011 -0.0820
13873SOL    HW143060   5.246   4.044   8.060 -0.7576 -3.2671  0.6395
13873SOL    HW243061   5.191   4.061   8.200  0.2002  2.7631  0.5500
13874SOL     OW43062   4.397   0.733   9.259  0.8729  0.4499  0.5967
13874SOL    HW143063   4.304   0.753   9.242 -0.0337 -1.9491  2.2720
13874SOL    HW243064   4.439   0.819   9.262 -1.2508  1.6163 -0.3020
13875SOL     OW43065   5.945   4.468   9.966 -0.4124 -0.0201  0.2448
13875SOL    HW143066   5.962   4.537   9.901 -0.6389 -0.8015 -0.6645
13875SOL    HW243067   5.858   4.434   9.942 -0.7935  0.1167  1.3654
13876SOL     OW43068   4.176   1.596   8.785  0.8011 -0.3958 -0.3099
13876SOL    HW143069   4.172   1.690   8.804  1.9188 -0.5990  1.2062
13876SOL    HW243070   4.139   1.587   8.698 -2.7447  1.0024  0.8527
13877SOL     OW43071   3.654   1.043   6.580  0.1475  0.2947 -0.1850
13877SOL    HW143072   3.681   1.090   6.659  1.2578  0.3745 -0.5866
13877SOL    HW243073   3.596   0.974   6.611 -0.6334  1.2537  0.5387
13878SOL     OW43074   3.847   2.659   9.397 -0.0693 -0.4217  0.2120
13878SOL    HW143075   3.793   2.738   9.409  0.9956  0.3173  0.2255
13878SOL    HW243076   3.783   2.588   9.396 -0.9333  0.2337  2.1284
13879SOL     OW43077   3.260   2.633   9.016 -0.3606 -0.3569 -0.5507
13879SOL    HW143078   3.201   2.667   8.949 -1.3182 -0.9810 -0.0519
13879SOL    HW243079   3.203   2.612   9.090  0.4968 -0.9059 -0.0224
13880SOL     OW43080   4.478   2.727   6.071  0.4007 -0.7465  0.5363
13880SOL    HW143081   4.413   2.673   6.027 -2.1589  1.8273  0.8831
13880SOL    HW243082   4.440   2.746   6.157  2.8981 -1.3641  1.8619
13881SOL     OW43083   5.787   2.886   8.527  0.2410  0.5212  0.2037
13881SOL    HW143084   5.705   2.841   8.504 -0.0163  0.4035  1.2982
13881SOL    HW243085   5.853   2.816   8.527 -0.0142  0.2635  1.1311
13882SOL     OW43086   3.658   2.361   9.670  0.6643  0.2951  0.1103
13882SOL    HW143087   3.722   2.290   9.659  0.7904  0.3329  0.5864
13882SOL    HW243088   3.573   2.318   9.659  0.7368  0.0462  0.4872
13883SOL     OW43089   4.278   7.061   7.674  0.1714 -0.0553  0.0980
13883SOL    HW143090   4.257   6.973   7.645 -1.1087  0.6476 -1.2307
13883SOL    HW243091   4.249   7.064   7.765 -2.7257 -0.1279 -0.7156
13884SOL     OW43092   4.040   2.190   8.088  0.3657  0.4757 -0.0996
13884SOL    HW143093   4.101   2.191   8.162 -0.4715  0.0209  0.6086
13884SOL    HW243094   4.038   2.099   8.060 -1.3699  0.1089  1.0708
13885SOL     OW43095   4.917   3.091   7.735  0.0431 -0.0079 -0.3960
13885SOL    HW143096   4.827   3.083   7.701 -0.1392  0.5647 -0.0590
13885SOL    HW243097   4.942   3.181   7.714 -0.2873  0.5542  1.4861
13886SOL     OW43098   4.472   3.622   9.914  0.1020 -0.7800 -0.0195
13886SOL    HW143099   4.421   3.611   9.993  2.8377 -0.0748  1.9941
13886SOL    HW243100   4.469   3.716   9.896 -2.3969 -1.1743 -2.2364
13887SOL     OW43101   3.699   2.001   7.877 -0.0492 -0.4168  0.2876
13887SOL    HW143102   3.747   1.967   7.952  0.5405 -0.9527 -0.3179
13887SOL    HW243103   3.634   2.061   7.915  0.2631 -0.6457  1.2114
13888SOL     OW43104   3.738   2.950   7.867  0.1661 -0.0566 -0.5871
13888SOL    HW143105   3.771   3.008   7.936  0.1262  1.0163 -1.4415
13888SOL    HW243106   3.788   2.974   7.790 -0.9748 -0.0516 -1.3474
13889SOL     OW43107   3.243   0.759   9.262  0.2693 -0.2720 -0.7521
13889SOL    HW143108   3.153   0.789   9.274  0.9254  2.1237 -1.4533
13889SOL    HW243109   3.292   0.804   9.330  1.0146 -1.3642 -0.5405
13890SOL     OW43110   4.043   0.488  12.233 -0.2601  0.0757  0.1088
13890SOL    HW143111   4.012   0.404  12.198  0.2804 -0.0749 -0.0238
13890SOL    HW243112   3.994   0.554  12.185 -0.8052 -0.1688  0.3261
13891SOL     OW43113   0.180   2.464   7.800 -0.4403  0.0598  0.0059
13891SOL    HW143114   0.136   2.391   7.756  0.2858 -1.1878  1.2720
13891SOL    HW243115   0.138   2.468   7.886 -0.2687  0.9680  0.0538
13892SOL     OW43116   4.201   3.655   8.281 -0.7428 -0.6219  0.5322
13892SOL    HW143117   4.266   3.623   8.217 -0.6816  1.8000 -0.7381
13892SOL    HW243118   4.125   3.678   8.228 -1.1021  0.4148  1.4612
13893SOL     OW43119   4.687   0.723   8.246  0.0241  0.2912  0.2428
13893SOL    HW143120   4.648   0.800   8.287  0.7212  0.8536 -0.1307
13893SOL    HW243121   4.633   0.709   8.167 -1.0737 -0.5614  1.1043
13894SOL     OW43122   4.481   3.496   7.616 -0.7789 -0.2951  0.2173
13894SOL    HW143123   4.562   3.447   7.624 -0.3390  0.6218  1.9770
13894SOL    HW243124   4.502   3.583   7.651 -1.9521  0.6406 -1.2817
13895SOL     OW43125   4.373   2.950   7.695 -0.0746 -0.0615  0.3301
13895SOL    HW143126   4.278   2.947   7.704 -0.2179  0.6605 -0.7049
13895SOL    HW243127   4.388   2.957   7.600  0.9337  1.6830  0.5644
13896SOL     OW43128   4.179   1.867   9.836  0.1095 -0.2874  0.5081
13896SOL    HW143129   4.223   1.828   9.760  0.7508 -0.7402  1.0966
13896SOL    HW243130   4.180   1.961   9.819  0.2179 -0.3895 -0.0638
13897SOL     OW43131   5.733   0.954   7.171  0.1588 -0.7104  0.3949
13897SOL    HW143132   5.679   0.876   7.157 -0.9295  0.2555 -1.0191
13897SOL    HW243133   5.760   0.981   7.083  0.8009  0.3303  0.8933
13898SOL     OW43134   4.635   1.663  10.020  0.4613 -0.2038 -0.3871
13898SOL    HW143135   4.585   1.633   9.944  0.3017  2.9566 -1.6690
13898SOL    HW243136   4.572   1.709  10.074  0.6322 -2.1861  1.6705
13899SOL     OW43137   4.690   1.205   9.615  0.4561  0.3943 -0.1097
13899SOL    HW143138   4.657   1.226   9.528 -0.8651 -1.0634  0.0029
13899SOL    HW243139   4.617   1.159   9.658  1.9660 -1.2148  0.8463
13900SOL     OW43140   4.168   3.918   8.381 -0.0714  0.0515 -0.2403
13900SOL    HW143141   4.148   3.924   8.288 -0.7661  0.3708 -0.0808
13900SOL    HW243142   4.199   3.829   8.394  0.2445  0.0787 -0.8174
13901SOL     OW43143   5.019   1.665   8.805 -0.5319  0.2000 -0.3531
13901SOL    HW143144   4.986   1.676   8.716  1.5616 -0.5482 -1.2725
13901SOL    HW243145   4.940   1.654   8.859 -1.8150 -2.2194 -2.5092
13902SOL     OW43146   3.795   1.675   8.001 -0.0007  0.1425  0.3705
13902SOL    HW143147   3.820   1.688   8.092  0.5566  1.2267  0.0734
13902SOL    HW243148   3.762   1.585   7.998  1.0627 -0.3059  1.3993
13903SOL     OW43149   5.006   3.042   6.914 -0.1823 -0.5948  0.3917
13903SOL    HW143150   4.982   3.101   6.843  0.1816 -0.2360  0.5648
13903SOL    HW243151   4.936   3.052   6.979  0.7724  0.9953  1.2230
13904SOL     OW43152   3.933   3.414   7.880  0.7254 -0.1678 -0.0811
13904SOL    HW143153   3.860   3.463   7.918  1.2930  0.5399  0.1118
13904SOL    HW243154   3.924   3.428   7.785 -0.7658 -2.0417 -0.2892
13905SOL     OW43155   4.145   1.924   6.794 -0.1776 -0.3118  0.2162
13905SOL    HW143156   4.107   1.950   6.878 -0.3812  0.8749 -0.2316
13905SOL    HW243157   4.072   1.926   6.732  0.4396  1.3324 -0.5092
13906SOL     OW43158   4.014   2.443   9.087  0.1341 -0.1864  0.2550
13906SOL    HW143159   4.021   2.537   9.104  0.5729 -0.2094  0.2088
13906SOL    HW243160   4.014   2.436   8.991 -3.2115  0.0141  0.1151
13907SOL     OW43161   4.246   3.927   8.789 -0.0564  0.1058 -0.6231
13907SOL    HW143162   4.183   3.886   8.848  0.0186 -0.0069 -0.6227
13907SOL    HW243163   4.216   4.018   8.781  1.2006  0.7753  1.4133
13908SOL     OW43164   4.111   2.741   7.877 -0.8219 -0.1445  0.3016
13908SOL    HW143165   4.078   2.820   7.833  0.9004  1.4869  1.7625
13908SOL    HW243166   4.127   2.769   7.967 -1.2911 -2.5281  1.2099
13909SOL     OW43167   6.638   2.832   6.907 -0.9489  0.1746 -0.1370
13909SOL    HW143168   6.721   2.875   6.885 -0.3055 -0.9711  0.0037
13909SOL    HW243169   6.662   2.761   6.966 -1.9734 -0.4451 -0.4390
13910SOL     OW43170   5.230   1.486   9.583  0.1255 -0.0145 -0.2576
13910SOL    HW143171   5.205   1.558   9.525  0.9671 -0.3266 -1.0383
13910SOL    HW243172   5.151   1.434   9.593  0.4752 -1.2927 -3.1183
13911SOL     OW43173   4.610   1.897   8.685 -0.1973 -0.1414 -0.4703
13911SOL    HW143174   4.649   1.902   8.597  0.7755 -0.0570 -0.0466
13911SOL    HW243175   4.528   1.849   8.672  1.4709 -3.1398 -0.9495
13912SOL     OW43176   4.953   2.137   8.264  0.5557 -0.4339  0.2518
13912SOL    HW143177   4.910   2.164   8.183 -0.0600  1.0324  1.0132
13912SOL    HW243178   5.004   2.213   8.291 -0.2965 -0.4000  1.8987
13913SOL     OW43179   4.494   2.196   8.040 -0.8220  0.4744 -0.3738
13913SOL    HW143180   4.494   2.281   7.996 -0.9280 -0.2106 -1.7404
13913SOL    HW243181   4.586   2.168   8.036 -1.0474 -0.1787 -1.3776
13914SOL     OW43182   4.046   2.370   8.818  0.3331  0.1083 -1.0861
13914SOL    HW143183   4.084   2.282   8.813 -0.1523 -0.1054 -1.0214
13914SOL    HW243184   4.011   2.385   8.730  0.1146  0.1001 -1.0005
13915SOL     OW43185   6.041   3.154   7.470 -0.0529 -0.1200 -0.1741
13915SOL    HW143186   6.071   3.233   7.514  0.9362 -0.5794  0.0075
13915SOL    HW243187   5.952   3.175   7.440  0.3623  1.2195 -0.5440
13916SOL     OW43188   4.407   1.886   7.579 -0.0510 -0.2248 -0.0866
13916SOL    HW143189   4.343   1.945   7.619 -0.5417 -0.5825 -0.3347
13916SOL    HW243190   4.378   1.878   7.488  0.6869  0.0782 -0.3559
13917SOL     OW43191   7.069   2.286   7.200  0.2533 -0.5195 -0.2200
13917SOL    HW143192   7.054   2.306   7.108  0.1776 -0.2306 -0.1498
13917SOL    HW243193   7.036   2.364   7.246 -1.5844 -1.4662  0.1769
13918SOL     OW43194   4.126   1.533   7.045  0.0285 -0.2992 -0.6911
13918SOL    HW143195   4.192   1.547   6.977  0.4387 -0.7453 -0.3871
13918SOL    HW243196   4.043   1.530   6.997  0.1723  0.7448 -1.0182
13919SOL     OW43197   5.338   2.256   9.640 -0.5760  0.0065  0.3052
13919SOL    HW143198   5.348   2.275   9.546 -3.6718  1.2865  0.1295
13919SOL    HW243199   5.251   2.216   9.647 -0.2956 -0.3205  2.6308
13920SOL     OW43200   5.327   3.019   8.880  0.0920 -0.0316 -0.2705
13920SOL    HW143201   5.410   3.021   8.928  0.2172 -0.5399 -0.4538
13920SOL    HW243202   5.306   2.926   8.874  0.5988 -0.0672 -2.0943
13921SOL     OW43203   4.589   3.006   7.907 -0.1120 -0.0110  0.3883
13921SOL    HW143204   4.580   2.926   7.854  0.7598 -1.3182  2.1220
13921SOL    HW243205   4.625   3.070   7.846  0.9967 -1.5045 -0.6069
13922SOL     OW43206   5.638   3.787   8.657 -0.3463  0.4175  0.5884
13922SOL    HW143207   5.607   3.710   8.609 -0.1851  1.2535 -0.9097
13922SOL    HW243208   5.602   3.861   8.609 -0.0149  1.3010  1.6713
13923SOL     OW43209   4.711   2.390   8.469  0.2688  0.5715  0.2872
13923SOL    HW143210   4.792   2.424   8.507 -0.7855  2.3429  1.0218
13923SOL    HW243211   4.659   2.467   8.450 -1.8602 -0.5689  1.1661
13924SOL     OW43212   5.557   3.566   8.547  0.0456  0.3223 -0.5285
13924SOL    HW143213   5.505   3.507   8.492 -0.5627 -0.8271  1.1884
13924SOL    HW243214   5.642   3.523   8.556 -0.2282 -0.0625  0.3102
13925SOL     OW43215   4.650   2.794   7.732  0.5495 -0.1253 -0.2224
13925SOL    HW143216   4.728   2.808   7.679  0.1090  0.3904 -0.7556
13925SOL    HW243217   4.580   2.777   7.668 -0.2596  1.7733  0.0937
13926SOL     OW43218   2.698   1.725   8.687  0.2657 -0.1451  0.2308
13926SOL    HW143219   2.785   1.724   8.726  0.3431 -3.0531  0.2580
13926SOL    HW243220   2.713   1.734   8.593  0.8135 -2.4063  0.0428
13927SOL     OW43221   5.183   2.661   9.423 -0.3614 -0.1401  0.5285
13927SOL    HW143222   5.099   2.708   9.419  0.2856  1.4501  3.2757
13927SOL    HW243223   5.239   2.717   9.477  2.3661 -1.3759 -0.8816
13928SOL     OW43224   5.731   2.769   7.462  0.4407 -0.0597  0.2990
13928SOL    HW143225   5.697   2.703   7.523  1.8007 -0.6856  0.4206
13928SOL    HW243226   5.692   2.851   7.491  1.2991 -0.2862  2.2690
13929SOL     OW43227   5.021   2.422   8.794  0.7919 -0.3099 -0.3673
13929SOL    HW143228   4.941   2.369   8.798  0.2713  0.5450  1.6071
13929SOL    HW243229   5.008   2.478   8.718 -0.2171 -0.6163 -0.4339
13930SOL     OW43230   5.130   3.451   7.850  0.1715  0.0602  0.1304
13930SOL    HW143231   5.079   3.410   7.920 -0.2114  0.3792  0.0385
13930SOL    HW243232   5.091   3.418   7.769  0.3531  0.0105  0.0623
13931SOL     OW43233   4.531   3.572   8.734 -0.0930  0.0592  0.7024
13931SOL    HW143234   4.552   3.514   8.660  0.7648  0.2913  0.7542
13931SOL    HW243235   4.466   3.632   8.698  1.5392  1.2460 -0.4026
13932SOL     OW43236   6.762   2.672   7.990  0.2408  0.1880 -0.1836
13932SOL    HW143237   6.753   2.624   8.073  2.1885  1.4616  0.8437
13932SOL    HW243238   6.709   2.622   7.928 -0.1320 -1.6331  1.4845
13933SOL     OW43239   2.858   2.992   9.583 -0.8243 -0.3839  0.2655
13933SOL    HW143240   2.946   2.965   9.609 -0.2079  0.8866 -0.4387
13933SOL    HW243241   2.857   3.087   9.591 -1.6208 -0.2286 -1.2158
13934SOL     OW43242   4.474   2.234   8.988 -0.4696 -0.2733 -0.2752
13934SOL    HW143243   4.396   2.245   9.042  0.0488 -1.2832  0.7416
13934SOL    HW243244   4.526   2.312   9.004 -0.4498 -0.4376  0.5029
13935SOL     OW43245   4.075   1.040   8.385  0.2233 -1.2347 -0.6128
13935SOL    HW143246   4.056   1.011   8.474 -0.0792 -1.4464 -0.7462
13935SOL    HW243247   3.992   1.035   8.339 -0.0408  0.7214 -0.4124
13936SOL     OW43248   4.646   0.144   7.709  0.1914 -0.4777  0.1137
13936SOL    HW143249   4.638   0.181   7.797  0.7090  0.5982 -0.2825
13936SOL    HW243250   4.598   0.205   7.653  0.1317 -0.9887 -0.3997
13937SOL     OW43251   5.015   1.908   8.998  0.3534  0.5683  0.1253
13937SOL    HW143252   5.062   1.976   9.046  1.0779 -0.1154  0.4018
13937SOL    HW243253   4.931   1.901   9.042 -0.1798  2.0352 -0.5738
13938SOL     OW43254   4.457   2.395   8.271 -0.0799 -0.4201 -0.1438
13938SOL    HW143255   4.383   2.455   8.267  0.6402  0.4753 -0.3065
13938SOL    HW243256   4.534   2.452   8.277  0.6710 -1.3068 -1.0563
13939SOL     OW43257   6.060   2.064   7.933 -0.2315 -0.0328 -0.7704
13939SOL    HW143258   6.156   2.064   7.942 -0.3616 -1.2380  1.1307
13939SOL    HW243259   6.032   2.139   7.985 -0.4064 -0.9653  0.5322
13940SOL     OW43260   3.805   1.143   7.678  0.3925 -0.1157  0.1457
13940SOL    HW143261   3.851   1.211   7.629  0.1445 -0.1742 -0.1715
13940SOL    HW243262   3.855   1.135   7.760  1.4780 -0.8174 -0.5613
13941SOL     OW43263   5.697   1.816   9.357  0.3882  0.2772  0.2245
13941SOL    HW143264   5.602   1.827   9.345  0.3278 -1.5529 -1.8253
13941SOL    HW243265   5.735   1.847   9.274  1.4422 -0.3026  0.4716
13942SOL     OW43266   4.867   2.405   9.459 -0.1774 -0.3783  0.2796
13942SOL    HW143267   4.798   2.463   9.427  0.0652 -0.2558 -0.0376
13942SOL    HW243268   4.824   2.322   9.475 -0.5349 -0.1072  0.7456
13943SOL     OW43269   3.914   1.724   8.248  0.7561 -0.1001  0.3463
13943SOL    HW143270   3.850   1.748   8.316  1.3293 -0.6724  1.0998
13943SOL    HW243271   3.978   1.670   8.293  2.4033  1.3563 -0.1215
13944SOL     OW43272   7.232   2.381   6.125 -0.5770 -0.1188 -0.1232
13944SOL    HW143273   7.181   2.350   6.200  0.3879  0.6460  0.8842
13944SOL    HW243274   7.174   2.368   6.050 -1.8894 -0.1423  0.8523
13945SOL     OW43275   4.520   1.147   7.742  0.2467 -0.1006  0.2298
13945SOL    HW143276   4.503   1.226   7.690  1.3624 -0.9003 -1.4463
13945SOL    HW243277   4.485   1.167   7.829 -3.2207  0.7317 -1.1654
13946SOL     OW43278   5.230   2.431   9.962  0.7228 -0.6328  0.6257
13946SOL    HW143279   5.210   2.477   9.881 -1.0408  0.7734  1.7777
13946SOL    HW243280   5.185   2.348   9.955 -3.0564  1.1183  1.7454
13947SOL     OW43281   4.442   2.453   7.930  0.8360 -0.7280  0.1794
13947SOL    HW143282   4.460   2.522   7.867  0.8508 -0.5770  0.3460
13947SOL    HW243283   4.350   2.429   7.914  0.8891 -0.8042 -0.0066
13948SOL     OW43284   7.274   1.384   7.326 -0.1972  0.0637 -0.2534
13948SOL    HW143285   7.236   1.398   7.413 -1.2655 -0.6248 -0.5787
13948SOL    HW243286   7.311   1.469   7.302  0.5581  0.1412  1.0675
13949SOL     OW43287   6.300   1.104   5.829 -0.0760 -0.2342 -0.1419
13949SOL    HW143288   6.206   1.100   5.846 -0.0609 -1.4151 -0.2207
13949SOL    HW243289   6.340   1.064   5.906  0.3751  0.4146 -0.0341
13950SOL     OW43290   4.139   0.897   9.619  0.5719  0.1532 -0.4734
13950SOL    HW143291   4.196   0.908   9.695  2.0491 -0.9880 -1.3712
13950SOL    HW243292   4.169   0.817   9.577  0.1516  1.0269 -2.5644
13951SOL     OW43293   3.607   2.131   8.106  0.1827  0.5986  0.5717
13951SOL    HW143294   3.536   2.160   8.048  0.5980 -0.8128 -0.7167
13951SOL    HW243295   3.569   2.061   8.158  0.2551  0.7793  0.8709
13952SOL     OW43296   3.339   2.271   9.305  0.0199 -0.3484 -0.4419
13952SOL    HW143297   3.398   2.313   9.368 -2.1196  1.7048  0.3607
13952SOL    HW243298   3.331   2.181   9.336  1.2342 -0.1666  0.4969
13953SOL     OW43299   3.486   2.993   7.686  0.1510 -0.2511 -0.1882
13953SOL    HW143300   3.490   3.015   7.593 -0.5013  2.1217  0.2730
13953SOL    HW243301   3.566   3.029   7.723 -0.6322  0.8619  0.4983
13954SOL     OW43302   5.083   1.723   9.551 -0.1652 -0.5028 -0.3194
13954SOL    HW143303   5.038   1.690   9.629 -1.0492  0.1566 -0.5409
13954SOL    HW243304   5.111   1.812   9.575  0.6180 -0.7324 -0.3491
13955SOL     OW43305   2.261   2.247   6.220 -0.6856  0.8757  0.0417
13955SOL    HW143306   2.217   2.163   6.237 -1.4821  1.1329 -0.6540
13955SOL    HW243307   2.189   2.308   6.202 -0.2045  2.0515  1.8689
13956SOL     OW43308   3.996   3.938   8.130  0.6625 -0.1230  0.2818
13956SOL    HW143309   3.963   4.026   8.147  1.4515  0.3915 -0.6894
13956SOL    HW243310   3.920   3.890   8.096  0.0705 -0.0249  1.4106
13957SOL     OW43311   3.958   3.469   7.615 -0.0243 -0.3316 -0.2167
13957SOL    HW143312   3.918   3.463   7.528  0.8159 -0.9464 -0.5748
13957SOL    HW243313   4.051   3.480   7.598 -0.0713  1.6210  0.6084
13958SOL     OW43314   5.858   1.413   8.062 -0.2805  0.0361 -0.3202
13958SOL    HW143315   5.879   1.324   8.033  0.0898 -0.2689  0.8184
13958SOL    HW243316   5.770   1.405   8.101 -0.0924  0.0833  0.1190
13959SOL     OW43317   3.797   2.257   6.487  0.0714  0.1742 -0.3230
13959SOL    HW143318   3.867   2.270   6.423 -0.1437 -2.0183 -1.1187
13959SOL    HW243319   3.839   2.269   6.572  0.9598  0.7570 -0.8322
13960SOL     OW43320   5.189   3.294   8.661 -0.8189 -0.3241  0.4241
13960SOL    HW143321   5.161   3.374   8.705  1.2032  0.6739  0.0128
13960SOL    HW243322   5.135   3.291   8.581  0.0062  1.4130 -0.2514
13961SOL     OW43323   6.433   3.975   8.522 -0.4397 -0.2019  0.3102
13961SOL    HW143324   6.447   3.891   8.479 -0.8569 -1.6307  2.8204
13961SOL    HW243325   6.338   3.986   8.525 -0.3930  0.2677  0.1695
13962SOL     OW43326   5.696   2.874   7.890  0.4520 -0.3104  0.3372
13962SOL    HW143327   5.759   2.870   7.962  1.3011  3.4169  0.0205
13962SOL    HW243328   5.619   2.917   7.927 -0.3448 -1.1292 -0.2911
13963SOL     OW43329   4.910   1.974   7.518 -0.1875  0.0038 -0.6453
13963SOL    HW143330   4.953   1.936   7.441 -1.3449 -0.4492 -1.1078
13963SOL    HW243331   4.933   2.067   7.515 -1.1327  0.2422 -2.2457
13964SOL     OW43332   3.072   0.412   7.459  0.6438  0.4124  0.2306
13964SOL    HW143333   3.098   0.331   7.502 -3.0263  0.3052  2.6596
13964SOL    HW243334   3.042   0.469   7.531 -1.2757  2.1061 -1.7587
13965SOL     OW43335   4.643   3.167   8.118  0.3629 -0.4570  0.0979
13965SOL    HW143336   4.629   3.254   8.081 -0.7961 -0.0188  1.4877
13965SOL    HW243337   4.636   3.108   8.043  1.2118  0.6327 -0.8671
13966SOL     OW43338   1.790   2.258   7.151  0.4102 -0.2716  0.1622
13966SOL    HW143339   1.830   2.284   7.069  0.7381  1.5228  0.8495
13966SOL    HW243340   1.700   2.290   7.145  0.3588 -0.3731  0.3836
13967SOL     OW43341   5.534   2.805   8.408  0.0905  0.4862 -0.0473
13967SOL    HW143342   5.458   2.849   8.446 -0.6118  0.7050 -1.6320
13967SOL    HW243343   5.562   2.863   8.337  0.9715 -0.2012 -0.2837
13968SOL     OW43344   5.267   4.079   9.598  0.4069  0.3387  0.0260
13968SOL    HW143345   5.332   4.070   9.668  0.5722 -0.8235 -0.2539
13968SOL    HW243346   5.253   3.990   9.567  0.3301  0.8257 -1.4242
13969SOL     OW43347   4.853   3.363   9.692  0.0522  0.1831 -0.1387
13969SOL    HW143348   4.889   3.441   9.650  0.9846  1.4480  2.7594
13969SOL    HW243349   4.788   3.397   9.754  1.6740 -1.0899  2.3974
13970SOL     OW43350   6.867   1.036   6.973 -0.0990  0.7694 -0.2158
13970SOL    HW143351   6.829   1.030   6.885  2.2570 -0.0323 -1.2536
13970SOL    HW243352   6.951   1.079   6.960  0.7070 -0.1947  1.5239
13971SOL     OW43353   4.063   3.107   7.922 -0.0355 -0.3955 -0.1231
13971SOL    HW143354   4.060   3.046   7.849  0.0988  0.0332 -0.4924
13971SOL    HW243355   3.994   3.077   7.982  0.2880 -1.1309 -0.1125
13972SOL     OW43356   5.071   1.896   8.274 -0.2265  0.1855  0.0344
13972SOL    HW143357   5.010   1.966   8.249 -0.6839  0.1317  0.9544
13972SOL    HW243358   5.089   1.849   8.192 -1.6193  0.0440 -0.2089
13973SOL     OW43359   3.746   2.508   6.709 -0.3293  0.6141  0.2623
13973SOL    HW143360   3.754   2.603   6.717 -1.6536  0.9306 -1.5154
13973SOL    HW243361   3.659   2.495   6.672  0.5316 -1.1606 -1.3183
13974SOL     OW43362   7.194   6.900   8.488 -0.5091 -0.1565 -0.6282
13974SOL    HW143363   7.256   6.968   8.514 -1.0968  0.4877 -0.8490
13974SOL    HW243364   7.235   6.856   8.414 -0.3946  0.4077 -0.9102
13975SOL     OW43365   6.593   0.678  10.199 -0.1439 -0.0460  0.4098
13975SOL    HW143366   6.626   0.750  10.146 -0.6963  0.1706  0.3563
13975SOL    HW243367   6.641   0.685  10.281  0.4610 -0.1716  0.0689
13976SOL     OW43368   4.591   1.555   8.737 -0.4047  0.0833  0.4925
13976SOL    HW143369   4.650   1.605   8.793  0.7424 -0.0969 -0.5147
13976SOL    HW243370   4.639   1.474   8.717 -0.2634  0.6266 -1.6478
13977SOL     OW43371   5.698   2.087   7.753 -0.4666  0.0291 -0.2753
13977SOL    HW143372   5.612   2.097   7.711 -1.6583 -1.7104  1.5399
13977SOL    HW243373   5.717   1.994   7.746 -0.5971 -0.3052  2.5986
13978SOL     OW43374   3.430   2.899   8.674  0.2847 -0.2077  0.0806
13978SOL    HW143375   3.369   2.830   8.651 -0.0502 -0.0564  0.5054
13978SOL    HW243376   3.391   2.979   8.640  0.8663 -0.2700 -0.7659
13979SOL     OW43377   5.364   2.512   7.842  0.0105 -0.2574 -0.4499
13979SOL    HW143378   5.422   2.535   7.914  0.6727 -0.7350 -0.8192
13979SOL    HW243379   5.324   2.595   7.816  0.7137  0.1216 -0.3420
13980SOL     OW43380   3.946   2.278   7.109  0.5128 -0.0784 -0.5601
13980SOL    HW143381   3.878   2.294   7.043  0.8853  1.1276 -0.6764
13980SOL    HW243382   3.993   2.361   7.116  0.3184 -0.1050  1.4426
13981SOL     OW43383   3.971   2.441   9.559 -0.4259  0.2192  0.0386
13981SOL    HW143384   3.947   2.517   9.506  1.5921  0.7747 -0.1820
13981SOL    HW243385   4.036   2.394   9.506  1.1877  0.4565  1.7134
13982SOL     OW43386   3.301   2.679   8.582 -0.0946  0.5128  0.0317
13982SOL    HW143387   3.275   2.709   8.495  0.8304 -0.5527 -0.6549
13982SOL    HW243388   3.352   2.599   8.565  0.5644  0.5827  1.5135
13983SOL     OW43389   3.889   2.576   7.307 -0.1973  0.0680  0.3697
13983SOL    HW143390   3.909   2.531   7.388 -0.0156 -0.7253 -0.1032
13983SOL    HW243391   3.909   2.668   7.325 -0.5231 -0.0466  1.3265
13984SOL     OW43392   4.703   2.843  10.037 -0.6431 -0.3032 -0.4004
13984SOL    HW143393   4.670   2.874  10.122  0.1167 -0.0207 -0.2001
13984SOL    HW243394   4.713   2.748  10.049  0.9685 -0.0772  0.3790
13985SOL     OW43395   3.495   2.927   8.166  0.0368 -0.1352 -0.5030
13985SOL    HW143396   3.505   3.021   8.180  0.7877 -0.3121  0.2422
13985SOL    HW243397   3.411   2.905   8.208  0.3195  0.0464  0.1709
13986SOL     OW43398   5.938   2.656   9.971  0.0862 -0.7373  0.0372
13986SOL    HW143399   5.933   2.699   9.885  1.0564  0.0770  0.3641
13986SOL    HW243400   5.943   2.562   9.951 -2.5278 -0.7852 -0.6797
13987SOL     OW43401   4.499   2.208   8.532 -0.3357  0.0073 -0.3285
13987SOL    HW143402   4.558   2.281   8.510 -0.1508  0.7328  2.2522
13987SOL    HW243403   4.557   2.135   8.553 -0.2576  0.5910  1.7684
13988SOL     OW43404   4.102   1.638   7.967 -0.2408 -0.2207 -0.2116
13988SOL    HW143405   4.020   1.687   7.961  0.0795  0.2242 -1.0290
13988SOL    HW243406   4.125   1.642   8.060 -0.8742  0.1067 -0.0647
13989SOL     OW43407   4.329   0.077   8.627  0.1363 -0.0781 -0.1015
13989SOL    HW143408   4.316   0.055   8.535 -0.0969 -1.0044  0.1380
13989SOL    HW243409   4.411   0.033   8.651  1.0689  1.4896 -0.2658
13990SOL     OW43410   3.951   2.500   8.193 -0.0518 -0.1160  0.8011
13990SOL    HW143411   3.887   2.430   8.183  0.8999 -0.9371  0.3788
13990SOL    HW243412   3.905   2.579   8.164 -1.0462 -0.5964  1.0448
13991SOL     OW43413   4.078   2.836   9.610  0.0199 -0.0894  0.3381
13991SOL    HW143414   4.001   2.824   9.555  0.5156  3.4153 -1.4159
13991SOL    HW243415   4.151   2.802   9.558 -0.0455 -1.8204  1.2819
13992SOL     OW43416   4.484   4.068  10.352  0.6994  0.0115  0.7515
13992SOL    HW143417   4.469   4.040  10.262  1.8737 -1.1877  0.9045
13992SOL    HW243418   4.439   4.153  10.359  1.1181  0.4201 -1.1267
13993SOL     OW43419   2.298   7.535   9.391 -0.0705  0.1228  0.4975
13993SOL    HW143420   2.291   7.506   9.300  2.1594 -0.6079  0.5047
13993SOL    HW243421   2.336   7.623   9.386 -0.8701  0.4929  0.7133
13994SOL     OW43422   4.669   3.130   7.683  0.4456 -0.1924 -0.3905
13994SOL    HW143423   4.580   3.096   7.673 -0.1192  1.1106 -0.0235
13994SOL    HW243424   4.662   3.223   7.661  1.4912  0.1759  0.7001
13995SOL     OW43425   5.269   2.430   8.999  0.1792  0.4292 -0.2019
13995SOL    HW143426   5.337   2.493   9.023  0.2925  0.3551 -0.3273
13995SOL    HW243427   5.211   2.478   8.940  0.1983  0.4499 -0.2032
13996SOL     OW43428   7.073   2.061   6.879  0.0731 -0.0072 -0.1265
13996SOL    HW143429   7.083   2.139   6.935  3.5035  0.6524 -1.3885
13996SOL    HW243430   7.131   2.077   6.805  0.8570 -3.7190 -0.5250
13997SOL     OW43431   3.763   1.081   9.973 -0.0952  0.6497  0.3188
13997SOL    HW143432   3.703   1.129  10.031 -0.5339 -0.2582  0.6277
13997SOL    HW243433   3.716   1.077   9.889  0.8348  2.5818 -0.3540
13998SOL     OW43434   5.612   1.664   9.047  0.5605 -0.0603 -0.1787
13998SOL    HW143435   5.600   1.610   9.125  0.3269  0.0408 -0.1429
13998SOL    HW243436   5.534   1.719   9.044  0.1403 -0.6939 -0.9887
13999SOL     OW43437   6.481   3.585   8.513 -0.0445  0.4547  0.9537
13999SOL    HW143438   6.531   3.666   8.515 -1.3197  1.3690 -1.0326
13999SOL    HW243439   6.546   3.516   8.503  0.8753  1.5479 -0.9617
14000SOL     OW43440   4.711   3.432   8.277 -0.4678  0.0062  0.1827
14000SOL    HW143441   4.620   3.439   8.305 -0.4315  1.9682 -0.0561
14000SOL    HW243442   4.740   3.347   8.311 -2.3625 -0.6609  0.2602
14001SOL     OW43443   3.508   2.166   8.421  0.2104  0.2002 -0.2595
14001SOL    HW143444   3.515   2.071   8.414 -1.4022 -0.0908  1.4827
14001SOL    HW243445   3.599   2.196   8.426  0.7509 -1.2170 -0.8846
14002SOL     OW43446   4.236   3.244   7.719  0.1278 -0.3840 -0.1464
14002SOL    HW143447   4.329   3.265   7.729 -0.5683  2.4600  1.6389
14002SOL    HW243448   4.218   3.258   7.626  1.3224 -0.1966 -0.3642
14003SOL     OW43449   3.982   3.914   7.825  0.0222  0.4149 -0.0705
14003SOL    HW143450   3.927   3.863   7.885 -1.3125 -1.1751 -2.4687
14003SOL    HW243451   3.928   3.989   7.801 -0.0492  0.2675 -0.3790
14004SOL     OW43452   2.956   2.694   9.820 -0.1949 -0.6063  0.4882
14004SOL    HW143453   3.006   2.644   9.755 -1.0911  0.8107 -1.3840
14004SOL    HW243454   3.022   2.747   9.865  0.1321  1.1742 -1.8929
14005SOL     OW43455   6.390   1.040   7.826  0.2361  0.1793 -0.2798
14005SOL    HW143456   6.315   1.091   7.794 -0.0467 -0.4023 -0.5628
14005SOL    HW243457   6.371   1.024   7.918  1.0986  1.9458  0.2623
14006SOL     OW43458   4.781   0.955   6.685  0.0807 -0.5264 -0.2919
14006SOL    HW143459   4.856   0.953   6.626  0.5473  2.6424  0.0162
14006SOL    HW243460   4.818   0.973   6.771 -0.9546  1.1049 -0.1321
14007SOL     OW43461   4.641   3.785   8.055  0.0863 -0.0077  0.0900
14007SOL    HW143462   4.712   3.747   8.002  1.8806  1.1710  1.5063
14007SOL    HW243463   4.610   3.859   8.003  1.6519  0.9838  0.4750
14008SOL     OW43464   3.774   7.940   9.971  0.0038 -0.3798 -0.2415
14008SOL    HW143465   3.824   7.904  10.045  0.1164  0.4099  0.0766
14008SOL    HW243466   3.751   8.028   9.999  1.1567  0.4214 -1.6631
14009SOL     OW43467   4.265   3.722   8.629 -0.3148 -0.0421  0.2657
14009SOL    HW143468   4.254   3.807   8.673  0.6690  0.5097 -0.5093
14009SOL    HW243469   4.256   3.658   8.698 -1.7159  0.6513  0.7709
14010SOL     OW43470   5.800   2.207  10.133  0.0363 -0.1696  0.0567
14010SOL    HW143471   5.894   2.197  10.121  0.1527 -1.0651  1.4902
14010SOL    HW243472   5.788   2.203  10.228 -1.4907 -0.4051 -0.1312
14011SOL     OW43473   3.572   3.310   7.807  0.0897  0.0513 -0.2021
14011SOL    HW143474   3.624   3.334   7.884  0.4346  0.9036 -0.6911
14011SOL    HW243475   3.482   3.307   7.839  0.4348 -1.8126  0.7527
14012SOL     OW43476   4.760   0.073   5.902  0.4599 -0.0641  0.1916
14012SOL    HW143477   4.812   0.153   5.898 -2.3684  1.8792 -0.5064
14012SOL    HW243478   4.730   0.060   5.812  1.7284 -2.6419  0.0360
14013SOL     OW43479   5.653   1.540  10.531  0.2967 -0.2270 -0.5432
14013SOL    HW143480   5.592   1.600  10.487  0.2855 -0.0688 -0.3105
14013SOL    HW243481   5.700   1.498  10.459 -0.0943 -0.3580 -0.7244
14014SOL     OW43482   6.106   0.927   6.637  0.3064 -0.3654  0.3618
14014SOL    HW143483   6.073   0.926   6.727 -0.4652 -3.5277  0.1837
14014SOL    HW243484   6.192   0.885   6.643  0.4513 -0.1808 -0.3299
14015SOL     OW43485   2.965   2.952   8.048 -0.4130  0.0882 -0.4521
14015SOL    HW143486   2.913   2.880   8.085 -0.7581  0.6003  0.0794
14015SOL    HW243487   2.960   2.940   7.954 -0.1653 -0.7947 -0.3626
14016SOL     OW43488   5.170   1.712  11.015 -0.4570  0.4201  0.5601
14016SOL    HW143489   5.160   1.690  11.108 -1.4963  1.4192  0.7006
14016SOL    HW243490   5.251   1.762  11.011 -0.5052  0.5355  0.9595
14017SOL     OW43491   3.974   4.483   0.453 -0.4514  0.6366  0.3137
14017SOL    HW143492   3.958   4.406   0.398 -0.2284  1.0871 -0.3919
14017SOL    HW243493   3.889   4.527   0.457 -0.3733  0.8245 -0.0230
14018SOL     OW43494   3.226   2.079   8.650  0.0602  0.5149 -0.0762
14018SOL    HW143495   3.314   2.045   8.667 -0.5375 -1.2866 -0.3495
14018SOL    HW243496   3.230   2.114   8.561  0.6821  1.1610  0.1958
14019SOL     OW43497   4.321   1.769   9.586  0.2144  0.4231  0.0556
14019SOL    HW143498   4.270   1.744   9.508  1.2797  0.9606 -0.8362
14019SOL    HW243499   4.353   1.857   9.566 -0.4767  1.0566  1.6235
14020SOL     OW43500   4.885   4.512  10.036  0.3905 -0.1658 -0.0933
14020SOL    HW143501   4.946   4.494  10.108  0.9005 -1.4933 -0.8392
14020SOL    HW243502   4.823   4.440  10.039 -0.2245  0.3482 -0.3282
14021SOL     OW43503   4.995   3.760  10.163 -0.2714 -0.0853 -0.2195
14021SOL    HW143504   5.070   3.747  10.221 -1.6376  0.6454  1.8412
14021SOL    HW243505   5.005   3.694  10.095  2.2755  0.0787 -0.0893
14022SOL     OW43506   5.441   3.095  10.139  0.3623 -0.7309  0.1076
14022SOL    HW143507   5.502   3.033  10.179  0.0582 -0.4641  1.0096
14022SOL    HW243508   5.430   3.164  10.204  0.9999  0.4914 -1.0355
14023SOL     OW43509   4.424   2.605  10.466 -0.2180  0.3518 -0.1004
14023SOL    HW143510   4.516   2.628  10.469  0.3071 -1.5919  1.7661
14023SOL    HW243511   4.391   2.644  10.385  2.8262 -0.9884 -2.1606
14024SOL     OW43512   3.596   2.418   9.947  0.1234  0.2236 -0.1148
14024SOL    HW143513   3.600   2.513   9.957  0.4378  0.1898  0.1336
14024SOL    HW243514   3.596   2.404   9.853  1.1283  0.4456 -0.1668
14025SOL     OW43515   4.279   2.810  10.674 -0.1053  0.0736 -0.1702
14025SOL    HW143516   4.329   2.883  10.637  0.1113  1.0150  1.8247
14025SOL    HW243517   4.337   2.774  10.742  0.2160 -2.6730 -1.7381
14026SOL     OW43518   4.647   3.435   9.833 -0.6340 -0.1927  0.6221
14026SOL    HW143519   4.608   3.522   9.842 -1.7693 -0.6067 -0.0188
14026SOL    HW243520   4.576   3.381   9.798  0.1581 -1.2955  0.6730
14027SOL     OW43521   3.743   2.474  10.946  0.0479 -0.2389  0.3846
14027SOL    HW143522   3.804   2.414  10.904 -0.9421 -1.0057 -0.0060
14027SOL    HW243523   3.796   2.522  11.009  0.9633 -1.2061  0.3812
14028SOL     OW43524   4.559   1.755  10.288  0.3722  0.1140 -0.1409
14028SOL    HW143525   4.481   1.706  10.261 -0.3824  1.8032 -1.1611
14028SOL    HW243526   4.537   1.788  10.376  0.7629 -1.0610  0.4194
14029SOL     OW43527   5.128   3.055  10.103 -0.0299  0.0192 -0.1194
14029SOL    HW143528   5.142   3.093  10.190 -0.3036 -0.1503  0.0011
14029SOL    HW243529   5.206   3.004  10.085 -0.9726 -1.9564  1.0777
14030SOL     OW43530   5.390   2.840  10.671 -0.2562  0.0836  0.2606
14030SOL    HW143531   5.412   2.870  10.759  1.0417 -0.8608  0.2913
14030SOL    HW243532   5.441   2.897  10.613  1.2957 -1.2185  0.2755
14031SOL     OW43533   2.964   2.441   9.410  0.9605  0.4398  0.5969
14031SOL    HW143534   3.003   2.451   9.497  0.0319 -1.1730  1.2413
14031SOL    HW243535   2.960   2.347   9.396 -1.1446  0.5818 -0.1331
14032SOL     OW43536   5.692   4.063  10.817 -0.7864 -0.0008 -0.1662
14032SOL    HW143537   5.623   3.999  10.836  2.0266 -3.7077 -1.1613
14032SOL    HW243538   5.692   4.071  10.722  0.8721 -1.1749 -0.3227
14033SOL     OW43539   3.962   2.986   9.123 -0.6864 -0.2343  0.0723
14033SOL    HW143540   3.890   3.019   9.176 -0.5990  0.2857 -0.1293
14033SOL    HW243541   3.920   2.936   9.053 -0.8142 -0.6658  0.4523
14034SOL     OW43542   5.280   2.386  11.949 -0.0428  0.1917  0.1276
14034SOL    HW143543   5.317   2.439  12.019  1.9503  0.7358 -1.2482
14034SOL    HW243544   5.197   2.354  11.984 -0.2208  2.3398  1.8485
14035SOL     OW43545   2.220   1.541  10.318 -0.5485 -0.0748  0.7757
14035SOL    HW143546   2.308   1.503  10.311  0.4807  1.9409  1.9875
14035SOL    HW243547   2.228   1.628  10.280 -1.8522  0.3927  1.5021
14036SOL     OW43548   5.380   3.538   9.141 -0.2068 -0.1470 -0.3400
14036SOL    HW143549   5.315   3.542   9.211 -2.8685  2.9391 -2.6637
14036SOL    HW243550   5.363   3.455   9.097 -1.6348 -0.0474 -0.0219
14037SOL     OW43551   5.183   2.988   9.170  0.4640  0.3763 -0.7297
14037SOL    HW143552   5.117   2.988   9.100 -0.2424 -0.0224 -0.0786
14037SOL    HW243553   5.258   2.942   9.132 -0.3599 -0.9491 -0.8396
14038SOL     OW43554   2.554   2.294  11.772  0.6883  0.0093  0.2361
14038SOL    HW143555   2.475   2.292  11.825 -0.6571  0.0518 -1.6538
14038SOL    HW243556   2.594   2.378  11.792 -0.9240  0.9664 -0.3456
14039SOL     OW43557   4.122   4.370  10.648 -0.4607  0.1707  0.2367
14039SOL    HW143558   4.055   4.414  10.700 -0.3324  1.1652 -0.4149
14039SOL    HW243559   4.163   4.440  10.598 -0.3455 -0.7157 -0.9409
14040SOL     OW43560   5.458   3.205   8.711 -0.0362  0.1903 -0.2854
14040SOL    HW143561   5.478   3.130   8.766  0.4777  2.0428  2.1952
14040SOL    HW243562   5.366   3.225   8.730 -0.1655  0.2482 -0.9195
14041SOL     OW43563   4.373   2.297   9.740  0.2836  0.9876  0.2241
14041SOL    HW143564   4.466   2.275   9.747  0.4135  1.6718  0.7916
14041SOL    HW243565   4.354   2.293   9.647  1.5783  3.5035 -0.2318
14042SOL     OW43566   2.627   3.672  11.315  0.2152  0.8047 -0.3474
14042SOL    HW143567   2.533   3.673  11.297 -0.0216  0.0807  0.7379
14042SOL    HW243568   2.648   3.762  11.338 -0.0002  1.1775 -1.5385
14043SOL     OW43569   4.211   2.181  10.369 -0.4866  0.6185 -0.3971
14043SOL    HW143570   4.237   2.149  10.283 -0.1247  0.6290 -0.2963
14043SOL    HW243571   4.290   2.225  10.403 -0.4558  0.1553  0.1538
14044SOL     OW43572   4.043   4.475  11.192 -0.2141  0.1540  0.0595
14044SOL    HW143573   4.069   4.559  11.231  0.5290 -0.0629  0.0467
14044SOL    HW243574   3.990   4.500  11.117 -1.7277  0.5746  1.2242
14045SOL     OW43575   4.516   3.907  10.650  0.0333  0.2794 -0.4069
14045SOL    HW143576   4.471   3.985  10.619  0.2903  0.2259 -0.9310
14045SOL    HW243577   4.505   3.909  10.745 -0.0454  0.8986 -0.4244
14046SOL     OW43578   4.864   3.446  11.482 -0.0928 -0.5362 -0.2262
14046SOL    HW143579   4.952   3.415  11.502  0.2807  0.0474 -0.9249
14046SOL    HW243580   4.840   3.500  11.557  1.2369  1.5102 -1.1892
14047SOL     OW43581   4.842   4.584   9.426  0.3548  0.4071  0.3052
14047SOL    HW143582   4.850   4.568   9.520  0.2419 -0.9214  0.1120
14047SOL    HW243583   4.752   4.561   9.405  0.9108 -1.2665 -0.4436
14048SOL     OW43584   3.437   1.338   9.846 -0.6650  0.5887  0.0478
14048SOL    HW143585   3.493   1.404   9.887 -0.1311  0.5177 -0.5611
14048SOL    HW243586   3.455   1.257   9.895  2.0094 -0.1659 -1.9505
14049SOL     OW43587   4.888   2.558  11.514  0.3542  0.2364  0.7729
14049SOL    HW143588   4.892   2.604  11.597  1.1655 -0.3217  1.0550
14049SOL    HW243589   4.868   2.626  11.449 -0.0054  0.7170  1.3811
14050SOL     OW43590   4.912   4.278   9.782  0.0748 -0.2524 -0.0563
14050SOL    HW143591   4.864   4.271   9.865  1.1774  2.3554  0.9452
14050SOL    HW243592   4.844   4.277   9.715 -0.9939 -0.8233  0.9892
14051SOL     OW43593   5.356   1.840  10.203  0.2210 -0.2506 -0.1419
14051SOL    HW143594   5.319   1.883  10.127  1.7039 -1.3115 -1.5353
14051SOL    HW243595   5.289   1.778  10.231 -0.2273 -0.0595 -0.7683
14052SOL     OW43596   4.764   2.968   9.142 -0.2014  0.2950  0.0223
14052SOL    HW143597   4.821   2.932   9.075 -2.2979 -1.4158 -0.9778
14052SOL    HW243598   4.684   2.992   9.095 -0.1673  3.2090  1.2505
14053SOL     OW43599   3.789   3.488   9.995 -0.3223 -0.1017  0.5927
14053SOL    HW143600   3.698   3.497   9.966  0.2656 -1.2010 -1.9227
14053SOL    HW243601   3.787   3.418  10.059 -1.1359 -0.8854 -0.2515
14054SOL     OW43602   3.295   0.930   8.808  0.0230  0.5114  0.2679
14054SOL    HW143603   3.199   0.926   8.814  0.0873 -0.9992  0.7959
14054SOL    HW243604   3.324   0.928   8.899  0.5698  0.4026  0.0924
14055SOL     OW43605   5.338   3.435   9.965  0.0058  0.4855 -0.0884
14055SOL    HW143606   5.329   3.520   9.923  0.6613  0.0328 -1.2208
14055SOL    HW243607   5.249   3.407   9.984 -0.2808  0.9208 -0.7695
14056SOL     OW43608   3.615   4.611  10.734  0.2153 -0.4553 -0.1768
14056SOL    HW143609   3.612   4.691  10.787 -0.8820 -0.5839 -0.0087
14056SOL    HW243610   3.555   4.628  10.661  2.5844  0.1710 -2.1107
14057SOL     OW43611   5.305   1.447   8.281  0.0716  0.0493 -0.0585
14057SOL    HW143612   5.319   1.352   8.277 -0.3970  0.0178 -1.4005
14057SOL    HW243613   5.313   1.468   8.374  1.5940 -1.0801  0.1098
14058SOL     OW43614   6.131   2.761  11.002 -0.0325  0.0885  0.7242
14058SOL    HW143615   6.077   2.825  10.955  3.2443  1.7389 -1.1750
14058SOL    HW243616   6.116   2.780  11.094  0.0004  3.0163  0.2414
14059SOL     OW43617   5.468   2.485  10.996  0.0123 -0.1113  0.2597
14059SOL    HW143618   5.419   2.480  11.078  2.1591 -1.5806  1.5705
14059SOL    HW243619   5.560   2.482  11.023  0.8024 -0.2517 -2.1860
14060SOL     OW43620   5.650   1.194   9.095 -0.1280  0.5301 -0.6470
14060SOL    HW143621   5.734   1.181   9.139 -0.3326  0.4635 -0.2704
14060SOL    HW243622   5.585   1.185   9.165 -0.4485  0.5617 -0.9391
14061SOL     OW43623   5.219   2.721   8.918  0.4391 -0.0511  0.0632
14061SOL    HW143624   5.209   2.714   8.823  1.8666 -0.8439 -0.0581
14061SOL    HW243625   5.313   2.735   8.931  0.4895 -1.3655  1.4089
14062SOL     OW43626   4.988   2.794  10.190  0.5934  0.5061  0.3444
14062SOL    HW143627   4.962   2.846  10.114  1.4728  0.0046 -0.3164
14062SOL    HW243628   4.928   2.822  10.260 -1.1371  0.0315 -0.8675
14063SOL     OW43629   4.809   3.989   9.678 -1.1202  0.1635 -0.0581
14063SOL    HW143630   4.903   3.983   9.664 -1.0156  0.5215  0.4785
14063SOL    HW243631   4.784   4.072   9.637 -1.4578 -0.6318 -1.5244
14064SOL     OW43632   5.764   2.850  11.509  0.5154  0.0893  0.1308
14064SOL    HW143633   5.820   2.832  11.585  0.5480 -0.7543 -0.0870
14064SOL    HW243634   5.708   2.773  11.501 -0.7426  0.9437  0.3766
14065SOL     OW43635   4.353   2.611   9.477  0.1052 -0.0955  0.3836
14065SOL    HW143636   4.320   2.547   9.414 -1.2138  0.7265  0.2042
14065SOL    HW243637   4.345   2.696   9.433  0.6895  0.3370  1.0633
14066SOL     OW43638   4.860   3.078  10.114 -0.4206 -0.5100 -0.3592
14066SOL    HW143639   4.954   3.057  10.114 -0.5949 -1.3978  0.7930
14066SOL    HW243640   4.824   3.029  10.040  0.3229  1.4817 -2.1330
14067SOL     OW43641   2.776   1.886  10.798 -0.0113  0.5924  0.2849
14067SOL    HW143642   2.748   1.940  10.724 -0.2084  0.2214  0.0858
14067SOL    HW243643   2.843   1.939  10.842 -1.2152  1.6206  0.9440
14068SOL     OW43644   3.356   2.899  11.758  0.1362 -0.3683 -0.0902
14068SOL    HW143645   3.384   2.906  11.667  0.3199  0.4997  0.0248
14068SOL    HW243646   3.359   2.989  11.791 -0.2539 -0.6286  0.6763
14069SOL     OW43647   4.831   4.874   9.666 -0.0977 -0.6300 -0.1234
14069SOL    HW143648   4.827   4.799   9.726 -0.8728 -0.0099  0.6427
14069SOL    HW243649   4.772   4.938   9.705  0.0868  0.1514 -1.0876
14070SOL     OW43650   6.157   1.663  10.547 -0.1175 -0.1195  0.1152
14070SOL    HW143651   6.233   1.705  10.588  0.1270  2.4469 -2.6165
14070SOL    HW243652   6.082   1.713  10.579 -0.3103 -0.4950  0.2513
14071SOL     OW43653   3.508   3.625  10.149 -0.0705 -0.4432  0.0228
14071SOL    HW143654   3.516   3.581  10.064  1.4936 -0.2094  0.0185
14071SOL    HW243655   3.572   3.581  10.205  0.0622  0.4786  0.6160
14072SOL     OW43656   4.161   3.890  10.706 -0.5005 -0.2353  0.3426
14072SOL    HW143657   4.153   3.859  10.796  0.5291  0.2819  0.6328
14072SOL    HW243658   4.230   3.835  10.668 -2.4325 -1.9810 -0.8600
14073SOL     OW43659   4.039   1.553   9.017 -0.5417 -0.3012 -0.2855
14073SOL    HW143660   4.011   1.633   9.060  1.3923 -0.6300  1.7953
14073SOL    HW243661   4.080   1.582   8.935  2.7162  1.2526  1.7222
14074SOL     OW43662   4.372   2.801  10.968 -0.2693  0.2196  0.1713
14074SOL    HW143663   4.366   2.815  11.062  0.9359  4.1691 -0.1766
14074SOL    HW243664   4.465   2.782  10.952 -0.6107 -1.2752 -0.2073
14075SOL     OW43665   5.316   1.784   9.899  0.2145  0.0567  0.2002
14075SOL    HW143666   5.262   1.708   9.881  1.2599 -0.6430 -0.0667
14075SOL    HW243667   5.255   1.851   9.931 -0.6742 -0.9672  0.6817
14076SOL     OW43668   4.746   1.338  12.120  0.1776  1.0115  0.6869
14076SOL    HW143669   4.790   1.410  12.075  0.6176  0.9725  1.0437
14076SOL    HW243670   4.669   1.379  12.160  0.3091  1.2392  0.7102
14077SOL     OW43671   4.000   3.046  10.713  0.5337 -0.4081  0.0043
14077SOL    HW143672   3.917   3.050  10.761  0.0965  1.2290 -0.7923
14077SOL    HW243673   4.061   3.004  10.773 -0.6351 -0.7519  0.9849
14078SOL     OW43674   3.875   1.334   8.937  0.3005  0.7007 -0.5408
14078SOL    HW143675   3.929   1.409   8.963  1.2884  0.0412 -0.6354
14078SOL    HW243676   3.793   1.346   8.985  1.2751  0.6537  1.2325
14079SOL     OW43677   5.690   2.772  10.497 -0.7111 -0.6570 -0.1838
14079SOL    HW143678   5.701   2.682  10.469 -0.9800 -0.5704 -0.5785
14079SOL    HW243679   5.605   2.773  10.541 -1.3570 -0.3202 -1.3830
14080SOL     OW43680   5.988   3.084  11.490 -0.1917 -0.0840  0.5725
14080SOL    HW143681   6.031   3.137  11.423  0.6906 -0.9604  0.4231
14080SOL    HW243682   6.053   3.077  11.560  0.1616 -1.9017  0.1033
14081SOL     OW43683   3.668   2.879  12.190 -0.0420  0.1709 -0.8841
14081SOL    HW143684   3.753   2.923  12.200 -1.2846  2.7614 -0.7494
14081SOL    HW243685   3.618   2.937  12.133 -1.3945 -1.8577 -1.8662
14082SOL     OW43686   5.987   2.683   8.513 -0.0574  0.0878  0.0374
14082SOL    HW143687   5.948   2.597   8.520 -2.2740  1.0747  0.5422
14082SOL    HW243688   6.041   2.679   8.433  0.5716 -1.9615  0.5121
14083SOL     OW43689   2.712   0.897   9.407  0.1503 -0.1868  0.2622
14083SOL    HW143690   2.677   0.870   9.492  0.4414 -2.4446 -0.2617
14083SOL    HW243691   2.651   0.860   9.343  0.2818  0.9328 -0.5317
14084SOL     OW43692   4.788   2.345   9.046  0.1567 -0.4854 -0.8078
14084SOL    HW143693   4.816   2.436   9.036  0.5925 -0.5802 -0.4784
14084SOL    HW243694   4.820   2.302   8.967  3.4222 -1.1911  0.7521
14085SOL     OW43695   4.378   3.164   9.723 -0.0115 -0.1221  0.4563
14085SOL    HW143696   4.370   3.252   9.761  1.7848  0.0625  0.5033
14085SOL    HW243697   4.335   3.170   9.638  1.2532  1.2221 -0.1296
14086SOL     OW43698   5.143   3.010  10.389 -0.0468  0.4276  0.0814
14086SOL    HW143699   5.134   3.083  10.451  0.1689  1.3677 -0.9501
14086SOL    HW243700   5.058   2.967  10.389 -0.3323  0.9852  0.3544
14087SOL     OW43701   4.153   3.781   9.841 -0.4830 -0.5387  0.0331
14087SOL    HW143702   4.128   3.695   9.875 -3.0849 -1.0949 -2.8547
14087SOL    HW243703   4.140   3.774   9.746 -1.4154  3.1916 -0.2603
14088SOL     OW43704   4.971   2.840   9.298 -0.0403 -0.3180  0.6890
14088SOL    HW143705   5.053   2.888   9.284 -0.4617  0.1766 -0.1184
14088SOL    HW243706   4.904   2.893   9.254 -0.3624 -2.1757 -1.1937
14089SOL     OW43707   4.994   2.637   9.876 -0.2922 -0.1897 -0.1619
14089SOL    HW143708   5.006   2.572   9.807 -0.0934  0.4330 -0.7179
14089SOL    HW243709   4.936   2.703   9.838 -1.5876 -0.6947  0.8486
14090SOL     OW43710   3.577   2.178  10.380 -0.0730 -0.0126  0.0171
14090SOL    HW143711   3.618   2.162  10.295  0.2112  1.1922 -0.0904
14090SOL    HW243712   3.484   2.190  10.360 -0.3878 -1.8876  0.1601
14091SOL     OW43713   5.686   2.758  10.055 -0.0172  0.3093 -0.6392
14091SOL    HW143714   5.772   2.717  10.044  0.3305  0.5897  0.8314
14091SOL    HW243715   5.629   2.687  10.083  0.3585  0.6063  0.9456
14092SOL     OW43716   4.352   1.417   9.459 -0.3430  0.3019  0.4519
14092SOL    HW143717   4.348   1.512   9.472 -1.5468  0.5262 -1.2172
14092SOL    HW243718   4.322   1.380   9.542 -4.1996  1.5198 -0.1875
14093SOL     OW43719   4.663   2.722  10.724 -0.1047 -0.4075 -0.2307
14093SOL    HW143720   4.640   2.814  10.738 -0.4709 -0.7357  1.6055
14093SOL    HW243721   4.670   2.685  10.812  1.1222 -1.8896 -0.8920
14094SOL     OW43722   6.113   3.958  10.976 -0.4647 -0.4746 -0.0592
14094SOL    HW143723   6.156   3.941  11.061  1.1669  2.1562 -0.2342
14094SOL    HW243724   6.161   3.903  10.914 -0.1922 -0.7689  0.4023
14095SOL     OW43725   4.971   1.781  10.764  0.3592 -0.4484 -0.8033
14095SOL    HW143726   5.004   1.776  10.854  4.0527 -0.5038 -1.9958
14095SOL    HW243727   4.931   1.695  10.748 -0.3788 -0.4252  0.7355
14096SOL     OW43728   4.504   2.646   8.417  0.3663 -0.3153  0.1387
14096SOL    HW143729   4.518   2.736   8.387  0.8169 -1.2434 -2.7456
14096SOL    HW243730   4.409   2.635   8.416  0.2246  0.4882  1.8345
14097SOL     OW43731   4.863   2.612   9.086  0.2866  0.0564 -0.5459
14097SOL    HW143732   4.899   2.645   9.168  0.0619 -0.2778 -0.3149
14097SOL    HW243733   4.807   2.683   9.055 -0.2162 -0.1115 -0.0346
14098SOL     OW43734   4.063   0.708   8.095 -0.7556 -0.2155  0.1156
14098SOL    HW143735   4.079   0.785   8.039 -1.5959  0.7348  1.1244
14098SOL    HW243736   4.087   0.633   8.041  0.3148  0.7695 -0.8281
14099SOL     OW43737   2.868   1.607   9.184  0.4113 -0.5123 -0.5528
14099SOL    HW143738   2.901   1.518   9.200  0.4313 -0.8518 -2.2762
14099SOL    HW243739   2.921   1.638   9.110  1.3393  1.4782  0.8653
14100SOL     OW43740   4.632   2.600   9.380  0.3886 -0.3617  0.4590
14100SOL    HW143741   4.623   2.695   9.370  0.3424 -0.2666  1.3227
14100SOL    HW243742   4.564   2.576   9.443 -0.4093 -1.1559 -0.6700
14101SOL     OW43743   4.006   2.301  10.099 -0.3951 -0.0878 -0.0313
14101SOL    HW143744   4.033   2.349  10.020 -0.8307 -1.4712 -1.0653
14101SOL    HW243745   4.053   2.344  10.171  1.0322  0.3895 -1.1956
14102SOL     OW43746   6.528   4.328   9.757  0.2274 -0.5666 -0.7077
14102SOL    HW143747   6.445   4.309   9.714  0.2736  0.0406 -1.0732
14102SOL    HW243748   6.516   4.298   9.847 -0.7680  0.4958 -0.4634
14103SOL     OW43749   5.592   2.290  10.475 -0.1059 -1.0967  0.2353
14103SOL    HW143750   5.585   2.255  10.563  0.3874 -0.3115  0.5943
14103SOL    HW243751   5.684   2.279  10.451  0.1527  0.2499  0.5011
14104SOL     OW43752   4.455   2.327  11.903  0.0593 -0.3033  0.1211
14104SOL    HW143753   4.395   2.402  11.904 -0.9176 -1.0303 -0.6765
14104SOL    HW243754   4.491   2.327  11.814 -0.8313 -1.4127 -0.2656
14105SOL     OW43755   2.701   1.795  11.204  0.1148  0.9489 -0.1212
14105SOL    HW143756   2.733   1.705  11.205 -0.6593  0.6630  1.0627
14105SOL    HW243757   2.734   1.833  11.286 -2.3562  0.6927  1.0750
14106SOL     OW43758   3.675   4.504  10.263  1.2687 -0.3043 -0.9190
14106SOL    HW143759   3.622   4.575  10.298  0.4880 -0.3734 -1.9115
14106SOL    HW243760   3.764   4.526  10.289  0.8834  0.3392 -0.0795
14107SOL     OW43761   5.804   3.716   9.312 -0.3440 -0.4147 -0.3152
14107SOL    HW143762   5.891   3.754   9.328 -0.9330  1.2499 -0.8552
14107SOL    HW243763   5.761   3.778   9.253 -1.1294 -2.3113 -1.8775
14108SOL     OW43764   3.365   2.776  10.409 -0.5181  0.6478  0.1756
14108SOL    HW143765   3.270   2.772  10.425 -0.7942  1.6564 -1.0516
14108SOL    HW243766   3.376   2.854  10.354  1.2129  1.4162  1.5548
14109SOL     OW43767   5.526   3.236   9.904 -0.4656  0.1625  0.5694
14109SOL    HW143768   5.524   3.332   9.906 -3.1946  0.2303 -0.8872
14109SOL    HW243769   5.493   3.210   9.990  1.5081  0.4090  1.4770
14110SOL     OW43770   3.543   3.514  10.392  0.1999 -0.3732  0.0375
14110SOL    HW143771   3.467   3.570  10.378 -0.8324 -0.7143  3.2965
14110SOL    HW243772   3.510   3.425  10.381 -0.0807 -0.5438  1.9270
14111SOL     OW43773   4.546   2.982  10.806 -0.1981  0.3046 -0.1042
14111SOL    HW143774   4.520   3.052  10.866 -1.4818  3.2780 -3.6821
14111SOL    HW243775   4.500   3.003  10.725  2.9338 -2.1971 -2.8000
14112SOL     OW43776   4.853   2.881  12.356  0.4008 -0.2928 -0.2389
14112SOL    HW143777   4.848   2.799  12.405 -0.0634  1.2797  2.5428
14112SOL    HW243778   4.782   2.934  12.391  1.6628  1.8776 -0.8068
14113SOL     OW43779   5.222   2.105   9.043  0.2540 -0.2852 -0.8899
14113SOL    HW143780   5.273   2.025   9.030  0.5286  0.0578 -1.9913
14113SOL    HW243781   5.178   2.120   8.960 -0.6970  0.0945 -0.3322
14114SOL     OW43782   3.097   2.623  10.299 -0.3486  0.3120  0.0345
14114SOL    HW143783   3.067   2.714  10.305 -0.0342  0.4331 -0.2464
14114SOL    HW243784   3.020   2.575  10.267  0.0972  0.8250 -1.9494
14115SOL     OW43785   3.824   1.693  12.039 -0.1256  0.1244  0.1791
14115SOL    HW143786   3.762   1.624  12.015 -0.1032 -0.1951  1.0054
14115SOL    HW243787   3.886   1.696  11.965 -1.1941  0.5572 -0.7302
14116SOL     OW43788   3.756   2.335  10.196  0.6033  0.1155  0.0112
14116SOL    HW143789   3.716   2.398  10.136  1.7724  1.2079  0.3390
14116SOL    HW243790   3.828   2.296  10.147 -0.6550 -1.6826 -0.5027
14117SOL     OW43791   6.485   0.711   0.598  0.7890 -0.4769  0.5327
14117SOL    HW143792   6.469   0.629   0.645  1.9824 -0.4865  0.9586
14117SOL    HW243793   6.578   0.709   0.577  0.3557 -0.2984 -1.5625
14118SOL     OW43794   7.579   1.556  11.566 -0.9568 -0.2407 -0.1308
14118SOL    HW143795   7.579   1.643  11.605 -1.0657 -0.9321  1.4974
14118SOL    HW243796   7.534   1.566  11.482 -1.4852  1.1480  0.3044
14119SOL     OW43797   3.788   1.515   8.403 -0.1887  0.4521 -0.8381
14119SOL    HW143798   3.729   1.580   8.441  0.1627 -1.0373  2.6792
14119SOL    HW243799   3.876   1.546   8.428  0.0811 -0.4813 -0.6016
14120SOL     OW43800   3.569   4.059  10.015  0.2036  0.4077 -0.0446
14120SOL    HW143801   3.617   4.128   9.970 -0.3562 -0.6508 -2.4308
14120SOL    HW243802   3.479   4.070   9.986  0.1208 -1.3412 -0.5560
14121SOL     OW43803   3.066   2.119   8.035 -0.3434  0.1908 -0.2171
14121SOL    HW143804   3.074   2.038   8.085 -1.7370  0.2660  0.1848
14121SOL    HW243805   3.119   2.183   8.082 -1.3473  0.1697  1.0041
14122SOL     OW43806   4.839   1.744  10.342  0.1073 -0.1340 -0.0993
14122SOL    HW143807   4.849   1.671  10.403  1.5478 -0.6343 -0.8916
14122SOL    HW243808   4.744   1.759  10.338 -0.1377 -1.2583  0.8658
14123SOL     OW43809   4.671   6.275   9.308 -0.2106  0.2441  0.4864
14123SOL    HW143810   4.661   6.346   9.244  0.9578 -0.4551 -0.5238
14123SOL    HW243811   4.582   6.255   9.336 -0.6499  1.3536 -0.0444
14124SOL     OW43812   5.355   3.542  11.199 -0.2639  0.2486 -0.6459
14124SOL    HW143813   5.281   3.492  11.164 -0.2170 -0.0767 -0.2933
14124SOL    HW243814   5.322   3.580  11.280 -0.5522  1.4799 -1.3206
14125SOL     OW43815   5.564   2.076  11.388 -0.0136  0.0899  0.0545
14125SOL    HW143816   5.655   2.063  11.362 -0.1267 -1.2463  0.2534
14125SOL    HW243817   5.518   2.097  11.307  0.0563 -1.6890 -0.4928
14126SOL     OW43818   3.696   0.489   9.391  0.3561 -0.1952  0.5259
14126SOL    HW143819   3.655   0.402   9.394 -0.2326  0.0505 -0.1575
14126SOL    HW243820   3.714   0.509   9.483  0.2376 -0.9200  0.7184
14127SOL     OW43821   5.196   1.101   9.733 -0.1892  0.2470 -0.4555
14127SOL    HW143822   5.147   1.022   9.708  0.7234 -0.3602 -0.3485
14127SOL    HW243823   5.273   1.101   9.676  0.8399 -0.0318  0.8864
14128SOL     OW43824   6.687   2.558   9.144 -0.4789  0.8405 -0.2791
14128SOL    HW143825   6.651   2.630   9.197  1.8400  0.9409  1.3316
14128SOL    HW243826   6.613   2.498   9.132 -1.4233  1.3876  2.1498
14129SOL     OW43827   5.087   4.432  10.205  0.0135  0.4730  0.3332
14129SOL    HW143828   5.052   4.396  10.286 -0.9911  2.2220  0.7081
14129SOL    HW243829   5.112   4.521  10.226  1.6801  0.3059 -0.7798
14130SOL     OW43830   5.006   3.555  10.446 -0.4279  0.2327 -0.4464
14130SOL    HW143831   4.940   3.541  10.378  0.1812  0.3244 -1.0604
14130SOL    HW243832   4.983   3.640  10.484 -0.8803  0.0950 -0.4076
14131SOL     OW43833   2.226   2.233   9.703  0.7517  0.2046  0.5766
14131SOL    HW143834   2.279   2.212   9.626 -0.1374  1.3949 -0.4154
14131SOL    HW243835   2.214   2.149   9.747  1.2699 -0.5205 -0.6006
14132SOL     OW43836   4.681   0.660   9.645 -0.2903 -0.0925  0.0872
14132SOL    HW143837   4.694   0.591   9.710 -0.6668 -0.5537 -0.3117
14132SOL    HW243838   4.722   0.738   9.683  0.2053 -0.5518  0.5155
14133SOL     OW43839   4.898   2.910  10.436  0.0221 -0.5332  0.5828
14133SOL    HW143840   4.928   2.849  10.503 -1.2830 -1.3922  0.4273
14133SOL    HW243841   4.848   2.976  10.484  1.1773  0.2737  0.7158
14134SOL     OW43842   5.314   3.583   9.444 -0.2297 -0.1888  0.2457
14134SOL    HW143843   5.279   3.514   9.500  0.0865 -0.3747  0.2155
14134SOL    HW243844   5.409   3.572   9.448 -0.1997 -0.1227 -0.2264
14135SOL     OW43845   3.170   3.694  10.770  0.4384 -0.0045 -0.6108
14135SOL    HW143846   3.193   3.724  10.858  0.1305  0.0556 -0.5485
14135SOL    HW243847   3.248   3.711  10.717  0.9716 -0.9156 -0.1428
14136SOL     OW43848   4.670   3.246   9.527  0.2032 -0.5298 -0.1015
14136SOL    HW143849   4.719   3.208   9.454 -1.2853 -0.2881 -1.2811
14136SOL    HW243850   4.736   3.264   9.593  1.6459 -0.5440 -1.4667
14137SOL     OW43851   6.413   2.726  10.744  0.0622  0.5764  0.4184
14137SOL    HW143852   6.448   2.661  10.682  1.6039 -0.8273  2.5724
14137SOL    HW243853   6.466   2.804  10.729  0.7571  0.0905  0.2906
14138SOL     OW43854   5.311   2.912  12.044  0.6044 -0.0596 -0.4154
14138SOL    HW143855   5.233   2.888  12.094 -0.3729 -0.2829 -1.9666
14138SOL    HW243856   5.380   2.918  12.109 -0.9316  1.3282  1.1970
14139SOL     OW43857   3.858   3.339  10.912  0.1932  1.4550  0.0009
14139SOL    HW143858   3.934   3.392  10.889  0.2949  0.8980 -1.0422
14139SOL    HW243859   3.801   3.398  10.961  1.2150  1.9286  0.6422
14140SOL     OW43860   5.177   4.232   9.916  0.1576  0.3660  0.0724
14140SOL    HW143861   5.090   4.258   9.883  0.3063  0.3641 -0.3322
14140SOL    HW243862   5.169   4.137   9.929 -0.1812  0.5067  0.9138
14141SOL     OW43863   3.544   2.166  10.053  0.0777  0.1503  0.3048
14141SOL    HW143864   3.589   2.138   9.973 -1.2986 -0.6481 -0.2094
14141SOL    HW243865   3.531   2.260  10.041  0.1190  0.0838 -0.2837
14142SOL     OW43866   4.133   1.784  10.104  0.2942  0.3615  0.3173
14142SOL    HW143867   4.138   1.827  10.018 -2.0390  1.2884  0.5695
14142SOL    HW243868   4.212   1.731  10.109  1.6960  2.1414 -1.3962
14143SOL     OW43869   4.356   3.576  10.151 -0.2672  0.4556 -0.1691
14143SOL    HW143870   4.374   3.489  10.188  1.8476  1.4984  1.5126
14143SOL    HW243871   4.275   3.604  10.193 -0.7074 -0.5062 -0.3624
14144SOL     OW43872   4.636   2.884   9.404 -0.0733  0.1414 -0.1334
14144SOL    HW143873   4.614   2.969   9.367  0.6231 -0.1981 -1.4158
14144SOL    HW243874   4.730   2.875   9.390  0.0944 -0.3126  1.1418
14145SOL     OW43875   4.706   0.640  10.061  0.0024  0.3268 -0.1965
14145SOL    HW143876   4.659   0.580  10.120  1.1991 -0.8061 -0.3701
14145SOL    HW243877   4.795   0.641  10.094  0.5391  0.1945 -1.5894
14146SOL     OW43878   5.854   1.909   9.160 -0.3529 -0.6758  0.5144
14146SOL    HW143879   5.815   1.972   9.100  1.2558  0.4547  0.5998
14146SOL    HW243880   5.907   1.852   9.103  0.0332 -0.4945  0.6899
14147SOL     OW43881   3.937   5.930  10.011  0.2859 -0.4635 -0.2493
14147SOL    HW143882   3.906   5.917  10.101  1.4480 -0.9785  0.0986
14147SOL    HW243883   4.014   5.986  10.020 -1.0230  1.6021 -1.1882
14148SOL     OW43884   5.764   2.447  11.665  0.3527  0.1261 -0.2247
14148SOL    HW143885   5.720   2.487  11.741 -0.4887 -0.8046 -0.2095
14148SOL    HW243886   5.856   2.439  11.692 -0.1583 -1.3667  1.2136
14149SOL     OW43887   4.473   3.329  10.263  0.3643  0.2978 -0.2635
14149SOL    HW143888   4.430   3.273  10.199 -0.5881 -2.1186  2.3003
14149SOL    HW243889   4.559   3.291  10.275  1.1950  1.7539 -1.2336
14150SOL     OW43890   3.718   2.626   9.702 -0.0142  0.5263 -0.4707
14150SOL    HW143891   3.684   2.538   9.684  0.9562  0.1486 -0.4751
14150SOL    HW243892   3.667   2.683   9.645  1.7831 -0.4280 -3.2112
14151SOL     OW43893   4.106   2.510  10.247  0.0204 -0.0537  0.1771
14151SOL    HW143894   4.028   2.563  10.261  0.5676  0.7079  0.4135
14151SOL    HW243895   4.158   2.560  10.184  0.1746 -0.7071 -0.2210
14152SOL     OW43896   7.231   4.267  11.415  0.0565 -0.2296  0.2832
14152SOL    HW143897   7.325   4.250  11.415  0.1771  0.4245 -0.1031
14152SOL    HW243898   7.195   4.200  11.473  0.6173 -1.2612 -0.5172
14153SOL     OW43899   5.394   2.153   9.884 -0.2180  0.7761  0.2705
14153SOL    HW143900   5.312   2.104   9.888 -0.5568  1.3051  0.0006
14153SOL    HW243901   5.402   2.177   9.792  0.2650  0.6938  0.2895
14154SOL     OW43902   4.002   4.769   9.368  0.0821  0.7726  0.7111
14154SOL    HW143903   4.051   4.688   9.380  1.4509  1.1151 -1.8793
14154SOL    HW243904   3.926   4.744   9.317  0.2981  1.0386  0.2496
14155SOL     OW43905   3.987   3.102  10.435 -0.4574 -0.2676 -0.3071
14155SOL    HW143906   3.989   3.080  10.528  0.2302 -0.7101 -0.4181
14155SOL    HW243907   4.019   3.192  10.431  0.9101 -0.7199 -0.2255
14156SOL     OW43908   4.103   3.130  10.096  0.5065 -0.2752 -0.7354
14156SOL    HW143909   4.116   3.052  10.150  0.3383 -0.0422 -0.3544
14156SOL    HW243910   4.191   3.168  10.089  0.0678  1.5862  2.2758
14157SOL     OW43911   2.180   2.661  10.733  0.2493  0.4162  0.6821
14157SOL    HW143912   2.152   2.589  10.676  2.6332  0.1131 -0.2168
14157SOL    HW243913   2.126   2.735  10.705  0.8322  0.0847 -1.5001
14158SOL     OW43914   6.445   1.616   8.718 -0.0493  0.0433 -0.0822
14158SOL    HW143915   6.490   1.666   8.649  0.3645 -1.0412 -0.6148
14158SOL    HW243916   6.373   1.573   8.673 -0.5853  0.3912  0.4356
14159SOL     OW43917   6.519   4.712   9.324  0.4274  0.0674  0.0471
14159SOL    HW143918   6.517   4.617   9.328 -1.9716  0.0231 -0.5601
14159SOL    HW243919   6.502   4.733   9.232  2.3246  1.1000 -0.1038
14160SOL     OW43920   4.796   3.949  10.701 -0.2509  0.4716  0.6935
14160SOL    HW143921   4.713   3.912  10.670  0.2038  1.7812 -2.5862
14160SOL    HW243922   4.771   4.020  10.759 -1.3228 -0.4456  1.3911
14161SOL     OW43923   5.866   3.835  10.899  0.2554 -0.2044 -0.4516
14161SOL    HW143924   5.884   3.824  10.806  2.7945 -2.7962  0.1716
14161SOL    HW243925   5.946   3.806  10.943 -2.0539 -2.8099  2.6107
14162SOL     OW43926   4.496   3.174  10.988  0.3404  0.1742 -0.3676
14162SOL    HW143927   4.442   3.179  11.067 -0.9863  1.0705 -1.2848
14162SOL    HW243928   4.586   3.175  11.021 -0.1708 -0.2494  1.1589
14163SOL     OW43929   4.660   3.327  10.745 -0.5482 -0.1401 -0.3899
14163SOL    HW143930   4.607   3.403  10.767  1.4384  1.1099  0.3878
14163SOL    HW243931   4.703   3.351  10.663  0.5576 -0.1515  0.1738
14164SOL     OW43932   3.053   1.976   8.884 -0.1620  0.3301  0.4329
14164SOL    HW143933   3.113   2.013   8.819 -1.4792  1.2403 -0.2925
14164SOL    HW243934   2.989   2.045   8.900 -0.5582 -0.3241  1.8110
14165SOL     OW43935   2.369   2.408  10.595  0.4703 -0.4858  0.3554
14165SOL    HW143936   2.344   2.480  10.537  1.8397  1.6531  2.2234
14165SOL    HW243937   2.418   2.347  10.538 -1.1337 -0.2511 -1.3747
14166SOL     OW43938   3.677   2.778  11.350 -0.8699  0.3728  0.5664
14166SOL    HW143939   3.744   2.808  11.287  0.2666  0.8469  1.9456
14166SOL    HW243940   3.699   2.687  11.366  0.2615  0.8392  1.9307
14167SOL     OW43941   5.121   2.374   9.394  0.1707  0.3053 -0.3745
14167SOL    HW143942   5.155   2.463   9.398  0.8683  0.0557 -0.6197
14167SOL    HW243943   5.026   2.384   9.407  0.3662  0.9780  0.6319
14168SOL     OW43944   7.756   3.861   9.188  0.3555  0.2153  0.0864
14168SOL    HW143945   7.760   3.855   9.092  1.2783 -0.3235  0.1406
14168SOL    HW243946   7.693   3.794   9.214 -0.8900  1.2424 -0.2071
14169SOL     OW43947   4.037   3.389  10.449 -0.4810  0.1805  0.5458
14169SOL    HW143948   4.113   3.377  10.506  1.4111 -1.5797 -2.1005
14169SOL    HW243949   4.058   3.466  10.396  0.2771 -1.1457 -1.1999
14170SOL     OW43950   4.835   2.185  10.338 -0.1517  0.0439  0.7506
14170SOL    HW143951   4.815   2.120  10.270 -0.3032  0.7144  0.1320
14170SOL    HW243952   4.759   2.243  10.339  0.6949  1.2351  0.0488
14171SOL     OW43953   5.836   2.500   9.742 -0.2839  0.1602  0.3656
14171SOL    HW143954   5.811   2.586   9.708  1.9486  0.2684 -1.3100
14171SOL    HW243955   5.754   2.451   9.749 -1.2245  1.0371 -2.8943
14172SOL     OW43956   4.997   5.287   9.741 -0.1321  0.2433 -0.4688
14172SOL    HW143957   4.973   5.372   9.778 -0.6314 -0.1499  0.1320
14172SOL    HW243958   4.937   5.276   9.667 -0.2844  0.2703 -0.3509
14173SOL     OW43959   4.518   2.050  10.070 -0.5913 -0.5429 -0.5536
14173SOL    HW143960   4.524   2.012   9.983 -2.7870 -1.5380 -0.3456
14173SOL    HW243961   4.602   2.030  10.111  0.1000 -0.9316 -2.0804
14174SOL     OW43962   3.433   3.213  11.461 -0.5700 -0.5342  0.0808
14174SOL    HW143963   3.422   3.233  11.368 -0.8227  2.1746  0.6133
14174SOL    HW243964   3.489   3.283  11.494  2.1124 -3.1057  1.4497
14175SOL     OW43965   3.948   1.537  10.493  0.0797  0.4229 -0.4522
14175SOL    HW143966   3.885   1.585  10.548 -1.8328 -2.0777 -0.2787
14175SOL    HW243967   3.942   1.580  10.408 -1.6687  0.4531 -0.3479
14176SOL     OW43968   3.840   1.940  10.420  0.1347 -0.2143 -0.0274
14176SOL    HW143969   3.894   1.989  10.358  3.3896 -2.6727  0.5990
14176SOL    HW243970   3.785   1.884  10.366 -0.1909  0.7261 -0.6853
14177SOL     OW43971   4.719   2.565  10.106 -0.3501  0.4565 -0.2280
14177SOL    HW143972   4.807   2.535  10.125 -0.6961  0.7187  2.1472
14177SOL    HW243973   4.666   2.486  10.100 -0.1020  0.3354 -0.9794
14178SOL     OW43974   4.944   1.595  10.120  0.0124  0.1871  0.0994
14178SOL    HW143975   4.887   1.518  10.114 -0.2736  0.4470 -0.6009
14178SOL    HW243976   4.905   1.648  10.189  1.3583 -1.2144  2.0480
14179SOL     OW43977   4.181   2.511   8.568 -0.1854  0.2340  0.0876
14179SOL    HW143978   4.243   2.584   8.576 -0.0490  0.0458  0.7939
14179SOL    HW243979   4.100   2.544   8.607 -1.3135  1.3090 -2.8267
14180SOL     OW43980   4.687   2.022  11.206  0.2378  0.1790 -0.0580
14180SOL    HW143981   4.717   2.055  11.121  2.3614  3.1212  1.6714
14180SOL    HW243982   4.763   1.976  11.242 -0.1230  0.3211  0.8939
14181SOL     OW43983   4.850   2.898   8.651 -0.1215 -0.0219  0.4522
14181SOL    HW143984   4.783   2.957   8.616 -0.4585  0.1404  1.3411
14181SOL    HW243985   4.915   2.956   8.690 -0.3162 -0.2247  1.0901
14182SOL     OW43986   4.747   3.059  10.608  0.0080 -0.1846  0.0349
14182SOL    HW143987   4.728   3.153  10.612  1.7171  0.1960  0.0943
14182SOL    HW243988   4.688   3.019  10.671  0.3174  1.0551  1.1507
14183SOL     OW43989   4.573   3.897  10.915 -0.1383  0.7957 -0.6105
14183SOL    HW143990   4.594   3.986  10.942  0.9817  0.4607 -0.3380
14183SOL    HW243991   4.508   3.868  10.979  2.1568  0.1676  1.5947
14184SOL     OW43992   4.968   4.790  11.072  0.1967  0.6614 -0.4232
14184SOL    HW143993   4.954   4.699  11.046  0.4218  0.8063 -1.0544
14184SOL    HW243994   4.894   4.809  11.130 -0.4891  0.4390 -1.2131
14185SOL     OW43995   4.578   2.326  10.084 -0.9326  0.9982 -0.4143
14185SOL    HW143996   4.535   2.380  10.017 -0.3993  2.6958  0.5453
14185SOL    HW243997   4.546   2.238  10.068 -0.8613  1.3640 -2.8559
14186SOL     OW43998   4.876   1.490  10.498  0.0398  0.8156 -0.8990
14186SOL    HW143999   4.803   1.442  10.536  0.9256  0.6613  0.6620
14186SOL    HW244000   4.941   1.422  10.477  0.6240  1.1488 -0.2097
14187SOL     OW44001   4.389   2.346  10.516  0.5386 -0.3504 -0.2857
14187SOL    HW144002   4.387   2.441  10.516 -0.4985 -0.3558 -1.0457
14187SOL    HW244003   4.480   2.324  10.496  1.0093  0.4526  0.8627
14188SOL     OW44004   6.661   3.320   0.281 -0.1038  0.1698  0.7639
14188SOL    HW144005   6.728   3.355   0.223 -0.9268  0.5859  0.0347
14188SOL    HW244006   6.709   3.282   0.354  0.9069  0.6408  0.3571
14189SOL     OW44007   5.733   1.987  10.876  0.1841 -0.5569 -0.1265
14189SOL    HW144008   5.688   2.049  10.934  0.0948 -1.7978  1.1634
14189SOL    HW244009   5.701   1.901  10.903  1.3416 -1.2828 -0.9812
14190SOL     OW44010   4.814   2.005  10.671  0.3226 -0.0757  0.1508
14190SOL    HW144011   4.860   1.930  10.707  0.8759 -0.3689 -1.1131
14190SOL    HW244012   4.876   2.045  10.610 -0.6752  0.1896 -0.7388
14191SOL     OW44013   4.919   2.929   8.238 -0.1702  0.3958 -0.6078
14191SOL    HW144014   4.949   2.977   8.161 -1.9528  0.2075 -1.4749
14191SOL    HW244015   4.905   2.997   8.305 -0.4872  0.8121 -1.0904
14192SOL     OW44016   3.324   3.856  10.097 -0.0268 -0.1944  0.1830
14192SOL    HW144017   3.272   3.935  10.083  0.0416  0.0561  1.2297
14192SOL    HW244018   3.298   3.796  10.027  0.0628  0.8193 -0.7329
14193SOL     OW44019   3.502   3.736  11.140 -0.0488  0.0666 -0.0563
14193SOL    HW144020   3.579   3.680  11.148  0.1895  0.5401  1.1321
14193SOL    HW244021   3.491   3.748  11.046  0.7828 -0.7519 -0.2738
14194SOL     OW44022   6.483   1.752  11.047  0.4063 -0.2690  0.0179
14194SOL    HW144023   6.555   1.696  11.074  1.6463  0.5958 -1.3248
14194SOL    HW244024   6.520   1.840  11.045 -1.0274  0.3760  0.4363
14195SOL     OW44025   3.669   1.863   9.444  0.6114 -0.1872 -0.1360
14195SOL    HW144026   3.699   1.928   9.380  0.1560 -2.0099 -2.3304
14195SOL    HW244027   3.709   1.781   9.415 -0.2629 -1.2444  1.4870
14196SOL     OW44028   4.815   4.634   8.424 -0.3307 -0.0604  0.4378
14196SOL    HW144029   4.826   4.625   8.329  0.1117 -0.4494  0.5262
14196SOL    HW244030   4.732   4.680   8.434 -0.7418 -0.6650 -0.1259
14197SOL     OW44031   4.506   3.219  11.258 -0.1772 -0.5288  0.4333
14197SOL    HW144032   4.591   3.264  11.258 -0.6177  0.3216  0.8961
14197SOL    HW244033   4.455   3.264  11.324 -0.0671 -2.8746  2.2577
14198SOL     OW44034   4.161   2.921  11.418  0.0415 -0.0808  0.5429
14198SOL    HW144035   4.223   2.883  11.355  0.2860  1.6309 -0.3044
14198SOL    HW244036   4.198   2.899  11.504  0.3151 -1.4602  0.1026
14199SOL     OW44037   5.761   3.606  11.838  0.0015  0.4576  0.2652
14199SOL    HW144038   5.796   3.519  11.819  0.9852 -0.3574  4.6714
14199SOL    HW244039   5.672   3.603  11.804 -0.3507 -2.7151  1.0953
14200SOL     OW44040   4.514   1.711  10.779  0.2919  0.0075 -0.4296
14200SOL    HW144041   4.535   1.768  10.705  1.8892  1.2119  0.8914
14200SOL    HW244042   4.506   1.770  10.854  1.0249 -1.3768  0.7938
14201SOL     OW44043   3.888   2.840   8.891 -0.6123  0.6365  0.0210
14201SOL    HW144044   3.904   2.908   8.826 -0.1608  0.1952 -0.3351
14201SOL    HW244045   3.796   2.817   8.880 -0.9311  1.6099  0.5545
14202SOL     OW44046   4.956   4.937  10.083 -0.0331  0.5711 -0.4730
14202SOL    HW144047   5.035   4.884  10.093 -0.2667  0.4967  1.1903
14202SOL    HW244048   4.884   4.877  10.102 -0.3948  1.0597 -0.2863
14203SOL     OW44049   5.870   2.813   9.764  0.6326 -0.4128  0.0957
14203SOL    HW144050   5.872   2.820   9.668 -2.0135  1.7202  0.0745
14203SOL    HW244051   5.790   2.860   9.789  1.3472 -0.7685  3.3849
14204SOL     OW44052   5.050   2.387   9.672  0.1318  0.1454 -0.0342
14204SOL    HW144053   4.993   2.388   9.595  1.1379  0.6000 -0.7979
14204SOL    HW244054   5.137   2.409   9.638  0.5593  0.5818  1.2682
14205SOL     OW44055   3.361   3.175  11.776 -0.1510  0.0494  0.3155
14205SOL    HW144056   3.308   3.250  11.748 -0.1785 -0.1311 -0.1260
14205SOL    HW244057   3.450   3.197  11.749  0.1414  0.6610  1.6649
14206SOL     OW44058   5.710   1.241  11.894 -0.4052 -0.2193  0.2492
14206SOL    HW144059   5.641   1.252  11.960 -0.4288 -0.9407  0.3482
14206SOL    HW244060   5.770   1.178  11.933 -0.0838 -0.1644 -0.1554
14207SOL     OW44061   5.399   2.448  11.529 -0.1929 -0.1752 -0.1846
14207SOL    HW144062   5.418   2.361  11.564  1.9622 -0.3647 -1.6372
14207SOL    HW244063   5.371   2.499  11.605  1.9022 -1.2193  1.3880
14208SOL     OW44064   5.894   2.868  12.332  0.8673  0.3946  0.1397
14208SOL    HW144065   5.878   2.775  12.320  1.3598  0.3588 -0.2585
14208SOL    HW244066   5.826   2.911  12.281  1.2381  0.2452 -0.4962
14209SOL     OW44067   5.216   3.294  12.337  0.5339  0.7907  0.2608
14209SOL    HW144068   5.187   3.363  12.278  0.3568  0.0508 -0.5369
14209SOL    HW244069   5.280   3.244  12.286 -0.6644 -0.7175  0.1678
14210SOL     OW44070   6.199   3.993  12.419  0.0899  0.5942  0.0220
14210SOL    HW144071   6.168   4.070  12.467  0.2603  0.8364 -0.2615
14210SOL    HW244072   6.292   4.009  12.405 -0.3158  1.4152 -2.0504
14211SOL     OW44073   5.467   3.128  12.475  0.0065 -0.2230 -0.2952
14211SOL    HW144074   5.379   3.093  12.460 -0.5615  1.1673 -0.3995
14211SOL    HW244075   5.457   3.223  12.464  1.0530  0.2040  1.8967
14212SOL     OW44076   5.628   2.231   0.418  0.3877  0.1434 -0.0025
14212SOL    HW144077   5.610   2.266   0.330  1.1963  0.0393 -0.2128
14212SOL    HW244078   5.575   2.151   0.422 -3.1182  2.2855  1.2293
14213SOL     OW44079   3.454   2.332  11.615 -0.2076  0.5975  1.0479
14213SOL    HW144080   3.503   2.368  11.542  0.5202 -1.9176  0.1927
14213SOL    HW244081   3.510   2.345  11.691 -0.1806  1.6219  0.8694
14214SOL     OW44082   4.772   2.028   0.239  0.0392 -0.7957 -0.6579
14214SOL    HW144083   4.738   2.012   0.151  0.1839 -2.4371 -0.4374
14214SOL    HW244084   4.834   2.100   0.227 -2.2180  1.1907 -1.3298
14215SOL     OW44085   4.777   1.992  10.133  0.0205 -0.0836 -0.2811
14215SOL    HW144086   4.809   2.005  10.044  0.2360 -1.5451 -0.4341
14215SOL    HW244087   4.772   1.897  10.144  0.6753  0.0401  1.5091
14216SOL     OW44088   5.282   2.687  11.105 -0.6486  0.2476  0.1610
14216SOL    HW144089   5.189   2.679  11.126 -0.2494  0.1080  2.0295
14216SOL    HW244090   5.284   2.702  11.010 -2.4682 -1.4963 -0.2129
14217SOL     OW44091   4.556   3.730   0.422  0.1197 -0.1191 -0.0202
14217SOL    HW144092   4.567   3.641   0.456 -0.6316  0.0195  0.6007
14217SOL    HW244093   4.465   3.752   0.441 -0.1319  0.2313 -1.4874
14218SOL     OW44094   6.187   2.455   0.802 -0.3254  0.0847  0.2844
14218SOL    HW144095   6.106   2.484   0.760  0.4068  0.5787 -0.8436
14218SOL    HW244096   6.214   2.530   0.857 -1.3419 -0.6035  1.7773
14219SOL     OW44097   3.577   1.882  12.044  0.0379  0.2472 -0.1203
14219SOL    HW144098   3.634   1.807  12.059  0.5684  0.7879  0.6410
14219SOL    HW244099   3.549   1.873  11.953  1.4827  0.0551 -0.5746
14220SOL     OW44100   4.686   2.344  12.237 -0.1825 -0.3539 -0.4052
14220SOL    HW144101   4.695   2.289  12.315 -0.7065 -1.0374 -0.8143
14220SOL    HW244102   4.602   2.387  12.247  0.1562  0.2696 -0.1638
14221SOL     OW44103   4.210   4.601   0.323  0.7107  0.7117 -0.0500
14221SOL    HW144104   4.148   4.546   0.371 -0.2489  2.0694  0.3235
14221SOL    HW244105   4.272   4.630   0.391  2.2305 -1.1447 -0.5225
14222SOL     OW44106   4.446   2.767  11.553 -0.4920 -0.2074  0.0697
14222SOL    HW144107   4.399   2.792  11.633  0.6102 -1.9859  1.3298
14222SOL    HW244108   4.407   2.683  11.528 -0.3424 -0.0011 -0.8720
14223SOL     OW44109   7.019   3.613  11.208 -0.7146  0.1308  0.3074
14223SOL    HW144110   7.070   3.693  11.201 -1.4639  0.5396 -0.9249
14223SOL    HW244111   7.083   3.545  11.227  0.1635  0.7891 -0.2214
14224SOL     OW44112   3.584   3.360   0.531  0.6658  0.8081  0.3512
14224SOL    HW144113   3.571   3.448   0.494 -0.0789 -0.5736 -3.0649
14224SOL    HW244114   3.500   3.316   0.517  1.4470 -0.8509  0.7077
14225SOL     OW44115   5.748   3.886   0.018  0.1709  0.3125  0.1693
14225SOL    HW144116   5.687   3.949   0.058  0.3979  0.9433 -0.4492
14225SOL    HW244117   5.692   3.818  -0.018 -0.1761  0.9065 -0.4269
14226SOL     OW44118   6.251   1.035  11.231 -0.1770 -0.2650 -0.8517
14226SOL    HW144119   6.176   0.979  11.252 -2.1996  2.4652 -0.2240
14226SOL    HW244120   6.212   1.116  11.200  2.5474  1.3430 -0.3838
14227SOL     OW44121   2.810   4.194   0.956 -0.3126  0.1526  0.2535
14227SOL    HW144122   2.765   4.149   0.883  0.8138 -0.8387  0.1409
14227SOL    HW244123   2.839   4.277   0.918 -0.5678  0.0644 -0.1502
14228SOL     OW44124   3.533   2.504  10.371 -0.0987  0.0273 -0.1447
14228SOL    HW144125   3.549   2.597  10.354  3.8280 -0.9252 -3.2166
14228SOL    HW244126   3.458   2.482  10.316 -0.4267  1.1626 -0.1710
14229SOL     OW44127   5.708   4.500   0.633  0.3813  0.0620  0.1545
14229SOL    HW144128   5.659   4.582   0.639  1.3407  1.0371 -3.2092
14229SOL    HW244129   5.768   4.502   0.708  0.4607  2.5148  0.0857
14230SOL     OW44130   6.011   3.842   0.112 -0.2361 -0.3872 -0.7042
14230SOL    HW144131   5.915   3.847   0.111 -0.2394  0.2912  0.8625
14230SOL    HW244132   6.040   3.930   0.090  0.0187 -0.4704 -0.6995
14231SOL     OW44133   5.725   3.151  11.707 -0.2914 -0.6468  0.1892
14231SOL    HW144134   5.794   3.189  11.763 -0.6600 -0.3010  0.4100
14231SOL    HW244135   5.684   3.084  11.762 -0.6164 -0.3457  0.3175
14232SOL     OW44136   4.422   1.131  11.901 -0.1493  0.0736 -0.7670
14232SOL    HW144137   4.359   1.168  11.963  0.1720  0.3338 -0.5944
14232SOL    HW244138   4.494   1.193  11.899  0.3792 -0.5206 -0.5060
14233SOL     OW44139   5.656   4.829  10.757  0.1909  0.2124 -0.4272
14233SOL    HW144140   5.612   4.861  10.836  0.7734 -1.5272  0.6650
14233SOL    HW244141   5.744   4.866  10.762 -0.0664  0.8803 -0.7777
14234SOL     OW44142   5.017   2.803   0.365 -0.4102 -0.2426  0.3943
14234SOL    HW144143   5.032   2.849   0.447  0.7571 -1.0706  0.6685
14234SOL    HW244144   5.080   2.732   0.365  0.4118  0.3957 -1.7304
14235SOL     OW44145   6.498   2.243  11.972 -0.4862 -0.3493  0.2518
14235SOL    HW144146   6.545   2.212  12.050 -0.8843 -2.6748 -0.3549
14235SOL    HW244147   6.549   2.318  11.942  1.4596 -1.2942  1.0096
14236SOL     OW44148   5.047   3.849  12.015 -0.3409 -0.4956 -0.3005
14236SOL    HW144149   5.068   3.879  11.927 -0.7393 -0.8328 -0.5144
14236SOL    HW244150   5.127   3.864  12.065 -0.2744  0.1910 -0.5877
14237SOL     OW44151   5.959   2.568   0.031 -0.0986 -0.3036  0.3657
14237SOL    HW144152   5.997   2.579  -0.056  0.7249 -2.7520  0.3397
14237SOL    HW244153   5.876   2.616   0.028 -0.2203 -0.5682 -1.8678
14238SOL     OW44154   4.101   2.387   0.155 -0.0483  0.1108  0.2753
14238SOL    HW144155   4.135   2.358   0.070 -0.8755 -0.2789  0.0728
14238SOL    HW244156   4.116   2.482   0.156  0.0940  0.0932 -0.2472
14239SOL     OW44157   5.251   2.044  10.990  0.2509  0.1431  0.4054
14239SOL    HW144158   5.162   2.021  10.961  0.5393 -0.1224 -0.2885
14239SOL    HW244159   5.278   1.969  11.043 -0.4741  0.8558  1.8451
14240SOL     OW44160   4.686   2.831  11.693  0.4622 -0.2106  0.4183
14240SOL    HW144161   4.609   2.813  11.639  1.4119 -0.7464 -0.8057
14240SOL    HW244162   4.706   2.748  11.736  1.3531 -0.5552 -0.6179
14241SOL     OW44163   4.666   3.431   0.484  0.2832 -0.3761 -0.3416
14241SOL    HW144164   4.642   3.402   0.572  0.9445  0.5507  0.1694
14241SOL    HW244165   4.594   3.401   0.428 -0.8374  0.1920  0.7354
14242SOL     OW44166   7.048   2.942  10.913 -0.3966  0.4015 -0.5519
14242SOL    HW144167   7.117   2.919  10.851  0.4821  0.5536  0.3507
14242SOL    HW244168   7.038   2.864  10.967  0.0167  0.8334  0.1673
14243SOL     OW44169   4.154   0.984   0.398  0.0968 -0.0939 -0.1026
14243SOL    HW144170   4.097   1.060   0.389 -0.2872 -0.5902 -2.5508
14243SOL    HW244171   4.242   1.021   0.404 -0.1766  0.5596 -0.0196
14244SOL     OW44172   5.609   4.587  11.091  0.4419 -0.1846 -0.0560
14244SOL    HW144173   5.627   4.494  11.080  0.2431 -0.0835 -1.4752
14244SOL    HW244174   5.517   4.597  11.067  0.5616  0.4284 -0.2923
14245SOL     OW44175   5.113   4.921   9.782 -0.5264 -0.4819  0.2567
14245SOL    HW144176   5.040   4.944   9.725 -0.3274 -2.0377 -0.6711
14245SOL    HW244177   5.084   4.840   9.825 -1.6116  1.6984  4.1272
14246SOL     OW44178   4.959   3.877   1.326  0.4146 -0.6473  0.2839
14246SOL    HW144179   4.898   3.844   1.259 -2.8976  1.4590  1.9923
14246SOL    HW244180   4.952   3.814   1.398  1.1261 -0.9722  0.0741
14247SOL     OW44181   5.720   2.279   0.012 -0.2528 -0.1919  0.2240
14247SOL    HW144182   5.770   2.218   0.066  0.1297 -1.3941 -1.4281
14247SOL    HW244183   5.784   2.313  -0.051 -1.1959 -0.7140 -1.0515
14248SOL     OW44184   2.335   2.877  12.240 -0.2574  0.2365  0.1460
14248SOL    HW144185   2.368   2.837  12.159  1.0488  0.6008  0.4644
14248SOL    HW244186   2.339   2.971  12.224  1.6655  0.3827  1.1968
14249SOL     OW44187   6.642   3.282   0.742  0.7143  0.1777 -0.0401
14249SOL    HW144188   6.570   3.283   0.679 -0.4268  1.2455  1.2392
14249SOL    HW244189   6.693   3.360   0.721  0.5008  0.3740  0.1666
14250SOL     OW44190   5.116   4.576  11.376 -0.5979 -0.0575 -0.0018
14250SOL    HW144191   5.068   4.658  11.382 -0.6391 -0.0349 -0.5777
14250SOL    HW244192   5.117   4.541  11.466 -2.1115 -0.3095 -0.0699
14251SOL     OW44193   4.506   2.502  11.392 -0.3495 -0.2161 -0.1360
14251SOL    HW144194   4.425   2.516  11.441 -1.6120 -1.0248 -1.8660
14251SOL    HW244195   4.490   2.422  11.343 -0.0080  1.5199 -3.3568
14252SOL     OW44196   6.135   3.107  12.195 -0.4004 -0.3867 -0.7544
14252SOL    HW144197   6.095   3.121  12.281 -0.1152  0.0469 -0.6927
14252SOL    HW244198   6.062   3.110  12.134 -0.2920  2.3206 -0.8670
14253SOL     OW44199   5.076   5.954   0.883  0.0834  0.1073 -0.0210
14253SOL    HW144200   5.115   5.939   0.969 -1.4698  1.6823  1.0413
14253SOL    HW244201   5.043   6.044   0.887  0.0333  0.2624 -2.3149
14254SOL     OW44202   3.726   1.030  12.045  0.0749  0.1773 -0.0095
14254SOL    HW144203   3.672   1.005  11.971 -1.3870  2.3758  0.2303
14254SOL    HW244204   3.816   1.020  12.014 -0.4541 -1.7106 -1.0542
14255SOL     OW44205   5.315   2.751  10.379  0.0631  0.1557 -0.8311
14255SOL    HW144206   5.341   2.755  10.471 -2.6324 -0.3344  0.0750
14255SOL    HW244207   5.272   2.835  10.363  0.2451  0.1120 -1.5551
14256SOL     OW44208   5.446   1.792  11.952 -0.1595 -0.0978  0.2710
14256SOL    HW144209   5.382   1.816  12.018 -0.8893  0.9416 -0.7622
14256SOL    HW244210   5.415   1.835  11.872  0.5996 -1.4287 -0.7901
14257SOL     OW44211   4.934   1.124  11.569  0.4505  0.2141  0.0714
14257SOL    HW144212   4.939   1.210  11.527  0.4823  0.3702  0.3869
14257SOL    HW244213   4.954   1.142  11.661 -2.8111  0.4041  0.8585
14258SOL     OW44214   5.987   3.176  12.420 -0.3031 -0.1373 -0.1591
14258SOL    HW144215   5.988   3.213  12.508 -0.8248  1.5173 -0.8180
14258SOL    HW244216   5.903   3.131  12.414  0.0542 -0.9126  0.4240
14259SOL     OW44217   6.368   1.614  11.289 -0.3905 -0.1672 -1.0630
14259SOL    HW144218   6.415   1.531  11.282  2.0428  1.0710 -0.7331
14259SOL    HW244219   6.388   1.660  11.208  1.3798  1.4802  0.1949
14260SOL     OW44220   4.533   3.716  11.970  0.0131  0.0665  0.1377
14260SOL    HW144221   4.480   3.697  11.893 -0.9097 -0.4763  0.8888
14260SOL    HW244222   4.620   3.737  11.935  0.1592 -2.1226 -0.9492
14261SOL     OW44223   5.634   2.929  10.256 -0.0430 -0.4572  0.2032
14261SOL    HW144224   5.684   2.892  10.184 -0.8646 -2.0321  0.3928
14261SOL    HW244225   5.676   2.894  10.335  0.0435  0.1891  0.4540
14262SOL     OW44226   3.563   1.049   1.318  0.3187 -0.2286  0.2725
14262SOL    HW144227   3.634   1.113   1.316  1.6245 -1.6563 -0.6418
14262SOL    HW244228   3.496   1.085   1.260  1.5843 -0.2729 -1.2566
14263SOL     OW44229   3.988   2.272  11.723  0.4348  0.0306 -0.6560
14263SOL    HW144230   3.947   2.273  11.637 -0.7777  1.0285 -0.1073
14263SOL    HW244231   4.011   2.364  11.739  0.7161 -0.1583  0.0530
14264SOL     OW44232   4.294   2.659   0.609 -0.3569 -0.5611  0.0949
14264SOL    HW144233   4.251   2.670   0.524  0.1021 -0.0842 -0.0860
14264SOL    HW244234   4.253   2.724   0.666  0.9430  0.7703 -0.4153
14265SOL     OW44235   6.135   2.372   0.394 -0.2728  0.3616 -0.1452
14265SOL    HW144236   6.203   2.356   0.459  0.3696  2.3620 -0.2837
14265SOL    HW244237   6.182   2.397   0.315 -1.1054 -0.5322 -0.9561
14266SOL     OW44238   4.660   2.644   0.146  0.4718 -0.1850 -0.2324
14266SOL    HW144239   4.690   2.573   0.203 -0.4380  0.2509  0.8353
14266SOL    HW244240   4.705   2.722   0.180 -0.1633  0.0964 -0.0129
14267SOL     OW44241   5.848   3.427   0.002  0.3377  0.4602 -0.2700
14267SOL    HW144242   5.877   3.401  -0.086 -1.4784  0.1056 -0.8034
14267SOL    HW244243   5.894   3.367   0.061  0.2504 -0.4495 -1.1055
14268SOL     OW44244   4.226   3.440  11.210  0.0787 -0.7847 -0.2952
14268SOL    HW144245   4.275   3.521  11.195  1.6846 -1.9155 -1.5474
14268SOL    HW244246   4.251   3.411  11.297 -0.7887  0.2178  0.3078
14269SOL     OW44247   4.069   3.516   9.948  0.0210  0.2862  0.5488
14269SOL    HW144248   4.081   3.538  10.041  1.3843  1.2148  0.1721
14269SOL    HW244249   3.979   3.483   9.943  0.7308 -2.3330  2.6640
14270SOL     OW44250   5.870   3.074  12.060  0.2953 -0.1176  0.1948
14270SOL    HW144251   5.847   3.117  11.977  1.4311 -0.9128 -0.5584
14270SOL    HW244252   5.868   2.981  12.040  1.9029 -0.2900  0.6803
14271SOL     OW44253   3.519   0.769  11.395  0.7194 -0.0308 -0.1777
14271SOL    HW144254   3.468   0.846  11.370  0.9264  0.4295  0.7577
14271SOL    HW244255   3.591   0.767  11.333  0.2899  0.0722 -0.6933
14272SOL     OW44256   5.705   4.014  11.686 -0.0781  0.1527 -0.1261
14272SOL    HW144257   5.676   4.104  11.699  0.3363  0.4011 -0.8607
14272SOL    HW244258   5.628   3.968  11.653  0.2340  0.7247 -1.7156
14273SOL     OW44259   5.710   3.091   0.163  0.1302  0.2994 -0.0672
14273SOL    HW144260   5.643   3.135   0.111  0.6194  0.6912 -0.3688
14273SOL    HW244261   5.685   3.106   0.254  0.0003  0.7414 -0.1770
14274SOL     OW44262   5.940   1.613  11.345 -0.1638 -0.5225  0.1032
14274SOL    HW144263   5.969   1.652  11.263  1.1623 -0.3183  0.6369
14274SOL    HW244264   5.854   1.651  11.361  0.3217  0.7935 -0.3126
14275SOL     OW44265   5.611   3.696  11.287 -0.1857  0.1912 -0.1134
14275SOL    HW144266   5.569   3.616  11.316 -0.7316  1.1451  1.8503
14275SOL    HW244267   5.688   3.705  11.343  1.3572 -0.2616 -2.0405
14276SOL     OW44268   6.173   2.760  12.196  0.0364  0.5918 -0.2293
14276SOL    HW144269   6.160   2.815  12.273  1.2710  0.8468 -0.1799
14276SOL    HW244270   6.262   2.779  12.168  0.6881 -1.7465  0.0788
14277SOL     OW44271   5.541   2.280  10.742 -0.4025  0.2332 -0.2185
14277SOL    HW144272   5.447   2.271  10.757 -0.1486 -1.0420  0.7358
14277SOL    HW244273   5.582   2.244  10.820  0.8977  2.5451  0.2609
14278SOL     OW44274   4.495   1.882  12.190  0.3449  0.2734 -0.0939
14278SOL    HW144275   4.441   1.840  12.124  1.6680 -1.0576 -0.3583
14278SOL    HW244276   4.494   1.975  12.166 -0.8452  0.1069 -0.7671
14279SOL     OW44277   5.997   2.787   0.443  0.0984  0.2883  0.3238
14279SOL    HW144278   5.965   2.709   0.398 -1.4025  0.6295  0.7585
14279SOL    HW244279   5.990   2.857   0.377  2.9146 -0.1554 -0.5939
14280SOL     OW44280   7.515   3.398  12.199  0.3429 -0.1782 -0.1945
14280SOL    HW144281   7.533   3.323  12.255  0.1246 -0.6697 -0.7767
14280SOL    HW244282   7.426   3.424  12.221 -0.0266 -0.8449 -0.8275
14281SOL     OW44283   3.744   2.493  12.486  0.8454 -0.1334  0.9759
14281SOL    HW144284   3.750   2.524  12.396  3.4431 -1.5563  0.5645
14281SOL    HW244285   3.747   2.572  12.540 -2.0095  0.8435 -0.1029
14282SOL     OW44286   4.624   2.025   0.460 -0.3476 -0.2105 -0.1119
14282SOL    HW144287   4.691   2.059   0.520  0.1959 -0.3644 -0.6213
14282SOL    HW244288   4.667   2.025   0.375 -1.3404  0.6388 -0.6220
14283SOL     OW44289   6.656   1.575  12.151 -0.1050  0.0043  0.0108
14283SOL    HW144290   6.670   1.648  12.211 -0.6629 -0.5010  0.7745
14283SOL    HW244291   6.732   1.518  12.166 -0.6148 -0.4818  0.7842
14284SOL     OW44292   5.608   2.541  10.684  0.0665 -0.2144  0.2280
14284SOL    HW144293   5.585   2.578  10.769 -1.0799 -1.7022  0.6007
14284SOL    HW244294   5.570   2.453  10.684  1.1323 -0.7323 -1.3265
14285SOL     OW44295   5.076   2.331  11.695  0.0653 -0.0043  0.4478
14285SOL    HW144296   5.085   2.410  11.642  0.7809  0.6461  1.5160
14285SOL    HW244297   5.135   2.344  11.768  1.3698 -2.2281 -0.1383
14286SOL     OW44298   4.913   3.324  11.136  0.1192  0.1995  0.0004
14286SOL    HW144299   5.002   3.347  11.163  0.4485 -0.8238 -0.1676
14286SOL    HW244300   4.918   3.318  11.041 -0.2465  0.6031 -0.0458
14287SOL     OW44301   5.159   2.084  11.597 -0.1395  0.3650  0.5237
14287SOL    HW144302   5.108   2.066  11.518  0.5888 -0.2911  0.1896
14287SOL    HW244303   5.124   2.167  11.630 -0.7670  0.4066 -0.2238
14288SOL     OW44304   5.096   2.274   0.519 -0.2554 -0.0462 -0.1441
14288SOL    HW144305   5.023   2.226   0.558 -0.5244  0.1264 -0.4322
14288SOL    HW244306   5.085   2.263   0.425 -0.0764  0.2244 -0.1979
14289SOL     OW44307   5.260   2.896  11.360  0.0896  0.5361 -0.6317
14289SOL    HW144308   5.282   2.841  11.436  0.8490 -0.5050 -1.5713
14289SOL    HW244309   5.193   2.846  11.313  0.4081  0.6535 -1.2184
14290SOL     OW44310   5.393   2.586   0.179  0.0468  0.5526 -0.1010
14290SOL    HW144311   5.413   2.650   0.111  0.5731  1.0781  0.5417
14290SOL    HW244312   5.444   2.614   0.254  1.5252 -1.4939 -0.2694
14291SOL     OW44313   6.164   3.211  11.309 -0.1843 -0.0138 -0.8139
14291SOL    HW144314   6.251   3.188  11.278  0.6301  2.2680 -0.4085
14291SOL    HW244315   6.179   3.277  11.377 -2.1914 -0.3752  0.0713
14292SOL     OW44316   4.136   2.911  10.269 -0.4600 -0.8231 -0.3458
14292SOL    HW144317   4.082   2.841  10.233 -1.0408  0.0133 -1.1394
14292SOL    HW244318   4.075   2.966  10.318 -0.2723 -0.0628 -0.9592
14293SOL     OW44319   4.480   3.173   0.597  0.5217 -0.4104  0.1226
14293SOL    HW144320   4.555   3.138   0.550  0.9216 -0.3606  0.7112
14293SOL    HW244321   4.430   3.222   0.531  0.2766 -1.5697 -0.5771
14294SOL     OW44322   3.573   2.387   0.561  0.4325  0.5209  0.0203
14294SOL    HW144323   3.593   2.377   0.468 -0.4988  0.5673 -0.1919
14294SOL    HW244324   3.649   2.350   0.606  0.7670  0.2439 -0.7571
14295SOL     OW44325   3.798   2.625  12.248 -0.3856 -0.0974  0.5504
14295SOL    HW144326   3.745   2.703  12.232 -1.5031 -0.3915  2.5220
14295SOL    HW244327   3.835   2.603  12.162 -1.5482  1.5010 -0.4080
14296SOL     OW44328   4.862   0.825   0.431 -0.5685  0.1428 -0.7108
14296SOL    HW144329   4.796   0.861   0.491 -0.5080  0.2471 -0.7067
14296SOL    HW244330   4.890   0.744   0.473  0.2715  0.7596 -0.0368
14297SOL     OW44331   4.257   2.577  11.460  0.4648 -0.4334  0.1101
14297SOL    HW144332   4.192   2.589  11.529  0.9569 -1.6384  0.8093
14297SOL    HW244333   4.206   2.579  11.379 -0.6836 -2.6298  0.7016
14298SOL     OW44334   3.968   3.601   1.059 -0.0154  0.2553 -0.3286
14298SOL    HW144335   4.058   3.624   1.080 -0.2772  1.1961 -0.1705
14298SOL    HW244336   3.920   3.611   1.141 -0.0444 -1.5551 -0.0843
14299SOL     OW44337   3.841   2.540  11.418 -0.1164  0.0209 -0.7719
14299SOL    HW144338   3.853   2.559  11.510 -1.7711  1.3130 -0.7681
14299SOL    HW244339   3.786   2.461  11.417 -0.1279  0.0280 -0.6586
14300SOL     OW44340   6.438   4.206  12.409  0.5918 -0.2009 -0.0398
14300SOL    HW144341   6.472   4.295  12.405 -0.9928  0.4582  0.3374
14300SOL    HW244342   6.452   4.170  12.322  2.9820 -0.2948  0.3167
14301SOL     OW44343   5.100   2.997   0.171  0.2110  0.2407 -0.7219
14301SOL    HW144344   5.104   3.056   0.247  0.2283  0.2275 -0.7124
14301SOL    HW244345   5.056   2.918   0.204  0.7020  0.0229 -0.5838
14302SOL     OW44346   6.063   1.714  11.112  0.0860 -0.3003  0.0290
14302SOL    HW144347   6.147   1.722  11.066  0.6550 -0.9549  0.9059
14302SOL    HW244348   6.016   1.794  11.090  0.5681 -0.3312 -1.2063
14303SOL     OW44349   5.247   3.529  12.184 -0.0020  0.0973  0.1450
14303SOL    HW144350   5.297   3.598  12.138 -0.0025  0.0246  0.0348
14303SOL    HW244351   5.257   3.551  12.277  1.1899 -0.5582  0.1930
14304SOL     OW44352   5.485   3.829  11.652 -0.1092 -0.0547 -0.1665
14304SOL    HW144353   5.494   3.873  11.567 -1.3085 -0.2466 -0.4061
14304SOL    HW244354   5.391   3.813  11.661  0.1986 -1.7988  0.2985
14305SOL     OW44355   3.698   3.840   0.387  0.1543 -0.2768 -0.8907
14305SOL    HW144356   3.736   3.921   0.353 -0.1402 -0.0824 -0.7575
14305SOL    HW244357   3.765   3.774   0.371  1.3070  0.3728  0.8905
14306SOL     OW44358   7.090   0.854  12.301  0.0454  0.0084 -0.2188
14306SOL    HW144359   7.075   0.764  12.330  1.5514 -0.4997 -0.9105
14306SOL    HW244360   7.069   0.853  12.207 -0.5292  0.5396 -0.1010
14307SOL     OW44361   6.349   1.171   0.245 -1.4719  0.0789  0.9334
14307SOL    HW144362   6.263   1.129   0.245 -0.6758 -1.7245 -0.8967
14307SOL    HW244363   6.408   1.104   0.276 -0.3384  0.2784 -0.6741
14308SOL     OW44364   5.693   3.062   9.753 -0.1085 -0.2283  0.2218
14308SOL    HW144365   5.631   3.100   9.816 -0.7150 -0.1334 -0.4135
14308SOL    HW244366   5.750   3.135   9.729  0.7175 -0.4859  1.3448
14309SOL     OW44367   7.049   5.149   1.428  0.6214  0.9811 -0.3424
14309SOL    HW144368   7.076   5.211   1.361  0.5147  0.3219 -1.0106
14309SOL    HW244369   6.998   5.083   1.381  1.6732 -0.2302  0.1438
14310SOL     OW44370   3.609   3.642   0.027 -0.6897  0.5241  0.0741
14310SOL    HW144371   3.551   3.680   0.092 -1.2559  1.0384 -0.7148
14310SOL    HW244372   3.551   3.607  -0.041 -0.0943  1.2584 -0.8423
14311SOL     OW44373   3.094   1.644   9.388  0.2555  0.1965  0.5728
14311SOL    HW144374   3.127   1.563   9.349  0.7705 -0.4394  2.2591
14311SOL    HW244375   3.005   1.652   9.355 -0.5061 -2.1048  1.8965
14312SOL     OW44376   5.925   2.809  11.757  0.0284 -0.0109 -0.6244
14312SOL    HW144377   5.852   2.835  11.813  0.9028  1.1060  0.0371
14312SOL    HW244378   5.985   2.762  11.815  2.0470  3.1146  0.0593
14313SOL     OW44379   3.066   2.725  12.011  0.1217 -0.2322 -0.3950
14313SOL    HW144380   2.997   2.691  12.069 -1.0240  0.6808 -1.1626
14313SOL    HW244381   3.073   2.817  12.033 -0.9977  0.3645 -2.2503
14314SOL     OW44382   7.789   2.884  10.427  0.1213  0.0835  0.1393
14314SOL    HW144383   7.733   2.909  10.353  1.5090  1.8537 -0.3882
14314SOL    HW244384   7.849   2.818  10.389 -0.6733 -0.7793  0.3442
14315SOL     OW44385   5.440   3.298  11.686  0.5106  0.0362  0.5689
14315SOL    HW144386   5.456   3.208  11.715  0.1951  0.0039  0.6475
14315SOL    HW244387   5.436   3.349  11.766 -1.6862 -0.2568  0.7306
14316SOL     OW44388   4.952   3.670   0.043 -0.5314 -0.3266  0.2188
14316SOL    HW144389   4.991   3.674   0.130 -2.5787  0.0307  1.1860
14316SOL    HW244390   4.895   3.747   0.038 -1.1179 -0.8119 -1.0783
14317SOL     OW44391   4.535   3.336  11.787  0.2443 -0.2363  0.9126
14317SOL    HW144392   4.604   3.384  11.833  1.4748  0.4357 -1.4539
14317SOL    HW244393   4.568   3.246  11.780  1.3315  0.2342 -0.8342
14318SOL     OW44394   3.569   1.785   0.505 -0.3459  0.1903  0.7881
14318SOL    HW144395   3.586   1.879   0.504  0.0304  0.1259  0.0537
14318SOL    HW244396   3.580   1.759   0.596  1.2303  0.5764  0.7482
14319SOL     OW44397   5.889   2.547  10.599  0.0055 -0.0578  0.2658
14319SOL    HW144398   5.799   2.551  10.631 -0.2847  3.5300 -0.5758
14319SOL    HW244399   5.885   2.485  10.526 -1.7127 -0.2253  0.4515
14320SOL     OW44400   3.581   1.686   0.773 -0.0348 -0.0312 -0.2901
14320SOL    HW144401   3.609   1.595   0.780 -0.0363 -0.0585 -0.6442
14320SOL    HW244402   3.493   1.686   0.811  0.2408 -0.0377  0.3672
14321SOL     OW44403   4.245   2.218  11.475  0.3666 -0.3955  0.5153
14321SOL    HW144404   4.276   2.205  11.564 -2.6993  1.2592  1.9992
14321SOL    HW244405   4.196   2.300  11.479  1.4078  0.5566 -3.1129
14322SOL     OW44406   5.337   4.266  11.103  0.2243 -0.5953 -0.2017
14322SOL    HW144407   5.248   4.298  11.122  0.7345  0.4130  0.5777
14322SOL    HW244408   5.323   4.186  11.052 -1.1176 -0.0007 -0.8059
14323SOL     OW44409   5.835   4.291   0.389  0.1588 -0.2000  0.4928
14323SOL    HW144410   5.757   4.328   0.432 -0.1801 -0.5398  0.1773
14323SOL    HW244411   5.807   4.204   0.360  0.0230  0.4551 -1.4413
14324SOL     OW44412   5.669   2.702  12.439  0.5105  0.5660 -0.2010
14324SOL    HW144413   5.607   2.748  12.495  1.0619  2.1617 -0.8577
14324SOL    HW244414   5.642   2.722  12.350 -1.8374 -3.8984 -0.7771
14325SOL     OW44415   6.660   4.175   0.797  0.2617  1.2145  0.2770
14325SOL    HW144416   6.724   4.104   0.796 -1.8431 -0.9650  2.9629
14325SOL    HW244417   6.621   4.175   0.709  1.1865 -0.0760 -0.1510
14326SOL     OW44418   7.465   3.755  11.841  0.6569  0.8095 -0.0884
14326SOL    HW144419   7.499   3.700  11.770  1.0457 -0.3643  0.9752
14326SOL    HW244420   7.440   3.836  11.798  0.0144 -0.2074 -1.7317
14327SOL     OW44421   4.714   2.589  10.985 -0.3743 -0.1001 -0.1582
14327SOL    HW144422   4.764   2.508  10.972 -1.6437 -1.2148  1.5343
14327SOL    HW244423   4.781   2.658  10.985  1.3290 -1.5716  2.5349
14328SOL     OW44424   4.194   2.828  11.675 -0.0654  0.4142 -0.3825
14328SOL    HW144425   4.207   2.863  11.763  1.6150 -0.4106 -0.2563
14328SOL    HW244426   4.117   2.772  11.682 -0.7853  1.4407  0.2034
14329SOL     OW44427   3.211   2.364  11.805 -0.0855  0.2757  0.1267
14329SOL    HW144428   3.289   2.413  11.779 -0.3982  1.3634  1.1988
14329SOL    HW244429   3.237   2.318  11.885 -0.2706 -0.1242 -0.0361
14330SOL     OW44430   4.544   3.654  11.371  0.2770 -0.1901 -0.0768
14330SOL    HW144431   4.489   3.675  11.295 -1.1517 -0.8210  0.7386
14330SOL    HW244432   4.599   3.581  11.342 -0.6746 -0.8204 -0.3534
14331SOL     OW44433   4.904   5.021  12.257  0.0907 -0.0857 -0.4320
14331SOL    HW144434   4.845   4.988  12.190 -0.5724 -0.4651  0.3159
14331SOL    HW244435   4.962   5.081  12.211 -0.7051  0.0874 -1.2394
14332SOL     OW44436   7.062   2.989  11.251 -0.0712  0.3838 -0.6699
14332SOL    HW144437   7.087   3.036  11.171  2.5214 -1.1212 -0.8758
14332SOL    HW244438   6.991   2.931  11.223 -1.4925  2.1939 -1.0131
14333SOL     OW44439   5.435   2.167  12.369 -0.2836 -0.0312  0.0814
14333SOL    HW144440   5.409   2.258  12.352 -0.4917 -0.0870  0.0970
14333SOL    HW244441   5.367   2.133  12.426 -2.5868 -1.4726 -3.1778
14334SOL     OW44442   5.161   1.832  11.911  0.5550  0.3462  0.0472
14334SOL    HW144443   5.160   1.749  11.863 -0.4758  1.1276 -1.3568
14334SOL    HW244444   5.117   1.814  11.993  0.9061 -0.6360  0.0270
14335SOL     OW44445   5.986   1.436   1.513 -0.1652 -0.4244 -0.1668
14335SOL    HW144446   5.899   1.425   1.475 -0.7479  0.4152  0.8690
14335SOL    HW244447   6.012   1.524   1.487  0.0702 -0.4112  0.1127
14336SOL     OW44448   4.320   3.370  11.446 -0.6572 -0.0944 -0.1796
14336SOL    HW144449   4.329   3.281  11.480 -1.3299  0.1900  0.7800
14336SOL    HW244450   4.299   3.423  11.522 -0.7270  0.8209 -0.8151
14337SOL     OW44451   3.325   2.946   0.439 -0.1775  0.2997 -0.0436
14337SOL    HW144452   3.333   2.952   0.344 -0.7132 -0.5108 -0.1490
14337SOL    HW244453   3.273   3.023   0.463  0.3281  0.7459 -0.3475
14338SOL     OW44454   5.943   2.551   0.307 -0.2953  0.1497 -0.2568
14338SOL    HW144455   5.982   2.471   0.340 -0.6489  0.1064  0.0539
14338SOL    HW244456   5.961   2.549   0.213 -0.4582 -0.3816 -0.2802
14339SOL     OW44457   5.242   2.367  12.288 -0.4711  0.1074 -0.0520
14339SOL    HW144458   5.200   2.281  12.287  0.6173 -0.4439 -0.8569
14339SOL    HW244459   5.214   2.407  12.370 -0.7734 -1.1319  0.4710
14340SOL     OW44460   5.383   5.756   1.090  0.0845 -0.3840  0.2124
14340SOL    HW144461   5.353   5.666   1.096  2.8069 -1.4015 -0.0799
14340SOL    HW244462   5.454   5.754   1.026 -0.9305  2.3460 -1.1722
14341SOL     OW44463   2.588   2.201  10.116 -0.6257 -0.2211  0.8764
14341SOL    HW144464   2.541   2.219  10.197 -0.6889 -1.6991  1.1958
14341SOL    HW244465   2.680   2.202  10.140 -0.5092  1.5233  0.4869
14342SOL     OW44466   5.018   1.488   0.391 -0.4422  0.4170 -0.0992
14342SOL    HW144467   5.085   1.519   0.451  0.0814  2.2798 -1.5645
14342SOL    HW244468   4.969   1.566   0.366 -2.6207 -0.7453  0.2043
14343SOL     OW44469   4.392   2.826  11.266 -0.3366 -0.2035  0.1316
14343SOL    HW144470   4.429   2.761  11.326 -0.5714  0.4987  1.0504
14343SOL    HW244471   4.435   2.908  11.290 -0.0885  0.0176 -0.9775
14344SOL     OW44472   6.157   4.948  11.006 -0.1144  0.1284 -0.0508
14344SOL    HW144473   6.229   4.919  10.951 -0.5686  0.5292 -0.8705
14344SOL    HW244474   6.135   5.035  10.973 -1.3403 -0.2147 -0.1711
14345SOL     OW44475   4.925   3.441  12.401  0.3972 -0.0550 -0.2968
14345SOL    HW144476   4.909   3.467  12.310 -1.5061  0.0879  0.0333
14345SOL    HW244477   4.916   3.522  12.451  1.3575 -0.1480  0.0421
14346SOL     OW44478   6.867   2.830  11.160  0.0514 -0.0099 -0.1377
14346SOL    HW144479   6.793   2.770  11.163 -0.0485  0.1446  0.8097
14346SOL    HW244480   6.831   2.911  11.125 -0.2602  0.0854  0.3844
14347SOL     OW44481   5.134   3.169  12.038  0.1580 -0.3558 -0.4717
14347SOL    HW144482   5.043   3.198  12.031 -0.6820 -2.3258  1.2209
14347SOL    HW244483   5.160   3.150  11.948 -0.8879  0.7826 -1.0487
14348SOL     OW44484   7.462   3.009  11.963 -0.5004 -0.8878 -0.3931
14348SOL    HW144485   7.449   2.948  12.035 -0.3613  0.2260  0.6069
14348SOL    HW244486   7.376   3.051  11.952 -0.0655  0.2878  0.4224
14349SOL     OW44487   5.043   2.745  11.255 -0.4002 -0.3338  0.1213
14349SOL    HW144488   4.979   2.733  11.184 -2.3078 -4.8977  2.2399
14349SOL    HW244489   4.989   2.762  11.333  1.4680  1.4404  1.1362
14350SOL     OW44490   5.374   1.577  11.516 -0.0778  0.1476  0.4405
14350SOL    HW144491   5.298   1.581  11.458  0.4360  0.2559 -0.2485
14350SOL    HW244492   5.363   1.650  11.576 -0.4298  0.2675  0.2298
14351SOL     OW44493   5.728   3.341  11.415 -0.6202 -0.1667 -0.4953
14351SOL    HW144494   5.796   3.399  11.382 -0.0612 -0.8201 -0.5034
14351SOL    HW244495   5.676   3.396  11.474  2.0842 -0.4891  2.4628
14352SOL     OW44496   4.676   3.472  11.970  0.6834  0.2998  0.1087
14352SOL    HW144497   4.650   3.564  11.977  2.5299  1.0570 -1.8106
14352SOL    HW244498   4.728   3.455  12.049 -0.4915  0.5708  0.9635
14353SOL     OW44499   3.633   3.759  11.411 -0.0074 -0.7588  0.1498
14353SOL    HW144500   3.571   3.830  11.396  0.9505 -0.4696 -3.5427
14353SOL    HW244501   3.710   3.802  11.450 -0.0819 -0.0549 -0.4576
14354SOL     OW44502   3.812   4.044   0.266  0.3510 -0.2325 -0.5725
14354SOL    HW144503   3.822   4.139   0.264  0.9148 -0.2674  0.1480
14354SOL    HW244504   3.841   4.014   0.180  1.0487  0.1673 -0.4771
14355SOL     OW44505   5.238   4.639   0.227 -0.1423 -0.2961  0.3695
14355SOL    HW144506   5.190   4.577   0.172 -1.8761 -0.4536  1.9368
14355SOL    HW244507   5.171   4.677   0.283  0.8787  2.8904 -0.3638
14356SOL     OW44508   3.927   4.906   1.494  0.4003  0.1091 -0.1049
14356SOL    HW144509   3.871   4.889   1.419  0.1111 -0.7150  0.2819
14356SOL    HW244510   4.014   4.921   1.456 -0.3588  3.1618 -0.8414
14357SOL     OW44511   5.643   5.263   0.949  0.4946  0.3730 -0.2167
14357SOL    HW144512   5.663   5.326   1.019 -1.9707 -1.9259  2.8415
14357SOL    HW244513   5.569   5.301   0.902  0.9027  1.0449 -0.3261
14358SOL     OW44514   4.818   4.463   0.966  0.0830  0.1254  0.4584
14358SOL    HW144515   4.800   4.372   0.942  2.7353 -0.5354  0.6401
14358SOL    HW244516   4.776   4.515   0.897  1.0756 -1.3969 -1.3697
14359SOL     OW44517   7.418   3.023  11.616 -0.5076  0.1767  0.1793
14359SOL    HW144518   7.394   3.115  11.613  1.4856  0.7808  0.8306
14359SOL    HW244519   7.396   2.996  11.706 -0.2497  0.2858  0.2772
14360SOL     OW44520   5.040   3.070   1.422  0.2371  0.2769 -0.2893
14360SOL    HW144521   5.062   3.135   1.488  1.6045 -0.1884 -0.2702
14360SOL    HW244522   5.063   3.111   1.338  0.0367  0.2399 -0.3648
14361SOL     OW44523   4.683   4.760   1.601  0.2207  0.1748  0.1133
14361SOL    HW144524   4.683   4.684   1.541 -0.5419 -0.0858  0.4280
14361SOL    HW244525   4.636   4.729   1.678 -0.7131  1.1793 -0.0292
14362SOL     OW44526   4.519   4.453   1.976 -0.3068  0.3466  0.4914
14362SOL    HW144527   4.551   4.462   2.066 -1.1058  0.7456  0.7408
14362SOL    HW244528   4.449   4.389   1.981  1.3939 -1.6894 -0.3135
14363SOL     OW44529   4.024   3.926   1.329 -0.4275 -0.3710  0.0115
14363SOL    HW144530   4.069   3.963   1.405  0.5783 -1.0012 -0.2525
14363SOL    HW244531   4.072   3.960   1.254 -0.8411 -0.4953 -0.3130
14364SOL     OW44532   2.665   5.102   1.250  0.2436 -0.0794 -0.0343
14364SOL    HW144533   2.760   5.098   1.260  0.4455  2.3913 -0.2275
14364SOL    HW244534   2.652   5.162   1.177 -1.4730 -0.1257  0.2051
14365SOL     OW44535   4.207   4.354   2.981 -0.2441 -0.1008  0.0052
14365SOL    HW144536   4.272   4.291   2.950  0.1244  0.2285  0.1106
14365SOL    HW244537   4.217   4.429   2.923 -1.5418 -0.6170 -0.9267
14366SOL     OW44538   4.454   4.032   1.277 -0.7464 -0.0526 -0.3753
14366SOL    HW144539   4.527   4.050   1.218 -0.9638  1.2431 -0.2688
14366SOL    HW244540   4.385   3.998   1.220 -0.9708  1.2221 -0.9053
14367SOL     OW44541   5.976   4.065  11.669 -0.3233 -0.3212  0.1073
14367SOL    HW144542   5.958   4.143  11.616 -0.7656 -0.1808  0.4556
14367SOL    HW244543   5.889   4.026  11.685 -0.0591 -1.2042 -0.5415
14368SOL     OW44544   4.144   6.092   3.450 -0.2855 -0.0897  0.1445
14368SOL    HW144545   4.068   6.044   3.482 -1.8923  0.6016 -2.3646
14368SOL    HW244546   4.216   6.028   3.453 -1.2287 -1.1535  1.3138
14369SOL     OW44547   4.926   5.301   1.036  0.5110  0.5988  0.1908
14369SOL    HW144548   4.859   5.370   1.026  0.5891  0.5480 -0.7862
14369SOL    HW244549   4.898   5.232   0.976  0.5410 -0.1524  1.0215
14370SOL     OW44550   3.033   4.153   1.348  0.2928  0.2494 -0.3879
14370SOL    HW144551   3.078   4.165   1.265 -1.4849 -1.6697 -1.7537
14370SOL    HW244552   3.068   4.071   1.383 -0.6987 -0.2641 -0.5379
14371SOL     OW44553   3.568   4.293   1.254 -0.7745 -0.8321  0.9394
14371SOL    HW144554   3.623   4.366   1.282  0.2468 -0.4407 -1.8249
14371SOL    HW244555   3.509   4.330   1.189  0.8091 -2.6172 -1.7241
14372SOL     OW44556   3.284   5.759   0.851 -0.9204  0.1670 -0.5515
14372SOL    HW144557   3.316   5.791   0.767 -1.4221  3.9891  0.5376
14372SOL    HW244558   3.362   5.752   0.906 -0.8042 -0.6997 -0.8042
14373SOL     OW44559   4.821   5.299   2.571  0.3948 -0.6174  0.6655
14373SOL    HW144560   4.824   5.334   2.660  0.4726 -0.6518  0.6766
14373SOL    HW244561   4.846   5.372   2.515  0.4603 -0.6280  0.6809
14374SOL     OW44562   4.880   4.863   1.888  0.2181  0.0725  0.0264
14374SOL    HW144563   4.835   4.783   1.915 -0.7421  0.8872  0.9339
14374SOL    HW244564   4.830   4.895   1.813  0.5020 -0.0770 -0.2303
14375SOL     OW44565   4.467   4.461   0.889  0.3343  0.5672 -0.0636
14375SOL    HW144566   4.439   4.375   0.857  1.9415 -0.0417  0.0658
14375SOL    HW244567   4.499   4.507   0.811 -0.6064  1.1044 -0.1489
14376SOL     OW44568   6.426   4.988   0.162 -0.0888  0.5405 -0.2153
14376SOL    HW144569   6.436   5.020   0.072 -1.9094 -0.3231 -0.7850
14376SOL    HW244570   6.388   4.901   0.152  0.9922 -0.1588  1.3921
14377SOL     OW44571   1.726   5.211  11.730  0.4407 -0.0503 -0.0946
14377SOL    HW144572   1.655   5.148  11.743  0.0353  0.4166 -0.0220
14377SOL    HW244573   1.758   5.192  11.642 -0.7094  0.6461 -0.6909
14378SOL     OW44574   4.564   3.766   1.082 -0.4344 -0.0701 -0.0391
14378SOL    HW144575   4.513   3.837   1.042  0.2730  0.6870  0.3546
14378SOL    HW244576   4.570   3.699   1.014 -3.2341 -0.8876  0.3934
14379SOL     OW44577   2.495   2.018   2.534  1.2214 -0.1166 -0.3696
14379SOL    HW144578   2.486   1.986   2.624 -0.2039  0.7777 -0.1670
14379SOL    HW244579   2.544   1.949   2.489 -0.3395 -1.8485  0.4549
14380SOL     OW44580   3.935   3.780  12.270  0.0309 -0.2810 -0.6420
14380SOL    HW144581   3.946   3.845  12.200 -0.6020  0.6710  0.1219
14380SOL    HW244582   3.863   3.813  12.323 -0.4974 -1.7658 -0.3886
14381SOL     OW44583   4.851   4.569   2.622  0.1258  0.1373 -0.2567
14381SOL    HW144584   4.900   4.499   2.664  1.0965 -0.1207 -1.7303
14381SOL    HW244585   4.879   4.648   2.668  0.4085 -0.2316  0.2211
14382SOL     OW44586   6.418   4.483   1.900  0.0567 -0.5625  0.0254
14382SOL    HW144587   6.389   4.440   1.981 -0.6020 -0.1075  0.0389
14382SOL    HW244588   6.502   4.521   1.922 -0.0512 -0.5662  0.4584
14383SOL     OW44589   2.809   4.622   2.778 -0.3195  0.2441  0.5987
14383SOL    HW144590   2.795   4.563   2.704  0.9238 -0.4632  0.9079
14383SOL    HW244591   2.902   4.642   2.776 -0.5342  1.3957  1.1101
14384SOL     OW44592   4.186   5.728   0.161  0.5605 -0.3900  0.3351
14384SOL    HW144593   4.128   5.803   0.176  1.1151 -0.2307  1.8891
14384SOL    HW244594   4.268   5.768   0.132 -0.0317 -0.6115 -1.8080
14385SOL     OW44595   4.979   7.268   3.137  0.1894  0.5131 -0.0530
14385SOL    HW144596   4.915   7.269   3.066 -1.2212  1.7826  1.1744
14385SOL    HW244597   5.064   7.259   3.093 -0.7699 -0.8293 -1.7419
14386SOL     OW44598   4.110   3.968   0.693 -0.3092  0.2336 -0.2513
14386SOL    HW144599   4.123   4.019   0.772 -0.1668  0.0445 -0.1514
14386SOL    HW244600   4.056   3.894   0.722 -0.8196  0.5172 -0.4678
14387SOL     OW44601   5.428   5.992   0.877  0.4942  0.1710  0.3054
14387SOL    HW144602   5.398   5.997   0.967  1.4745  1.3758  0.5920
14387SOL    HW244603   5.409   6.078   0.840 -0.9761 -0.6737 -1.0141
14388SOL     OW44604   4.891   6.856   1.745 -0.3863  0.0771  0.0584
14388SOL    HW144605   4.885   6.774   1.793 -1.8796 -0.1333 -0.4112
14388SOL    HW244606   4.919   6.830   1.657 -0.9429  0.0526 -0.1141
14389SOL     OW44607   3.731   4.547   0.526 -0.5890 -0.5710 -0.1763
14389SOL    HW144608   3.711   4.466   0.574 -0.2465 -0.1504  0.6758
14389SOL    HW244609   3.648   4.572   0.486 -0.8010 -1.0991 -0.0738
14390SOL     OW44610   5.537   3.772   0.836  0.1042 -0.0736 -0.6451
14390SOL    HW144611   5.580   3.836   0.892  0.5418 -0.1739 -0.8560
14390SOL    HW244612   5.610   3.723   0.796  0.0028  1.8326 -3.4959
14391SOL     OW44613   3.867   4.992   0.899  0.1720  0.3724  0.0699
14391SOL    HW144614   3.870   4.961   0.808 -0.4030  0.0718  0.1526
14391SOL    HW244615   3.864   5.088   0.891 -0.2573  0.3384 -0.2441
14392SOL     OW44616   3.287   4.458   1.423  0.7187  0.1897  0.3001
14392SOL    HW144617   3.320   4.419   1.342 -2.2077 -1.2197 -0.3639
14392SOL    HW244618   3.257   4.545   1.397  2.3358  0.8472  0.5530
14393SOL     OW44619   6.563   3.919   1.187 -0.3529 -0.7026  0.1580
14393SOL    HW144620   6.554   3.965   1.270  0.3870  0.7417 -0.5065
14393SOL    HW244621   6.511   3.840   1.197 -2.8404  0.9026  0.9432
14394SOL     OW44622   4.009   4.235   1.208  0.1488 -0.5741 -0.4153
14394SOL    HW144623   4.050   4.179   1.142  0.0772 -1.6268  0.4004
14394SOL    HW244624   3.980   4.312   1.159  0.0061 -1.3622 -1.6345
14395SOL     OW44625   4.662   5.514   0.699  0.1615  0.7289  0.1839
14395SOL    HW144626   4.655   5.524   0.794  0.0921 -0.2096  0.2853
14395SOL    HW244627   4.576   5.541   0.666  0.2695  1.3024  0.3624
14396SOL     OW44628   4.517   6.124   0.102  0.3617 -0.4023 -0.3971
14396SOL    HW144629   4.459   6.179   0.155  1.9378  0.3665  0.6140
14396SOL    HW244630   4.459   6.082   0.039 -1.2896  0.2768  0.6021
14397SOL     OW44631   5.113   5.091   1.127  0.4917 -0.0125  0.0711
14397SOL    HW144632   5.047   5.154   1.099  0.0696 -0.0506  0.9517
14397SOL    HW244633   5.180   5.145   1.171  2.4247  0.3870 -3.0654
14398SOL     OW44634   3.167   4.786   2.614 -0.3218  0.5355 -0.2872
14398SOL    HW144635   3.111   4.773   2.690 -0.8856  2.6470 -0.2745
14398SOL    HW244636   3.246   4.827   2.649 -0.7380  1.8670 -0.8312
14399SOL     OW44637   5.390   3.691  11.987  0.1972  0.1858  0.2898
14399SOL    HW144638   5.331   3.759  11.955  0.1756  0.4001  0.7728
14399SOL    HW244639   5.456   3.738  12.037  0.6628 -0.0734 -0.0727
14400SOL     OW44640   5.006   3.596   0.958 -0.0851 -0.5298 -0.2924
14400SOL    HW144641   5.096   3.573   0.981  0.3711  1.2753 -0.1791
14400SOL    HW244642   4.965   3.618   1.041  0.1366  1.1653 -0.6078
14401SOL     OW44643   4.220   4.266  12.232 -0.9512 -0.5328  0.5204
14401SOL    HW144644   4.129   4.285  12.257 -0.8958  2.9861 -1.3241
14401SOL    HW244645   4.271   4.291  12.309 -1.2658  3.3513 -0.3351
14402SOL     OW44646   3.964   2.988   1.463  0.4385  0.2701 -0.2805
14402SOL    HW144647   4.049   2.954   1.493  0.2243  1.1032  1.3909
14402SOL    HW244648   3.986   3.052   1.396  1.1983  0.9737  0.6174
14403SOL     OW44649   4.384   6.085  12.168 -0.2622 -0.0730 -0.2647
14403SOL    HW144650   4.337   6.008  12.200 -0.2610 -0.0307 -0.1613
14403SOL    HW244651   4.474   6.054  12.155 -0.1649  0.0151  0.1701
14404SOL     OW44652   4.462   6.772   0.345  0.1328  0.3927 -0.0384
14404SOL    HW144653   4.435   6.830   0.274 -0.7819  0.2094  0.1508
14404SOL    HW244654   4.381   6.733   0.376  0.6514 -0.3706  0.3792
14405SOL     OW44655   5.630   4.791   0.449  0.0939 -0.3831 -0.2748
14405SOL    HW144656   5.606   4.802   0.541  0.4578  0.1273 -0.2344
14405SOL    HW244657   5.547   4.796   0.402 -0.1757 -1.3084  0.0724
14406SOL     OW44658   4.151   6.772   0.934 -0.1426 -0.0549  0.3818
14406SOL    HW144659   4.155   6.867   0.933 -0.1774 -0.0218  1.5726
14406SOL    HW244660   4.102   6.749   0.855 -2.2112  1.0338  1.2791
14407SOL     OW44661   3.649   5.725  12.436  0.5515  0.3938  0.8523
14407SOL    HW144662   3.680   5.796  12.379  1.2525 -0.6658 -0.1268
14407SOL    HW244663   3.701   5.649  12.410 -1.7705 -1.0785  0.2198
14408SOL     OW44664   4.411   4.989   0.337 -0.6152 -0.3316 -0.2042
14408SOL    HW144665   4.434   4.904   0.375  0.0597  0.1534  0.4996
14408SOL    HW244666   4.443   4.984   0.247 -3.0242 -1.8294 -1.0802
14409SOL     OW44667   1.318   5.805   2.363  0.0810  0.5864 -0.7219
14409SOL    HW144668   1.225   5.786   2.379  0.5032 -1.8457 -0.7060
14409SOL    HW244669   1.351   5.726   2.320  2.3544  1.0249  0.0972
14410SOL     OW44670   5.735   6.066  11.801 -0.4752 -0.5263  0.8504
14410SOL    HW144671   5.819   6.056  11.757 -0.8755 -0.7220  0.1193
14410SOL    HW244672   5.697   6.146  11.764 -0.2027  0.0851  1.8648
14411SOL     OW44673   2.197   3.316   3.018  0.1609  0.7658 -0.2419
14411SOL    HW144674   2.285   3.322   3.056 -0.0347  0.9893  0.1866
14411SOL    HW244675   2.207   3.343   2.927  0.3880  1.5770  0.0240
14412SOL     OW44676   5.067   4.333   0.566  0.6818 -0.0149  0.2120
14412SOL    HW144677   5.158   4.361   0.557  0.0332  2.2410  0.1095
14412SOL    HW244678   5.016   4.406   0.531 -1.2296 -0.3560  2.0804
14413SOL     OW44679   6.798   3.378  11.886 -0.3418 -0.2723 -0.3827
14413SOL    HW144680   6.797   3.349  11.977 -1.0403 -0.8358 -0.5665
14413SOL    HW244681   6.712   3.418  11.872 -0.2429 -0.2013 -0.8065
14414SOL     OW44682   4.697   4.251   1.851 -0.0215  0.0452 -0.4519
14414SOL    HW144683   4.701   4.224   1.943 -0.1510 -0.8064 -0.6840
14414SOL    HW244684   4.651   4.335   1.852 -0.4193 -0.1736  0.2189
14415SOL     OW44685   3.369   5.127   2.135 -0.2050 -0.5527 -0.5225
14415SOL    HW144686   3.410   5.137   2.221  0.8044 -2.0302 -0.7931
14415SOL    HW244687   3.439   5.148   2.073 -1.1315  1.2362 -1.0165
14416SOL     OW44688   4.212   4.830   0.089  0.5034 -0.4943 -0.1510
14416SOL    HW144689   4.305   4.849   0.083  0.7294 -1.4033  0.4349
14416SOL    HW244690   4.206   4.750   0.141 -0.5187 -1.1870 -1.2764
14417SOL     OW44691   5.706   2.867   1.876  0.4513 -0.2015  0.6670
14417SOL    HW144692   5.616   2.900   1.875  0.4159 -0.2866 -0.4565
14417SOL    HW244693   5.741   2.890   1.790  1.0926 -1.2698  0.6178
14418SOL     OW44694   3.904   4.051  11.240  0.2221 -0.2121 -0.2482
14418SOL    HW144695   3.981   4.107  11.239 -1.0333  1.6359 -1.6358
14418SOL    HW244696   3.885   4.037  11.332  0.6769  1.5876  0.1627
14419SOL     OW44697   3.462   5.339   2.665  0.1900 -0.6936 -0.5996
14419SOL    HW144698   3.445   5.432   2.658  1.3176 -0.5691 -2.0034
14419SOL    HW244699   3.396   5.298   2.610  0.0830 -0.6943 -0.4724
14420SOL     OW44700   2.117   5.331   3.793  0.1975  0.1518 -0.3222
14420SOL    HW144701   2.035   5.342   3.841  1.0396  0.5177  1.0986
14420SOL    HW244702   2.096   5.272   3.721 -1.1266 -0.3767  0.4766
14421SOL     OW44703   5.165   3.651   1.478 -0.5634  0.3221 -0.1952
14421SOL    HW144704   5.182   3.578   1.537 -0.8242  0.2292 -0.2324
14421SOL    HW244705   5.079   3.685   1.505 -0.1560  1.0327  0.2488
14422SOL     OW44706   3.283   5.366   0.989 -0.3445 -0.3963  0.3731
14422SOL    HW144707   3.217   5.410   0.935  0.6997  2.2206  1.0781
14422SOL    HW244708   3.300   5.283   0.944 -0.7695  0.8932 -2.3671
14423SOL     OW44709   6.060   4.825  12.050  0.3981 -0.0804 -0.2418
14423SOL    HW144710   6.139   4.808  12.101 -0.0424  1.5280  1.0434
14423SOL    HW244711   6.088   4.814  11.959  1.9261 -0.2015  0.2077
14424SOL     OW44712   6.852   3.466  10.550 -0.5142  0.3855 -0.0686
14424SOL    HW144713   6.900   3.535  10.597 -1.1879 -0.4576  1.9861
14424SOL    HW244714   6.849   3.496  10.460  1.7699  1.6129  0.1954
14425SOL     OW44715   5.879   5.671  12.262  0.2892 -0.2647  0.0141
14425SOL    HW144716   5.909   5.634  12.345  0.3027 -0.6908 -0.1772
14425SOL    HW244717   5.900   5.764  12.268 -0.6652 -0.0847  0.9237
14426SOL     OW44718   3.039   4.299   0.819  0.2879 -0.2878  0.6502
14426SOL    HW144719   3.118   4.269   0.775 -0.0322 -0.9302  0.4989
14426SOL    HW244720   3.010   4.375   0.769 -0.6496 -1.6130 -0.9161
14427SOL     OW44721   5.721   4.545  12.225  0.3762  0.2135 -0.4737
14427SOL    HW144722   5.637   4.566  12.266  0.7161  0.8609 -0.0966
14427SOL    HW244723   5.700   4.533  12.132  0.2149  2.7426 -0.8247
14428SOL     OW44724   4.729   2.471   2.083  0.1616  1.1630  0.4366
14428SOL    HW144725   4.656   2.409   2.091  0.8797  0.2974  0.4586
14428SOL    HW244726   4.807   2.418   2.098  0.8006  2.0825  0.4436
14429SOL     OW44727   3.770   5.863   0.658  0.5943  0.1783  0.2162
14429SOL    HW144728   3.750   5.781   0.613 -0.3789  1.5625 -2.0402
14429SOL    HW244729   3.757   5.843   0.751  1.3498 -2.4568 -0.1556
14430SOL     OW44730   3.689   4.269   0.612 -0.1222  0.3785 -0.6589
14430SOL    HW144731   3.651   4.189   0.576 -1.1526  1.0203 -1.0389
14430SOL    HW244732   3.769   4.240   0.655 -0.7557 -0.9367 -0.3089
14431SOL     OW44733   6.280   3.628  11.815 -0.4562 -0.2334 -0.0873
14431SOL    HW144734   6.279   3.605  11.723 -1.5773 -0.1484 -0.1048
14431SOL    HW244735   6.272   3.545  11.862 -2.3823 -0.1177 -0.1248
14432SOL     OW44736   3.184   2.163   0.960 -0.3497 -0.1334 -0.3671
14432SOL    HW144737   3.249   2.230   0.983  0.0348 -0.4814 -0.4356
14432SOL    HW244738   3.205   2.089   1.017  0.2823 -0.8057 -1.4486
14433SOL     OW44739   4.363   5.002  11.962  0.4082 -0.0302  0.6579
14433SOL    HW144740   4.340   4.948  11.886  0.3267  1.0002 -0.0765
14433SOL    HW244741   4.355   4.943  12.037 -0.5654 -0.7940 -0.0186
14434SOL     OW44742   5.849   2.905   0.904 -0.0457  0.0269 -0.3225
14434SOL    HW144743   5.872   2.891   0.996 -1.7548  1.5053  0.3776
14434SOL    HW244744   5.756   2.925   0.905  0.1622  1.3384 -2.2502
14435SOL     OW44745   4.812   5.844   0.844 -0.1659  0.0224 -0.2269
14435SOL    HW144746   4.793   5.879   0.931  1.3982  0.5965 -0.0788
14435SOL    HW244747   4.771   5.907   0.784  0.2175  0.5738  0.0791
14436SOL     OW44748   5.336   2.862   2.962  0.4155 -0.5139 -0.1563
14436SOL    HW144749   5.332   2.913   2.881 -0.1921  0.2309  0.3191
14436SOL    HW244750   5.317   2.926   3.031  0.9122 -1.1379  0.5705
14437SOL     OW44751   5.186   4.603   2.013  0.3555  0.4117  0.3040
14437SOL    HW144752   5.272   4.585   1.976  1.1152  2.3375  1.0495
14437SOL    HW244753   5.126   4.590   1.939  1.4547  0.6859 -0.6746
14438SOL     OW44754   4.878   3.875   0.385 -0.7195  0.3724 -0.4522
14438SOL    HW144755   4.922   3.807   0.336 -0.7775  0.9854 -1.3745
14438SOL    HW244756   4.939   3.948   0.386 -1.8311  1.3938 -2.1270
14439SOL     OW44757   5.656   3.969   0.964  0.9532  0.3930 -0.1094
14439SOL    HW144758   5.622   4.057   0.950 -0.7903 -0.2740 -0.3918
14439SOL    HW244759   5.711   3.976   1.042 -0.6944  1.3858  1.0204
14440SOL     OW44760   4.090   3.392   0.889 -0.2597 -0.1836 -0.0163
14440SOL    HW144761   4.031   3.446   0.943 -0.3871 -0.2493 -0.0887
14440SOL    HW244762   4.143   3.455   0.841  0.7502 -0.1101  1.1423
14441SOL     OW44763   4.323   4.459   2.446  0.4041 -0.2592  0.3236
14441SOL    HW144764   4.346   4.488   2.358 -3.5494  0.6911 -0.6140
14441SOL    HW244765   4.307   4.365   2.438 -0.3138 -0.1088 -0.1139
14442SOL     OW44766   4.554   6.426   0.825 -0.3701 -0.1077 -0.2394
14442SOL    HW144767   4.618   6.458   0.761  2.1331  0.7039  2.4728
14442SOL    HW244768   4.551   6.494   0.893 -2.4680 -1.1806  0.8602
14443SOL     OW44769   5.481   6.033   0.299  0.2183  0.1170  0.4555
14443SOL    HW144770   5.531   6.031   0.381 -2.0857 -0.5418  1.9514
14443SOL    HW244771   5.401   6.080   0.322 -1.2834 -1.6247 -0.9017
14444SOL     OW44772   6.023   3.597   1.114  0.3175  0.5835  0.1969
14444SOL    HW144773   5.958   3.541   1.072  1.0966 -0.7454  0.6977
14444SOL    HW244774   6.071   3.636   1.041  0.0246  0.2797 -0.1603
14445SOL     OW44775   5.114   4.210   1.068  0.0688 -0.3871  0.2079
14445SOL    HW144776   5.068   4.196   1.151 -0.4808  0.8349  0.1369
14445SOL    HW244777   5.199   4.168   1.080  0.3711  0.5900  1.7671
14446SOL     OW44778   3.612   4.681   1.233  0.0100 -0.1960  0.0895
14446SOL    HW144779   3.627   4.731   1.153 -0.3765 -0.1790  0.0304
14446SOL    HW244780   3.517   4.673   1.240  0.0593 -0.8188  0.1631
14447SOL     OW44781   3.782   4.033  12.121  0.4511  0.1681 -0.3310
14447SOL    HW144782   3.841   3.974  12.075  0.1679  0.7981 -1.5559
14447SOL    HW244783   3.729   4.073  12.052 -1.2501 -0.1792  0.6942
14448SOL     OW44784   5.011   4.739   0.931  0.1044 -0.4621  0.0440
14448SOL    HW144785   4.980   4.707   0.847 -0.2512 -0.4167  0.1556
14448SOL    HW244786   5.085   4.683   0.953 -0.1952 -0.8754 -0.0031
14449SOL     OW44787   5.010   3.987   2.429 -0.3781 -0.4118 -0.3833
14449SOL    HW144788   4.956   4.003   2.351  0.5508 -0.4144 -1.0449
14449SOL    HW244789   5.079   3.928   2.399  0.8654  0.7657  0.0476
14450SOL     OW44790   2.943   4.477   0.623 -0.4951 -0.4090 -0.1408
14450SOL    HW144791   2.870   4.518   0.577 -0.6981 -1.5425 -0.8497
14450SOL    HW244792   2.949   4.389   0.586  0.3920 -0.7823  0.8409
14451SOL     OW44793   2.733   3.780   1.836 -0.7792 -0.4341 -0.3528
14451SOL    HW144794   2.765   3.750   1.751  0.2343  1.1097 -0.5565
14451SOL    HW244795   2.811   3.813   1.881 -1.5544  0.2293  0.5487
14452SOL     OW44796   5.610   4.018   0.604  0.4216 -0.1027 -0.2011
14452SOL    HW144797   5.602   4.079   0.530 -0.2049 -0.9030 -0.8256
14452SOL    HW244798   5.702   4.020   0.627  0.7262 -0.1879 -1.3295
14453SOL     OW44799   4.830   6.023   0.608 -0.1514 -0.3248  0.2697
14453SOL    HW144800   4.773   5.978   0.546  1.4100 -2.2233  0.0756
14453SOL    HW244801   4.835   6.113   0.577  0.5719 -1.2062 -2.4241
14454SOL     OW44802   4.306   6.297   2.114 -0.2645 -0.3169 -0.2759
14454SOL    HW144803   4.249   6.368   2.142  0.2226  0.0770 -0.2631
14454SOL    HW244804   4.319   6.243   2.192 -0.6862 -0.4544 -0.3015
14455SOL     OW44805   7.015   3.390   0.983  0.6197 -0.2946  0.1574
14455SOL    HW144806   6.976   3.434   0.907  0.3383 -0.8136 -0.0018
14455SOL    HW244807   6.941   3.344   1.024  0.4467  1.1690  1.6023
14456SOL     OW44808   2.070   5.911   1.075  0.4125  0.2182  0.4510
14456SOL    HW144809   2.105   5.919   1.164 -1.6531 -0.5339  1.3895
14456SOL    HW244810   1.976   5.902   1.087  0.2391 -1.6430 -1.7291
14457SOL     OW44811   4.603   5.794   2.145  0.0839  0.4149  0.5596
14457SOL    HW144812   4.648   5.873   2.116  0.9209  0.1634  1.1544
14457SOL    HW244813   4.582   5.810   2.237  1.9498 -0.7813  1.2386
14458SOL     OW44814   6.041   4.302   2.655 -0.3390  0.4006 -0.1274
14458SOL    HW144815   5.978   4.374   2.650  0.7753  1.3738 -0.6114
14458SOL    HW244816   6.079   4.309   2.742 -1.2340 -0.5043  0.3575
14459SOL     OW44817   3.544   3.338   1.729  0.3856  0.2611  0.4015
14459SOL    HW144818   3.518   3.311   1.817 -1.9209 -1.5736 -0.7389
14459SOL    HW244819   3.625   3.288   1.712  1.1131  0.9810  1.5905
14460SOL     OW44820   2.960   1.812   2.804 -0.2288  0.3873  0.1872
14460SOL    HW144821   2.900   1.737   2.796 -0.4650  0.5087  0.8364
14460SOL    HW244822   3.044   1.777   2.773 -0.5768  0.1584 -0.5342
14461SOL     OW44823   4.203   3.723   1.045  0.2260  0.5395 -0.2952
14461SOL    HW144824   4.155   3.805   1.038 -1.7053 -0.4165  0.9675
14461SOL    HW244825   4.241   3.709   0.958 -0.6782  1.9970 -0.9465
14462SOL     OW44826   4.572   4.248   1.049  0.4426  0.2092  0.4730
14462SOL    HW144827   4.523   4.323   1.014  0.1933  0.2346  0.8697
14462SOL    HW244828   4.591   4.194   0.973  1.3191  1.0765  0.0601
14463SOL     OW44829   6.515   3.499   0.421  0.4203 -0.4412 -0.4318
14463SOL    HW144830   6.432   3.522   0.380  0.4947  0.0696 -0.3079
14463SOL    HW244831   6.557   3.440   0.359 -0.5107 -1.5928 -0.0112
14464SOL     OW44832   4.675   5.113   1.577  0.3626 -0.4048  0.0771
14464SOL    HW144833   4.688   5.191   1.523 -0.9660  0.8376  1.4437
14464SOL    HW244834   4.747   5.116   1.641  0.1604 -0.1405  0.2942
14465SOL     OW44835   1.195   4.368   0.595  0.0230 -0.2065  0.3448
14465SOL    HW144836   1.195   4.290   0.539 -2.7738 -0.3631  0.3813
14465SOL    HW244837   1.157   4.436   0.539  1.7482  0.9869  0.5546
14466SOL     OW44838   4.413   4.277  12.455 -0.0011 -0.6662  0.6192
14466SOL    HW144839   4.389   4.348  12.514 -0.4551 -0.4451  0.1734
14466SOL    HW244840   4.436   4.205  12.514  0.6738 -0.0914  1.0711
14467SOL     OW44841   5.352   5.763   3.052  0.1879 -0.0729 -0.3214
14467SOL    HW144842   5.442   5.784   3.028 -0.4365  1.4700 -1.4158
14467SOL    HW244843   5.299   5.830   3.011 -1.4536 -0.6852  0.6792
14468SOL     OW44844   6.523   4.018   0.079  0.4631  0.1429 -0.2503
14468SOL    HW144845   6.609   3.998   0.042 -1.0458 -2.5813 -2.7555
14468SOL    HW244846   6.488   4.087   0.022  0.3888  0.0864 -0.2747
14469SOL     OW44847   5.295   4.557   0.949  0.1204 -0.0334 -0.1276
14469SOL    HW144848   5.300   4.493   0.878 -2.6055  0.6601 -1.0640
14469SOL    HW244849   5.223   4.526   1.004  0.7912  0.5971  1.1454
14470SOL     OW44850   5.319   4.977   0.621 -0.1185 -0.5347 -0.4522
14470SOL    HW144851   5.291   5.003   0.709  1.2468 -2.2187  0.5520
14470SOL    HW244852   5.319   4.881   0.623 -0.1353 -0.6145 -2.3365
14471SOL     OW44853   5.137   5.920   0.258 -0.6510 -0.0312  0.7000
14471SOL    HW144854   5.184   6.003   0.245 -2.6255  0.9543 -0.7344
14471SOL    HW244855   5.179   5.859   0.198  0.4575  0.0630  1.3531
14472SOL     OW44856   5.319   5.241   1.593  0.4076  0.3341  0.2167
14472SOL    HW144857   5.394   5.182   1.586 -0.7691 -1.1672 -0.3685
14472SOL    HW244858   5.253   5.190   1.640 -0.8855  0.9045 -0.8992
14473SOL     OW44859   5.060   4.721   2.818 -0.3201  0.1179  0.0195
14473SOL    HW144860   5.120   4.756   2.884 -0.2003 -0.4670  0.2243
14473SOL    HW244861   4.999   4.666   2.867 -0.3116 -0.2175 -0.3410
14474SOL     OW44862   6.271   5.419   0.876  0.3978  0.0729 -0.5540
14474SOL    HW144863   6.270   5.442   0.783 -2.6640  2.4344 -0.0969
14474SOL    HW244864   6.322   5.488   0.917 -1.0263  0.9370 -0.1772
14475SOL     OW44865   5.345   5.114   0.203  0.2037 -0.2674 -0.3015
14475SOL    HW144866   5.402   5.038   0.213  2.0805  1.0985 -0.1505
14475SOL    HW244867   5.384   5.164   0.131 -1.7501 -0.0630 -1.2942
14476SOL     OW44868   3.710   5.929   2.243 -0.0240  0.2897  0.2169
14476SOL    HW144869   3.752   5.972   2.169 -1.6802  1.0128 -0.3332
14476SOL    HW244870   3.694   5.999   2.306 -0.3065  0.0072  0.4627
14477SOL     OW44871   4.133   3.605   0.474 -0.2498  0.2299 -0.0749
14477SOL    HW144872   4.048   3.627   0.438 -0.6084 -0.1550  0.5240
14477SOL    HW244873   4.139   3.510   0.465 -0.1931  0.1723  0.5451
14478SOL     OW44874   6.563   3.913  12.073  0.0129  0.7261  0.0854
14478SOL    HW144875   6.625   3.904  12.145  0.1987  2.4750  0.1936
14478SOL    HW244876   6.614   3.891  11.995  0.6440  1.6375  0.2235
14479SOL     OW44877   5.498   4.401   1.463  0.0042 -0.1877 -0.3750
14479SOL    HW144878   5.451   4.469   1.415  0.0561 -1.0246 -1.6447
14479SOL    HW244879   5.576   4.446   1.496 -1.2772  1.0259  1.1474
14480SOL     OW44880   4.375   2.138   1.723  0.6831 -0.5164  0.5984
14480SOL    HW144881   4.302   2.178   1.769  1.0298 -1.4603  2.0488
14480SOL    HW244882   4.384   2.189   1.643  0.5941  1.7669  1.9554
14481SOL     OW44883   2.425   5.756   1.264 -0.1070 -0.1803  0.9399
14481SOL    HW144884   2.375   5.832   1.294 -0.0679 -0.1781  0.9993
14481SOL    HW244885   2.514   5.789   1.251  0.0749 -0.3723  1.6434
14482SOL     OW44886   3.457   5.118   1.363  0.8369 -0.2433  0.1860
14482SOL    HW144887   3.456   5.204   1.405  1.8045  0.7609 -1.7561
14482SOL    HW244888   3.491   5.059   1.430  1.2358  1.0842  1.1922
14483SOL     OW44889   5.897   5.229   1.478 -0.0646  0.0368  0.3013
14483SOL    HW144890   5.893   5.136   1.452  0.3087 -0.1420  0.8610
14483SOL    HW244891   5.965   5.266   1.422 -0.3173  0.0075 -0.0273
14484SOL     OW44892   2.748   3.592   1.531  0.3569  0.3815  0.2418
14484SOL    HW144893   2.659   3.590   1.564  0.5762 -0.1501  0.8282
14484SOL    HW244894   2.770   3.685   1.524 -0.2490  0.5109  0.0569
14485SOL     OW44895   2.465   4.235   1.303  0.4625  0.1762 -0.3805
14485SOL    HW144896   2.518   4.250   1.226 -0.0253 -1.7127 -1.1515
14485SOL    HW244897   2.395   4.177   1.273 -0.3440  0.2447  1.2482
14486SOL     OW44898   4.277   5.751   2.294  0.4130  0.5954 -0.0650
14486SOL    HW144899   4.224   5.813   2.344 -1.1057  0.8604 -1.8787
14486SOL    HW244900   4.293   5.795   2.210  0.3652 -0.9324 -0.9240
14487SOL     OW44901   3.714   3.847   1.851 -0.3546 -0.1074 -0.1736
14487SOL    HW144902   3.690   3.896   1.930  0.0268  1.7897 -1.1926
14487SOL    HW244903   3.721   3.756   1.881 -2.0076  0.2775  1.5867
14488SOL     OW44904   5.296   3.953  12.109  0.4060 -0.1920  0.5042
14488SOL    HW144905   5.319   4.045  12.096  0.9519 -0.3830  0.0506
14488SOL    HW244906   5.363   3.919  12.169 -0.2489 -0.1069  1.2949
14489SOL     OW44907   4.072   5.459   2.862 -0.0998  0.3677 -0.4246
14489SOL    HW144908   4.100   5.372   2.890 -1.1543 -0.7128 -2.5112
14489SOL    HW244909   4.087   5.515   2.938 -0.8802 -1.9334  1.5305
14490SOL     OW44910   5.605   4.157   1.389 -0.2106  0.3088 -0.2147
14490SOL    HW144911   5.549   4.087   1.423 -0.9819  0.1417 -1.7280
14490SOL    HW244912   5.561   4.238   1.414 -1.8107  0.1829 -2.2799
14491SOL     OW44913   5.364   7.130  11.806 -0.1891  0.5278  0.0622
14491SOL    HW144914   5.392   7.039  11.801 -0.6348  0.4132 -0.3254
14491SOL    HW244915   5.269   7.125  11.821 -0.3418  0.9282 -0.7260
14492SOL     OW44916   2.543   2.963  11.871 -0.0217 -0.2924 -0.6084
14492SOL    HW144917   2.512   2.990  11.784 -1.1428  1.2514  0.2255
14492SOL    HW244918   2.535   3.042  11.924 -2.3607 -1.9155  1.6952
14493SOL     OW44919   3.523   3.609   0.470 -0.1266  0.2995  0.6507
14493SOL    HW144920   3.461   3.678   0.494  2.0403  1.9358  1.9101
14493SOL    HW244921   3.578   3.648   0.403  0.2275 -0.7329  0.3164
14494SOL     OW44922   5.235   5.684   0.807  0.1584 -0.8343 -0.0591
14494SOL    HW144923   5.295   5.741   0.855  0.4203  0.1723 -1.5017
14494SOL    HW244924   5.292   5.618   0.768  0.3667  0.0711 -1.3578
14495SOL     OW44925   5.632   5.412   1.833  0.0569 -0.1674 -0.0308
14495SOL    HW144926   5.546   5.395   1.872  0.4606  0.0453  0.9841
14495SOL    HW244927   5.668   5.325   1.815  0.8113 -0.3769  2.2251
14496SOL     OW44928   4.816   4.513   1.459 -0.1147  0.1722 -0.1417
14496SOL    HW144929   4.890   4.555   1.416  0.2424 -1.0148 -0.7297
14496SOL    HW244930   4.764   4.478   1.387  0.3891 -1.6808  0.3544
14497SOL     OW44931   4.522   5.768   0.996 -0.1098  0.5058 -0.1775
14497SOL    HW144932   4.491   5.787   0.907 -2.0179 -1.5983 -0.0350
14497SOL    HW244933   4.550   5.854   1.030  1.8570  1.2124 -3.1642
14498SOL     OW44934   4.402   4.928   1.170  0.1015 -0.6831  0.2123
14498SOL    HW144935   4.486   4.922   1.215 -0.0807  0.2588  0.7101
14498SOL    HW244936   4.386   5.022   1.162 -1.8897 -0.7662  2.0665
14499SOL     OW44937   3.902   5.774   0.277 -0.6227  0.4207 -0.2149
14499SOL    HW144938   3.958   5.697   0.283  0.2398  1.0018 -0.6009
14499SOL    HW244939   3.963   5.848   0.272 -1.4253  1.2048  0.9607
14500SOL     OW44940   5.050   3.676   0.296 -0.1355  0.3155  0.3607
14500SOL    HW144941   5.013   3.609   0.354  0.5142  0.6054  1.1428
14500SOL    HW244942   5.111   3.725   0.352  0.0709  0.9902 -0.4245
14501SOL     OW44943   6.114   3.226   1.752  0.0514 -0.5125 -0.5904
14501SOL    HW144944   6.068   3.276   1.685 -1.2299 -0.1256  0.5211
14501SOL    HW244945   6.135   3.291   1.820  1.9110 -0.7615 -0.8637
14502SOL     OW44946   5.899   6.910   0.542 -0.0161 -0.0368 -0.8286
14502SOL    HW144947   5.855   6.980   0.493 -1.3625 -0.3769 -0.1477
14502SOL    HW244948   5.858   6.911   0.628  0.2413 -1.3806 -0.6657
14503SOL     OW44949   2.274   4.491   1.518  0.1348 -0.3913  0.0715
14503SOL    HW144950   2.229   4.433   1.580  1.9326  0.0957  1.9209
14503SOL    HW244951   2.210   4.558   1.496 -2.0963 -3.0262 -2.2892
14504SOL     OW44952   3.590   4.036   0.530  0.4615  0.2495 -0.2119
14504SOL    HW144953   3.542   3.994   0.602  0.8064  1.4511  0.7595
14504SOL    HW244954   3.643   3.966   0.492 -0.1625 -0.5334  0.3173
14505SOL     OW44955   4.381   6.111   0.889  0.3699 -0.1015 -0.1065
14505SOL    HW144956   4.311   6.045   0.896 -0.2777  0.6738  0.9690
14505SOL    HW244957   4.360   6.160   0.810 -0.3578  0.1764  0.2527
14506SOL     OW44958   3.178   4.485  11.649 -0.2695  0.3554  0.0875
14506SOL    HW144959   3.264   4.460  11.682 -0.5099 -0.3187  0.2244
14506SOL    HW244960   3.157   4.419  11.583 -0.8790  0.2269  0.3958
14507SOL     OW44961   4.321   0.351   0.274 -0.1211  0.1926 -0.0799
14507SOL    HW144962   4.407   0.311   0.288  0.2912  1.0907  0.0488
14507SOL    HW244963   4.265   0.308   0.339  0.3593 -0.0224  0.2048
14508SOL     OW44964   6.791   2.914   3.633 -0.4061  0.2467  0.8379
14508SOL    HW144965   6.858   2.963   3.681  0.0033 -0.2808  0.8167
14508SOL    HW244966   6.779   2.834   3.684  1.5880 -1.3474 -0.9724
14509SOL     OW44967   4.710   5.491  12.166 -0.3503 -0.3053 -0.0981
14509SOL    HW144968   4.691   5.443  12.247 -0.7325  0.4501  0.2684
14509SOL    HW244969   4.790   5.539  12.184 -0.9023  0.5472  0.1459
14510SOL     OW44970   4.136   4.347   1.465 -0.2862 -0.5095  0.4956
14510SOL    HW144971   4.215   4.298   1.486 -0.7917 -1.4275  0.3102
14510SOL    HW244972   4.113   4.318   1.377  0.7662  1.8930 -0.6656
14511SOL     OW44973   5.430   4.865   0.252  0.9364  0.0315  0.2872
14511SOL    HW144974   5.495   4.859   0.182  0.0669 -0.0086 -0.5424
14511SOL    HW244975   5.374   4.789   0.239 -0.8471  1.4247 -0.6692
14512SOL     OW44976   5.981   5.566   0.692 -0.4546 -0.2823  0.5846
14512SOL    HW144977   5.958   5.473   0.699 -2.7579 -0.0382 -2.0891
14512SOL    HW244978   5.960   5.589   0.602  0.7156  2.7123  0.9754
14513SOL     OW44979   4.008   5.353   1.640  0.1683 -0.2285  0.5682
14513SOL    HW144980   3.931   5.396   1.676  0.0278  0.2449 -0.2653
14513SOL    HW244981   4.035   5.290   1.707 -0.8981 -0.3526  0.8906
14514SOL     OW44982   4.348   5.489   1.368  0.0060  0.0519 -0.0191
14514SOL    HW144983   4.400   5.484   1.288  0.6333 -1.1887  0.4396
14514SOL    HW244984   4.346   5.583   1.389 -1.2133  0.5620 -2.1293
14515SOL     OW44985   4.819   3.297   0.710 -0.1242  0.3027  0.8062
14515SOL    HW144986   4.835   3.251   0.628  0.6278  1.7521  0.0981
14515SOL    HW244987   4.767   3.236   0.762 -1.0267 -0.4807 -0.9241
14516SOL     OW44988   5.096   5.492   1.214  0.1384 -0.1446  0.3021
14516SOL    HW144989   5.188   5.504   1.192  0.4020 -1.8534  0.3418
14516SOL    HW244990   5.063   5.430   1.149 -0.4737 -1.0296  1.4128
14517SOL     OW44991   4.535   5.044   2.227  0.2511  0.7949  0.3990
14517SOL    HW144992   4.611   5.015   2.177  0.1948 -0.0688  0.7983
14517SOL    HW244993   4.561   5.033   2.318 -0.6467 -0.3259  0.5375
14518SOL     OW44994   4.607   5.265   1.951  0.0066 -0.2208  0.1505
14518SOL    HW144995   4.584   5.340   1.895  1.8454 -0.3821 -0.8887
14518SOL    HW244996   4.585   5.294   2.039  0.2139  1.3740 -0.2817
14519SOL     OW44997   5.661   4.206  12.072  0.0176  0.4496  0.0927
14519SOL    HW144998   5.567   4.216  12.088  0.2875  2.7962  0.4971
14519SOL    HW244999   5.670   4.210  11.977 -0.1520  2.2429  0.1190
14520SOL     OW45000   3.022   3.665   1.808  0.6366 -0.8543 -0.1773
14520SOL    HW145001   3.080   3.607   1.758 -0.2077 -1.1411 -0.8358
14520SOL    HW245002   3.044   3.647   1.899  0.7943 -1.7961 -0.3883
14521SOL     OW45003   4.377   5.555   0.692  0.0807 -0.5414 -0.0589
14521SOL    HW145004   4.391   5.587   0.603 -1.4255 -1.7373 -0.7662
14521SOL    HW245005   4.347   5.632   0.740  1.0330  0.1435 -0.5301
14522SOL     OW45006   6.986   5.116   0.913 -0.3194  0.0116  0.3629
14522SOL    HW145007   7.064   5.112   0.967 -0.1254  1.0665  0.1835
14522SOL    HW245008   7.019   5.127   0.823 -0.6612 -0.3280  0.1912
14523SOL     OW45009   3.258   1.920  12.126 -0.3395  0.4038 -0.3893
14523SOL    HW145010   3.318   1.848  12.142  0.8554  1.2155 -1.0779
14523SOL    HW245011   3.172   1.878  12.116  0.0397 -0.7383  0.9208
14524SOL     OW45012   5.024   6.467   1.405  0.0341  0.2874  0.0718
14524SOL    HW145013   5.062   6.437   1.322  0.1918  1.0561 -0.1365
14524SOL    HW245014   4.934   6.433   1.403  0.4730 -0.9570  0.2600
14525SOL     OW45015   4.384   5.441   1.716 -0.2458  0.1964 -0.3385
14525SOL    HW145016   4.451   5.503   1.745 -1.1062  0.7832  0.4426
14525SOL    HW245017   4.304   5.493   1.711 -0.3961 -0.1296 -2.7237
14526SOL     OW45018   5.615   6.643   0.399 -0.5601  0.0447  0.2228
14526SOL    HW145019   5.613   6.640   0.495  0.0779 -2.0328  0.2307
14526SOL    HW245020   5.708   6.646   0.377 -0.7151  0.8977 -0.3355
14527SOL     OW45021   4.302   3.616   1.691  0.1261 -0.1173 -0.4349
14527SOL    HW145022   4.254   3.652   1.766  1.9754  1.9296 -0.1272
14527SOL    HW245023   4.253   3.647   1.615  0.1952  0.8302 -0.1093
14528SOL     OW45024   4.152   5.951   0.868  0.1203 -0.1386  0.0880
14528SOL    HW145025   4.060   5.955   0.844 -0.1047  0.3128  0.9825
14528SOL    HW245026   4.153   5.920   0.958  0.9253 -1.3918 -0.3184
14529SOL     OW45027   4.725   5.569   1.053 -0.1944  0.1101 -0.4571
14529SOL    HW145028   4.673   5.633   1.005 -1.1183  0.1111  0.5023
14529SOL    HW245029   4.660   5.517   1.101  0.6017 -0.9072 -0.4535
14530SOL     OW45030   5.412   4.300  11.832 -0.0903  0.5043  0.5069
14530SOL    HW145031   5.396   4.310  11.925 -1.1873  1.1160  0.2642
14530SOL    HW245032   5.505   4.278  11.826  0.1669  1.1926  1.6881
14531SOL     OW45033   3.532   6.196   1.395  0.2152 -0.3338 -0.0666
14531SOL    HW145034   3.452   6.157   1.358  0.0695  0.2450 -0.3707
14531SOL    HW245035   3.552   6.269   1.336  0.8219 -0.3160  0.1611
14532SOL     OW45036   5.450   4.522   1.935 -0.3014 -0.8538 -0.2192
14532SOL    HW145037   5.517   4.535   1.868 -0.4605 -0.8168 -0.3690
14532SOL    HW245038   5.484   4.450   1.988  0.1261 -0.4724  0.0388
14533SOL     OW45039   5.763   3.579   1.260 -0.3695  0.4649 -0.0611
14533SOL    HW145040   5.744   3.571   1.167 -0.2840  2.2450 -0.2571
14533SOL    HW245041   5.850   3.618   1.264 -0.4848  0.6670  0.7555
14534SOL     OW45042   5.053   5.324   0.726 -0.2443 -0.2046 -0.1656
14534SOL    HW145043   5.136   5.337   0.773 -1.1333  0.2337  1.3578
14534SOL    HW245044   5.030   5.410   0.693 -0.7698 -0.0302  0.6246
14535SOL     OW45045   3.584   5.110   0.929  0.5076 -0.0315  0.3365
14535SOL    HW145046   3.496   5.148   0.937  0.0383 -0.7743 -0.9629
14535SOL    HW245047   3.643   5.183   0.947 -0.3712  0.8470 -0.2014
14536SOL     OW45048   4.149   3.195   1.049 -0.5975  0.4755  0.1278
14536SOL    HW145049   4.129   3.263   0.984  1.5837  0.8131 -0.2651
14536SOL    HW245050   4.236   3.219   1.082  0.1588 -2.0165  0.1192
14537SOL     OW45051   4.627   4.521   0.649  0.3039  0.5958 -0.0886
14537SOL    HW145052   4.686   4.450   0.622  0.7945  1.1860 -0.5900
14537SOL    HW245053   4.686   4.592   0.675 -0.1285  0.1372  2.3934
14538SOL     OW45054   5.848   2.794  12.023  0.0597  0.1598  0.8068
14538SOL    HW145055   5.762   2.809  12.061  0.0270  0.3895  0.6396
14538SOL    HW245056   5.900   2.756  12.095  0.4524  1.9814  1.5303
14539SOL     OW45057   3.962   4.324   2.570  0.2687  0.5458 -0.3908
14539SOL    HW145058   3.997   4.241   2.601  0.4962 -0.2068 -2.5177
14539SOL    HW245059   3.999   4.389   2.629 -0.1702 -0.8574  1.5158
14540SOL     OW45060   4.139   5.115   0.268 -0.0046  0.6051 -0.6697
14540SOL    HW145061   4.178   5.154   0.346 -3.0043 -2.2081  2.5309
14540SOL    HW245062   4.197   5.042   0.246  0.9876  1.5600 -1.4043
14541SOL     OW45063   2.570   5.062   2.708  0.4893  0.1315 -0.0629
14541SOL    HW145064   2.484   5.093   2.736  0.0682 -0.9916 -0.0825
14541SOL    HW245065   2.592   5.119   2.633  0.3006  1.1762  0.6502
14542SOL     OW45066   5.658   4.402   3.234 -0.2724  0.7180  0.3257
14542SOL    HW145067   5.608   4.369   3.309  1.2540  0.3548  1.2073
14542SOL    HW245068   5.635   4.342   3.162  0.5944 -0.8534  1.2960
14543SOL     OW45069   4.305   4.638   0.992  0.1751  0.0346  0.4616
14543SOL    HW145070   4.334   4.692   0.918 -1.5805 -0.0556 -0.3592
14543SOL    HW245071   4.364   4.563   0.992  1.1366  0.7690  0.0999
14544SOL     OW45072   5.681   5.710   1.436  0.1344 -0.2172  0.1047
14544SOL    HW145073   5.706   5.618   1.434  1.1879  0.0482 -0.0121
14544SOL    HW245074   5.753   5.752   1.484  0.1153  0.6602 -0.6071
14545SOL     OW45075   3.960   3.734   0.804  0.0143  0.2291 -0.1530
14545SOL    HW145076   3.955   3.687   0.887  1.3013  0.3405  0.0114
14545SOL    HW245077   3.871   3.730   0.768 -0.0349 -1.8726  0.0922
14546SOL     OW45078   4.683   5.162   1.238  0.2440  0.6441 -0.1578
14546SOL    HW145079   4.768   5.179   1.198  2.2117  0.4137  3.4532
14546SOL    HW245080   4.698   5.085   1.294 -2.0192  1.2164  1.3695
14547SOL     OW45081   4.215   4.857   0.782 -0.0451 -0.3704  0.1977
14547SOL    HW145082   4.220   4.881   0.875  0.9074  1.5111 -0.2966
14547SOL    HW245083   4.304   4.835   0.758 -0.2074 -0.3969 -0.3861
14548SOL     OW45084   4.056   2.590  12.465 -0.0776 -0.1601  0.3993
14548SOL    HW145085   4.032   2.581  12.373 -1.0353 -0.8442  0.6984
14548SOL    HW245086   3.979   2.560  12.513  0.4761  0.0016  1.4275
14549SOL     OW45087   4.785   6.318   0.548 -0.2104 -0.1564  0.3329
14549SOL    HW145088   4.784   6.381   0.620  0.2644  1.2887 -0.8647
14549SOL    HW245089   4.693   6.312   0.520 -0.0982  1.0701 -0.3890
14550SOL     OW45090   4.999   6.208   1.112  0.4730 -0.1659 -0.1833
14550SOL    HW145091   5.063   6.278   1.098  2.7597 -2.4092 -1.9940
14550SOL    HW245092   4.955   6.198   1.028 -1.2110  0.2853  0.6037
14551SOL     OW45093   6.012   3.670  11.623  0.7672 -0.0274  0.4563
14551SOL    HW145094   6.020   3.651  11.717  1.9977  0.8366  0.5403
14551SOL    HW245095   5.917   3.673  11.608  0.5237 -1.5556  1.3679
14552SOL     OW45096   6.756   4.449   0.518  0.0567  0.4375 -0.0497
14552SOL    HW145097   6.731   4.509   0.589  1.4193 -0.4961  1.2763
14552SOL    HW245098   6.816   4.500   0.465 -0.5214  0.9557 -0.2275
14553SOL     OW45099   4.760   6.545   0.697  0.3486 -0.4202 -0.1161
14553SOL    HW145100   4.820   6.585   0.760  0.7611 -1.8807  0.4543
14553SOL    HW245101   4.727   6.619   0.645  3.7297  0.3476 -1.4493
14554SOL     OW45102   3.992   5.673  11.766  0.1361 -0.3707 -0.6590
14554SOL    HW145103   4.071   5.690  11.818  0.2973 -0.6563 -0.8094
14554SOL    HW245104   4.004   5.726  11.688 -0.0692 -0.0025 -0.4428
14555SOL     OW45105   4.234   5.705  11.931  0.0545 -0.1582  0.3917
14555SOL    HW145106   4.216   5.691  12.024 -0.8671 -1.6922  0.0368
14555SOL    HW245107   4.326   5.682  11.920  0.4213  0.9227  1.0609
14556SOL     OW45108   4.684   3.227   2.338  0.3076 -0.0607 -0.0799
14556SOL    HW145109   4.702   3.148   2.288  0.3348  0.2738 -0.6097
14556SOL    HW245110   4.622   3.199   2.405  2.2129 -1.0752  1.3436
14557SOL     OW45111   4.093   4.349   3.298  0.1350  0.0511  0.6911
14557SOL    HW145112   4.056   4.432   3.327 -0.9127 -0.7456  1.7579
14557SOL    HW245113   4.076   4.289   3.371  0.4923 -1.1967 -0.2170
14558SOL     OW45114   4.352   4.108   2.854  0.1672  0.2323  0.5541
14558SOL    HW145115   4.403   4.031   2.878  2.1869  0.5611 -2.2514
14558SOL    HW245116   4.414   4.165   2.809 -2.2728  1.5038 -1.4099
14559SOL     OW45117   3.836   4.399   3.046 -0.1772 -0.1566 -0.1911
14559SOL    HW145118   3.760   4.399   2.989 -0.1080  0.1061 -0.2812
14559SOL    HW245119   3.837   4.485   3.087  0.4781  0.0961 -0.7321
14560SOL     OW45120   5.701   5.564   4.196 -0.7633 -0.3202  0.5863
14560SOL    HW145121   5.760   5.572   4.271 -0.1326  1.9792 -0.0774
14560SOL    HW245122   5.759   5.551   4.121 -1.2463 -0.4294  0.2292
14561SOL     OW45123   4.747   4.184   2.874  0.5631 -0.2182 -0.1014
14561SOL    HW145124   4.750   4.093   2.846 -0.2416 -0.2354 -0.1766
14561SOL    HW245125   4.725   4.181   2.967  1.9299 -0.1290  0.2321
14562SOL     OW45126   4.715   5.893   1.744 -0.2786 -0.8351  0.1246
14562SOL    HW145127   4.794   5.923   1.789 -1.0130  0.1154  0.8158
14562SOL    HW245128   4.649   5.960   1.762 -1.5433 -2.0971  0.3988
14563SOL     OW45129   4.573   4.822   4.284 -0.3603  0.1534  0.3257
14563SOL    HW145130   4.655   4.836   4.332  0.3565 -1.4281 -0.3799
14563SOL    HW245131   4.583   4.736   4.243 -2.3182 -0.0094  0.0885
14564SOL     OW45132   5.861   4.160   2.455 -0.3453 -0.1564  0.0708
14564SOL    HW145133   5.802   4.164   2.531  0.0261  0.1439  0.3444
14564SOL    HW245134   5.947   4.181   2.491  0.1220 -1.6157 -0.1232
14565SOL     OW45135   2.260   4.019   2.523 -0.1855  0.4369 -0.6747
14565SOL    HW145136   2.340   4.003   2.573 -1.8868 -0.5170  1.9465
14565SOL    HW245137   2.233   3.933   2.493 -1.4119  0.4162  0.4417
14566SOL     OW45138   5.015   4.736   4.161 -0.2988  0.4837 -0.4285
14566SOL    HW145139   5.076   4.809   4.154 -0.0721  0.4681  1.0972
14566SOL    HW245140   5.068   4.664   4.196 -1.1787  0.4777  0.9551
14567SOL     OW45141   4.023   3.619   2.489 -0.9514  0.0091  0.3825
14567SOL    HW145142   3.941   3.619   2.537 -0.4775  0.6211  1.2085
14567SOL    HW245143   4.091   3.617   2.556 -0.2812 -0.3052 -0.2845
14568SOL     OW45144   3.714   6.859   1.481  0.5185  0.3312 -0.1479
14568SOL    HW145145   3.764   6.935   1.510  1.9000 -0.8711  0.7983
14568SOL    HW245146   3.775   6.809   1.426  0.4771 -1.2345  1.1373
14569SOL     OW45147   5.039   5.490   3.280 -0.1316 -0.3957 -0.5866
14569SOL    HW145148   5.097   5.503   3.355 -0.2081 -0.1581 -0.5670
14569SOL    HW245149   5.097   5.499   3.204 -0.4702  1.8138 -0.6357
14570SOL     OW45150   4.299   4.184   2.424 -0.3721  0.4635 -0.2618
14570SOL    HW145151   4.274   4.171   2.515 -1.0750  2.9082 -0.0266
14570SOL    HW245152   4.350   4.107   2.401 -0.3841 -0.3155  2.1234
14571SOL     OW45153   4.265   3.588   1.296  0.0478  0.0899  0.2449
14571SOL    HW145154   4.242   3.641   1.220  1.3562  0.6496  0.2060
14571SOL    HW245155   4.200   3.610   1.362 -1.2486 -0.5795 -0.7666
14572SOL     OW45156   3.765   5.282   2.679  0.4785 -0.7877  0.1990
14572SOL    HW145157   3.671   5.299   2.672  0.4189 -0.5305  1.4164
14572SOL    HW245158   3.778   5.261   2.772  1.5440 -1.3283 -0.0642
14573SOL     OW45159   4.738   5.466   0.313 -0.4442 -0.1999 -0.2139
14573SOL    HW145160   4.806   5.494   0.375 -0.6353 -0.1454 -0.0270
14573SOL    HW245161   4.779   5.475   0.227  0.0123 -0.8055 -0.0689
14574SOL     OW45162   4.638   3.400   3.707 -0.0729  0.3884  0.0897
14574SOL    HW145163   4.610   3.342   3.777 -0.1208  0.5657  0.2157
14574SOL    HW245164   4.577   3.382   3.635 -0.1100  0.3100  0.1403
14575SOL     OW45165   4.803   6.022   1.306 -0.3805  0.3765  0.2564
14575SOL    HW145166   4.865   6.045   1.237  0.2178 -1.9228 -0.0404
14575SOL    HW245167   4.726   5.989   1.260  0.5727 -2.5469  0.6045
14576SOL     OW45168   5.565   5.371   1.263  0.2685 -0.3847 -0.4058
14576SOL    HW145169   5.609   5.455   1.248  0.8533 -0.1873  1.9338
14576SOL    HW245170   5.600   5.341   1.347 -0.4298 -2.6666 -0.8618
14577SOL     OW45171   3.738   4.116   2.467 -0.4058  0.6457 -0.0867
14577SOL    HW145172   3.795   4.190   2.444  0.0593  0.1733 -0.4585
14577SOL    HW245173   3.666   4.121   2.404 -1.1383  1.6298  0.7893
14578SOL     OW45174   6.865   5.248   0.585 -0.4579 -0.4727  0.0214
14578SOL    HW145175   6.817   5.167   0.570 -0.4778 -1.2780  3.7089
14578SOL    HW245176   6.957   5.223   0.583 -0.4842 -0.8855  2.2496
14579SOL     OW45177   3.623   7.160   1.079 -0.1575 -0.4085  0.8119
14579SOL    HW145178   3.617   7.088   1.142  0.2889 -1.2941 -0.1238
14579SOL    HW245179   3.557   7.140   1.014 -1.2906  1.0192  1.4641
14580SOL     OW45180   4.704   3.737   1.690  0.5022  0.3513  0.3257
14580SOL    HW145181   4.666   3.782   1.615 -0.9978  0.2606  0.9898
14580SOL    HW245182   4.635   3.739   1.756  0.8689 -1.7631  0.8440
14581SOL     OW45183   3.629   5.006   3.006  0.2623 -0.4280 -0.7103
14581SOL    HW145184   3.633   5.091   3.050  0.7981 -1.4380  1.2876
14581SOL    HW245185   3.584   5.024   2.923  2.0887  2.1430 -1.2396
14582SOL     OW45186   3.919   4.961   3.639 -0.2187 -0.0567  0.2072
14582SOL    HW145187   3.887   5.035   3.692  0.5003 -0.8771  1.8773
14582SOL    HW245188   4.011   4.953   3.664 -0.1366 -1.1294 -0.4144
14583SOL     OW45189   4.671   2.853   1.124 -0.3295  0.7457  0.3145
14583SOL    HW145190   4.606   2.905   1.173 -0.0522  0.2752  1.1999
14583SOL    HW245191   4.743   2.841   1.185 -0.5285 -0.9705  0.2620
14584SOL     OW45192   4.732   4.444   3.189  0.7453 -0.5643  0.1417
14584SOL    HW145193   4.770   4.466   3.274 -1.1280  1.6189  0.5180
14584SOL    HW245194   4.719   4.349   3.193  1.1514 -0.5924  2.0852
14585SOL     OW45195   5.008   5.084   2.161 -0.3518  0.3144  0.4859
14585SOL    HW145196   5.053   5.003   2.139  0.1278  0.2267  1.6965
14585SOL    HW245197   5.055   5.117   2.237 -1.9302  0.5712  1.3919
14586SOL     OW45198   5.539   4.641   3.790 -0.3126  0.0589 -0.1647
14586SOL    HW145199   5.466   4.684   3.835 -0.1210 -0.3974  0.5966
14586SOL    HW245200   5.534   4.674   3.700 -0.6976  0.9978  0.1820
14587SOL     OW45201   3.067   6.499   1.664  0.6707  0.0776  0.6778
14587SOL    HW145202   3.059   6.454   1.749 -0.2433 -2.2426 -0.5453
14587SOL    HW245203   3.088   6.429   1.602  4.1083  2.0605 -0.6779
14588SOL     OW45204   5.439   5.781   2.011  0.5170  0.5143  0.4590
14588SOL    HW145205   5.416   5.811   2.099  0.1648  1.1201  0.1651
14588SOL    HW245206   5.477   5.857   1.968  1.3575  0.0254  0.3187
14589SOL     OW45207   4.113   3.861   2.819 -0.5629 -0.1438 -0.0727
14589SOL    HW145208   4.048   3.791   2.826 -1.0698 -0.0282 -2.4671
14589SOL    HW245209   4.197   3.819   2.836 -1.0499 -0.8609  0.6006
14590SOL     OW45210   4.599   4.116   1.606 -0.0460  0.0009  0.1452
14590SOL    HW145211   4.581   4.025   1.631  2.0226 -0.5815 -0.2649
14590SOL    HW245212   4.640   4.154   1.684  2.4168 -0.5426 -0.7911
14591SOL     OW45213   4.242   4.941   3.417  0.0144 -0.0319  0.3318
14591SOL    HW145214   4.252   4.951   3.512  0.5332  0.7089  0.2056
14591SOL    HW245215   4.328   4.915   3.386  0.1459  0.8294 -0.0634
14592SOL     OW45216   5.912   4.409   3.183  0.4592 -0.0267 -0.4328
14592SOL    HW145217   5.819   4.428   3.199 -0.1688 -0.0156 -3.4794
14592SOL    HW245218   5.914   4.314   3.172  1.2617 -0.3140  1.6890
14593SOL     OW45219   4.799   3.856   2.707 -0.1828  0.1196 -0.3308
14593SOL    HW145220   4.781   3.797   2.634 -0.3222 -1.3301  0.8054
14593SOL    HW245221   4.735   3.832   2.774  0.9647  0.2467  0.8750
14594SOL     OW45222   3.886   4.876   2.570 -0.3015 -0.6621  0.1182
14594SOL    HW145223   3.797   4.910   2.569  0.4701  1.5425  0.4240
14594SOL    HW245224   3.919   4.897   2.657  1.3160  0.9506 -0.8115
14595SOL     OW45225   4.833   5.248   4.397 -0.2816 -0.3745 -0.2272
14595SOL    HW145226   4.866   5.163   4.369 -1.3516 -0.8396 -0.1356
14595SOL    HW245227   4.761   5.267   4.337 -0.6036  0.0609  0.2831
14596SOL     OW45228   3.834   4.360   2.343  0.0900  0.2875  0.1300
14596SOL    HW145229   3.895   4.369   2.416  1.9774  1.0920 -1.4680
14596SOL    HW245230   3.783   4.441   2.344 -0.6694 -0.1866  1.1916
14597SOL     OW45231   4.669   5.017   2.900  0.1135  0.0787 -0.2954
14597SOL    HW145232   4.582   5.010   2.941  0.1271 -1.6238 -0.4982
14597SOL    HW245233   4.679   5.110   2.882 -0.8988  0.5705  1.4065
14598SOL     OW45234   6.311   7.330   3.635 -0.1426  0.1982  0.1547
14598SOL    HW145235   6.360   7.309   3.555 -1.3024  1.7557 -1.0265
14598SOL    HW245236   6.266   7.248   3.657  0.7990 -0.4753 -0.3180
14599SOL     OW45237   3.030   1.847  12.447 -0.0840  0.0423 -0.0720
14599SOL    HW145238   3.030   1.817  12.537  0.4609  2.8512  0.9606
14599SOL    HW245239   2.950   1.899  12.439  0.6354  1.0949 -0.7048
14600SOL     OW45240   3.651   6.283   1.642 -0.8277 -0.2757 -0.5749
14600SOL    HW145241   3.745   6.301   1.635 -0.0976 -2.2345  2.4625
14600SOL    HW245242   3.632   6.228   1.566  0.9007 -1.2904 -0.3287
14601SOL     OW45243   2.502   4.163   3.101  0.4185 -0.5759 -0.1370
14601SOL    HW145244   2.414   4.196   3.121 -0.0353 -0.9020 -1.4277
14601SOL    HW245245   2.532   4.122   3.182  0.3869  1.6133  1.0707
14602SOL     OW45246   4.532   3.753   2.530 -0.4321 -0.2405  0.3483
14602SOL    HW145247   4.465   3.695   2.495 -0.5386  0.1913 -0.1817
14602SOL    HW245248   4.610   3.734   2.477 -0.9340  1.3184 -1.0372
14603SOL     OW45249   5.241   4.343   3.433 -0.4216 -0.3998  0.2413
14603SOL    HW145250   5.248   4.331   3.528 -0.3117  1.5933  0.5199
14603SOL    HW245251   5.332   4.338   3.402 -0.3135  0.2459  0.4344
14604SOL     OW45252   3.127   4.669   1.491  0.2453 -0.5427 -0.1562
14604SOL    HW145253   3.187   4.723   1.544  1.5271 -0.9845 -1.1128
14604SOL    HW245254   3.040   4.699   1.516  0.8989  1.5438 -0.1777
14605SOL     OW45255   6.238   4.082   2.858  0.1961  0.5451 -0.6905
14605SOL    HW145256   6.198   4.153   2.908 -1.8920 -1.5692  0.8644
14605SOL    HW245257   6.315   4.057   2.909 -0.1573  0.4495 -0.1976
14606SOL     OW45258   4.053   6.369   2.420 -0.5859  0.1849 -0.2004
14606SOL    HW145259   4.130   6.351   2.474 -1.1435  0.3734  0.6740
14606SOL    HW245260   4.007   6.439   2.466 -1.1893  0.2040 -0.8156
14607SOL     OW45261   3.715   4.388   3.438  0.1549 -0.6011  0.0920
14607SOL    HW145262   3.685   4.297   3.439  1.6562 -1.1166  1.5225
14607SOL    HW245263   3.788   4.389   3.376  0.4361 -0.4677  0.4247
14608SOL     OW45264   4.112   4.474   2.717 -0.4171 -0.5730  0.4664
14608SOL    HW145265   4.192   4.503   2.673 -1.2526 -0.8803 -1.3206
14608SOL    HW245266   4.105   4.531   2.793  0.8050  0.3184 -0.0534
14609SOL     OW45267   3.569   7.471   1.503  0.3390  0.1985  0.6280
14609SOL    HW145268   3.658   7.498   1.526  0.2241  1.0180  0.1451
14609SOL    HW245269   3.530   7.549   1.462 -0.3605 -0.3776  0.1786
14610SOL     OW45270   5.996   2.833   3.011 -0.2893 -0.0100  0.0597
14610SOL    HW145271   6.073   2.889   3.024 -0.1747 -0.0821 -0.3004
14610SOL    HW245272   5.983   2.790   3.096  1.0379 -1.2113 -0.3055
14611SOL     OW45273   4.365   5.563   3.820  0.4911  0.3964 -0.4115
14611SOL    HW145274   4.460   5.553   3.810  0.1727 -1.8180 -1.9255
14611SOL    HW245275   4.330   5.475   3.804 -1.7407  0.8288  1.6015
14612SOL     OW45276   3.280   6.030   1.394 -0.8532 -0.6619 -0.6247
14612SOL    HW145277   3.251   5.951   1.440 -1.7166  0.4982  0.8865
14612SOL    HW245278   3.322   5.996   1.314 -0.2605 -2.6877  0.4696
14613SOL     OW45279   3.210   4.461   2.616 -0.3329  0.2420 -0.2656
14613SOL    HW145280   3.130   4.480   2.568 -0.2957  2.5152  0.4292
14613SOL    HW245281   3.279   4.462   2.550 -0.8145 -1.4676 -0.8241
14614SOL     OW45282   5.165   4.102   3.291  0.0754 -0.3448  0.1765
14614SOL    HW145283   5.162   4.189   3.330 -1.6932 -0.0450 -0.5256
14614SOL    HW245284   5.111   4.109   3.212  1.2456 -1.6621 -0.7864
14615SOL     OW45285   4.473   3.995   2.034 -0.2019 -0.2770 -0.2575
14615SOL    HW145286   4.539   4.059   2.059 -0.5695  0.1663 -0.3996
14615SOL    HW245287   4.408   4.046   1.985 -2.5403  0.1437  2.9088
14616SOL     OW45288   4.184   3.751   1.909 -0.1558  0.9850  0.3841
14616SOL    HW145289   4.144   3.819   1.962 -2.5366  0.0094 -0.0182
14616SOL    HW245290   4.129   3.674   1.923  1.0339 -0.1912 -1.0169
14617SOL     OW45291   5.615   4.304   2.027 -0.2128 -0.4059  0.0758
14617SOL    HW145292   5.615   4.247   2.104  0.3606  0.8098  1.0247
14617SOL    HW245293   5.708   4.326   2.014 -0.1962 -1.2727 -1.5183
14618SOL     OW45294   3.859   5.555   2.688  0.4789  0.0244 -0.0177
14618SOL    HW145295   3.932   5.535   2.746  0.9219  1.6532  0.0536
14618SOL    HW245296   3.810   5.474   2.681 -0.2156 -0.0038  3.4873
14619SOL     OW45297   4.192   3.595   2.692 -0.0486  0.3211  0.1544
14619SOL    HW145298   4.230   3.513   2.660 -0.2357  0.0471  0.6099
14619SOL    HW245299   4.267   3.650   2.714  0.1062 -0.3291  1.3303
14620SOL     OW45300   3.417   3.213   2.521  0.1067  0.4384  0.2120
14620SOL    HW145301   3.480   3.207   2.449 -0.0452 -0.5215  0.1501
14620SOL    HW245302   3.342   3.161   2.492  0.4349 -0.7996  1.4634
14621SOL     OW45303   4.490   4.515   3.081 -0.7053 -0.3190 -0.0576
14621SOL    HW145304   4.517   4.596   3.037 -2.5326 -0.0882 -0.8500
14621SOL    HW245305   4.571   4.476   3.111  0.6092 -0.0980 -2.9868
14622SOL     OW45306   3.475   2.132   1.863 -0.0676  0.1485  0.2101
14622SOL    HW145307   3.473   2.037   1.873  2.7527  0.0899  0.8830
14622SOL    HW245308   3.430   2.148   1.780 -0.2027 -1.8008 -0.1430
14623SOL     OW45309   5.646   3.375   1.766 -1.0670  0.2049 -0.2276
14623SOL    HW145310   5.731   3.393   1.807 -0.2521 -2.4717 -0.5411
14623SOL    HW245311   5.588   3.355   1.840 -0.1561 -2.4669 -0.1089
14624SOL     OW45312   4.984   6.151   2.716  0.2179  0.5500 -0.2973
14624SOL    HW145313   5.013   6.115   2.800  0.3556  2.6154  0.6041
14624SOL    HW245314   4.970   6.244   2.734  0.0706  1.0031 -2.5329
14625SOL     OW45315   4.026   5.200   2.645  0.0519  0.4006 -0.1059
14625SOL    HW145316   3.931   5.211   2.632 -0.6138 -2.2833  1.6316
14625SOL    HW245317   4.037   5.196   2.740  1.8205  0.0282 -0.3005
14626SOL     OW45318   2.980   6.591   2.256  0.3458  0.5517  0.3314
14626SOL    HW145319   2.990   6.684   2.276 -0.0303  0.5447  0.5557
14626SOL    HW245320   2.913   6.588   2.187  0.8394  0.4952 -0.1487
14627SOL     OW45321   5.169   4.363   1.701  0.0430 -0.1000  0.1423
14627SOL    HW145322   5.199   4.427   1.637 -1.1643  0.1340 -0.2198
14627SOL    HW245323   5.247   4.312   1.723  0.6258  0.2738 -0.9844
14628SOL     OW45324   3.971   4.727   3.871 -0.1166 -0.1966 -0.5737
14628SOL    HW145325   3.927   4.793   3.924  0.4321  0.5384 -1.0134
14628SOL    HW245326   4.015   4.777   3.802 -1.1527 -1.1424 -1.9899
14629SOL     OW45327   3.824   4.727   3.496 -0.0923  0.5445  0.3449
14629SOL    HW145328   3.885   4.786   3.540 -0.2293  0.7041  0.3218
14629SOL    HW245329   3.811   4.655   3.558 -0.7873  1.0869  0.8456
14630SOL     OW45330   5.187   2.247   1.770 -0.0431  0.8265  0.1110
14630SOL    HW145331   5.255   2.311   1.793  1.2994 -0.6280  0.3300
14630SOL    HW245332   5.122   2.255   1.841  1.6273 -0.1578  1.8289
14631SOL     OW45333   4.932   5.690   3.453  0.9214  0.5828  0.0115
14631SOL    HW145334   4.841   5.711   3.431  0.8378  1.3878  1.0475
14631SOL    HW245335   4.961   5.632   3.383  0.0663  1.4761 -1.1131
14632SOL     OW45336   5.108   5.740   2.758  0.0363 -0.3308 -0.0552
14632SOL    HW145337   5.181   5.678   2.763  1.3550  1.2344  1.6008
14632SOL    HW245338   5.150   5.825   2.746 -1.5280  0.5769  0.6634
14633SOL     OW45339   5.624   3.145   2.877 -0.3228  0.0067  0.3245
14633SOL    HW145340   5.606   3.155   2.971  1.2453  0.4072  0.6116
14633SOL    HW245341   5.653   3.232   2.849 -0.3193 -0.2350 -0.4281
14634SOL     OW45342   5.400   6.218   2.706  0.4059  0.5270 -0.2664
14634SOL    HW145343   5.493   6.230   2.684  0.6034 -2.4665 -1.5488
14634SOL    HW245344   5.353   6.242   2.626  0.2425  0.0727 -0.3080
14635SOL     OW45345   4.439   6.089   4.168 -0.3523  0.1251 -0.2303
14635SOL    HW145346   4.413   6.079   4.260  0.9064 -0.0498  0.1218
14635SOL    HW245347   4.481   6.175   4.165 -1.6535  0.7606 -0.9659
14636SOL     OW45348   4.133   5.296   1.406 -0.1341 -0.2928  0.4487
14636SOL    HW145349   4.211   5.352   1.410 -1.9380  2.3652  1.2161
14636SOL    HW245350   4.082   5.322   1.483 -1.0393 -3.2144  0.9479
14637SOL     OW45351   3.771   4.122   1.351  0.8483  0.4097  0.4309
14637SOL    HW145352   3.715   4.177   1.298  0.4515 -0.5042 -0.1160
14637SOL    HW245353   3.860   4.139   1.319  0.5124 -1.1367 -1.5277
14638SOL     OW45354   5.878   5.566   2.522  0.0548 -0.3290  0.0340
14638SOL    HW145355   5.892   5.621   2.599  2.2275 -1.8715  0.8415
14638SOL    HW245356   5.862   5.628   2.451 -2.9274  1.1296  1.7852
14639SOL     OW45357   4.342   4.499   3.382  0.2606 -0.4510  0.3834
14639SOL    HW145358   4.319   4.461   3.467  1.5437  1.3767  1.6073
14639SOL    HW245359   4.416   4.556   3.400 -1.9398  3.2240 -1.1464
14640SOL     OW45360   4.867   4.158   5.547 -0.0116  0.1230 -0.1553
14640SOL    HW145361   4.793   4.163   5.608 -1.3368 -0.7534 -1.6101
14640SOL    HW245362   4.904   4.247   5.548 -0.5351  0.3649  1.2259
14641SOL     OW45363   4.279   6.765   3.212 -0.1767  0.1795 -0.3718
14641SOL    HW145364   4.297   6.742   3.303  0.9656  1.0795 -0.3418
14641SOL    HW245365   4.266   6.681   3.168 -1.2646 -0.2427  0.7060
14642SOL     OW45366   5.490   3.385   2.608  0.1445  0.0774 -0.0626
14642SOL    HW145367   5.479   3.362   2.516 -1.1341  1.3112 -0.2554
14642SOL    HW245368   5.415   3.440   2.628 -1.0483 -2.1992  2.4334
14643SOL     OW45369   3.376   4.508   1.149 -0.0444  0.0719  0.5497
14643SOL    HW145370   3.294   4.557   1.160 -0.0618  0.1758 -0.0170
14643SOL    HW245371   3.401   4.523   1.058 -1.1101 -2.6138 -0.2876
14644SOL     OW45372   3.481   6.536   1.934 -0.1917  0.4913 -0.0036
14644SOL    HW145373   3.432   6.461   1.899 -0.0957  0.6645 -0.5268
14644SOL    HW245374   3.451   6.610   1.880  0.0227  0.7503  0.2346
14645SOL     OW45375   4.593   5.426   3.157  0.3548  0.1723 -0.0168
14645SOL    HW145376   4.650   5.475   3.098  0.7758  3.1730  2.5778
14645SOL    HW245377   4.505   5.440   3.122  0.7488  0.0897 -1.0735
14646SOL     OW45378   5.281   4.962   2.292  0.7903  0.1673 -0.0383
14646SOL    HW145379   5.328   4.879   2.286 -0.7546 -0.7166 -0.7053
14646SOL    HW245380   5.339   5.026   2.250  1.7987 -0.6598  0.0591
14647SOL     OW45381   2.773   5.483   0.906 -0.8597  0.2683 -0.3126
14647SOL    HW145382   2.733   5.405   0.947 -1.9273 -0.7164 -3.0015
14647SOL    HW245383   2.865   5.459   0.895 -0.7866  0.1322  0.5502
14648SOL     OW45384   4.574   5.554   1.980 -0.0782 -0.1687 -0.4008
14648SOL    HW145385   4.591   5.639   2.020 -1.3199  0.6958 -1.6068
14648SOL    HW245386   4.541   5.500   2.051 -2.1853  1.3072 -0.1757
14649SOL     OW45387   2.799   5.750   3.152 -0.2778 -0.3768 -0.3129
14649SOL    HW145388   2.789   5.796   3.069  1.1030 -0.3660 -0.4842
14649SOL    HW245389   2.891   5.727   3.157  0.0927  1.2593  2.0856
14650SOL     OW45390   3.875   5.692   2.465 -0.1435 -0.1153 -0.5105
14650SOL    HW145391   3.885   5.650   2.551 -0.9624 -0.6100 -0.6489
14650SOL    HW245392   3.948   5.754   2.460  0.7143 -1.0429 -0.0134
14651SOL     OW45393   4.339   7.642   4.421  0.0914  0.0468  0.4883
14651SOL    HW145394   4.256   7.682   4.446 -0.4436 -0.7067 -0.0572
14651SOL    HW245395   4.358   7.678   4.334 -0.4102 -0.8825 -0.0207
14652SOL     OW45396   4.158   5.266   3.630 -0.3611  0.2158  0.0596
14652SOL    HW145397   4.111   5.238   3.708 -1.0416 -1.5431 -0.8990
14652SOL    HW245398   4.233   5.206   3.625  0.1341  0.8508 -0.1917
14653SOL     OW45399   4.996   5.103   3.370  0.2522  0.4897  0.0729
14653SOL    HW145400   5.075   5.071   3.328  0.6041 -0.2979  1.2887
14653SOL    HW245401   4.955   5.025   3.408  0.6846  1.3024  2.3658
14654SOL     OW45402   4.150   5.915   2.561 -0.0128 -0.0257 -0.3370
14654SOL    HW145403   4.072   5.967   2.542 -0.6580 -0.4540  0.9497
14654SOL    HW245404   4.190   5.958   2.637  0.9698  0.1417 -0.9336
14655SOL     OW45405   4.951   4.327   2.745 -0.2851  0.5085  0.5191
14655SOL    HW145406   4.994   4.323   2.830  1.3097 -4.4596 -0.2277
14655SOL    HW245407   4.867   4.284   2.758  0.5787 -1.6639 -0.5477
14656SOL     OW45408   5.935   1.732   0.904  0.1823 -0.0892 -0.4657
14656SOL    HW145409   5.895   1.746   0.991  0.0015 -1.0506 -0.3899
14656SOL    HW245410   5.885   1.661   0.866 -0.6068  1.1960 -1.9244
14657SOL     OW45411   4.324   4.035   1.809 -0.0510 -0.2730 -0.3379
14657SOL    HW145412   4.279   4.111   1.774  0.6485 -0.4411 -1.6790
14657SOL    HW245413   4.255   3.983   1.851 -0.7519  0.4528 -0.5711
14658SOL     OW45414   4.906   5.603   2.595 -0.1088  0.4369  0.5721
14658SOL    HW145415   4.900   5.621   2.501 -0.1466 -0.4010  0.4067
14658SOL    HW245416   4.963   5.671   2.630  0.3622  0.4184 -0.1577
14659SOL     OW45417   5.190   3.514   4.041  0.3962 -0.0418  0.0699
14659SOL    HW145418   5.107   3.493   3.999  0.7054 -1.5963  0.1690
14659SOL    HW245419   5.242   3.557   3.972 -0.4516  0.9282  0.0091
14660SOL     OW45420   4.298   4.791   2.473  0.0041  0.1061 -0.7032
14660SOL    HW145421   4.251   4.737   2.537 -0.7046  0.2086 -1.1282
14660SOL    HW245422   4.357   4.844   2.526  0.3751 -0.7457 -0.2393
14661SOL     OW45423   5.295   5.077   2.626 -0.5715 -0.3280  0.1166
14661SOL    HW145424   5.390   5.085   2.618 -0.6584  0.8096  0.1147
14661SOL    HW245425   5.272   5.124   2.706 -1.4779  2.5862 -1.6929
14662SOL     OW45426   5.766   4.544   2.933 -0.5399 -0.2547 -0.1893
14662SOL    HW145427   5.814   4.576   3.010 -1.1649 -1.6926  0.8399
14662SOL    HW245428   5.674   4.552   2.958 -0.7267 -1.8852 -0.2764
14663SOL     OW45429   4.616   4.275   2.406 -0.1416 -0.4119 -0.0070
14663SOL    HW145430   4.545   4.211   2.409 -0.8441  0.3668  0.9258
14663SOL    HW245431   4.682   4.240   2.466 -0.7398 -0.0465  0.8932
14664SOL     OW45432   4.443   5.266   3.761 -0.2771  0.1997 -0.2627
14664SOL    HW145433   4.481   5.287   3.675  2.1062 -1.7074  0.1997
14664SOL    HW245434   4.396   5.184   3.746  0.2828 -0.2221  0.2766
14665SOL     OW45435   3.877   4.331   1.895  0.3418 -0.1719  0.4197
14665SOL    HW145436   3.893   4.406   1.952 -0.7360  0.1451  0.3371
14665SOL    HW245437   3.815   4.364   1.830 -0.4418 -1.2208  0.6025
14666SOL     OW45438   4.086   7.204   1.364  0.0488  0.2794 -0.1525
14666SOL    HW145439   4.086   7.120   1.410 -1.1236  0.6513  0.5862
14666SOL    HW245440   4.044   7.186   1.280  1.3255 -0.2018 -0.7147
14667SOL     OW45441   4.392   4.928   1.503  0.6464 -0.4743 -0.1532
14667SOL    HW145442   4.479   4.926   1.461  0.7665  0.3010  0.0520
14667SOL    HW245443   4.397   5.001   1.565  0.4606 -1.5837  1.2109
14668SOL     OW45444   4.314   5.899   1.237  0.0535 -0.2709 -0.3770
14668SOL    HW145445   4.304   5.867   1.327 -1.9715  0.9066 -0.1147
14668SOL    HW245446   4.278   5.829   1.182  1.0595 -0.8834 -0.2857
14669SOL     OW45447   4.592   3.332   2.606 -0.2725  0.3673 -0.6452
14669SOL    HW145448   4.504   3.370   2.601 -0.0896  1.0192  0.5925
14669SOL    HW245449   4.650   3.402   2.576 -0.0192  0.7344  0.6305
14670SOL     OW45450   2.467   4.021   1.864  0.5621 -0.0062 -0.2227
14670SOL    HW145451   2.390   4.075   1.880  1.2573  0.8462  0.3570
14670SOL    HW245452   2.445   3.936   1.901  0.6243  0.7863  1.7339
14671SOL     OW45453   4.522   3.749   1.898 -0.4234 -0.0666 -0.3554
14671SOL    HW145454   4.497   3.835   1.932  1.1761  0.4445 -0.3739
14671SOL    HW245455   4.449   3.723   1.841 -0.5316  1.7155 -1.1004
14672SOL     OW45456   3.314   5.453   1.947 -0.5711  0.5072  0.0334
14672SOL    HW145457   3.221   5.428   1.946 -0.3970 -0.3038 -2.3320
14672SOL    HW245458   3.328   5.488   2.034 -3.2923  1.3606  0.2263
14673SOL     OW45459   3.005   4.033   2.723  0.4407  0.6439  1.2520
14673SOL    HW145460   2.941   3.963   2.737  0.7711 -1.0107 -3.6615
14673SOL    HW245461   2.954   4.114   2.732 -1.8718 -0.5380 -0.0898
14674SOL     OW45462   4.020   4.183   3.490  0.2073 -0.4454 -0.2392
14674SOL    HW145463   3.983   4.204   3.576 -0.2850  0.1194 -0.5839
14674SOL    HW245464   4.072   4.104   3.505  1.2072  0.3812  0.8650
14675SOL     OW45465   5.767   5.992   2.100  0.4222  0.1130 -0.0933
14675SOL    HW145466   5.718   5.993   2.182 -0.1400  1.3214 -0.4349
14675SOL    HW245467   5.859   5.982   2.127  0.3055  1.1143  0.7259
14676SOL     OW45468   3.835   3.609   1.295 -0.3522 -0.0649  0.3016
14676SOL    HW145469   3.745   3.594   1.266 -0.3486  0.8816 -0.2476
14676SOL    HW245470   3.838   3.573   1.383 -2.1606  2.4814  1.5560
14677SOL     OW45471   6.118   4.617   4.005  0.3316 -0.2303  0.0289
14677SOL    HW145472   6.087   4.672   3.933 -1.5250 -1.4946 -0.2034
14677SOL    HW245473   6.098   4.668   4.084 -1.0669 -0.3999 -0.1926
14678SOL     OW45474   5.106   5.301   4.178  0.4220  0.0486 -0.0079
14678SOL    HW145475   5.175   5.283   4.242 -1.0491 -2.3011  1.0561
14678SOL    HW245476   5.042   5.354   4.226 -0.0478 -0.5813  0.0746
14679SOL     OW45477   4.129   5.684   3.448 -0.2685  0.1965 -0.8469
14679SOL    HW145478   4.054   5.715   3.396 -0.9489  0.9590  0.5261
14679SOL    HW245479   4.091   5.662   3.533  1.0607  0.5183 -0.1500
14680SOL     OW45480   4.849   4.900   4.001 -0.0018  0.0293 -0.3291
14680SOL    HW145481   4.864   4.811   4.033 -1.5764 -0.5160 -1.0017
14680SOL    HW245482   4.813   4.946   4.077  1.5251  0.3432  0.2433
14681SOL     OW45483   3.990   3.533   1.884 -0.2967  0.3944 -0.5474
14681SOL    HW145484   3.933   3.532   1.807  1.1042 -1.9285 -1.6712
14681SOL    HW245485   4.003   3.440   1.905  1.5727  0.9091  0.7877
14682SOL     OW45486   3.355   4.688   2.952  0.0947 -0.8052  0.1770
14682SOL    HW145487   3.306   4.760   2.910 -0.6732 -0.7008  1.1988
14682SOL    HW245488   3.414   4.732   3.013  0.0138 -1.0137  0.4077
14683SOL     OW45489   5.695   5.659   2.102 -0.0175  0.5157  0.2316
14683SOL    HW145490   5.758   5.623   2.039  0.9476  2.2938  0.1105
14683SOL    HW245491   5.614   5.668   2.052 -0.0158 -0.5535  0.0086
14684SOL     OW45492   5.965   5.002   2.295 -0.1276  0.1441 -0.1705
14684SOL    HW145493   6.021   4.931   2.324  0.5446  1.2712  1.4159
14684SOL    HW245494   6.019   5.080   2.302 -1.5915  1.1479  0.5735
14685SOL     OW45495   7.379   4.900   2.113 -0.1373 -0.1395 -0.3921
14685SOL    HW145496   7.309   4.837   2.126 -1.0729  1.1197  0.9211
14685SOL    HW245497   7.353   4.949   2.035 -2.1153  2.0207  1.5026
14686SOL     OW45498   4.024   6.128   1.685  0.1443  0.0427  0.1280
14686SOL    HW145499   4.117   6.142   1.704  0.3677 -0.7701 -0.3372
14686SOL    HW245500   4.023   6.059   1.619 -0.7834  0.2666 -0.1049
14687SOL     OW45501   4.340   6.282   1.419 -0.2779 -0.5063  0.4182
14687SOL    HW145502   4.432   6.256   1.414  0.0993  0.8479 -0.3446
14687SOL    HW245503   4.307   6.272   1.330 -0.3329  0.7706  0.2734
14688SOL     OW45504   4.587   4.975   1.841 -0.4456  0.5361 -0.7820
14688SOL    HW145505   4.594   4.990   1.747  0.5250  0.7028 -0.6969
14688SOL    HW245506   4.609   5.059   1.881 -1.0538  0.5252 -0.3991
14689SOL     OW45507   5.713   4.583   1.877 -0.0412 -0.1191  0.3176
14689SOL    HW145508   5.694   4.627   1.960 -1.7369  1.1092 -0.6410
14689SOL    HW245509   5.777   4.516   1.899  0.8923  1.3109  2.2891
14690SOL     OW45510   5.385   4.901   1.816 -0.0635  0.6893  0.2362
14690SOL    HW145511   5.442   4.970   1.850 -1.5568  1.7262  0.7840
14690SOL    HW245512   5.313   4.897   1.880  0.0189 -1.4469  0.2449
14691SOL     OW45513   4.405   7.137   4.223  0.6872 -0.4448 -0.0095
14691SOL    HW145514   4.352   7.200   4.271  0.3101 -1.5469  1.0645
14691SOL    HW245515   4.393   7.160   4.131 -1.2210 -0.3158  0.2377
14692SOL     OW45516   3.577   3.793   1.324 -0.3628 -0.1438  0.0294
14692SOL    HW145517   3.520   3.813   1.249 -1.1832  1.5890  1.0605
14692SOL    HW245518   3.518   3.787   1.399  0.6609  0.4369  0.9162
14693SOL     OW45519   5.228   4.757   3.022 -0.3204 -0.0238 -0.0218
14693SOL    HW145520   5.303   4.810   2.997 -1.0124  1.5402  1.0778
14693SOL    HW245521   5.267   4.676   3.056  0.8551  0.5773  0.1273
14694SOL     OW45522   4.134   5.527   0.417  0.7538 -0.1009 -0.0909
14694SOL    HW145523   4.163   5.614   0.446  2.2979 -0.8982  0.8881
14694SOL    HW245524   4.126   5.535   0.322  0.0678  1.3227  0.0546
14695SOL     OW45525   3.379   6.276   1.873 -0.0727 -0.0825 -0.0901
14695SOL    HW145526   3.315   6.259   1.804  0.4857 -0.4386 -0.5207
14695SOL    HW245527   3.341   6.236   1.951 -0.5648  0.0642 -0.2506
14696SOL     OW45528   4.849   2.854   2.800  0.0810  0.1294 -0.2854
14696SOL    HW145529   4.873   2.877   2.711  0.0678 -0.9107 -0.5777
14696SOL    HW245530   4.762   2.892   2.812 -1.1044 -1.9350 -1.6805
14697SOL     OW45531   4.919   4.534   2.978  0.3546  0.4162 -0.5117
14697SOL    HW145532   4.864   4.514   3.054  0.7099  0.0990 -0.3312
14697SOL    HW245533   4.973   4.455   2.967 -0.0873  0.2383 -1.4348
14698SOL     OW45534   3.979   5.408   2.196  0.0706  0.2610 -0.0972
14698SOL    HW145535   3.984   5.313   2.186 -1.3906  0.2285 -0.8396
14698SOL    HW245536   4.021   5.426   2.280 -0.3158 -1.1345  0.4089
14699SOL     OW45537   3.012   5.608   3.731  0.2272  0.4833  0.3777
14699SOL    HW145538   2.923   5.579   3.713 -0.2972  1.5292  1.1204
14699SOL    HW245539   3.060   5.591   3.650 -0.9193  0.9101 -0.4207
14700SOL     OW45540   4.535   4.769   2.035  0.1705  0.5814  0.9895
14700SOL    HW145541   4.610   4.713   2.012  0.2254  0.6579  0.9817
14700SOL    HW245542   4.525   4.827   1.960 -0.3361  0.1113  0.6797
14701SOL     OW45543   4.324   6.141   2.369  0.5202  0.1087 -0.0672
14701SOL    HW145544   4.419   6.139   2.360  0.6409 -0.0272  1.1892
14701SOL    HW245545   4.308   6.193   2.447 -0.3861 -0.9530  0.4690
14702SOL     OW45546   3.159   5.869   3.742  0.1547  0.1729  0.2846
14702SOL    HW145547   3.163   5.865   3.647  0.2883  0.6519  0.2678
14702SOL    HW245548   3.117   5.788   3.768  1.8682 -0.8798 -0.0655
14703SOL     OW45549   7.501   6.181   3.173 -0.1814 -0.1571 -0.1094
14703SOL    HW145550   7.562   6.183   3.099  0.6967  0.4063  0.6046
14703SOL    HW245551   7.552   6.215   3.246 -0.7148 -1.6372  0.9955
14704SOL     OW45552   5.023   6.041   2.976  0.8639 -0.3185 -0.1870
14704SOL    HW145553   4.987   6.097   3.045  0.2253 -0.6080 -0.2776
14704SOL    HW245554   5.102   6.003   3.015  0.2604 -0.8443  0.5605
14705SOL     OW45555   5.588   5.149   2.809  0.2231 -0.2768 -0.3750
14705SOL    HW145556   5.672   5.118   2.776 -0.5767 -1.6168 -1.2509
14705SOL    HW245557   5.587   5.242   2.787  2.1803  0.1874  1.2200
14706SOL     OW45558   4.310   3.796   0.511 -0.1805  0.5963  0.0403
14706SOL    HW145559   4.253   3.719   0.501  1.3290 -0.7365  1.1807
14706SOL    HW245560   4.255   3.861   0.554 -0.7454 -0.8085  1.5131
14707SOL     OW45561   4.556   4.690   2.875 -0.0215  0.3139  0.7973
14707SOL    HW145562   4.563   4.632   2.799  0.2829 -0.0999  1.1415
14707SOL    HW245563   4.573   4.777   2.840  0.7258  0.0561  0.4915
14708SOL     OW45564   4.253   4.634   2.900  0.3061 -0.0741 -0.2901
14708SOL    HW145565   4.233   4.689   2.976  0.4597  0.1697 -0.4246
14708SOL    HW245566   4.347   4.642   2.889  0.4194 -0.8841  0.0824
14709SOL     OW45567   4.152   5.200   2.911 -0.1109  0.3830  0.0883
14709SOL    HW145568   4.234   5.194   2.862 -0.4673  1.3046 -0.6408
14709SOL    HW245569   4.138   5.111   2.945  1.3391  0.2891  0.4982
14710SOL     OW45570   4.183   4.077   3.077 -0.1137 -0.6201 -0.3321
14710SOL    HW145571   4.196   4.050   2.987 -1.0974 -1.3498 -0.2643
14710SOL    HW245572   4.272   4.092   3.110  0.3141 -1.3056 -1.1244
14711SOL     OW45573   4.320   4.282   2.047  0.2006  0.9069 -0.2336
14711SOL    HW145574   4.262   4.275   1.972 -0.3915 -3.3514  0.3507
14711SOL    HW245575   4.264   4.266   2.123  1.8114 -4.1213  0.3116
14712SOL     OW45576   4.454   2.617   2.173 -0.3878  0.1310 -0.0887
14712SOL    HW145577   4.403   2.548   2.131  0.6823 -1.7908  1.5954
14712SOL    HW245578   4.398   2.694   2.169 -2.1394 -1.1212 -0.9655
14713SOL     OW45579   5.353   4.582   2.733  0.1861  0.1928  0.2205
14713SOL    HW145580   5.265   4.606   2.763  1.0416  1.4307  1.8844
14713SOL    HW245581   5.405   4.578   2.813  1.5916 -0.8589 -0.7064
14714SOL     OW45582   5.091   4.411   3.235 -0.4131  0.1102 -0.4933
14714SOL    HW145583   5.149   4.392   3.309 -0.0931 -1.8225 -1.1850
14714SOL    HW245584   5.043   4.490   3.261  1.5473  0.9769  0.6555
14715SOL     OW45585   4.773   3.507   1.401  0.0058 -0.2615  0.1962
14715SOL    HW145586   4.799   3.457   1.324  1.7078 -0.2161  0.6910
14715SOL    HW245587   4.690   3.548   1.377  0.4546 -0.3239 -1.5756
14716SOL     OW45588   4.794   4.088   2.531 -0.8499  0.0930  0.5017
14716SOL    HW145589   4.856   4.015   2.530 -1.1279 -0.1417 -0.8737
14716SOL    HW245590   4.751   4.082   2.617  1.1038  0.3604  1.5550
14717SOL     OW45591   5.661   5.327   3.887  0.7048 -0.6688 -0.0813
14717SOL    HW145592   5.596   5.365   3.829 -0.9164  1.3727  2.8156
14717SOL    HW245593   5.611   5.284   3.955  2.4631 -1.5379  0.7363
14718SOL     OW45594   6.913   5.513   3.455  0.1520  0.1452 -0.1588
14718SOL    HW145595   6.917   5.417   3.451 -2.6298 -0.1453  1.2566
14718SOL    HW245596   6.975   5.537   3.524 -1.4866 -1.0568  1.8662
14719SOL     OW45597   3.911   2.796   1.128 -0.5616  0.2999  0.2024
14719SOL    HW145598   3.972   2.832   1.063  1.0330  0.9473  1.9684
14719SOL    HW245599   3.967   2.749   1.190 -2.3519 -4.1408 -1.1058
14720SOL     OW45600   4.322   5.077   2.020 -0.3461 -0.7390  0.1483
14720SOL    HW145601   4.391   5.060   2.084 -0.5374 -1.3707  0.1931
14720SOL    HW245602   4.369   5.092   1.938 -0.0105  1.5294  0.6811
14721SOL     OW45603   5.001   5.198   3.930  0.6484  0.3170  0.6038
14721SOL    HW145604   5.041   5.226   4.012  0.2388 -0.9533  1.2738
14721SOL    HW245605   4.922   5.151   3.956  1.4841 -1.7864 -0.3407
14722SOL     OW45606   6.454   4.752   3.156 -0.1025  0.0235 -0.1720
14722SOL    HW145607   6.364   4.719   3.161 -0.6724  1.4320 -0.7040
14722SOL    HW245608   6.446   4.837   3.114  1.4632  0.3014  0.0397
14723SOL     OW45609   4.634   4.901   1.334 -0.2797 -0.1826 -0.4087
14723SOL    HW145610   4.659   4.908   1.426  0.6108 -1.0951 -0.5707
14723SOL    HW245611   4.666   4.815   1.306 -0.4636  0.1113 -1.5926
14724SOL     OW45612   4.530   6.742   1.767 -0.6327 -0.5191 -0.0408
14724SOL    HW145613   4.481   6.807   1.716 -1.9890 -1.7672 -0.3955
14724SOL    HW245614   4.478   6.729   1.845  0.5179  0.0375  0.8546
14725SOL     OW45615   4.356   6.246   3.392 -0.0217 -0.6526 -0.1497
14725SOL    HW145616   4.414   6.234   3.468 -0.8769 -2.9431  0.2251
14725SOL    HW245617   4.278   6.196   3.414 -0.4498 -1.0556 -2.3892
14726SOL     OW45618   0.122   7.147   3.033 -0.1400  0.2570 -0.1487
14726SOL    HW145619   0.063   7.116   3.101 -0.1329 -1.1273 -0.7584
14726SOL    HW245620   0.081   7.121   2.950 -0.3430  2.2436 -0.7385
14727SOL     OW45621   4.276   5.118   3.185 -0.3058  0.1576 -0.3444
14727SOL    HW145622   4.262   5.207   3.216  0.1047  0.0020  0.3114
14727SOL    HW245623   4.260   5.063   3.261  0.4930 -0.2527 -0.4600
14728SOL     OW45624   5.042   5.204   2.444  1.2175  0.6647 -0.5174
14728SOL    HW145625   4.989   5.274   2.405  0.2744 -0.1191 -0.7022
14728SOL    HW245626   5.012   5.198   2.534 -0.8013 -1.3324 -1.1992
14729SOL     OW45627   4.055   5.525   3.720  0.0260  0.0704  0.2846
14729SOL    HW145628   4.103   5.451   3.681 -0.5268 -0.2833  0.2582
14729SOL    HW245629   3.993   5.483   3.781 -1.4055  0.3912 -0.9074
14730SOL     OW45630   5.866   5.171   2.784 -0.1915  0.2081 -0.3897
14730SOL    HW145631   5.899   5.250   2.740 -0.6426  0.1541 -0.8358
14730SOL    HW245632   5.938   5.109   2.778  1.3269  1.5049  2.5606
14731SOL     OW45633   4.900   5.108   1.724 -0.6371  0.2901  0.5341
14731SOL    HW145634   4.911   5.203   1.719  0.6601  0.0914 -0.9704
14731SOL    HW245635   4.982   5.076   1.762 -0.1172 -0.3868 -1.0856
14732SOL     OW45636   5.969   6.066   2.918  0.2371 -0.2564  0.4829
14732SOL    HW145637   5.896   6.037   2.863  1.4527 -0.5462 -1.0408
14732SOL    HW245638   5.929   6.128   2.980 -1.4523 -1.1335  0.3347
14733SOL     OW45639   2.426   4.958   4.767 -0.2801 -0.0393  0.1242
14733SOL    HW145640   2.374   4.932   4.690  1.1268  0.0331 -0.8982
14733SOL    HW245641   2.470   5.039   4.739  0.8387 -0.4198  0.7263
14734SOL     OW45642   5.172   5.191   2.836  0.0257 -0.4728  0.2428
14734SOL    HW145643   5.108   5.177   2.906 -1.2824 -0.9975 -1.0319
14734SOL    HW245644   5.142   5.269   2.790 -0.9079 -1.8581 -1.6212
14735SOL     OW45645   5.226   3.136   4.250  0.3310  0.0579  0.8240
14735SOL    HW145646   5.248   3.214   4.300 -0.0431  0.0826  0.9495
14735SOL    HW245647   5.212   3.168   4.161  1.4317 -0.0463  0.5952
14736SOL     OW45648   3.480   5.343   1.756  0.1496  0.2576 -0.1419
14736SOL    HW145649   3.410   5.371   1.815  0.7424  1.9675 -0.1882
14736SOL    HW245650   3.549   5.310   1.815 -0.2872 -0.5017 -0.0440
14737SOL     OW45651   3.425   5.520   4.293  0.0679  0.2899 -0.0199
14737SOL    HW145652   3.480   5.454   4.251 -1.8103 -0.3677 -1.6136
14737SOL    HW245653   3.428   5.595   4.234  0.1274  0.6737  0.4619
14738SOL     OW45654   4.888   3.360   1.637 -0.1920  0.3692  0.2060
14738SOL    HW145655   4.983   3.358   1.623 -0.0754  0.4193  0.9690
14738SOL    HW245656   4.852   3.383   1.551  0.3994 -1.0006 -0.4246
14739SOL     OW45657   5.328   3.998   2.824 -0.0227  0.7187 -0.1883
14739SOL    HW145658   5.254   3.948   2.858 -0.5410  1.4442 -0.2129
14739SOL    HW245659   5.290   4.057   2.759  0.7466  0.3553 -0.9840
14740SOL     OW45660   4.741   4.856   3.178 -0.9622  0.2840 -0.3633
14740SOL    HW145661   4.767   4.787   3.238  0.9992  2.5441  1.5813
14740SOL    HW245662   4.757   4.819   3.091  1.9167 -1.0634  0.6326
14741SOL     OW45663   3.268   3.949   2.177  0.1666 -0.5222 -0.8839
14741SOL    HW145664   3.303   3.903   2.101 -0.0398 -2.2805  0.0353
14741SOL    HW245665   3.182   3.910   2.192 -0.9448  1.6414 -1.2887
14742SOL     OW45666   4.635   5.437   4.481  0.2623 -0.0903  0.2543
14742SOL    HW145667   4.692   5.512   4.495 -0.7362  0.9028 -0.8440
14742SOL    HW245668   4.647   5.413   4.389 -0.9339  0.0448  0.0350
14743SOL     OW45669   3.884   4.861   2.949  0.1230  0.2512 -0.0921
14743SOL    HW145670   3.799   4.904   2.942  0.3200  0.6751  0.0482
14743SOL    HW245671   3.942   4.929   2.983  0.1500 -0.4922  1.4410
14744SOL     OW45672   3.550   3.586   4.340  0.9695 -0.6123  0.0849
14744SOL    HW145673   3.569   3.498   4.372  0.6417 -1.3432 -1.6150
14744SOL    HW245674   3.630   3.613   4.295  0.8122 -0.3669 -0.0505
14745SOL     OW45675   3.590   4.817   3.424  0.0918 -0.1424  0.6890
14745SOL    HW145676   3.603   4.904   3.460  2.1493  0.3232 -0.9454
14745SOL    HW245677   3.676   4.775   3.431 -0.3504 -1.3016 -0.3764
14746SOL     OW45678   4.339   5.021   4.591 -0.5213  0.6237  0.1952
14746SOL    HW145679   4.385   4.937   4.591 -1.4103  0.0926  1.6883
14746SOL    HW245680   4.407   5.086   4.610 -0.3115 -0.1450  2.3013
14747SOL     OW45681   5.557   3.589   3.290 -0.2013 -0.8558  0.0961
14747SOL    HW145682   5.470   3.553   3.271 -0.4949 -0.5913  0.8991
14747SOL    HW245683   5.559   3.673   3.244 -0.7826 -0.3698  0.9294
14748SOL     OW45684   5.613   5.233   4.116  0.4650  0.1225 -0.4655
14748SOL    HW145685   5.662   5.274   4.187  1.2901 -1.0944 -0.3233
14748SOL    HW245686   5.650   5.146   4.107 -0.2826 -0.0905 -1.7520
14749SOL     OW45687   6.338   5.271   5.113  0.5839  0.5706  0.5711
14749SOL    HW145688   6.351   5.311   5.027 -1.3821  0.1898  0.0473
14749SOL    HW245689   6.424   5.235   5.136  0.9712 -0.0138 -1.5800
14750SOL     OW45690   5.972   4.762   3.818 -0.1316  0.5551  0.4674
14750SOL    HW145691   5.879   4.781   3.822 -0.2345  0.3404 -0.5256
14750SOL    HW245692   6.012   4.842   3.784  0.0088  0.5385  0.5895
14751SOL     OW45693   4.111   5.241   5.097 -0.2156 -0.4061  0.7063
14751SOL    HW145694   4.046   5.240   5.026  0.7853  1.4674 -0.3093
14751SOL    HW245695   4.157   5.158   5.088  0.0939 -0.0902 -1.0855
14752SOL     OW45696   4.130   6.270   5.782 -0.8280 -0.0504  0.6040
14752SOL    HW145697   4.078   6.316   5.848 -0.3380 -0.2569  1.1421
14752SOL    HW245698   4.133   6.179   5.813 -1.6479 -0.4252 -0.3618
14753SOL     OW45699   4.004   4.122   5.813  0.0324  0.6256 -0.3304
14753SOL    HW145700   4.021   4.165   5.729 -0.6135 -2.6398 -2.3333
14753SOL    HW245701   3.909   4.111   5.816  0.1138  0.0225  0.4734
14754SOL     OW45702   5.667   5.144   5.345 -0.1481  0.4032 -0.3010
14754SOL    HW145703   5.613   5.145   5.423  0.4434 -1.6318  0.1788
14754SOL    HW245704   5.631   5.074   5.291  0.7525  0.3647 -0.8825
14755SOL     OW45705   4.541   7.170   5.131 -0.1171 -0.0997 -0.3146
14755SOL    HW145706   4.520   7.261   5.113  1.7224  0.4086 -0.0969
14755SOL    HW245707   4.475   7.120   5.083 -0.8475  1.3226 -0.8460
14756SOL     OW45708   6.329   4.825   3.853 -0.0841 -0.3105 -0.5093
14756SOL    HW145709   6.374   4.908   3.870 -2.1782  0.9037 -0.6545
14756SOL    HW245710   6.328   4.818   3.758  0.0089 -0.4685 -0.4988
14757SOL     OW45711   3.376   6.033   3.782  0.1398 -1.0088 -0.4803
14757SOL    HW145712   3.299   5.977   3.777 -1.4768  1.1720 -3.6243
14757SOL    HW245713   3.405   6.042   3.691  0.4739  2.8696 -0.1534
14758SOL     OW45714   5.149   5.909   5.931 -0.2795  0.0087 -0.5620
14758SOL    HW145715   5.224   5.864   5.893 -0.2297 -0.4205  0.0247
14758SOL    HW245716   5.170   6.002   5.924  0.9482 -0.1265  0.8256
14759SOL     OW45717   3.746   3.752   4.218  0.2416  0.8337  0.3278
14759SOL    HW145718   3.803   3.794   4.282  1.5864  0.7882 -0.7926
14759SOL    HW245719   3.773   3.788   4.134  0.3324 -1.0392 -0.4992
14760SOL     OW45720   5.436   4.351   5.377 -0.4855 -0.3019 -0.0865
14760SOL    HW145721   5.389   4.323   5.298 -0.4732 -0.7497  0.0640
14760SOL    HW245722   5.506   4.407   5.344 -0.0211 -1.0910 -0.4581
14761SOL     OW45723   4.406   5.373   3.444  0.2005  0.2876 -0.3046
14761SOL    HW145724   4.391   5.466   3.458  0.1440  0.1199  0.8002
14761SOL    HW245725   4.319   5.334   3.440  0.1757 -0.1700  2.5762
14762SOL     OW45726   5.761   5.072   3.823  0.2065 -0.0353  0.1410
14762SOL    HW145727   5.739   5.160   3.852 -0.6082  0.2824 -1.3587
14762SOL    HW245728   5.765   5.020   3.904  0.6678  1.3419  1.0351
14763SOL     OW45729   5.893   4.378   4.781 -0.0470 -0.3220  0.4193
14763SOL    HW145730   5.805   4.341   4.791 -0.1493  0.0653  1.0099
14763SOL    HW245731   5.893   4.417   4.694 -0.3672 -0.5722  0.3059
14764SOL     OW45732   4.703   6.386   3.270 -0.3445  0.1738  0.1876
14764SOL    HW145733   4.637   6.363   3.335  0.3867  0.3045  0.9865
14764SOL    HW245734   4.671   6.346   3.189 -0.9976 -0.4317  0.7296
14765SOL     OW45735   4.852   6.479   4.044 -0.7188 -0.9589  0.1159
14765SOL    HW145736   4.892   6.465   3.958  0.5653  3.1218 -0.1784
14765SOL    HW245737   4.767   6.520   4.025 -0.5372 -0.2672  0.7368
14766SOL     OW45738   5.364   5.294   3.027 -0.0793  0.0259  0.0135
14766SOL    HW145739   5.454   5.263   3.020 -0.4161 -0.8227 -0.8135
14766SOL    HW245740   5.318   5.251   2.955 -1.6458 -1.3365  1.6991
14767SOL     OW45741   3.700   5.366   5.685 -0.5056 -0.5073 -0.0473
14767SOL    HW145742   3.668   5.451   5.653 -0.5807 -0.5473 -0.0798
14767SOL    HW245743   3.728   5.383   5.775  0.5977 -0.1763 -0.4366
14768SOL     OW45744   4.696   4.078   6.020  0.1948  1.1621  0.1377
14768SOL    HW145745   4.755   4.030   5.962 -0.5254  1.5612 -0.9452
14768SOL    HW245746   4.755   4.127   6.078  0.9262  0.4470  0.0137
14769SOL     OW45747   5.014   5.133   4.949  0.2770 -0.1809 -0.6145
14769SOL    HW145748   5.006   5.213   5.001  0.1122 -0.4862 -0.1709
14769SOL    HW245749   4.953   5.146   4.876  0.0705 -0.0097 -0.4126
14770SOL     OW45750   4.872   4.987   4.256  0.2857  0.1919  0.5154
14770SOL    HW145751   4.862   4.935   4.336 -0.0913  0.1717  0.4575
14770SOL    HW245752   4.963   4.973   4.229  0.6164  0.7273  1.3083
14771SOL     OW45753   4.879   4.897   3.490 -0.0649  0.6647  0.3724
14771SOL    HW145754   4.892   4.874   3.582 -0.7253 -0.0072  0.3088
14771SOL    HW245755   4.838   4.819   3.451 -0.1490  1.0833 -0.4046
14772SOL     OW45756   4.427   3.876   5.490  0.7481 -0.0361 -0.0704
14772SOL    HW145757   4.411   3.883   5.584  2.0773  0.0989  0.1730
14772SOL    HW245758   4.481   3.953   5.469 -0.1139  0.3212 -1.0899
14773SOL     OW45759   6.465   4.777   6.394  0.0016 -0.0346 -0.5207
14773SOL    HW145760   6.396   4.843   6.404 -0.1771 -0.2804 -0.0814
14773SOL    HW245761   6.481   4.772   6.300 -0.2591  0.3495 -0.5883
14774SOL     OW45762   6.063   4.682   3.446 -0.0652  0.1655 -0.2781
14774SOL    HW145763   5.995   4.745   3.422  0.2345  0.4555 -0.3735
14774SOL    HW245764   6.121   4.730   3.505 -0.2835 -0.2680  0.2956
14775SOL     OW45765   4.572   5.262   6.704  0.2912  0.3837  0.1115
14775SOL    HW145766   4.599   5.259   6.796 -2.0423  0.1289  0.8492
14775SOL    HW245767   4.519   5.184   6.692  1.1411  0.0466 -1.6859
14776SOL     OW45768   4.758   5.401   6.134  0.0096  0.2187  0.3389
14776SOL    HW145769   4.733   5.406   6.042 -0.7338  0.1921  0.5299
14776SOL    HW245770   4.800   5.485   6.152  0.2318  0.1896 -0.0423
14777SOL     OW45771   4.394   5.465   2.616  0.5746 -0.2068  0.0730
14777SOL    HW145772   4.415   5.485   2.525  1.4304 -0.7015  0.1461
14777SOL    HW245773   4.309   5.505   2.631  0.1650 -0.6035 -1.1044
14778SOL     OW45774   4.884   6.243   5.065 -0.4253  0.3518 -0.3230
14778SOL    HW145775   4.810   6.292   5.030 -1.0594 -0.2054  0.2263
14778SOL    HW245776   4.904   6.284   5.149  0.7911  1.3819 -1.0716
14779SOL     OW45777   5.153   6.625   3.927  0.2905 -0.2230  0.3264
14779SOL    HW145778   5.143   6.719   3.912  3.3943 -0.0138 -1.3075
14779SOL    HW245779   5.129   6.613   4.019  2.6442  2.8051  1.5233
14780SOL     OW45780   6.330   3.475   2.838 -0.2007 -0.3154  0.4646
14780SOL    HW145781   6.296   3.562   2.817 -0.8156 -0.4297  0.9824
14780SOL    HW245782   6.359   3.440   2.754  1.0754  0.8176  0.3855
14781SOL     OW45783   4.080   5.187   7.658  0.4357 -0.4324  0.2527
14781SOL    HW145784   4.065   5.103   7.615  0.5363  0.8265 -2.4902
14781SOL    HW245785   4.164   5.217   7.624 -0.1355  1.2733  0.2324
14782SOL     OW45786   3.739   4.605   4.120 -0.1009 -0.2859  0.2006
14782SOL    HW145787   3.820   4.604   4.172  0.6813 -1.5500 -0.9856
14782SOL    HW245788   3.736   4.694   4.084 -0.2671  0.3707  1.7713
14783SOL     OW45789   5.302   5.301   5.204 -0.1246 -0.2666  0.2764
14783SOL    HW145790   5.289   5.214   5.166 -1.5240  0.7782 -1.8492
14783SOL    HW245791   5.397   5.315   5.202  0.0228 -1.2862 -0.4964
14784SOL     OW45792   4.735   5.106   3.274 -0.1295 -0.2032 -0.0851
14784SOL    HW145793   4.731   5.028   3.218  0.9358 -1.6650  1.7442
14784SOL    HW245794   4.825   5.108   3.305 -0.6466  0.5879  1.4703
14785SOL     OW45795   3.480   3.944   4.835  0.3901  0.2467 -0.7554
14785SOL    HW145796   3.493   3.991   4.918  0.1776  0.1639 -0.6736
14785SOL    HW245797   3.558   3.964   4.783  1.5583 -1.3778  0.2493
14786SOL     OW45798   5.699   3.913   4.339  0.5621  0.1688 -0.4845
14786SOL    HW145799   5.674   3.997   4.301  1.0472  0.7329  0.4295
14786SOL    HW245800   5.786   3.896   4.303  0.1474 -0.3300 -1.2796
14787SOL     OW45801   5.084   6.455   2.695  0.0563  0.3128 -0.1497
14787SOL    HW145802   5.145   6.527   2.682  1.9127 -1.4305 -1.7381
14787SOL    HW245803   5.072   6.450   2.790 -0.4307  2.8542 -0.0038
14788SOL     OW45804   5.285   3.659   3.830 -0.5061  0.5561  0.4246
14788SOL    HW145805   5.349   3.730   3.837 -0.4893  0.4972  0.9289
14788SOL    HW245806   5.225   3.687   3.762  0.2215  0.4840 -0.2638
14789SOL     OW45807   4.849   5.325   4.681 -0.2588 -0.0164 -0.5582
14789SOL    HW145808   4.825   5.350   4.591  0.0482 -1.5720 -1.1057
14789SOL    HW245809   4.911   5.253   4.669 -0.1241 -0.1612  0.9171
14790SOL     OW45810   5.236   5.011   5.214 -0.2777 -0.1134  0.1478
14790SOL    HW145811   5.166   4.945   5.212 -0.9174  0.4944  1.5422
14790SOL    HW245812   5.246   5.033   5.306  2.4503 -0.8583  0.1269
14791SOL     OW45813   6.968   5.453   5.365  0.4147 -0.4010 -0.4617
14791SOL    HW145814   6.938   5.468   5.455  0.2512  2.4017 -0.8997
14791SOL    HW245815   7.024   5.375   5.372  0.6597 -0.1030  2.1261
14792SOL     OW45816   5.509   5.187   5.558 -0.0191  0.0760 -0.2894
14792SOL    HW145817   5.423   5.219   5.530  0.3626  0.0651 -1.5130
14792SOL    HW245818   5.495   5.161   5.649 -1.0742  0.9495 -0.1715
14793SOL     OW45819   5.341   4.056   4.470  0.0772 -0.3756 -0.7488
14793SOL    HW145820   5.273   4.008   4.518  1.0610 -1.4793 -0.4325
14793SOL    HW245821   5.362   4.000   4.396  1.0537 -0.3192 -0.5209
14794SOL     OW45822   4.461   4.789   4.541  0.4707 -0.3587 -0.1246
14794SOL    HW145823   4.480   4.782   4.448 -2.8402  2.6790 -1.2410
14794SOL    HW245824   4.459   4.698   4.572  1.3546 -1.4724 -3.0149
14795SOL     OW45825   5.451   7.221   4.436  0.0541  0.2767  0.4135
14795SOL    HW145826   5.511   7.149   4.415  0.9619  0.9144  0.7331
14795SOL    HW245827   5.471   7.243   4.527 -0.2611  0.8859  0.3400
14796SOL     OW45828   5.715   5.926   4.395  0.1455 -0.1082 -0.1167
14796SOL    HW145829   5.704   5.908   4.489 -0.0356 -0.0794 -0.1331
14796SOL    HW245830   5.651   5.869   4.352  1.3198 -1.3190 -0.3234
14797SOL     OW45831   4.807   5.933   4.203 -0.1932 -0.0119  0.1304
14797SOL    HW145832   4.748   5.944   4.277  1.0210 -0.6799  1.2235
14797SOL    HW245833   4.819   6.022   4.169 -2.9081  0.0005 -1.0322
14798SOL     OW45834   2.908   5.851   3.956 -0.1365 -0.0331  0.2723
14798SOL    HW145835   2.835   5.846   3.894  0.2467  0.2734 -0.2119
14798SOL    HW245836   2.867   5.870   4.040 -0.7686 -1.5061  0.3398
14799SOL     OW45837   4.698   5.139   5.123  0.5619  0.7460  0.1766
14799SOL    HW145838   4.714   5.196   5.198  0.5321 -0.7704  1.3953
14799SOL    HW245839   4.634   5.075   5.154  0.6227  0.0236 -1.1019
14800SOL     OW45840   5.486   4.744   3.520  0.1585 -0.0611 -0.2031
14800SOL    HW145841   5.536   4.721   3.442  0.3262 -0.7063  0.0890
14800SOL    HW245842   5.396   4.720   3.499  0.2141 -0.2933 -0.1770
14801SOL     OW45843   6.733   5.372   5.264  0.3915  0.4739  0.0993
14801SOL    HW145844   6.819   5.390   5.302  0.4941  0.9380 -0.3515
14801SOL    HW245845   6.737   5.407   5.176 -0.0677 -0.0302 -0.1300
14802SOL     OW45846   5.912   5.101   7.113 -1.3065 -0.3266  0.3221
14802SOL    HW145847   5.878   5.064   7.195 -4.6032  1.1127 -0.2193
14802SOL    HW245848   5.860   5.058   7.045  0.4140 -0.4810 -0.9451
14803SOL     OW45849   6.470   3.058   4.780 -0.3637  0.2705  0.3355
14803SOL    HW145850   6.449   3.139   4.735 -1.6799  1.1043  2.3116
14803SOL    HW245851   6.525   3.085   4.854  2.0527 -1.0946 -0.8298
14804SOL     OW45852   5.480   4.990   4.556  0.0342  0.1113 -0.2098
14804SOL    HW145853   5.516   5.060   4.502  1.3227 -0.5123 -0.1823
14804SOL    HW245854   5.463   4.919   4.493  1.6877 -0.6758  0.1805
14805SOL     OW45855   4.968   4.981   5.583 -0.4316  0.2541 -0.2774
14805SOL    HW145856   4.997   4.982   5.492 -1.0419  1.2707 -0.4776
14805SOL    HW245857   4.928   4.895   5.595  0.5473 -0.2702 -0.6640
14806SOL     OW45858   4.844   6.180   4.063  0.1667 -0.2045 -0.3883
14806SOL    HW145859   4.818   6.271   4.059 -1.2576 -0.5764 -0.1462
14806SOL    HW245860   4.783   6.135   4.005 -0.9120 -1.3470  1.5103
14807SOL     OW45861   3.602   5.151   5.091  0.1264  0.5027  0.3743
14807SOL    HW145862   3.637   5.225   5.041 -1.8241  0.1814 -1.5951
14807SOL    HW245863   3.550   5.192   5.160  1.2761  0.9298  1.0328
14808SOL     OW45864   5.328   4.213   5.667 -0.0481 -0.4540  0.6597
14808SOL    HW145865   5.265   4.235   5.736 -1.7886  1.6807 -1.4344
14808SOL    HW245866   5.328   4.117   5.663 -2.5871 -0.5384  1.2901
14809SOL     OW45867   4.053   4.410   5.641  0.0883  0.0105  0.0791
14809SOL    HW145868   3.977   4.427   5.586 -0.9084  0.4200  1.5285
14809SOL    HW245869   4.100   4.493   5.642 -1.5940  1.0407  2.3287
14810SOL     OW45870   3.344   5.316   5.495  0.2716 -0.1131 -0.3519
14810SOL    HW145871   3.425   5.365   5.498 -0.1625  0.6045 -0.0382
14810SOL    HW245872   3.369   5.229   5.463  1.4323 -0.4394  1.2969
14811SOL     OW45873   4.933   5.600   4.746 -0.4810 -0.0004  0.1238
14811SOL    HW145874   5.010   5.564   4.790  0.6002  0.8035 -1.0496
14811SOL    HW245875   4.888   5.523   4.710  0.1669 -0.4191  0.1949
14812SOL     OW45876   4.933   6.192   3.161  0.2762  0.1499  0.2798
14812SOL    HW145877   4.912   6.201   3.254 -1.6284 -1.0879 -0.0023
14812SOL    HW245878   4.849   6.178   3.118  1.1703  0.2639 -1.5950
14813SOL     OW45879   7.220   4.366   4.931 -0.2975  0.0878 -0.4108
14813SOL    HW145880   7.173   4.401   5.006  1.1578  0.0592  0.5516
14813SOL    HW245881   7.290   4.313   4.969  1.7328  1.6880 -1.6847
14814SOL     OW45882   3.535   4.903   5.214  0.2252 -0.3224 -0.0173
14814SOL    HW145883   3.602   4.848   5.254  0.2504 -0.0829  0.2675
14814SOL    HW245884   3.582   4.982   5.186 -0.2562  0.6657  1.8394
14815SOL     OW45885   5.703   2.671   4.803  0.0228  0.0357  0.2275
14815SOL    HW145886   5.614   2.707   4.796  0.4346  0.9626 -0.6444
14815SOL    HW245887   5.718   2.630   4.717  0.2906 -0.4750  0.5181
14816SOL     OW45888   4.262   4.226   5.233 -0.3571 -0.9244  0.1365
14816SOL    HW145889   4.337   4.169   5.219  0.8119  0.3095  1.0682
14816SOL    HW245890   4.273   4.296   5.169  0.7074  0.5728  1.8651
14817SOL     OW45891   3.844   3.610   5.242 -0.6810  0.4367  0.1059
14817SOL    HW145892   3.755   3.627   5.209 -0.3854 -0.4088 -1.2045
14817SOL    HW245893   3.873   3.694   5.277 -2.5573  0.3769  2.0159
14818SOL     OW45894   5.290   4.495   4.756  0.2900  0.2347  0.2696
14818SOL    HW145895   5.219   4.556   4.778  0.4038  0.3494  0.3214
14818SOL    HW245896   5.254   4.442   4.685  0.3084  0.5834 -0.0031
14819SOL     OW45897   5.978   3.075   2.754 -0.5765 -0.2223  0.3081
14819SOL    HW145898   6.058   3.085   2.701 -0.8896  0.1391 -0.1098
14819SOL    HW245899   5.975   3.155   2.807 -0.3196 -0.5357  0.7967
14820SOL     OW45900   4.503   4.106   5.371 -0.3145  0.3272 -0.1807
14820SOL    HW145901   4.520   4.200   5.373 -0.6673  0.4341 -1.5526
14820SOL    HW245902   4.581   4.068   5.330  0.1192 -0.0823  0.9501
14821SOL     OW45903   3.748   4.954   4.882 -0.0751  0.6640  0.1126
14821SOL    HW145904   3.702   4.875   4.855  0.6456 -0.4578  1.9594
14821SOL    HW245905   3.717   4.972   4.971  2.6592  0.0318  1.3270
14822SOL     OW45906   4.798   3.780   5.623 -0.0599 -0.3006 -0.4758
14822SOL    HW145907   4.793   3.742   5.710  1.3874 -0.6396 -0.5162
14822SOL    HW245908   4.749   3.720   5.567  1.2104 -1.5136 -0.3339
14823SOL     OW45909   5.620   2.845   2.941 -0.5915 -0.8878  0.4184
14823SOL    HW145910   5.526   2.832   2.942 -0.6656 -1.0708 -2.0265
14823SOL    HW245911   5.631   2.939   2.927 -0.3377 -0.6196  2.1807
14824SOL     OW45912   4.947   5.165   6.410  0.0709  0.8885 -0.2345
14824SOL    HW145913   4.959   5.218   6.331 -0.0823 -1.6503 -2.0743
14824SOL    HW245914   4.958   5.075   6.381 -1.0442 -0.2347  2.4644
14825SOL     OW45915   4.417   4.145   6.042  0.1587 -0.4581 -0.1989
14825SOL    HW145916   4.360   4.069   6.038  0.3355 -0.5534 -1.7067
14825SOL    HW245917   4.505   4.109   6.033  0.2283 -0.0921 -1.1840
14826SOL     OW45918   5.004   3.682   2.386 -0.2388  0.3281  0.4441
14826SOL    HW145919   5.085   3.730   2.399 -0.8973  1.4351  0.6002
14826SOL    HW245920   5.031   3.597   2.352  0.9534  0.8747 -0.0234
14827SOL     OW45921   6.375   5.021   3.013 -0.0040  0.8758 -0.1425
14827SOL    HW145922   6.294   4.971   3.001 -0.0371  0.8971 -0.0089
14827SOL    HW245923   6.401   5.045   2.925  1.1393 -1.1529 -0.4000
14828SOL     OW45924   4.201   4.978   4.973  0.1176  0.0629 -0.3669
14828SOL    HW145925   4.175   4.889   4.997  0.0574  0.0446 -0.4942
14828SOL    HW245926   4.171   4.987   4.882  0.7363 -0.0349 -0.5883
14829SOL     OW45927   5.756   4.912   6.471 -0.2939  0.2206 -0.4914
14829SOL    HW145928   5.835   4.927   6.419  0.8757  0.1544  1.2047
14829SOL    HW245929   5.757   4.980   6.538 -0.8717 -0.6820  0.4627
14830SOL     OW45930   5.740   3.641   4.942 -0.0039  0.4332 -0.0735
14830SOL    HW145931   5.701   3.560   4.973  1.1044  0.2869  1.0410
14830SOL    HW245932   5.666   3.701   4.931 -0.6009  0.0642  1.6098
14831SOL     OW45933   4.953   5.539   4.260  0.1355  0.3960 -0.0846
14831SOL    HW145934   4.872   5.554   4.309 -0.0028 -0.4880 -0.0300
14831SOL    HW245935   4.975   5.624   4.223 -1.0040  0.5667 -0.3886
14832SOL     OW45936   3.912   5.991   3.562  0.8673 -0.4093 -0.3261
14832SOL    HW145937   3.840   6.051   3.583  1.2906  0.9650 -2.5650
14832SOL    HW245938   3.871   5.904   3.564 -0.5819  0.2365 -0.4254
14833SOL     OW45939   4.464   5.200   5.693  0.2466  0.1191 -0.5483
14833SOL    HW145940   4.422   5.124   5.733 -1.5767  1.5355  0.3895
14833SOL    HW245941   4.514   5.164   5.620  1.1581 -2.1905  1.1245
14834SOL     OW45942   5.258   4.613   4.266 -0.1001 -0.6182  0.1077
14834SOL    HW145943   5.280   4.599   4.358 -1.6715  0.2401  0.6371
14834SOL    HW245944   5.270   4.707   4.252 -0.9644 -0.5550 -0.2594
14835SOL     OW45945   3.596   6.520   4.172 -0.2096  0.0528  0.0608
14835SOL    HW145946   3.592   6.471   4.089  1.5416  0.7115 -0.4692
14835SOL    HW245947   3.521   6.489   4.221 -1.4624 -0.1729 -1.8756
14836SOL     OW45948   4.193   3.740   4.701 -0.4745  0.3139 -0.0193
14836SOL    HW145949   4.174   3.694   4.620  1.2717  0.2553 -0.4312
14836SOL    HW245950   4.287   3.728   4.715 -0.7302  0.2604  2.0535
14837SOL     OW45951   5.390   6.145   5.264 -0.7383  0.2299 -0.2501
14837SOL    HW145952   5.408   6.239   5.268  2.0374 -0.2323 -0.1417
14837SOL    HW245953   5.377   6.119   5.355  0.3759  0.2164 -0.0849
14838SOL     OW45954   6.076   5.729   4.168 -0.1156 -0.2294 -0.5068
14838SOL    HW145955   6.106   5.661   4.107 -0.8575  0.4894 -1.7165
14838SOL    HW245956   6.052   5.681   4.247  2.4386 -1.0154 -0.1161
14839SOL     OW45957   5.166   4.894   4.968  0.5369  0.6402  0.3923
14839SOL    HW145958   5.234   4.922   4.906 -0.1358 -1.3969 -1.3997
14839SOL    HW245959   5.102   4.965   4.967 -0.0921  0.1575 -2.3442
14840SOL     OW45960   4.236   5.695   6.304  0.3715 -0.1767  0.7992
14840SOL    HW145961   4.175   5.638   6.258 -1.5379  0.9858  1.7963
14840SOL    HW245962   4.210   5.690   6.396  0.8140  1.4904  1.0512
14841SOL     OW45963   5.872   5.652   5.801  0.6947 -0.0109 -0.0240
14841SOL    HW145964   5.847   5.577   5.855  1.1898  0.8408  1.4454
14841SOL    HW245965   5.966   5.662   5.816  1.0240 -0.2726 -1.7505
14842SOL     OW45966   5.073   6.027   4.088 -0.2326 -0.3166  0.7190
14842SOL    HW145967   5.147   6.084   4.070  1.0721 -1.5492  1.8723
14842SOL    HW245968   4.996   6.079   4.066  0.9272  1.4674  0.7033
14843SOL     OW45969   5.015   4.223   4.245 -0.5745 -0.2271  0.3055
14843SOL    HW145970   4.953   4.253   4.179  0.1851  0.5790 -0.0789
14843SOL    HW245971   4.999   4.279   4.320  0.5410  0.9147 -0.2557
14844SOL     OW45972   7.664   5.680   4.799  0.5553 -0.2835 -0.6328
14844SOL    HW145973   7.578   5.659   4.837  0.9007 -2.0084 -0.7127
14844SOL    HW245974   7.662   5.775   4.788 -0.9172 -0.1443  0.3933
14845SOL     OW45975   6.378   4.715   5.722  0.2438 -0.2348  1.2999
14845SOL    HW145976   6.332   4.632   5.713  0.2333 -0.6298  3.9775
14845SOL    HW245977   6.311   4.781   5.703  0.4168 -0.7376 -1.4893
14846SOL     OW45978   7.388   5.313   4.079 -0.2257  0.0821 -0.4025
14846SOL    HW145979   7.298   5.281   4.082  0.1000 -0.7585  1.3804
14846SOL    HW245980   7.379   5.409   4.081 -1.0722  0.0058 -0.2687
14847SOL     OW45981   3.356   4.973   4.052 -0.3894 -0.1693  0.0471
14847SOL    HW145982   3.400   4.890   4.072  1.2478  0.2371 -1.6566
14847SOL    HW245983   3.273   4.968   4.101  1.1559 -1.2843  2.7558
14848SOL     OW45984   5.101   3.532   5.427  0.1232  0.0173 -0.8882
14848SOL    HW145985   5.028   3.494   5.475 -0.1323  0.9463 -0.5037
14848SOL    HW245986   5.100   3.625   5.452  2.3807 -0.2248  0.3651
14849SOL     OW45987   3.799   3.608   4.898  0.1873 -0.2380 -0.3225
14849SOL    HW145988   3.773   3.623   4.807 -2.4321 -0.0290  0.3713
14849SOL    HW245989   3.780   3.691   4.942  1.2837 -0.3780  0.4667
14850SOL     OW45990   5.605   3.228   4.158  0.0938 -0.1673 -0.1338
14850SOL    HW145991   5.576   3.301   4.213  0.6873 -0.1437  0.1519
14850SOL    HW245992   5.661   3.267   4.092 -0.5403 -0.2116 -0.7056
14851SOL     OW45993   5.298   5.327   3.846 -0.1980 -0.3534 -0.2797
14851SOL    HW145994   5.325   5.283   3.926 -0.0763 -1.0009 -0.6669
14851SOL    HW245995   5.371   5.314   3.785  0.0655  0.8318 -0.2520
14852SOL     OW45996   4.997   5.106   4.619 -0.3194 -1.0334  0.0783
14852SOL    HW145997   4.973   5.031   4.565 -0.3228 -0.4108 -0.8025
14852SOL    HW245998   5.084   5.084   4.654 -0.6577 -1.7781  0.4647
14853SOL     OW45999   5.242   3.725   3.071  0.1779 -0.2125  0.2078
14853SOL    HW146000   5.192   3.806   3.064  2.7670  1.4699 -0.3283
14853SOL    HW246001   5.252   3.695   2.981  1.5887  0.4946  0.0943
14854SOL     OW46002   3.524   5.082   2.783 -0.1496  0.3095 -0.1725
14854SOL    HW146003   3.547   5.025   2.710 -0.6173 -0.1635  0.0451
14854SOL    HW246004   3.510   5.168   2.742  1.5051  0.5271 -0.3753
14855SOL     OW46005   6.088   4.127   3.878  0.5841 -0.3836  0.1078
14855SOL    HW146006   6.020   4.134   3.945 -0.0101  2.6527 -0.6570
14855SOL    HW246007   6.042   4.143   3.795  1.8786 -0.5265 -0.6626
14856SOL     OW46008   3.660   4.576   6.161 -0.5519  0.4959  0.0973
14856SOL    HW146009   3.582   4.569   6.216  0.6009  0.2433  1.7750
14856SOL    HW246010   3.669   4.670   6.144 -0.5218  0.6572  0.9783
14857SOL     OW46011   3.980   4.465   3.794  0.5456 -0.0538  0.1209
14857SOL    HW146012   4.062   4.440   3.836 -0.8905 -1.1612  2.4538
14857SOL    HW246013   3.960   4.552   3.829 -0.2972 -0.6828  1.2842
14858SOL     OW46014   5.817   4.066   4.066 -0.1731 -0.0538  0.3964
14858SOL    HW146015   5.775   4.128   4.126 -0.8650 -0.3977  0.2848
14858SOL    HW246016   5.764   4.070   3.986 -1.4997 -2.2327  1.0643
14859SOL     OW46017   6.873   5.887   3.704  0.0833  0.0310 -0.3019
14859SOL    HW146018   6.839   5.879   3.614  0.6092 -0.0149 -0.5017
14859SOL    HW246019   6.967   5.901   3.692 -0.2486  3.6286  0.1002
14860SOL     OW46020   6.589   5.736   3.166 -0.2706 -0.1643  0.3294
14860SOL    HW146021   6.613   5.700   3.081 -1.8553  0.7552 -0.5628
14860SOL    HW246022   6.513   5.684   3.194 -1.9284  1.6789 -0.4933
14861SOL     OW46023   5.777   3.256   7.178 -0.3278 -0.4247 -0.0369
14861SOL    HW146024   5.779   3.319   7.106 -1.1854  2.0153  1.9001
14861SOL    HW246025   5.689   3.266   7.216  0.1089 -1.5892  1.3696
14862SOL     OW46026   4.943   5.091   5.249  0.5892 -0.1105 -0.2208
14862SOL    HW146027   4.855   5.069   5.281  0.2804  1.1562 -0.1698
14862SOL    HW246028   4.961   5.023   5.184 -0.1811 -0.7255  0.1731
14863SOL     OW46029   4.656   4.877   4.704 -0.1778  0.8018 -0.4061
14863SOL    HW146030   4.622   4.905   4.789  1.7148 -0.9870  1.0463
14863SOL    HW246031   4.588   4.821   4.668 -0.0091 -0.4820  1.1627
14864SOL     OW46032   6.156   3.840   5.480 -0.5736  0.4573  0.1924
14864SOL    HW146033   6.184   3.762   5.432 -2.3333 -0.3901  0.4560
14864SOL    HW246034   6.064   3.851   5.456 -0.8365  1.4153  1.5488
14865SOL     OW46035   5.467   4.151   4.675 -0.4852 -0.5995  0.0320
14865SOL    HW146036   5.408   4.227   4.677  0.2183 -0.0385  1.7225
14865SOL    HW246037   5.445   4.105   4.594 -0.9386  1.4074 -1.0499
14866SOL     OW46038   4.621   3.694   5.442 -0.2617  0.1205  0.2150
14866SOL    HW146039   4.534   3.734   5.448 -0.2212  0.3652 -0.6893
14866SOL    HW246040   4.673   3.757   5.392  0.6152  0.2586  1.2552
14867SOL     OW46041   4.762   5.899   5.305 -0.2648  0.1052 -0.4141
14867SOL    HW146042   4.823   5.864   5.370 -1.7074  0.3807  1.1511
14867SOL    HW246043   4.692   5.940   5.356  0.5934  4.1807 -2.0676
14868SOL     OW46044   6.663   5.580   4.228 -0.2231 -0.0782  0.6661
14868SOL    HW146045   6.743   5.614   4.187 -1.1446  0.3665 -0.8040
14868SOL    HW246046   6.600   5.574   4.157 -1.1041 -1.7641  1.5243
14869SOL     OW46047   5.084   5.263   3.573 -0.3785 -0.5652  0.3942
14869SOL    HW146048   5.175   5.264   3.543 -0.6399  0.9872 -0.4611
14869SOL    HW246049   5.035   5.227   3.498 -0.6761  0.4191  0.1040
14870SOL     OW46050   3.881   5.279   5.492 -0.4520  0.0865  0.0858
14870SOL    HW146051   3.925   5.201   5.526 -1.6741 -0.8692 -0.4782
14870SOL    HW246052   3.847   5.323   5.570 -1.7661 -1.1936  0.2730
14871SOL     OW46053   6.689   4.034   5.245  0.0326 -0.5208  0.5509
14871SOL    HW146054   6.626   4.088   5.198  0.4479  1.3156  2.0018
14871SOL    HW246055   6.723   3.973   5.179 -1.5375 -0.0179 -0.7810
14872SOL     OW46056   6.151   4.725   4.811 -0.3003 -0.0384 -0.3343
14872SOL    HW146057   6.086   4.796   4.804 -0.5196 -0.2598 -0.5715
14872SOL    HW246058   6.166   4.716   4.905 -0.2812  0.3170 -0.3019
14873SOL     OW46059   5.051   5.844   4.695  0.4461  0.2220 -0.3125
14873SOL    HW146060   5.023   5.861   4.605  0.6181  1.3506 -0.1741
14873SOL    HW246061   5.042   5.749   4.706  2.9191 -0.3581 -2.3515
14874SOL     OW46062   4.769   4.601   4.225 -0.0722  0.0277  0.2840
14874SOL    HW146063   4.793   4.509   4.230  0.0347  0.0765  0.7254
14874SOL    HW246064   4.844   4.644   4.183 -0.4923 -0.2161 -0.7479
14875SOL     OW46065   5.337   3.617   4.917  0.2865  0.5556  0.3132
14875SOL    HW146066   5.348   3.603   5.011  2.2881 -0.1484  0.0154
14875SOL    HW246067   5.360   3.709   4.904 -0.4624  0.7863  0.5563
14876SOL     OW46068   5.657   5.427   5.374  0.2305 -0.2128 -0.3868
14876SOL    HW146069   5.641   5.333   5.365  2.0145 -0.4234 -2.1771
14876SOL    HW246070   5.748   5.433   5.404 -0.4700  0.9567  1.6556
14877SOL     OW46071   4.743   1.868   3.094 -0.4060 -0.8520 -0.1387
14877SOL    HW146072   4.827   1.903   3.123 -0.1893 -1.0146 -0.5721
14877SOL    HW246073   4.703   1.939   3.044 -0.1118 -1.1032 -0.7355
14878SOL     OW46074   7.314   4.215   4.382  0.4750 -0.5717 -0.8131
14878SOL    HW146075   7.409   4.202   4.384  0.5033 -0.4451  1.5618
14878SOL    HW246076   7.303   4.309   4.397 -0.0297 -0.7253 -0.1884
14879SOL     OW46077   6.239   3.766   6.167 -0.6368  0.1717  0.0640
14879SOL    HW146078   6.319   3.719   6.142 -0.1713  0.6388  0.6418
14879SOL    HW246079   6.261   3.858   6.158 -0.9811  0.3112  0.6213
14880SOL     OW46080   5.868   5.941   4.162 -0.1775  0.1369  0.1945
14880SOL    HW146081   5.938   5.877   4.178  0.4378  0.8308  0.3490
14880SOL    HW246082   5.817   5.941   4.243  0.7114  0.9169  0.7729
14881SOL     OW46083   4.121   4.374   5.953  0.3976  0.5142 -0.2236
14881SOL    HW146084   4.059   4.447   5.958 -1.1487 -0.7217 -0.6309
14881SOL    HW246085   4.092   4.324   5.877  1.2402 -0.6841  0.2352
14882SOL     OW46086   4.050   3.846   7.057  0.6875 -0.1211 -0.0216
14882SOL    HW146087   4.056   3.786   6.984  1.1906 -1.5491  1.1409
14882SOL    HW246088   4.140   3.876   7.071  0.5088  0.5737 -0.3165
14883SOL     OW46089   3.856   4.303   6.727  0.2171  0.6955 -0.1091
14883SOL    HW146090   3.830   4.337   6.641 -0.0823 -2.2711 -1.3472
14883SOL    HW246091   3.943   4.265   6.712  0.4896  0.8017  1.1142
14884SOL     OW46092   6.267   5.904   6.412  0.3884 -0.1882 -0.4134
14884SOL    HW146093   6.205   5.867   6.349  0.3198  1.8452 -1.6061
14884SOL    HW246094   6.212   5.936   6.484  0.2868 -0.6783 -0.2712
14885SOL     OW46095   5.124   4.019   5.387  0.0851 -0.5571  0.2915
14885SOL    HW146096   5.125   4.102   5.434  1.9415  0.5109 -1.4899
14885SOL    HW246097   5.044   4.022   5.334 -0.2975 -0.3068  0.8751
14886SOL     OW46098   5.239   4.598   6.719  0.4780  0.2225 -0.4765
14886SOL    HW146099   5.328   4.626   6.698  0.8645  0.6481  1.5098
14886SOL    HW246100   5.185   4.676   6.706  0.4568  0.0823 -1.2581
14887SOL     OW46101   3.854   4.967   6.314 -0.0681 -0.1792 -0.0654
14887SOL    HW146102   3.813   4.980   6.229  1.8130  1.4799 -0.8039
14887SOL    HW246103   3.919   4.898   6.300  0.3281  0.1807 -0.0212
14888SOL     OW46104   6.319   5.812   7.889  0.0407  0.9736  0.3635
14888SOL    HW146105   6.227   5.790   7.874  0.1345 -0.3845  1.5432
14888SOL    HW246106   6.342   5.868   7.815 -1.7465  1.4162  0.0860
14889SOL     OW46107   5.648   5.273   5.108  0.1995  0.2550  0.3862
14889SOL    HW146108   5.680   5.206   5.047 -1.5703  0.0106 -0.3272
14889SOL    HW246109   5.686   5.248   5.192 -0.8468 -2.0260  0.2612
14890SOL     OW46110   4.516   5.807   6.976  0.0656  0.5876  0.5823
14890SOL    HW146111   4.459   5.784   6.903 -0.4910  1.4857  0.7274
14890SOL    HW246112   4.564   5.884   6.946  1.7652 -0.5692  0.1832
14891SOL     OW46113   6.029   5.405   7.076  0.4433  0.1374  0.3881
14891SOL    HW146114   6.003   5.491   7.044  1.4606  0.8118  1.2826
14891SOL    HW246115   6.035   5.350   6.998 -1.9392  0.3673 -0.0221
14892SOL     OW46116   4.021   4.754   6.248 -0.0498 -0.3787  0.3856
14892SOL    HW146117   4.054   4.682   6.301 -2.8571 -1.9734  0.1391
14892SOL    HW246118   4.028   4.723   6.158 -0.7344 -0.1021  0.2321
14893SOL     OW46119   4.033   4.918   6.573 -0.9051  0.1267 -0.2544
14893SOL    HW146120   4.084   4.952   6.500 -0.7852  2.0004  0.6493
14893SOL    HW246121   4.097   4.899   6.641 -1.1115 -0.6309 -0.2671
14894SOL     OW46122   5.945   5.470   7.873 -0.1647  0.0412 -0.0411
14894SOL    HW146123   5.975   5.486   7.963 -1.7897 -0.5010  0.6280
14894SOL    HW246124   5.932   5.376   7.868 -0.5175  0.1216 -0.7193
14895SOL     OW46125   4.057   4.731   5.977 -0.3832 -0.2023 -0.1166
14895SOL    HW146126   4.073   4.807   5.922 -1.6021 -0.3303 -0.6791
14895SOL    HW246127   3.991   4.680   5.930 -0.4694 -1.0063  0.8213
14896SOL     OW46128   5.790   2.706   6.877  0.2735  0.1312 -0.0100
14896SOL    HW146129   5.702   2.667   6.878  0.2118  0.1570 -1.5906
14896SOL    HW246130   5.782   2.782   6.934 -0.8850  0.4233 -0.5189
14897SOL     OW46131   4.344   4.776   6.350 -0.1316 -0.3423 -0.0449
14897SOL    HW146132   4.259   4.758   6.310 -0.8254  0.6864  0.9094
14897SOL    HW246133   4.355   4.706   6.414  0.1707 -0.9860 -0.7840
14898SOL     OW46134   5.660   6.355   6.660 -0.3176  0.0634 -0.1971
14898SOL    HW146135   5.659   6.334   6.567  1.0192  1.5223 -0.5680
14898SOL    HW246136   5.661   6.269   6.704 -1.7991 -0.6512 -1.4627
14899SOL     OW46137   3.494   5.574   6.678  0.1496 -0.2221 -0.6506
14899SOL    HW146138   3.584   5.541   6.673 -0.2974 -1.4809 -0.6355
14899SOL    HW246139   3.458   5.558   6.591 -0.7339 -1.7763 -0.0382
14900SOL     OW46140   5.518   4.730   5.681  0.2890  0.4873  0.6959
14900SOL    HW146141   5.465   4.654   5.703  0.2463  0.5840  0.9314
14900SOL    HW246142   5.528   4.777   5.764 -1.4499  1.8439  0.1995
14901SOL     OW46143   6.101   5.882   6.163 -0.3647  0.2561 -0.2029
14901SOL    HW146144   6.123   5.810   6.105  0.5865 -0.8508  1.4456
14901SOL    HW246145   6.006   5.884   6.165 -0.4261 -1.3845  0.1695
14902SOL     OW46146   4.215   3.434   7.527 -0.3639 -0.3317 -0.2131
14902SOL    HW146147   4.220   3.351   7.480  1.0609 -1.3492  1.6151
14902SOL    HW246148   4.306   3.460   7.541 -0.7661  0.5620  0.9201
14903SOL     OW46149   5.250   4.678   5.115  0.1721 -0.1535 -0.3200
14903SOL    HW146150   5.166   4.639   5.137 -0.0461  1.2057  1.4318
14903SOL    HW246151   5.229   4.764   5.081  0.8318  0.0959 -0.1125
14904SOL     OW46152   5.172   4.648   7.903  0.1429  0.0531 -0.5029
14904SOL    HW146153   5.248   4.594   7.881  0.0557  0.1708 -1.1255
14904SOL    HW246154   5.106   4.586   7.934 -0.6225 -0.4866 -2.9625
14905SOL     OW46155   3.979   3.357   7.303 -0.1032 -0.3584  0.2910
14905SOL    HW146156   3.942   3.353   7.215  3.0193  0.3464 -1.2052
14905SOL    HW246157   4.023   3.443   7.307  1.0963 -0.9888  1.9576
14906SOL     OW46158   5.026   4.890   6.024  0.2320 -0.5888 -0.4644
14906SOL    HW146159   4.950   4.837   6.048  0.3716 -0.7480 -0.3764
14906SOL    HW246160   4.988   4.973   5.993  0.0637 -0.1457  0.8700
14907SOL     OW46161   5.737   4.327   6.766  0.5532 -0.4482 -0.1864
14907SOL    HW146162   5.729   4.343   6.860  1.1791  1.9640 -0.4708
14907SOL    HW246163   5.664   4.269   6.745 -1.4452  1.3763  1.3076
14908SOL     OW46164   4.291   4.023   7.999  0.4841  0.1698 -0.1256
14908SOL    HW146165   4.216   3.981   7.957  0.8210  0.3410 -0.9245
14908SOL    HW246166   4.279   4.116   7.982  1.3569  0.1240 -1.0939
14909SOL     OW46167   4.442   4.030   5.752 -0.1008  0.9068 -0.4057
14909SOL    HW146168   4.486   3.947   5.770 -1.0381  0.2571 -1.0543
14909SOL    HW246169   4.392   4.048   5.831  1.2866  1.6581  0.3450
14910SOL     OW46170   6.475   5.868   4.761  0.2545  0.0248 -0.0871
14910SOL    HW146171   6.460   5.795   4.822 -1.0034  1.1096  0.9672
14910SOL    HW246172   6.477   5.827   4.675  2.1960 -1.5852  0.6242
14911SOL     OW46173   4.362   4.405   5.811  0.0066  0.1981  0.0483
14911SOL    HW146174   4.292   4.370   5.866 -0.4985  0.7129 -0.2635
14911SOL    HW246175   4.331   4.392   5.721  1.6888 -2.4883 -0.2423
14912SOL     OW46176   5.672   5.667   5.595  0.0242  0.0210 -0.2744
14912SOL    HW146177   5.751   5.663   5.649 -0.2944 -0.1840  0.1828
14912SOL    HW246178   5.703   5.653   5.506  0.5947  0.6143 -0.1798
14913SOL     OW46179   5.704   5.225   8.567  0.1632 -0.4647  0.1080
14913SOL    HW146180   5.618   5.238   8.605  0.1066 -0.3558 -0.0529
14913SOL    HW246181   5.687   5.184   8.482  0.4401 -3.5083  1.4219
14914SOL     OW46182   5.695   4.738   5.430 -0.3234 -0.0678 -0.0094
14914SOL    HW146183   5.605   4.770   5.441  0.3934  2.2125 -0.1529
14914SOL    HW246184   5.705   4.670   5.496 -1.6579  0.7646  1.1096
14915SOL     OW46185   4.042   5.188   6.254  0.7785  0.1931 -0.1002
14915SOL    HW146186   3.999   5.104   6.273  1.2256  0.1933  0.9752
14915SOL    HW246187   3.990   5.227   6.184  0.7800 -1.1498 -0.8765
14916SOL     OW46188   4.148   5.787   8.844 -0.6696  0.0087 -0.1120
14916SOL    HW146189   4.072   5.843   8.860  0.4691  1.1972  1.4366
14916SOL    HW246190   4.184   5.820   8.762  0.5744  2.3755  1.2628
14917SOL     OW46191   4.564   3.800   5.855 -0.3362 -0.1601  0.4324
14917SOL    HW146192   4.543   3.714   5.818  0.2627 -1.5043  3.0187
14917SOL    HW246193   4.649   3.787   5.897  0.4237  2.1124 -0.3019
14918SOL     OW46194   6.768   4.853   7.543 -0.0205 -0.3770 -0.4901
14918SOL    HW146195   6.820   4.795   7.487  1.9209  1.4658 -0.7277
14918SOL    HW246196   6.757   4.932   7.491  0.1176  0.6399  0.9731
14919SOL     OW46197   5.036   2.742   5.954 -0.6448 -0.0110  0.3578
14919SOL    HW146198   4.995   2.825   5.932 -1.3947 -0.2305  0.8445
14919SOL    HW246199   5.035   2.740   6.050 -0.8087 -0.6502  0.3497
14920SOL     OW46200   4.664   5.860   6.123  0.1316  0.0424  0.3829
14920SOL    HW146201   4.703   5.835   6.039  0.2883 -0.7821  0.6978
14920SOL    HW246202   4.575   5.886   6.101  1.0255  2.7373 -0.4767
14921SOL     OW46203   5.294   5.725   6.190  0.5410 -0.0173  0.0173
14921SOL    HW146204   5.242   5.660   6.237  1.0294 -1.5066 -1.4052
14921SOL    HW246205   5.284   5.702   6.097 -0.0259  2.5343 -0.6371
14922SOL     OW46206   5.305   4.391   7.563  0.4386  0.0755  0.4509
14922SOL    HW146207   5.330   4.464   7.619 -0.2739  0.8361 -0.1970
14922SOL    HW246208   5.344   4.314   7.605 -1.7182  0.2899  3.1155
14923SOL     OW46209   5.512   5.353   7.524 -0.7404 -0.7910  0.3156
14923SOL    HW146210   5.458   5.363   7.603 -1.3793  0.1262 -0.2237
14923SOL    HW246211   5.535   5.442   7.500  0.1781 -1.1219 -0.0484
14924SOL     OW46212   4.236   4.701   5.674  0.5394 -0.2209 -0.0424
14924SOL    HW146213   4.273   4.690   5.762  1.4668  0.9619 -0.2617
14924SOL    HW246214   4.175   4.774   5.683  1.5413  0.7050 -0.6294
14925SOL     OW46215   4.600   4.323   5.835 -0.2073  0.3907  0.0804
14925SOL    HW146216   4.514   4.363   5.820 -0.3368  0.3004  0.5763
14925SOL    HW246217   4.581   4.238   5.873  0.0508 -0.3797 -1.4437
14926SOL     OW46218   5.618   5.081   7.497  0.0108  0.8197 -0.1713
14926SOL    HW146219   5.539   5.056   7.449 -0.6376 -0.7124  1.6029
14926SOL    HW246220   5.606   5.174   7.517 -0.2392  1.1931 -1.8813
14927SOL     OW46221   3.720   3.131   7.681 -0.5608  0.1744 -0.3165
14927SOL    HW146222   3.664   3.198   7.721 -1.3793 -0.0938 -0.9885
14927SOL    HW246223   3.741   3.167   7.595 -1.1353 -0.4869 -0.7449
14928SOL     OW46224   5.639   4.522   5.270  0.2947 -0.1735 -0.4435
14928SOL    HW146225   5.695   4.491   5.199 -0.7988 -0.8224 -1.0339
14928SOL    HW246226   5.662   4.615   5.279  1.2660 -0.3575 -0.8491
14929SOL     OW46227   4.361   4.956   5.826  0.1135  0.1266 -0.7919
14929SOL    HW146228   4.277   4.927   5.789  0.2595 -0.8002 -0.4341
14929SOL    HW246229   4.420   4.882   5.810  0.5154  0.2442  0.1366
14930SOL     OW46230   4.114   5.918   7.347  0.0893 -0.2180 -0.6196
14930SOL    HW146231   4.029   5.911   7.305  0.5928 -0.9761 -1.5467
14930SOL    HW246232   4.160   5.986   7.298  0.3948 -0.5456 -0.7907
14931SOL     OW46233   3.346   5.663   6.405 -0.0522  0.3087  0.0830
14931SOL    HW146234   3.313   5.632   6.321  0.5293 -2.5373  0.7998
14931SOL    HW246235   3.441   5.667   6.395 -0.1083  2.2359 -0.0442
14932SOL     OW46236   3.522   4.293   6.419 -0.6053  0.7367  0.1542
14932SOL    HW146237   3.491   4.265   6.505 -2.3195 -0.0649 -0.6814
14932SOL    HW246238   3.556   4.213   6.378  0.8575  1.2416  0.3097
14933SOL     OW46239   5.305   2.976   7.404  0.5739 -0.2053 -0.2695
14933SOL    HW146240   5.337   3.066   7.407 -0.8114  0.3237 -0.7939
14933SOL    HW246241   5.292   2.953   7.496 -2.4337  1.4386 -0.1420
14934SOL     OW46242   4.437   3.591   5.721  0.1373  1.1916  0.6503
14934SOL    HW146243   4.465   3.507   5.685 -0.1383  1.5241 -0.3937
14934SOL    HW246244   4.363   3.617   5.666 -0.4710  1.6095  1.6507
14935SOL     OW46245   4.227   5.266   6.745 -0.5850 -0.4084 -0.3447
14935SOL    HW146246   4.135   5.244   6.732 -0.8532 -1.3339  2.3927
14935SOL    HW246247   4.274   5.184   6.728 -0.2259  0.0578 -1.7251
14936SOL     OW46248   5.743   4.588   6.634 -0.3564  0.3034 -0.3824
14936SOL    HW146249   5.813   4.636   6.678  1.0488 -0.2079 -1.9596
14936SOL    HW246250   5.755   4.497   6.661 -1.1918  0.3717  0.2786
14937SOL     OW46251   5.541   3.952   7.552 -0.3769 -0.1130 -0.3497
14937SOL    HW146252   5.626   3.909   7.542 -0.1308  0.4445 -0.7027
14937SOL    HW246253   5.501   3.946   7.466 -0.1759  0.7041 -0.5039
14938SOL     OW46254   4.646   4.898   6.092  0.1871 -0.1285  0.6395
14938SOL    HW146255   4.645   4.908   6.187 -2.1624 -1.1273  0.8021
14938SOL    HW246256   4.669   4.806   6.078  0.4765  0.0024  0.2359
14939SOL     OW46257   5.865   4.502   3.563  0.4260  0.0051  0.6581
14939SOL    HW146258   5.813   4.582   3.564  0.1451 -0.1716  0.3286
14939SOL    HW246259   5.936   4.521   3.502 -0.8060 -0.7087 -1.1059
14940SOL     OW46260   4.616   6.912   7.116  0.4494  0.2241  0.1782
14940SOL    HW146261   4.566   6.991   7.097 -0.2535 -0.7802 -2.5883
14940SOL    HW246262   4.696   6.920   7.064  0.0909 -1.1162 -0.6282
14941SOL     OW46263   4.447   4.561   6.530  0.0880  0.3359 -0.5755
14941SOL    HW146264   4.433   4.476   6.490  1.8063 -0.4813  0.4252
14941SOL    HW246265   4.535   4.586   6.501  0.2643  0.9844  0.4675
14942SOL     OW46266   4.979   5.247   6.921 -0.2631 -0.2082  0.0005
14942SOL    HW146267   5.074   5.251   6.924 -0.3247  1.8142  0.4756
14942SOL    HW246268   4.958   5.237   6.828  0.4013  3.0486 -0.6107
14943SOL     OW46269   5.033   4.609   6.175 -0.0398 -0.1150 -0.5287
14943SOL    HW146270   4.948   4.621   6.132  0.3640  1.1333 -1.0003
14943SOL    HW246271   5.013   4.615   6.269 -0.3377  1.2465 -0.6582
14944SOL     OW46272   2.931   2.149   7.490 -0.2529 -0.0221 -0.2626
14944SOL    HW146273   2.916   2.128   7.582 -0.5453 -3.9167 -1.0145
14944SOL    HW246274   2.886   2.233   7.477 -0.8773  0.2643  2.9277
14945SOL     OW46275   4.681   4.384   6.083 -0.1254 -0.4629 -0.3791
14945SOL    HW146276   4.752   4.320   6.094 -0.1511 -0.5377 -0.6492
14945SOL    HW246277   4.657   4.378   5.991  0.8268  0.9430 -0.7440
14946SOL     OW46278   5.491   4.495   6.011  0.4296  0.8995  0.0089
14946SOL    HW146279   5.512   4.402   6.023  1.3115  1.1365  0.3710
14946SOL    HW246280   5.572   4.533   5.978 -0.2906  1.3237 -1.3354
14947SOL     OW46281   5.890   3.151   6.448 -0.0159 -0.1654  0.5624
14947SOL    HW146282   5.881   3.071   6.500 -2.0435 -0.2698  0.1309
14947SOL    HW246283   5.826   3.141   6.377  0.5070  1.3384 -0.1685
14948SOL     OW46284   5.996   4.391   5.775 -0.0822  0.2236  0.4582
14948SOL    HW146285   5.924   4.434   5.729 -0.7573  0.7514  1.9523
14948SOL    HW246286   5.980   4.298   5.763 -0.2492  0.3504 -0.3603
14949SOL     OW46287   5.094   3.674   5.058  0.3468 -0.3618  0.1779
14949SOL    HW146288   5.012   3.645   5.099  0.3248 -2.0561 -0.9384
14949SOL    HW246289   5.071   3.755   5.014 -0.3975 -0.1412  0.9471
14950SOL     OW46290   3.745   4.026   4.725  0.3927  0.2643  0.0983
14950SOL    HW146291   3.797   3.966   4.779  1.0472 -0.7212 -1.5444
14950SOL    HW246292   3.775   4.113   4.749  1.3528 -0.2005  0.6391
14951SOL     OW46293   6.235   5.852   8.299 -0.2586 -0.3664  0.0701
14951SOL    HW146294   6.187   5.784   8.346  0.2743  0.5939  2.1325
14951SOL    HW246295   6.322   5.814   8.284 -0.7243 -1.0345 -1.0771
14952SOL     OW46296   5.229   4.662   5.880  0.2894  0.0254  1.2306
14952SOL    HW146297   5.137   4.665   5.854  0.2847 -0.1209  1.2268
14952SOL    HW246298   5.265   4.745   5.851  0.9318 -1.1630 -1.6679
14953SOL     OW46299   5.976   5.200   7.922 -0.1102  0.6307  0.4241
14953SOL    HW146300   6.031   5.145   7.977 -0.1854  1.4270  1.3097
14953SOL    HW246301   6.001   5.176   7.832 -1.0341 -1.7437  0.7308
14954SOL     OW46302   6.260   4.783   5.105  0.6079 -0.0431 -0.8822
14954SOL    HW146303   6.300   4.866   5.133 -0.2440 -0.3104  1.3469
14954SOL    HW246304   6.335   4.724   5.093  1.1090  0.4334 -0.2207
14955SOL     OW46305   5.362   4.450   7.854  0.4853 -0.0676  0.5382
14955SOL    HW146306   5.435   4.500   7.892 -0.6522  2.2799 -0.1556
14955SOL    HW246307   5.358   4.370   7.906  2.9230  0.1656  1.2173
14956SOL     OW46308   5.204   5.384   6.865  0.3376 -0.3095  0.3377
14956SOL    HW146309   5.224   5.366   6.774 -1.5356 -1.5652  0.1214
14956SOL    HW246310   5.185   5.478   6.867  2.4657  0.1690 -0.1067
14957SOL     OW46311   4.452   5.551   6.094  0.5444  0.9600 -0.1770
14957SOL    HW146312   4.399   5.600   6.157 -1.9487 -0.3127 -1.1227
14957SOL    HW246313   4.471   5.469   6.139 -1.3860 -0.0210 -1.0326
14958SOL     OW46314   3.398   5.461   5.828  0.6274 -0.7175 -0.2476
14958SOL    HW146315   3.482   5.454   5.873  0.5756  0.0058 -0.0276
14958SOL    HW246316   3.358   5.374   5.838 -0.3497 -0.0386  3.0525
14959SOL     OW46317   4.763   5.050   5.914 -0.7947 -0.1804  0.3567
14959SOL    HW146318   4.723   5.017   5.994 -0.2857  0.0482  0.7143
14959SOL    HW246319   4.744   4.984   5.847 -0.9654 -0.5151  0.7376
14960SOL     OW46320   4.002   4.053   6.560  0.1673  0.5818 -0.0217
14960SOL    HW146321   4.065   4.116   6.526 -0.0866  0.6238 -0.4275
14960SOL    HW246322   4.037   3.968   6.534 -0.8007  0.6770 -1.7782
14961SOL     OW46323   4.341   5.413   4.745 -0.1002  0.4322 -0.0864
14961SOL    HW146324   4.378   5.339   4.698 -0.9349  1.6527 -2.8855
14961SOL    HW246325   4.250   5.388   4.761 -0.6601  1.1643 -1.9188
14962SOL     OW46326   6.501   5.199   7.827  0.2969  0.2323  0.3612
14962SOL    HW146327   6.463   5.111   7.823  1.4082 -0.2959  0.8845
14962SOL    HW246328   6.581   5.193   7.775  1.9637  0.0567  2.7702
14963SOL     OW46329   6.629   4.408   6.428 -0.0511 -0.1230 -0.0588
14963SOL    HW146330   6.555   4.463   6.452  0.1962 -0.2125  0.9871
14963SOL    HW246331   6.680   4.401   6.509  0.2661 -1.3351 -0.3458
14964SOL     OW46332   5.853   4.159   8.449  0.1416  0.1685  0.5559
14964SOL    HW146333   5.769   4.134   8.487  1.1477 -1.9430  1.5928
14964SOL    HW246334   5.897   4.075   8.431  1.9191  1.2030 -0.2030
14965SOL     OW46335   3.868   4.074   7.491  0.3024 -0.0044  0.7981
14965SOL    HW146336   3.937   4.015   7.459  0.7891  0.8598  0.2031
14965SOL    HW246337   3.914   4.155   7.510 -0.7320  1.0538 -0.9301
14966SOL     OW46338   3.687   4.581   6.857  0.2486  0.1408  0.8224
14966SOL    HW146339   3.780   4.600   6.865  0.6638 -1.2915 -0.1398
14966SOL    HW246340   3.655   4.577   6.947  1.2887 -0.1127  1.1950
14967SOL     OW46341   5.735   4.063   6.438  0.0479 -0.3390 -0.2681
14967SOL    HW146342   5.797   4.131   6.465 -2.1519  1.6542  0.1314
14967SOL    HW246343   5.717   4.014   6.519 -2.6318  2.3522  0.9473
14968SOL     OW46344   4.054   3.990   7.314  0.5392 -0.0500  0.1241
14968SOL    HW146345   4.146   4.003   7.288  0.4468 -2.4517 -1.7760
14968SOL    HW246346   4.005   4.050   7.258  0.8274 -0.1967 -0.2906
14969SOL     OW46347   7.106   5.779   7.780 -0.2584 -0.4625 -0.2697
14969SOL    HW146348   7.152   5.698   7.759  1.6276  0.1102  1.2941
14969SOL    HW246349   7.014   5.762   7.757  0.3178 -2.5070 -1.2798
14970SOL     OW46350   5.318   4.106   6.519 -0.2013 -0.0367 -0.0985
14970SOL    HW146351   5.324   4.015   6.487 -0.4428  0.2273 -0.9330
14970SOL    HW246352   5.304   4.158   6.439 -0.4532  0.6949  0.4175
14971SOL     OW46353   6.341   5.564   8.792 -0.1892 -0.3545  0.0832
14971SOL    HW146354   6.319   5.651   8.757 -1.0119 -0.3763  0.5134
14971SOL    HW246355   6.269   5.544   8.852  0.4224 -0.9775  0.6195
14972SOL     OW46356   4.961   2.621   7.526 -0.3490  0.1815 -0.0756
14972SOL    HW146357   4.987   2.556   7.461 -2.1111  0.0601 -0.6965
14972SOL    HW246358   4.932   2.569   7.601  0.5133  0.3099  0.3639
14973SOL     OW46359   4.702   4.794   5.741  0.0721  0.4341 -0.6388
14973SOL    HW146360   4.645   4.749   5.804  1.2321 -2.8904 -1.7454
14973SOL    HW246361   4.652   4.793   5.659 -0.9273  3.6479 -0.2080
14974SOL     OW46362   3.789   4.395   6.469 -0.2262  0.2726  0.1406
14974SOL    HW146363   3.706   4.364   6.433  0.5230 -3.6592  1.3316
14974SOL    HW246364   3.849   4.394   6.395 -0.5724  0.2708 -0.1416
14975SOL     OW46365   4.590   4.893   6.370 -0.0004  0.1420  0.6600
14975SOL    HW146366   4.499   4.868   6.355 -0.3944  0.7217  1.9828
14975SOL    HW246367   4.631   4.815   6.408  0.7138 -0.9424 -2.0736
14976SOL     OW46368   3.023   5.846   6.350  0.4547  0.2390 -0.2327
14976SOL    HW146369   3.074   5.807   6.422  0.3860 -0.0027 -0.3141
14976SOL    HW246370   3.089   5.882   6.291  0.5484 -0.3585 -0.4998
14977SOL     OW46371   5.413   5.179   7.315 -0.4381 -0.4569  0.5832
14977SOL    HW146372   5.430   5.234   7.391 -0.4114 -0.5546  0.6480
14977SOL    HW246373   5.391   5.241   7.245 -0.9145 -0.3898  0.7900
14978SOL     OW46374   5.733   4.989   6.938  0.4404  0.4651 -0.0555
14978SOL    HW146375   5.788   4.936   6.881 -0.2466 -1.1195  0.7055
14978SOL    HW246376   5.687   4.926   6.993 -0.7348  1.8405  0.6019
14979SOL     OW46377   4.068   3.603   7.233 -0.1395  0.3983 -0.2115
14979SOL    HW146378   4.036   3.682   7.190  0.6307  1.1904  0.6302
14979SOL    HW246379   4.161   3.599   7.209 -0.0606  0.0033  0.1516
14980SOL     OW46380   3.468   2.954   7.089  0.1167 -0.2150 -0.2974
14980SOL    HW146381   3.562   2.945   7.080  0.4507  0.5760  1.8476
14980SOL    HW246382   3.453   3.048   7.096 -0.4803 -0.4190  2.0415
14981SOL     OW46383   5.393   4.142   7.657 -0.2706 -0.4944 -0.0785
14981SOL    HW146384   5.439   4.071   7.613  1.6531  0.7466 -0.1840
14981SOL    HW246385   5.375   4.108   7.745 -0.5762 -1.5610 -0.5396
14982SOL     OW46386   4.169   4.593   6.641  0.3847  0.2823 -0.8590
14982SOL    HW146387   4.167   4.681   6.680  2.7155 -1.0986  3.0141
14982SOL    HW246388   4.260   4.583   6.612  0.5020 -1.2052 -0.0593
14983SOL     OW46389   6.133   3.733   6.853  0.2357 -0.6371 -0.5211
14983SOL    HW146390   6.122   3.638   6.860  3.5137 -1.1160 -0.4432
14983SOL    HW246391   6.122   3.765   6.943 -0.9849 -0.8843 -0.5646
14984SOL     OW46392   4.682   5.580   6.785  0.2178 -0.2061 -0.1818
14984SOL    HW146393   4.615   5.523   6.824  0.8212  0.3973  1.8946
14984SOL    HW246394   4.632   5.655   6.751 -0.2259  0.3098  1.4719
14985SOL     OW46395   4.571   4.363   5.510 -0.4285  0.4904  0.7441
14985SOL    HW146396   4.533   4.332   5.592 -0.0374  1.5086  1.3289
14985SOL    HW246397   4.517   4.439   5.487 -1.3788 -0.5638 -0.6591
14986SOL     OW46398   5.820   6.311   5.788 -0.1335  0.4967  0.2738
14986SOL    HW146399   5.837   6.396   5.830  0.0102  0.3095  0.6024
14986SOL    HW246400   5.821   6.330   5.695  0.2236  0.7999  0.3335
14987SOL     OW46401   5.056   4.790   5.312 -0.1133 -0.0536 -0.1467
14987SOL    HW146402   5.052   4.705   5.270  0.2002 -0.2669  0.2440
14987SOL    HW246403   4.989   4.787   5.380 -0.2408  0.0898 -0.2632
14988SOL     OW46404   5.267   5.038   5.497  0.3575 -0.1045 -0.1931
14988SOL    HW146405   5.302   4.976   5.561 -2.5725 -0.6249  1.0603
14988SOL    HW246406   5.215   5.100   5.549 -0.9820  0.3062 -1.9125
14989SOL     OW46407   4.452   7.227   6.195  0.0068  0.1454  0.0683
14989SOL    HW146408   4.410   7.151   6.235  1.7867  0.6243  3.1193
14989SOL    HW246409   4.397   7.301   6.220 -0.8845  0.1196 -1.6274
14990SOL     OW46410   4.342   4.292   6.428  0.0078  0.2946 -0.2514
14990SOL    HW146411   4.435   4.277   6.440  0.1549  0.1376 -1.4174
14990SOL    HW246412   4.333   4.315   6.335 -1.3748 -1.7921 -0.6964
14991SOL     OW46413   4.296   5.325   8.719  0.4136  0.4004 -0.0469
14991SOL    HW146414   4.301   5.415   8.751  0.7142 -0.1166  1.4332
14991SOL    HW246415   4.205   5.315   8.690  0.2153  0.9919  0.3486
14992SOL     OW46416   3.191   2.208   5.156 -0.0290  0.3206 -0.2095
14992SOL    HW146417   3.115   2.258   5.127  1.5727  1.9184 -1.8985
14992SOL    HW246418   3.265   2.248   5.111  1.3470 -4.1467 -2.5491
14993SOL     OW46419   4.516   6.744   5.694  0.0833 -0.1149 -0.3217
14993SOL    HW146420   4.580   6.722   5.626  2.0371 -0.7280  1.6151
14993SOL    HW246421   4.563   6.731   5.776 -2.8325 -1.6173  1.2773
14994SOL     OW46422   2.832   5.542   7.476  0.3453  0.0507 -0.6927
14994SOL    HW146423   2.833   5.504   7.389  1.9264  0.1589 -0.7524
14994SOL    HW246424   2.814   5.635   7.462 -0.2824 -0.0822 -0.8119
14995SOL     OW46425   5.105   5.287   6.175 -0.5198  0.2876  0.3714
14995SOL    HW146426   5.183   5.252   6.218 -2.2922 -0.5388  3.2058
14995SOL    HW246427   5.109   5.252   6.086  1.6838 -0.7593  0.8075
14996SOL     OW46428   6.494   5.222   5.844  0.2380  0.1655  0.6106
14996SOL    HW146429   6.579   5.260   5.867  0.2498  0.2202  0.4743
14996SOL    HW246430   6.435   5.296   5.838 -0.1792  0.0088  2.2262
14997SOL     OW46431   4.894   5.636   6.150 -0.2526 -0.0326  0.3443
14997SOL    HW146432   4.931   5.678   6.072 -1.6985  0.4893 -0.0936
14997SOL    HW246433   4.907   5.700   6.220 -0.1715  0.0737  0.2315
14998SOL     OW46434   5.539   3.256   7.698  0.6322  0.1877 -0.0265
14998SOL    HW146435   5.527   3.317   7.770  0.3023  1.1870 -0.9168
14998SOL    HW246436   5.620   3.284   7.655 -0.6250  1.4041 -1.7503
14999SOL     OW46437   4.007   4.116   6.917  0.0766  0.6773  0.0083
14999SOL    HW146438   3.999   4.037   6.970 -1.7261  0.9056  0.1395
14999SOL    HW246439   4.004   4.085   6.826  1.3391  0.4537  0.0205
15000SOL     OW46440   5.002   4.638   4.596 -0.2903  0.0716 -0.0575
15000SOL    HW146441   5.012   4.663   4.688  0.3450 -0.1579 -0.0626
15000SOL    HW246442   5.088   4.654   4.557 -0.2345 -0.8967 -0.3535
15001SOL     OW46443   4.992   4.250   7.013  0.1954  0.4254  0.3765
15001SOL    HW146444   4.990   4.299   6.931  1.0227  1.7903  1.1314
15001SOL    HW246445   4.907   4.269   7.054 -0.7025 -1.1765 -0.6239
15002SOL     OW46446   4.822   4.291   4.080 -0.0368  0.3063  0.0965
15002SOL    HW146447   4.822   4.366   4.021  0.3432  1.7611  1.8571
15002SOL    HW246448   4.737   4.293   4.122 -0.1271 -0.4447 -0.0277
15003SOL     OW46449   5.361   5.243   6.465 -0.4244  0.2790 -0.0471
15003SOL    HW146450   5.390   5.205   6.549  1.0020  1.1948 -0.0836
15003SOL    HW246451   5.303   5.315   6.490 -0.2837  0.3245  0.1539
15004SOL     OW46452   3.975   5.152   6.759  0.6578 -0.3223  0.3294
15004SOL    HW146453   3.960   5.063   6.727 -0.2002  0.0551 -0.3414
15004SOL    HW246454   3.911   5.163   6.829 -0.6546  0.4427 -0.9256
15005SOL     OW46455   4.988   3.082   7.995 -0.5606 -0.1603  0.9968
15005SOL    HW146456   5.065   3.030   7.975 -1.5389 -1.9634  1.7404
15005SOL    HW246457   4.939   3.086   7.912  0.5664  1.5174  0.3556
15006SOL     OW46458   5.528   5.471   5.992  0.5620 -0.0325 -0.1061
15006SOL    HW146459   5.600   5.451   5.933  0.5126  1.6966 -0.8212
15006SOL    HW246460   5.550   5.426   6.073  1.1453 -1.6205 -1.1007
15007SOL     OW46461   4.412   5.766   5.925 -0.0695 -0.2861 -0.2772
15007SOL    HW146462   4.436   5.687   5.973  1.3682  0.8735  1.0229
15007SOL    HW246463   4.421   5.742   5.833  3.8630 -0.7348  0.0496
15008SOL     OW46464   3.755   6.903   5.539 -0.3699  0.8101  0.2042
15008SOL    HW146465   3.822   6.931   5.601  0.2228  1.6394 -0.7636
15008SOL    HW246466   3.769   6.808   5.530  1.3623  1.0928 -0.7012
15009SOL     OW46467   6.110   5.358   6.813  0.2537 -0.2762  0.0622
15009SOL    HW146468   6.107   5.267   6.783 -0.8642  0.0114 -0.7587
15009SOL    HW246469   6.181   5.398   6.761  0.5114 -0.5848  0.1751
15010SOL     OW46470   5.033   5.273   5.652  0.0156  0.0901 -0.5913
15010SOL    HW146471   5.110   5.283   5.597 -1.0901  0.0147 -2.2359
15010SOL    HW246472   4.997   5.188   5.627 -0.4424 -0.0150  0.3769
15011SOL     OW46473   5.641   4.010   6.189 -0.1199 -0.4294 -0.1783
15011SOL    HW146474   5.576   3.945   6.214  1.7715 -2.2793  0.2120
15011SOL    HW246475   5.693   4.024   6.268  2.6779 -2.4086 -1.4869
15012SOL     OW46476   5.805   4.737   6.063  0.0787 -0.2896 -0.5027
15012SOL    HW146477   5.822   4.680   6.138 -0.6369  1.0600  0.7251
15012SOL    HW246478   5.891   4.750   6.023  0.7743  0.3591  1.1195
15013SOL     OW46479   4.913   3.698   6.670 -0.0151 -0.0877  0.1161
15013SOL    HW146480   4.846   3.764   6.689 -1.0379 -1.0653  0.0209
15013SOL    HW246481   4.956   3.730   6.590 -1.1715 -0.0135 -0.4964
15014SOL     OW46482   5.828   5.716   7.443  0.1570 -0.2279  0.3001
15014SOL    HW146483   5.833   5.661   7.521  1.0823 -0.1983  0.2712
15014SOL    HW246484   5.915   5.708   7.402 -0.3024 -0.2270 -0.7142
15015SOL     OW46485   5.288   6.022   7.312 -0.1681  0.0090  0.1338
15015SOL    HW146486   5.338   6.101   7.333  0.6845  0.1163 -2.0291
15015SOL    HW246487   5.354   5.953   7.305 -0.4009 -0.0766 -1.7042
15016SOL     OW46488   4.544   3.990   5.092  0.7527  0.2244  0.7303
15016SOL    HW146489   4.621   3.942   5.060  0.8231  0.7830  0.0233
15016SOL    HW246490   4.470   3.932   5.071  0.9119  0.0329  0.6898
15017SOL     OW46491   4.347   5.719   5.405  0.1845 -0.4718  0.5362
15017SOL    HW146492   4.333   5.634   5.362  1.0294 -0.7545  0.7851
15017SOL    HW246493   4.389   5.773   5.338 -0.6058 -0.1471  0.2892
15018SOL     OW46494   2.581   5.652   7.142 -0.1391  0.5762  0.2561
15018SOL    HW146495   2.568   5.650   7.237  0.9561  0.7307  0.4274
15018SOL    HW246496   2.673   5.627   7.130 -1.0257 -2.5828 -0.9612
15019SOL     OW46497   4.842   4.624   7.416  0.4606 -0.0551 -0.6743
15019SOL    HW146498   4.843   4.719   7.404  1.0612  0.1898  1.0398
15019SOL    HW246499   4.933   4.601   7.435  0.1976 -0.8662 -0.3582
15020SOL     OW46500   4.221   3.978   5.914  0.7054 -0.1651 -0.5053
15020SOL    HW146501   4.166   3.904   5.938  0.1614 -0.2129 -1.8154
15020SOL    HW246502   4.161   4.040   5.873  1.2294  0.8227  0.1699
15021SOL     OW46503   5.978   5.944   5.846  0.1486  0.2601  0.0912
15021SOL    HW146504   5.944   5.856   5.829  1.2607  0.3358 -3.5109
15021SOL    HW246505   6.052   5.930   5.905  2.5399 -1.9393 -3.0210
15022SOL     OW46506   5.834   6.111   7.196  0.4270 -0.2374  0.3266
15022SOL    HW146507   5.798   6.126   7.284 -1.5678  0.2770 -0.5079
15022SOL    HW246508   5.860   6.019   7.196 -1.5922 -0.8768  0.8403
15023SOL     OW46509   5.429   3.393   6.906 -0.2966 -0.2088  0.5442
15023SOL    HW146510   5.389   3.479   6.923  3.6129  2.3106 -1.4549
15023SOL    HW246511   5.401   3.339   6.980 -3.6204  2.4522  1.5116
15024SOL     OW46512   4.412   4.577   5.508  0.4842 -0.3436 -0.0706
15024SOL    HW146513   4.462   4.659   5.506  1.5848 -1.0055 -0.8064
15024SOL    HW246514   4.331   4.599   5.555  0.2549  1.4341 -1.2196
15025SOL     OW46515   4.388   5.463   6.635  0.4404 -0.0204  0.1563
15025SOL    HW146516   4.330   5.398   6.676  0.3216 -1.3874 -2.0396
15025SOL    HW246517   4.342   5.546   6.647 -0.5249 -0.6452  1.0191
15026SOL     OW46518   4.326   4.231   5.601  0.5149  0.0231  0.3993
15026SOL    HW146519   4.383   4.160   5.631  1.4768  0.0121 -1.3015
15026SOL    HW246520   4.325   4.221   5.506 -1.5261  0.6714  0.3097
15027SOL     OW46521   5.157   3.678   6.525  0.4886 -0.7989  0.1751
15027SOL    HW146522   5.079   3.623   6.531 -0.3483  0.1567 -1.2393
15027SOL    HW246523   5.225   3.630   6.572 -0.3454 -2.7426 -0.5270
15028SOL     OW46524   5.370   5.659   5.888  0.3263 -0.0153  0.0917
15028SOL    HW146525   5.287   5.612   5.885  0.1511  0.3294 -1.5949
15028SOL    HW246526   5.428   5.603   5.939  0.1683 -2.1744 -1.9341
15029SOL     OW46527   5.101   4.649   7.209 -0.1305  0.1551  0.2608
15029SOL    HW146528   5.105   4.562   7.170 -3.3452  0.6621 -1.5260
15029SOL    HW246529   5.092   4.632   7.303 -2.0806 -1.5784 -0.1583
15030SOL     OW46530   5.128   4.906   7.820  0.0500  0.3505  0.3203
15030SOL    HW146531   5.043   4.900   7.777  0.1436  2.9757 -0.4348
15030SOL    HW246532   5.147   4.817   7.850 -3.0463 -0.2618  0.7552
15031SOL     OW46533   4.562   4.044   8.881 -0.1897 -0.0933  0.4907
15031SOL    HW146534   4.589   3.954   8.866  0.7189  0.3670 -0.8550
15031SOL    HW246535   4.492   4.038   8.947 -0.2621 -1.7699  0.2999
15032SOL     OW46536   4.247   4.395   9.723 -0.1098  0.1008 -0.6103
15032SOL    HW146537   4.168   4.445   9.742  1.1353  1.8078  0.2916
15032SOL    HW246538   4.230   4.308   9.760 -0.3922  1.3425  2.4712
15033SOL     OW46539   5.486   4.510   9.274  0.6016 -0.1788  0.0146
15033SOL    HW146540   5.499   4.458   9.353 -1.2846 -1.4615 -0.4543
15033SOL    HW246541   5.532   4.592   9.291 -0.0987 -0.2578  2.6116
15034SOL     OW46542   4.657   3.803   8.845  0.1252  0.0947  0.1766
15034SOL    HW146543   4.604   3.730   8.812 -0.0205  1.2231 -2.2278
15034SOL    HW246544   4.740   3.762   8.872  0.2621 -0.9133 -1.6484
15035SOL     OW46545   5.212   4.462   8.470 -0.5565  0.6577  0.4728
15035SOL    HW146546   5.292   4.427   8.429 -1.1999  0.3066 -0.5222
15035SOL    HW246547   5.151   4.472   8.397 -1.7656 -0.0305  1.3659
15036SOL     OW46548   4.928   5.509   5.565 -0.3535  0.0561 -0.8615
15036SOL    HW146549   4.971   5.425   5.581 -1.8825 -0.6842 -0.3869
15036SOL    HW246550   4.839   5.497   5.600  0.1265  2.7138  1.7001
15037SOL     OW46551   4.653   5.619  11.354  0.0757  0.0630  0.3086
15037SOL    HW146552   4.644   5.698  11.300 -0.3416 -0.1520  0.0633
15037SOL    HW246553   4.572   5.614  11.404  0.1587 -0.1386  0.4288
15038SOL     OW46554   4.602   5.565   7.857  0.0932 -0.2544 -0.4146
15038SOL    HW146555   4.633   5.639   7.910  2.3681 -0.2176 -1.6652
15038SOL    HW246556   4.599   5.492   7.918 -0.0921  0.4023  0.3805
15039SOL     OW46557   5.383   5.604   9.202 -1.1424 -0.3329 -0.0899
15039SOL    HW146558   5.415   5.682   9.248 -3.2606  0.0130  0.9196
15039SOL    HW246559   5.408   5.531   9.258 -0.3870 -0.2516 -0.3194
15040SOL     OW46560   4.832   4.575   9.045 -0.1413  0.2799  0.0848
15040SOL    HW146561   4.827   4.527   8.962 -0.1043  0.6861 -0.1581
15040SOL    HW246562   4.803   4.512   9.111  0.2136 -0.1739 -0.1869
15041SOL     OW46563   5.216   4.880   7.162  0.0041 -0.2751 -0.2287
15041SOL    HW146564   5.165   4.895   7.082  0.7650  2.3797 -0.3164
15041SOL    HW246565   5.180   4.799   7.198 -2.1470 -0.1601 -1.8839
15042SOL     OW46566   3.500   6.258   8.658  0.0646  0.4927 -0.0919
15042SOL    HW146567   3.453   6.201   8.719  0.0159 -0.2004 -0.7602
15042SOL    HW246568   3.436   6.324   8.632 -0.6389 -0.5690 -1.1675
15043SOL     OW46569   6.094   4.733   6.120 -0.0450  0.5633 -0.0112
15043SOL    HW146570   6.110   4.643   6.090 -0.1716  0.4358  0.2943
15043SOL    HW246571   6.104   4.786   6.042  1.2569  0.4300  0.0514
15044SOL     OW46572   6.129   4.394   8.578 -0.0193 -0.1268 -0.0469
15044SOL    HW146573   6.041   4.380   8.543  0.3827 -0.3727 -0.9940
15044SOL    HW246574   6.124   4.364   8.669 -1.2770  1.1929  0.3594
15045SOL     OW46575   3.896   4.966   8.997  0.1589  0.3382 -0.1252
15045SOL    HW146576   3.853   4.880   8.996  0.9167 -0.1037  1.4395
15045SOL    HW246577   3.942   4.971   8.914  1.9318 -1.7908  0.6262
15046SOL     OW46578   5.341   4.511   8.166 -0.1096  0.0814 -0.4078
15046SOL    HW146579   5.247   4.516   8.184 -0.1972 -0.9596 -0.5149
15046SOL    HW246580   5.351   4.430   8.116  1.1542 -1.1164  1.6688
15047SOL     OW46581   4.534   3.966   7.894  0.6165 -0.1170 -0.1092
15047SOL    HW146582   4.552   4.045   7.842  3.1342  1.2710  2.5984
15047SOL    HW246583   4.452   3.985   7.939  1.0456  0.8512  0.2925
15048SOL     OW46584   6.070   3.851   9.877 -0.1957 -0.0263 -0.7743
15048SOL    HW146585   6.088   3.790   9.805  0.6829 -0.7606  0.0361
15048SOL    HW246586   6.068   3.937   9.836  0.4771 -0.4203 -1.6623
15049SOL     OW46587   4.561   6.502   9.184 -0.0868 -0.4268 -0.1641
15049SOL    HW146588   4.536   6.594   9.189  1.8533  0.0595  1.7329
15049SOL    HW246589   4.482   6.454   9.210 -0.4445  0.8250  1.1824
15050SOL     OW46590   3.511   3.769   9.886 -0.0888  0.4252  0.2601
15050SOL    HW146591   3.514   3.674   9.876 -2.4768  0.3377 -0.4460
15050SOL    HW246592   3.547   3.803   9.804 -0.0764  0.0963  0.1287
15051SOL     OW46593   5.399   4.108   9.092  0.2809 -0.2907 -0.2925
15051SOL    HW146594   5.387   4.018   9.061 -1.4619 -0.0465 -0.4216
15051SOL    HW246595   5.375   4.105   9.184 -1.0561  0.2658 -0.6006
15052SOL     OW46596   4.997   6.027   9.188 -0.3241  0.2392  0.6589
15052SOL    HW146597   4.978   6.096   9.251 -2.0275 -0.3870  0.8945
15052SOL    HW246598   4.962   6.060   9.105 -0.6447 -0.0994  0.6547
15053SOL     OW46599   5.058   4.358   9.125 -0.9238 -0.3302  0.2189
15053SOL    HW146600   5.149   4.373   9.100 -0.8520  1.7033  1.4883
15053SOL    HW246601   5.015   4.328   9.045  0.8051 -1.1878 -0.4347
15054SOL     OW46602   5.668   5.800   8.606 -0.2990  0.1379  0.4136
15054SOL    HW146603   5.707   5.848   8.680 -1.1015  0.9195  0.3560
15054SOL    HW246604   5.670   5.708   8.633  0.5569  0.2815  0.8722
15055SOL     OW46605   4.712   4.291   9.083  0.2568 -0.0247  0.2891
15055SOL    HW146606   4.660   4.258   9.157  1.0681  0.4962  1.1137
15055SOL    HW246607   4.648   4.309   9.014 -1.0668  2.9731  2.0920
15056SOL     OW46608   5.414   4.177   9.359  1.2144 -0.1580 -0.2629
15056SOL    HW146609   5.368   4.130   9.429  0.3792  0.9447 -0.0383
15056SOL    HW246610   5.506   4.168   9.381  0.9924 -0.3723  0.6275
15057SOL     OW46611   3.954   5.822   9.514  0.7995  0.1956 -0.2142
15057SOL    HW146612   3.985   5.816   9.604 -0.1590  0.4501  0.1448
15057SOL    HW246613   3.998   5.900   9.479  0.7764  0.3974  0.1993
15058SOL     OW46614   4.536   4.389   8.556  0.7196  0.7397  0.3255
15058SOL    HW146615   4.600   4.366   8.488  0.7779 -0.6634  0.8049
15058SOL    HW246616   4.456   4.343   8.530  0.6649  0.4024  1.0431
15059SOL     OW46617   3.537   5.656   8.240  0.3612 -0.6029 -0.4150
15059SOL    HW146618   3.581   5.730   8.282  1.1129 -1.3388  0.1275
15059SOL    HW246619   3.578   5.649   8.154 -0.0546 -0.0975 -0.6621
15060SOL     OW46620   4.830   4.564   9.729 -0.3869  0.5635 -0.3502
15060SOL    HW146621   4.765   4.496   9.709 -2.5930  2.1774  0.9608
15060SOL    HW246622   4.903   4.516   9.769 -1.2443 -1.1673 -0.7477
15061SOL     OW46623   5.203   3.593   8.599  0.3879 -0.8090 -0.7237
15061SOL    HW146624   5.256   3.649   8.655 -1.4990  2.0903 -1.5922
15061SOL    HW246625   5.133   3.561   8.656 -0.5255  0.7077 -0.9183
15062SOL     OW46626   3.791   3.804   8.009 -0.4424  0.8176  0.0442
15062SOL    HW146627   3.734   3.879   8.029 -1.4993  0.8277 -2.5385
15062SOL    HW246628   3.732   3.729   8.008  0.5564 -0.0813  2.3033
15063SOL     OW46629   5.302   4.672   8.649 -0.4280  0.3296 -0.0514
15063SOL    HW146630   5.252   4.621   8.584  2.4248 -1.3978 -1.0759
15063SOL    HW246631   5.367   4.718   8.597  0.5115  0.6825  1.4061
15064SOL     OW46632   4.397   7.126   9.573  0.2102 -0.5870 -0.5932
15064SOL    HW146633   4.420   7.213   9.605  0.1210 -0.3257 -1.2138
15064SOL    HW246634   4.355   7.083   9.647 -1.7808  0.6958 -0.8959
15065SOL     OW46635   4.293   4.891   9.157 -0.8325 -0.3144 -0.1845
15065SOL    HW146636   4.295   4.931   9.244 -0.2547 -1.4628  0.3420
15065SOL    HW246637   4.217   4.932   9.114 -0.4569  1.0919  0.4301
15066SOL     OW46638   4.094   5.431   8.935 -1.1644  0.4067 -0.1300
15066SOL    HW146639   4.107   5.482   8.855  0.4176  0.6028  0.2151
15066SOL    HW246640   4.085   5.341   8.905 -2.5838  0.6998 -0.6499
15067SOL     OW46641   3.623   3.850   9.665 -0.6520  0.6274  0.1161
15067SOL    HW146642   3.658   3.851   9.576  1.5379  0.9741  0.9327
15067SOL    HW246643   3.562   3.924   9.667 -0.6326  0.6996 -1.0416
15068SOL     OW46644   5.359   4.852   8.001 -1.0368  0.0298 -0.5916
15068SOL    HW146645   5.309   4.774   7.980  1.1229 -1.5176 -0.2471
15068SOL    HW246646   5.385   4.841   8.092  2.2565 -0.6716 -1.4822
15069SOL     OW46647   6.720   5.959   6.168  0.0566  0.6251 -0.2385
15069SOL    HW146648   6.642   5.957   6.113 -0.2922  1.0314  0.2211
15069SOL    HW246649   6.715   6.044   6.212 -0.0208  0.0533  0.9015
15070SOL     OW46650   5.481   4.939   7.801  1.0560  0.0452 -0.4176
15070SOL    HW146651   5.423   4.920   7.875  0.3568 -0.4830 -1.0777
15070SOL    HW246652   5.562   4.970   7.841  0.8221 -0.5834  0.5867
15071SOL     OW46653   4.871   6.656   7.081 -0.9252  0.1057  0.1338
15071SOL    HW146654   4.880   6.751   7.089 -0.5437 -0.0441  1.7748
15071SOL    HW246655   4.781   6.643   7.051 -0.6128  1.0084 -1.3048
15072SOL     OW46656   4.583   4.304   8.803 -0.2183  0.2943  0.2290
15072SOL    HW146657   4.590   4.209   8.811 -0.1510  0.3936  1.4648
15072SOL    HW246658   4.574   4.320   8.709  2.0672 -0.7959 -0.2262
15073SOL     OW46659   4.558   5.245   7.377  0.1144 -0.0064 -0.2678
15073SOL    HW146660   4.473   5.209   7.402  0.1463  0.0938 -0.0136
15073SOL    HW246661   4.539   5.336   7.352  0.3706  0.5055  1.2862
15074SOL     OW46662   5.897   5.006  10.236  0.3741  0.2878 -0.1343
15074SOL    HW146663   5.988   5.027  10.258  0.0965  0.3752  0.9425
15074SOL    HW246664   5.853   4.995  10.320 -0.2778 -1.2287 -0.6397
15075SOL     OW46665   4.819   5.188   8.458 -0.0249  0.1425 -0.3459
15075SOL    HW146666   4.735   5.143   8.462 -0.2892  0.6105 -0.4684
15075SOL    HW246667   4.845   5.201   8.549  0.4355 -0.9355 -0.3083
15076SOL     OW46668   4.044   3.080   7.464  0.2828  0.0235  0.8133
15076SOL    HW146669   4.129   3.123   7.450  0.6816 -1.1377 -0.6282
15076SOL    HW246670   3.980   3.141   7.427  0.5097  0.7457  1.5835
15077SOL     OW46671   6.686   3.673   6.650  0.3094  0.1088  0.0427
15077SOL    HW146672   6.667   3.713   6.565 -2.9457 -0.7721  0.2385
15077SOL    HW246673   6.700   3.748   6.708 -1.4625  0.9189 -0.4809
15078SOL     OW46674   4.259   2.781   7.435 -0.2577  0.2059 -0.5989
15078SOL    HW146675   4.287   2.871   7.419  0.4603  0.0613 -0.1906
15078SOL    HW246676   4.277   2.736   7.352 -3.2640  1.0195 -1.8385
15079SOL     OW46677   3.726   4.921   7.804 -0.1742  0.0939  1.2192
15079SOL    HW146678   3.779   4.842   7.798  0.5656  0.5158  1.9795
15079SOL    HW246679   3.643   4.898   7.764  0.5478 -0.6203  0.0852
15080SOL     OW46680   6.697   4.017   7.829 -0.4168  0.0663 -0.3640
15080SOL    HW146681   6.649   4.044   7.751 -2.3400  2.5003  1.4809
15080SOL    HW246682   6.735   4.098   7.863  2.4821 -1.3059 -0.0046
15081SOL     OW46683   5.034   5.570   7.473  0.0915 -0.0527 -0.2973
15081SOL    HW146684   5.050   5.512   7.548  0.9151 -0.8496 -1.0661
15081SOL    HW246685   5.046   5.515   7.397  0.0783  0.9484 -1.0475
15082SOL     OW46686   4.424   3.628   8.081 -0.0510  0.2799  0.3255
15082SOL    HW146687   4.381   3.657   8.001 -1.3551  1.1508  1.3073
15082SOL    HW246688   4.497   3.689   8.092  0.5651 -0.2724 -0.5428
15083SOL     OW46689   4.343   4.235   8.440  0.0959  0.1371 -0.0679
15083SOL    HW146690   4.249   4.222   8.451  0.0832  0.6368  0.4692
15083SOL    HW246691   4.383   4.152   8.466 -0.2227 -0.2539 -0.8071
15084SOL     OW46692   6.385   4.149   8.291 -0.2703 -0.4813  0.3636
15084SOL    HW146693   6.389   4.087   8.364  1.6210  0.2897  0.9770
15084SOL    HW246694   6.426   4.102   8.217 -1.2335 -0.8819  0.0696
15085SOL     OW46695   6.892   3.537   8.569  0.4650 -0.2236  0.0093
15085SOL    HW146696   6.938   3.605   8.519  1.4805 -0.6413  0.3435
15085SOL    HW246697   6.821   3.509   8.511  0.7646  0.2847 -0.6225
15086SOL     OW46698   0.274   5.305   7.035 -0.3461  0.1758 -0.2521
15086SOL    HW146699   0.331   5.381   7.046  0.8610 -0.7975  0.3855
15086SOL    HW246700   0.229   5.297   7.119  0.3058 -0.4212  0.0472
15087SOL     OW46701   4.260   5.748   6.880 -0.3097  0.3631  0.6093
15087SOL    HW146702   4.193   5.810   6.849 -0.3549  0.5514  1.0725
15087SOL    HW246703   4.212   5.667   6.898 -0.0794 -0.1726 -1.0554
15088SOL     OW46704   6.945   4.533   8.919 -0.4253  0.4543  0.0400
15088SOL    HW146705   6.896   4.468   8.970  1.9962  0.0649  2.0345
15088SOL    HW246706   6.948   4.497   8.831 -2.7821  0.0309  0.0594
15089SOL     OW46707   5.204   4.938   8.719  0.3977 -0.2708  0.0111
15089SOL    HW146708   5.156   4.872   8.669  0.6088 -1.3460  1.1698
15089SOL    HW246709   5.232   4.892   8.798 -0.9568  1.6622  1.7271
15090SOL     OW46710   4.150   5.322   8.151  0.0814 -0.3171  0.0234
15090SOL    HW146711   4.160   5.253   8.085  0.5028 -0.1859 -0.0512
15090SOL    HW246712   4.118   5.398   8.103  1.8083  0.2360 -0.3072
15091SOL     OW46713   5.052   5.157   8.745 -0.0851  0.0511 -0.6178
15091SOL    HW146714   5.123   5.094   8.751  0.3289  0.6101  0.7871
15091SOL    HW246715   4.974   5.108   8.773  0.3600  0.3270  1.1849
15092SOL     OW46716   5.029   4.798   8.529 -0.0518 -0.1039 -0.4838
15092SOL    HW146717   5.047   4.790   8.436  1.7667 -0.6117 -0.1211
15092SOL    HW246718   4.960   4.735   8.546  0.2755 -0.7002 -1.3129
15093SOL     OW46719   4.747   4.733   8.724  0.2382  0.0244 -0.2030
15093SOL    HW146720   4.720   4.738   8.632  0.7980  1.9477 -0.3161
15093SOL    HW246721   4.803   4.656   8.728 -2.4280 -2.0898 -0.6775
15094SOL     OW46722   4.619   4.038   8.343 -0.1282 -0.1997  0.0087
15094SOL    HW146723   4.557   4.008   8.410  1.4205 -0.7669  1.2652
15094SOL    HW246724   4.633   4.131   8.363 -0.1234 -0.2182  0.0902
15095SOL     OW46725   3.688   4.980   9.964  0.0938  0.0926  0.7998
15095SOL    HW146726   3.676   4.962   9.871  0.4668  2.9438  0.1050
15095SOL    HW246727   3.781   4.965   9.980  0.3042  0.8675  0.3593
15096SOL     OW46728   5.767   4.392   7.851 -0.4719  0.1524 -0.2255
15096SOL    HW146729   5.790   4.302   7.877  2.9363  1.0355  0.3328
15096SOL    HW246730   5.729   4.383   7.764  0.7825 -1.7852 -0.6395
15097SOL     OW46731   3.545   5.511   8.482 -0.2637 -0.1420  0.4373
15097SOL    HW146732   3.540   5.554   8.397  0.3413  0.8743  0.9001
15097SOL    HW246733   3.491   5.564   8.540 -1.1007 -1.1238  0.5884
15098SOL     OW46734   5.011   5.209   7.614 -0.0341 -0.2149 -0.0711
15098SOL    HW146735   5.093   5.174   7.578  0.1347 -0.3321  0.4206
15098SOL    HW246736   4.951   5.209   7.540  0.0493 -1.2808 -0.1677
15099SOL     OW46737   4.707   5.276  10.675  0.6423 -0.3976  0.4086
15099SOL    HW146738   4.703   5.185  10.645  0.2811 -0.4085  0.4792
15099SOL    HW246739   4.650   5.323  10.615 -0.4409 -0.4955  1.3234
15100SOL     OW46740   5.026   4.228   8.456 -0.2230  0.0030 -0.1686
15100SOL    HW146741   5.072   4.302   8.496  0.6035 -0.6985  0.2106
15100SOL    HW246742   5.008   4.256   8.366 -1.2444  1.2292  0.3752
15101SOL     OW46743   4.430   4.645   8.630  0.2849 -0.0704  0.1594
15101SOL    HW146744   4.484   4.685   8.562  0.3150 -1.7907 -0.8819
15101SOL    HW246745   4.474   4.562   8.650 -0.0033  0.1694  1.9326
15102SOL     OW46746   5.078   3.547   9.601  0.2426  0.2854 -0.3756
15102SOL    HW146747   5.128   3.600   9.663  3.3585 -1.9542 -0.7478
15102SOL    HW246748   5.076   3.600   9.521  1.6318  0.6729 -0.1762
15103SOL     OW46749   5.327   3.838   9.547  0.4842  0.2633 -0.1073
15103SOL    HW146750   5.414   3.871   9.525  0.5777 -0.6846 -1.2458
15103SOL    HW246751   5.322   3.752   9.504 -1.0786  0.3895 -0.2434
15104SOL     OW46752   4.408   3.973   8.513 -0.3087 -0.4232 -0.3814
15104SOL    HW146753   4.353   3.902   8.481  0.4710 -1.4379  0.4794
15104SOL    HW246754   4.396   3.972   8.608 -0.3152  0.6244 -0.3588
15105SOL     OW46755   6.174   5.096  10.244 -0.4170 -0.3425  0.2097
15105SOL    HW146756   6.193   5.006  10.217 -1.6197 -0.7158  0.5562
15105SOL    HW246757   6.180   5.147  10.163 -0.1520 -0.8099 -0.0673
15106SOL     OW46758   4.197   3.766   7.466  0.6591 -0.4989 -0.2686
15106SOL    HW146759   4.210   3.702   7.396  1.7800 -0.7240  0.1137
15106SOL    HW246760   4.121   3.817   7.438  0.7668 -0.9164 -1.3969
15107SOL     OW46761   5.408   3.213   8.446  0.4227 -0.1922  0.5757
15107SOL    HW146762   5.345   3.284   8.438 -0.0405 -0.6195  0.3956
15107SOL    HW246763   5.436   3.216   8.537 -1.1314 -1.0591  1.1088
15108SOL     OW46764   4.757   4.276   8.425 -0.0151 -0.2207 -0.2098
15108SOL    HW146765   4.815   4.304   8.354  1.4086  1.1061  1.3614
15108SOL    HW246766   4.813   4.221   8.481 -0.2891  0.8766  1.2109
15109SOL     OW46767   3.539   4.284  10.903  0.2534  0.5586 -0.3745
15109SOL    HW146768   3.466   4.280  10.841  0.0429 -3.2215 -0.1052
15109SOL    HW246769   3.611   4.322  10.852 -1.0507  1.5324 -1.5698
15110SOL     OW46770   4.806   4.521  10.582 -0.1210  0.3902  0.0419
15110SOL    HW146771   4.852   4.547  10.502 -2.4991 -0.1564 -1.6279
15110SOL    HW246772   4.797   4.603  10.631 -0.6927  1.2732 -1.4331
15111SOL     OW46773   4.231   4.537  10.427 -0.2863 -0.0639  0.7514
15111SOL    HW146774   4.310   4.545  10.480  0.2716  0.1668 -0.1062
15111SOL    HW246775   4.218   4.623  10.389 -0.4433 -0.3395  0.1742
15112SOL     OW46776   6.201   3.822   8.226  0.1221  0.1404 -0.0497
15112SOL    HW146777   6.186   3.745   8.281 -1.9071 -0.1936 -0.9799
15112SOL    HW246778   6.219   3.786   8.139  0.7311  0.7118 -0.1690
15113SOL     OW46779   6.108   2.789   9.088 -0.4526  0.3385 -0.1348
15113SOL    HW146780   6.182   2.742   9.126 -0.0193  0.4674 -0.8051
15113SOL    HW246781   6.032   2.737   9.113 -0.1332  0.1502  0.4782
15114SOL     OW46782   7.049   5.869   8.530  0.2130 -0.2986  0.4469
15114SOL    HW146783   7.000   5.939   8.572 -0.6176 -0.9481  0.5881
15114SOL    HW246784   7.135   5.870   8.573  0.2894  0.7482  0.3041
15115SOL     OW46785   5.187   5.024   9.458  0.1118  0.0134 -0.3523
15115SOL    HW146786   5.195   5.012   9.552  0.8174  0.0258 -0.4008
15115SOL    HW246787   5.201   5.118   9.445  1.5322 -0.2013 -0.5891
15116SOL     OW46788   5.031   3.957   8.909 -0.0075  0.4461  0.8241
15116SOL    HW146789   5.057   3.964   9.001  1.5016 -0.6539  0.5179
15116SOL    HW246790   5.000   3.867   8.899  0.0481  0.4903  0.1941
15117SOL     OW46791   4.225   5.531   9.180  0.2352  0.2421 -0.1419
15117SOL    HW146792   4.183   5.507   9.262  0.9636  0.0714  0.1847
15117SOL    HW246793   4.210   5.457   9.122 -0.1640  0.3062 -0.1195
15118SOL     OW46794   2.368   5.496   8.429  0.7780 -0.1537 -0.3413
15118SOL    HW146795   2.386   5.586   8.402 -0.6715  0.2045 -0.1986
15118SOL    HW246796   2.445   5.471   8.479  0.7713  1.3960  0.5273
15119SOL     OW46797   4.608   4.848   9.397 -0.2842  0.0580  0.0686
15119SOL    HW146798   4.592   4.756   9.376 -1.0043 -0.2282  1.7232
15119SOL    HW246799   4.609   4.852   9.492  1.9869  1.4057  0.0922
15120SOL     OW46800   4.181   4.089   9.800 -0.1142  0.0704  0.5410
15120SOL    HW146801   4.110   4.055   9.746  0.5999 -0.7226  0.0651
15120SOL    HW246802   4.157   4.066   9.890  0.1944 -1.4431  0.2595
15121SOL     OW46803   4.818   4.461   8.756  0.0171 -0.5939 -0.1383
15121SOL    HW146804   4.745   4.456   8.693 -0.2137  1.3969 -0.0905
15121SOL    HW246805   4.817   4.376   8.800 -0.9297 -1.3890 -1.6008
15122SOL     OW46806   5.574   4.424   9.558 -0.4332  0.3210  0.3806
15122SOL    HW146807   5.620   4.341   9.548 -0.3579  0.1608  1.8495
15122SOL    HW246808   5.482   4.400   9.567 -0.6386  0.5375 -1.0445
15123SOL     OW46809   3.660   6.308   9.741  0.8603  0.0511 -0.3038
15123SOL    HW146810   3.677   6.318   9.835 -1.6014  0.4602  0.1744
15123SOL    HW246811   3.615   6.389   9.716  1.4004 -0.0976 -1.8294
15124SOL     OW46812   3.934   4.344   9.356 -0.2978  0.2644  0.3162
15124SOL    HW146813   3.852   4.387   9.334  0.7794  1.7096 -1.0903
15124SOL    HW246814   3.930   4.260   9.311 -0.3135  1.0355 -1.1604
15125SOL     OW46815   5.376   5.632   8.446  0.4329 -0.0249  0.0304
15125SOL    HW146816   5.451   5.690   8.438  0.1290  0.3174 -0.3711
15125SOL    HW246817   5.390   5.565   8.379  0.1352  0.3170 -0.3763
15126SOL     OW46818   4.197   4.967   9.400  0.5109 -0.0203 -0.3769
15126SOL    HW146819   4.248   4.962   9.480 -1.4464  0.8197  1.0054
15126SOL    HW246820   4.131   4.899   9.409 -0.6850  1.0855 -0.5190
15127SOL     OW46821   5.409   4.762   8.251  0.1928  0.1666 -0.6253
15127SOL    HW146822   5.414   4.667   8.239  1.3421  0.0054  0.7340
15127SOL    HW246823   5.450   4.777   8.336 -2.4022  1.6285  0.4862
15128SOL     OW46824   6.108   5.020   8.083 -0.0682 -0.4003 -0.3228
15128SOL    HW146825   6.116   4.940   8.135  0.4613  0.9625  1.7921
15128SOL    HW246826   6.182   5.017   8.022 -0.3201 -1.7165 -0.5945
15129SOL     OW46827   4.422   4.909   8.750  0.1114  0.1152  0.1356
15129SOL    HW146828   4.449   4.860   8.672 -0.7949  1.3057 -0.9856
15129SOL    HW246829   4.338   4.947   8.726  0.0134  0.8671  1.5596
15130SOL     OW46830   5.286   4.174   7.346 -0.0661 -0.1276 -0.1249
15130SOL    HW146831   5.237   4.093   7.333 -2.1148  1.0186  0.1106
15130SOL    HW246832   5.239   4.220   7.416  0.1440  1.9408 -1.2697
15131SOL     OW46833   5.345   3.796   6.745  0.1814 -0.3520 -0.0397
15131SOL    HW146834   5.351   3.851   6.667 -0.4195 -0.6145 -0.2709
15131SOL    HW246835   5.359   3.857   6.818 -1.7873  0.3749 -0.2084
15132SOL     OW46836   4.240   7.018   8.592  0.2436 -0.4735 -0.0624
15132SOL    HW146837   4.197   6.936   8.619 -0.1319 -1.1792 -2.4967
15132SOL    HW246838   4.329   7.010   8.625  0.1751 -1.8395 -0.1245
15133SOL     OW46839   4.058   4.767   8.854 -0.6695  0.0400  0.0379
15133SOL    HW146840   4.140   4.723   8.876  0.0445  0.2202 -2.0314
15133SOL    HW246841   4.084   4.856   8.830 -1.5168  0.2445 -0.1640
15134SOL     OW46842   5.589   5.592   7.225  0.2808 -0.2365  0.4744
15134SOL    HW146843   5.576   5.617   7.317  1.0528  0.4584  0.4033
15134SOL    HW246844   5.647   5.516   7.228  0.5282 -0.0469  0.5565
15135SOL     OW46845   7.241   4.732   6.296  0.9265  0.1464  0.4759
15135SOL    HW146846   7.326   4.777   6.299  1.3251 -0.4378 -1.0426
15135SOL    HW246847   7.261   4.646   6.258 -0.0731 -0.7161  1.8225
15136SOL     OW46848   4.739   3.729   8.341  0.9117 -0.5752 -0.1126
15136SOL    HW146849   4.646   3.708   8.348  0.4710  0.3980 -2.1788
15136SOL    HW246850   4.780   3.686   8.416 -1.0632 -1.7938  0.3203
15137SOL     OW46851   4.928   4.847   7.083  0.1845  0.2870 -0.2656
15137SOL    HW146852   4.953   4.760   7.112 -0.2110 -0.1609 -1.2331
15137SOL    HW246853   4.991   4.869   7.015 -0.4458  0.2480 -0.8724
15138SOL     OW46854   3.697   4.935  10.469 -0.2104 -0.4884  0.2431
15138SOL    HW146855   3.709   5.014  10.416  1.4709 -0.3900  0.7210
15138SOL    HW246856   3.658   4.871  10.409 -0.0450  0.1795 -0.5960
15139SOL     OW46857   5.010   4.279   7.375  0.0652  0.2734  0.3670
15139SOL    HW146858   4.924   4.244   7.353 -0.2240  0.5497  1.0348
15139SOL    HW246859   4.994   4.338   7.449  0.7847  0.5489  0.3103
15140SOL     OW46860   6.037   3.881   9.334 -0.3216 -0.5452  0.1692
15140SOL    HW146861   6.054   3.888   9.241 -0.0470 -3.7127 -0.1267
15140SOL    HW246862   6.124   3.874   9.374 -0.3895  1.7020  0.8385
15141SOL     OW46863   4.886   4.106   8.106  0.5407 -0.3146 -0.0790
15141SOL    HW146864   4.941   4.120   8.029  3.7495 -0.2922  2.0325
15141SOL    HW246865   4.881   4.192   8.148 -0.6724 -0.4561  0.1156
15142SOL     OW46866   4.594   4.789   7.401  0.6579  0.7865  0.1337
15142SOL    HW146867   4.557   4.706   7.370 -2.1928  1.3017  1.8813
15142SOL    HW246868   4.618   4.835   7.321 -1.9443  0.0920 -1.1598
15143SOL     OW46869   4.499   3.669   8.470  0.0899  0.0232 -0.1530
15143SOL    HW146870   4.433   3.720   8.517  0.6311 -1.4510  2.4185
15143SOL    HW246871   4.454   3.589   8.444  0.1900  0.1836 -0.8356
15144SOL     OW46872   3.444   5.641   7.329  0.1584  0.3646  0.1128
15144SOL    HW146873   3.518   5.626   7.270  0.7411 -0.9055  1.1010
15144SOL    HW246874   3.460   5.582   7.403 -0.0639  2.5576  1.9996
15145SOL     OW46875   4.482   4.595  10.002 -0.7184 -0.0908  0.2640
15145SOL    HW146876   4.495   4.653   9.927  0.3677  0.9152  1.1932
15145SOL    HW246877   4.390   4.608  10.027 -0.5134  1.1589  0.3964
15146SOL     OW46878   3.707   3.531   8.018  0.5932  0.2060  0.0344
15146SOL    HW146879   3.683   3.453   8.067 -0.4212  0.7984  0.5189
15146SOL    HW246880   3.626   3.558   7.974  0.9365  0.9488 -0.1603
15147SOL     OW46881   4.366   5.449   9.572 -0.5233 -0.3284  0.0973
15147SOL    HW146882   4.301   5.382   9.596  0.7037 -2.0471 -1.1330
15147SOL    HW246883   4.424   5.405   9.511  1.6597  1.2440  0.9196
15148SOL     OW46884   3.452   4.042   6.997  0.1948 -0.7337 -0.0026
15148SOL    HW146885   3.388   4.087   7.052 -0.2763 -0.8942 -0.4112
15148SOL    HW246886   3.408   3.962   6.970 -0.3584  0.2734 -2.2692
15149SOL     OW46887   5.139   5.123   7.333  0.9586  0.3362  0.6854
15149SOL    HW146888   5.155   5.054   7.269  1.3733  0.4356  0.6807
15149SOL    HW246889   5.220   5.174   7.334  0.5133  1.0794  0.3737
15150SOL     OW46890   4.649   5.096   8.953  0.4811  0.0159 -0.5139
15150SOL    HW146891   4.720   5.132   9.007  1.4604  1.1151 -2.4163
15150SOL    HW246892   4.695   5.047   8.885 -0.5059  1.3915 -2.2411
15151SOL     OW46893   5.731   4.191   9.776  0.5413  0.5892  0.2024
15151SOL    HW146894   5.800   4.127   9.755 -1.0611 -0.9829 -0.6072
15151SOL    HW246895   5.744   4.212   9.868  2.0224  0.2509  0.0881
15152SOL     OW46896   3.905   4.302   9.033  0.2177 -0.3019  0.0170
15152SOL    HW146897   3.899   4.396   9.051 -0.5960 -0.3962  0.3066
15152SOL    HW246898   3.874   4.294   8.942  0.9667 -0.2135 -0.2468
15153SOL     OW46899   4.935   6.236   9.398 -0.0496  0.5220 -0.1686
15153SOL    HW146900   4.844   6.254   9.374 -0.3759  1.0426  1.2854
15153SOL    HW246901   4.976   6.323   9.402  0.2509  0.3732  0.0730
15154SOL     OW46902   4.171   5.250   9.660  0.6925  0.0164 -0.2312
15154SOL    HW146903   4.141   5.159   9.671  0.0463  0.0290 -1.7192
15154SOL    HW246904   4.110   5.301   9.713  0.0865 -0.2759 -0.6344
15155SOL     OW46905   5.479   3.510   8.830  0.5611 -0.3997  0.1369
15155SOL    HW146906   5.478   3.538   8.738  0.7481 -0.5356  0.0904
15155SOL    HW246907   5.425   3.574   8.876 -0.5168 -1.0033 -0.2548
15156SOL     OW46908   5.898   4.167   9.244 -0.2215  0.4162 -0.5033
15156SOL    HW146909   5.989   4.169   9.272 -0.5095 -0.5263  0.6468
15156SOL    HW246910   5.869   4.258   9.246 -0.1549  0.4576  2.2526
15157SOL     OW46911   5.342   4.396   9.059  0.1823 -0.3169 -0.1639
15157SOL    HW146912   5.382   4.310   9.069  0.7267 -0.0838 -0.3210
15157SOL    HW246913   5.396   4.454   9.112 -0.5193 -0.1632  0.4062
15158SOL     OW46914   4.807   5.301   7.799 -0.2074  0.3247  0.1798
15158SOL    HW146915   4.838   5.229   7.745 -0.6506 -0.7177  1.2733
15158SOL    HW246916   4.750   5.352   7.741 -0.4593 -0.6065 -0.4146
15159SOL     OW46917   3.948   5.340   8.530 -0.8437 -0.6474  0.3617
15159SOL    HW146918   3.986   5.289   8.601 -1.5217 -0.2176  1.0523
15159SOL    HW246919   4.022   5.361   8.474 -0.3314 -1.1958  0.8139
15160SOL     OW46920   5.839   4.475   8.731 -0.4596 -0.1111  0.4949
15160SOL    HW146921   5.829   4.509   8.642  1.5591  1.7494  0.8968
15160SOL    HW246922   5.844   4.553   8.786 -1.8478 -1.2255  2.3187
15161SOL     OW46923   5.950   3.699   8.551  0.1432 -0.4879  0.2567
15161SOL    HW146924   5.910   3.702   8.638 -0.2653  0.6391  0.0513
15161SOL    HW246925   5.976   3.607   8.540  2.1302 -0.3042  2.4066
15162SOL     OW46926   2.416   3.892   9.155  0.2677  0.1024 -0.1416
15162SOL    HW146927   2.381   3.866   9.069 -0.0275 -0.5535  0.1698
15162SOL    HW246928   2.458   3.813   9.188 -1.8930 -0.4735  1.4650
15163SOL     OW46929   4.191   5.072   7.984  0.2662  0.7100 -0.2577
15163SOL    HW146930   4.188   5.009   7.912  0.3405  0.0712  0.2868
15163SOL    HW246931   4.170   5.021   8.062  0.1840  1.3922  0.1808
15164SOL     OW46932   3.499   5.760   9.938 -0.3930 -0.2123  0.3031
15164SOL    HW146933   3.505   5.826  10.007  0.5455 -1.0175  1.0179
15164SOL    HW246934   3.501   5.810   9.857  1.3510  0.6091  0.8140
15165SOL     OW46935   7.552   3.503   7.415  0.2830  0.2026 -0.1031
15165SOL    HW146936   7.539   3.565   7.343 -0.0705 -0.6808 -0.8145
15165SOL    HW246937   7.504   3.425   7.389 -0.8207  0.2539  1.6345
15166SOL     OW46938   5.342   3.927   8.684 -0.0907  0.3368 -0.6254
15166SOL    HW146939   5.268   3.986   8.699  0.0418  0.2210  0.5419
15166SOL    HW246940   5.398   3.974   8.623 -0.7339  0.7692 -0.8907
15167SOL     OW46941   4.120   4.142   8.687  0.3690  0.0122 -0.5074
15167SOL    HW146942   4.101   4.183   8.602  0.8317 -2.2243 -1.7758
15167SOL    HW246943   4.041   4.094   8.709  0.5437 -0.0800 -0.0751
15168SOL     OW46944   5.677   3.467   6.787  0.2185  0.4212 -0.0287
15168SOL    HW146945   5.713   3.385   6.756  0.8191  0.5015  0.4258
15168SOL    HW246946   5.593   3.444   6.828 -0.1746  0.2082 -0.9299
15169SOL     OW46947   3.781   4.330   9.950  0.0493  0.2551 -0.0087
15169SOL    HW146948   3.704   4.385   9.961  0.2991  0.7038 -0.4175
15169SOL    HW246949   3.774   4.297   9.860  1.0965  1.5402 -0.6030
15170SOL     OW46950   4.664   2.881   8.881  0.1576 -0.6941  0.3995
15170SOL    HW146951   4.592   2.824   8.854  1.0080 -2.0571  0.9075
15170SOL    HW246952   4.715   2.895   8.801 -0.4256 -0.0413  0.1238
15171SOL     OW46953   5.360   4.360   8.728  0.0369  0.4325 -0.4195
15171SOL    HW146954   5.288   4.304   8.700  0.0475  0.8162 -1.2311
15171SOL    HW246955   5.394   4.399   8.648  0.4224  1.1262  0.0624
15172SOL     OW46956   4.575   5.261   8.634  0.5718  0.5196  0.4257
15172SOL    HW146957   4.580   5.194   8.567  0.5124  1.2041 -0.2828
15172SOL    HW246958   4.481   5.281   8.641  0.4796 -0.1538  1.3449
15173SOL     OW46959   4.828   3.441   8.602 -0.0336 -0.7391 -0.8439
15173SOL    HW146960   4.753   3.382   8.616 -1.4580  1.1470 -0.1417
15173SOL    HW246961   4.856   3.464   8.690 -0.4828  0.7845 -1.0730
15174SOL     OW46962   5.578   5.894   7.672  0.4318  0.0809  0.0125
15174SOL    HW146963   5.650   5.899   7.734  0.7208  0.7032 -0.3652
15174SOL    HW246964   5.518   5.963   7.700  0.1518 -0.1992  0.1100
15175SOL     OW46965   3.717   4.222  11.552 -0.4432  0.0276 -0.3401
15175SOL    HW146966   3.734   4.129  11.538 -1.1898 -0.2436  0.4014
15175SOL    HW246967   3.802   4.264  11.545 -0.1525 -0.6590 -1.0596
15176SOL     OW46968   4.910   3.284  10.866  0.0167  0.3224  0.5734
15176SOL    HW146969   4.819   3.312  10.873 -0.0262  0.1091  0.8822
15176SOL    HW246970   4.943   3.327  10.787 -0.4852  0.0325  0.2031
15177SOL     OW46971   1.884   5.850  11.124 -0.6118 -0.1086  0.0873
15177SOL    HW146972   1.959   5.909  11.138 -1.8261  1.5843 -0.2198
15177SOL    HW246973   1.910   5.768  11.166  0.6394  1.0461  1.7103
15178SOL     OW46974   3.263   5.435  10.415  0.3898  0.2988 -0.0780
15178SOL    HW146975   3.319   5.359  10.427 -0.0546 -0.2388 -1.2532
15178SOL    HW246976   3.282   5.491  10.490  1.0849 -0.7390  0.5413
15179SOL     OW46977   5.955   5.392   9.494  0.0293  0.5076  0.4551
15179SOL    HW146978   5.938   5.301   9.470 -1.3075  0.5586  1.1447
15179SOL    HW246979   5.891   5.411   9.562  0.6419  1.8116  0.6906
15180SOL     OW46980   5.674   4.179   9.483 -0.4121 -0.3272  0.3771
15180SOL    HW146981   5.725   4.119   9.428 -0.1113 -1.1857  1.5531
15180SOL    HW246982   5.687   4.146   9.572 -2.3034 -0.0383  0.8012
15181SOL     OW46983   5.237   4.033  10.122 -0.2602  0.5717 -0.1542
15181SOL    HW146984   5.242   4.126  10.100  0.5711  0.8152  1.0111
15181SOL    HW246985   5.144   4.010  10.110 -0.6785  1.8076  0.5955
15182SOL     OW46986   6.808   5.805  10.402 -0.0502  0.0858 -0.3108
15182SOL    HW146987   6.783   5.896  10.421  1.1330  0.1100  1.3981
15182SOL    HW246988   6.759   5.753  10.466  1.4384 -0.1621  0.6970
15183SOL     OW46989   5.238   4.194  11.424  0.0201  0.6729  0.1185
15183SOL    HW146990   5.218   4.219  11.334 -1.5169  1.8769  0.7393
15183SOL    HW246991   5.187   4.115  11.439  0.3701  0.4040 -0.0946
15184SOL     OW46992   4.104   5.223  10.492 -0.1083 -0.3296  0.2820
15184SOL    HW146993   4.105   5.192  10.402  0.7387 -2.1034  0.8492
15184SOL    HW246994   4.165   5.297  10.493  0.7280 -0.9950 -0.3859
15185SOL     OW46995   4.429   4.484  10.623  0.4798  0.1855  0.2924
15185SOL    HW146996   4.434   4.459  10.715 -0.3131 -0.1144  0.2530
15185SOL    HW246997   4.511   4.453  10.585 -0.6551 -2.8614  0.1242
15186SOL     OW46998   3.968   4.806  10.306  0.4457 -0.7546 -0.3017
15186SOL    HW146999   3.941   4.720  10.338  0.1599 -0.5040  0.1313
15186SOL    HW247000   4.009   4.848  10.381 -1.7443  0.4981  0.2621
15187SOL     OW47001   5.360   4.877  10.608  0.2014 -1.0139 -0.0763
15187SOL    HW147002   5.304   4.938  10.560  1.4149  0.9719  0.9133
15187SOL    HW247003   5.425   4.848  10.543  0.1753 -0.5271 -0.3199
15188SOL     OW47004   4.604   6.154  11.861 -0.1681 -0.1304 -0.0700
15188SOL    HW147005   4.656   6.211  11.917 -0.2284  0.0610 -0.2093
15188SOL    HW247006   4.668   6.115  11.801 -0.3151  0.8589 -0.8848
15189SOL     OW47007   4.982   3.241  11.736  0.2329 -0.6361  0.4005
15189SOL    HW147008   5.059   3.230  11.681  0.6536 -1.1330  1.0695
15189SOL    HW247009   4.925   3.167  11.714 -0.5031  0.2473 -0.7812
15190SOL     OW47010   6.564   4.425   9.330  0.4970  0.2995  0.0461
15190SOL    HW147011   6.578   4.404   9.238 -0.3501 -0.4726  0.0756
15190SOL    HW247012   6.651   4.426   9.369  1.1044  2.8004 -1.1777
15191SOL     OW47013   3.150   5.322  11.844  0.3266  0.0838  0.0330
15191SOL    HW147014   3.116   5.245  11.890 -2.7343  0.6594 -1.0052
15191SOL    HW247015   3.214   5.287  11.783  0.4150 -1.3759  0.9132
15192SOL     OW47016   3.934   4.185  10.146  0.3681 -0.4890  0.0518
15192SOL    HW147017   4.006   4.144  10.096 -0.0236  0.2194 -1.1290
15192SOL    HW247018   3.894   4.246  10.085 -0.1122  0.4637  1.2750
15193SOL     OW47019   4.352   6.729   9.997  0.3616  0.2027  0.1480
15193SOL    HW147020   4.323   6.813  10.032  0.7860  0.5345 -0.2863
15193SOL    HW247021   4.437   6.714  10.038  0.6117  0.3317 -0.3156
15194SOL     OW47022   5.678   4.320  10.052  0.3051  0.1419  0.0864
15194SOL    HW147023   5.588   4.303  10.026 -0.5638  0.9119  2.3361
15194SOL    HW247024   5.673   4.402  10.102  2.0731 -0.3632  1.1742
15195SOL     OW47025   5.782   4.436  10.406  0.4375 -0.2349  0.2030
15195SOL    HW147026   5.691   4.409  10.410  0.2800  0.4136  1.4634
15195SOL    HW247027   5.779   4.522  10.363  0.5323 -0.4846 -0.3142
15196SOL     OW47028   3.360   4.730   9.336  0.3577  0.1077 -0.0033
15196SOL    HW147029   3.354   4.635   9.336 -1.0188  0.1644 -0.7023
15196SOL    HW247030   3.415   4.751   9.260 -1.4757 -0.0785 -1.4480
15197SOL     OW47031   6.226   4.991   8.680 -0.0415 -0.1466  0.1629
15197SOL    HW147032   6.271   4.919   8.635  0.2465  0.6280 -0.8360
15197SOL    HW247033   6.221   4.963   8.771  1.3519 -0.8166  0.0704
15198SOL     OW47034   3.649   5.373   9.857 -0.8756  0.1071  0.4068
15198SOL    HW147035   3.702   5.300   9.825 -1.0135 -0.3609  1.2274
15198SOL    HW247036   3.580   5.332   9.909 -1.5339  0.7649  0.0817
15199SOL     OW47037   5.664   4.986   9.519  0.3127 -0.5239 -0.4723
15199SOL    HW147038   5.745   4.995   9.570  0.4997 -0.2643 -0.8069
15199SOL    HW247039   5.597   4.967   9.584 -0.3207  3.9607  0.5615
15200SOL     OW47040   6.353   5.945   9.270 -0.2367 -0.5762  0.0822
15200SOL    HW147041   6.294   5.884   9.226  1.4576 -1.9433 -0.3869
15200SOL    HW247042   6.434   5.895   9.283  0.3424  0.7674  2.0086
15201SOL     OW47043   3.491   4.960  11.818 -0.3435  0.1258  0.0441
15201SOL    HW147044   3.558   4.906  11.861 -0.2682 -1.5972 -2.0684
15201SOL    HW247045   3.442   4.898  11.763 -1.8025  1.8497 -0.6844
15202SOL     OW47046   4.534   5.020   9.216  0.5238 -0.8451  0.2816
15202SOL    HW147047   4.531   5.107   9.257 -0.5302 -0.4894 -0.4940
15202SOL    HW247048   4.549   4.960   9.288 -3.5466 -0.4854  1.7055
15203SOL     OW47049   5.923   6.000  11.156 -0.5444 -0.2281  0.3178
15203SOL    HW147050   6.002   5.956  11.187 -0.1034  1.5795  1.9742
15203SOL    HW247051   5.870   6.013  11.234 -0.3102  2.7427  0.1265
15204SOL     OW47052   5.470   4.089   9.780 -0.5678 -0.0382  0.3522
15204SOL    HW147053   5.540   4.154   9.784  0.7496 -1.3387 -0.6858
15204SOL    HW247054   5.484   4.033   9.856  0.9839 -1.6728 -1.0604
15205SOL     OW47055   2.559   4.402  11.129  0.0057 -0.0940 -0.6689
15205SOL    HW147056   2.477   4.403  11.080  0.2054 -1.0833 -1.0535
15205SOL    HW247057   2.548   4.470  11.195 -0.9002  0.1762 -1.0787
15206SOL     OW47058   4.637   4.794   8.968  0.0711 -0.4098  0.5449
15206SOL    HW147059   4.651   4.778   8.874 -0.0514  0.8329  0.2904
15206SOL    HW247060   4.692   4.729   9.012  0.9997 -0.3024 -0.4025
15207SOL     OW47061   5.689   5.625  11.748  0.1164 -0.5148 -0.0519
15207SOL    HW147062   5.685   5.532  11.767  1.4883 -0.7189 -0.7017
15207SOL    HW247063   5.667   5.667  11.832 -1.0081 -1.3992  0.1188
15208SOL     OW47064   5.660   4.099  10.287  0.3293 -0.1677  0.0148
15208SOL    HW147065   5.640   4.015  10.328 -0.7822 -1.2263 -2.5093
15208SOL    HW247066   5.683   4.077  10.196  2.0088  2.0945 -0.2051
15209SOL     OW47067   4.925   5.518   9.831 -0.4438  0.0842  0.7909
15209SOL    HW147068   4.985   5.536   9.904 -0.9586  2.0414  0.7804
15209SOL    HW247069   4.939   5.591   9.770 -2.3963  0.2564  0.5079
15210SOL     OW47070   5.189   4.940   9.096  0.4117 -0.5286  0.0835
15210SOL    HW147071   5.231   5.000   9.033 -0.4356  0.1288  0.1241
15210SOL    HW247072   5.118   4.900   9.046  1.3885 -2.0480 -0.1442
15211SOL     OW47073   4.525   3.901   9.857  0.2572  0.2684  0.7192
15211SOL    HW147074   4.588   3.845   9.812 -0.2244 -0.6011  1.0962
15211SOL    HW247075   4.537   3.988   9.818  1.9618  0.2250  1.0594
15212SOL     OW47076   5.137   3.953  10.976  0.2190  0.1909  0.3308
15212SOL    HW147077   5.075   3.997  11.034  0.1923  1.1133 -0.3830
15212SOL    HW247078   5.084   3.888  10.929  0.1255 -0.1471  0.8915
15213SOL     OW47079   5.002   5.144   9.239  0.0913 -0.2041  0.2302
15213SOL    HW147080   5.067   5.206   9.207 -0.8172  0.2289 -0.8401
15213SOL    HW247081   4.919   5.192   9.235 -0.6436 -1.4941 -0.6993
15214SOL     OW47082   5.505   2.586  10.217  0.1568 -0.0152  0.2012
15214SOL    HW147083   5.443   2.515  10.202 -1.9668  1.7693 -0.0971
15214SOL    HW247084   5.454   2.651  10.266  1.2510  2.2825 -1.5401
15215SOL     OW47085   4.674   3.632  10.715 -0.4665  0.3405  0.6036
15215SOL    HW147086   4.637   3.699  10.773  0.5069  0.6423  0.9058
15215SOL    HW247087   4.768   3.638  10.729 -0.4295 -2.7542  2.4523
15216SOL     OW47088   5.098   4.895  10.453  0.8108  0.0183 -0.1765
15216SOL    HW147089   5.140   4.871  10.371  0.3397 -1.7427  0.0626
15216SOL    HW247090   5.030   4.958  10.427  0.6812 -0.4995 -1.1429
15217SOL     OW47091   7.325   3.658  10.969 -0.4293  0.2706  0.2414
15217SOL    HW147092   7.286   3.735  11.010 -0.0343  0.7495 -0.2634
15217SOL    HW247093   7.260   3.629  10.905 -0.2936  0.6010 -0.0504
15218SOL     OW47094   4.645   4.284  10.610  0.2185  0.4581 -0.8717
15218SOL    HW147095   4.647   4.288  10.706 -0.8250 -0.3424 -0.8041
15218SOL    HW247096   4.689   4.365  10.582  1.0864  0.4062  0.2687
15219SOL     OW47097   3.687   6.645  10.091 -0.6029  0.2286  0.0931
15219SOL    HW147098   3.771   6.629  10.047  0.4973  2.6462  1.1460
15219SOL    HW247099   3.630   6.679  10.022 -0.4188 -0.4265 -0.3983
15220SOL     OW47100   4.992   4.135  12.452  0.4210  0.2868 -0.2178
15220SOL    HW147101   4.968   4.167  12.539 -1.0668  1.7188 -1.1055
15220SOL    HW247102   4.943   4.053  12.442 -0.6032  0.8948 -0.2708
15221SOL     OW47103   6.743   4.692  10.468 -0.4031 -0.0162  0.0955
15221SOL    HW147104   6.743   4.761  10.402  2.1600 -0.4664 -0.4700
15221SOL    HW247105   6.823   4.707  10.518 -1.0701 -1.1390  1.5722
15222SOL     OW47106   3.564   4.490   9.925  0.3604 -0.2635 -0.4481
15222SOL    HW147107   3.549   4.567   9.980 -1.3346 -0.3168 -0.7787
15222SOL    HW247108   3.585   4.526   9.839  0.5049 -0.1669 -0.3723
15223SOL     OW47109   4.889   4.215   9.279  0.1119  0.0669 -0.4957
15223SOL    HW147110   4.975   4.235   9.241  0.4248 -3.2911 -1.8960
15223SOL    HW247111   4.827   4.255   9.218  0.6497  0.7795 -0.5980
15224SOL     OW47112   5.428   4.958  10.100  0.1320 -0.3723  0.0608
15224SOL    HW147113   5.355   4.908  10.136  0.5733 -0.0413  1.4727
15224SOL    HW247114   5.394   4.995  10.018 -1.5051  0.3210  1.0128
15225SOL     OW47115   3.836   6.905   8.940  0.3817  0.1158  0.4283
15225SOL    HW147116   3.819   6.852   9.018 -0.3817 -0.3515 -0.0376
15225SOL    HW247117   3.875   6.986   8.973  0.6453 -0.3339  1.2355
15226SOL     OW47118   6.518   4.068   9.636  0.2061 -0.4941  0.0051
15226SOL    HW147119   6.465   4.010   9.691 -1.6784  0.1329 -1.0562
15226SOL    HW247120   6.607   4.057   9.669 -0.6865 -0.8129  2.5850
15227SOL     OW47121   5.347   4.332  10.157 -0.0891  0.5738  0.0388
15227SOL    HW147122   5.260   4.353  10.188 -0.2443  2.2136 -1.3588
15227SOL    HW247123   5.349   4.365  10.067  0.6706 -2.9419 -1.3878
15228SOL     OW47124   3.033   4.257  10.105  0.0283 -0.2373  0.2364
15228SOL    HW147125   2.973   4.240  10.177 -0.1344 -0.5803  0.0267
15228SOL    HW247126   2.976   4.276  10.030  0.2002  0.5022  0.2848
15229SOL     OW47127   3.669   4.892  10.747  0.3685 -0.0649 -0.0379
15229SOL    HW147128   3.699   4.898  10.656 -0.3379 -0.1479 -0.2839
15229SOL    HW247129   3.711   4.966  10.791 -1.5725  1.7709 -1.0916
15230SOL     OW47130   3.914   6.306  10.178 -0.1757  0.3514  0.8998
15230SOL    HW147131   3.991   6.296  10.122 -0.5399 -0.8048  0.5724
15230SOL    HW247132   3.919   6.396  10.211  0.3455  0.8727 -0.5359
15231SOL     OW47133   4.052   4.589   9.700  0.4313  0.1529 -0.2656
15231SOL    HW147134   4.078   4.578   9.608  1.2592  0.8856 -0.1348
15231SOL    HW247135   4.005   4.672   9.702  0.6840  0.2920  0.0190
15232SOL     OW47136   5.438   3.892  10.577  0.2965  0.0911  0.2333
15232SOL    HW147137   5.374   3.945  10.530 -0.6059 -1.6214 -0.5535
15232SOL    HW247138   5.451   3.815  10.522  0.8082 -0.9966  1.8067
15233SOL     OW47139   4.749   4.111  10.413  1.0924  0.1073  0.0962
15233SOL    HW147140   4.720   4.171  10.482  0.7833  2.3849 -1.9003
15233SOL    HW247141   4.668   4.071  10.381  1.2834 -1.3831  1.3142
15234SOL     OW47142   3.995   5.180   9.155 -0.6770 -0.1424  0.4372
15234SOL    HW147143   3.976   5.102   9.104  1.9440 -0.9635  0.5679
15234SOL    HW247144   4.012   5.248   9.089  0.4253 -0.6029  0.2297
15235SOL     OW47145   5.239   3.620  10.319  0.8402 -0.1453  0.3340
15235SOL    HW147146   5.238   3.714  10.336  1.7376 -0.5927  3.3961
15235SOL    HW247147   5.168   3.585  10.373  1.0603 -1.3429 -0.1209
15236SOL     OW47148   4.937   6.167  11.595  0.2154  0.3006  0.2233
15236SOL    HW147149   4.876   6.096  11.617  1.7439 -1.2105 -0.1842
15236SOL    HW247150   4.999   6.168  11.668  1.9062 -0.8086 -1.1244
15237SOL     OW47151   4.342   6.098  11.400 -0.6246  0.4028 -0.4555
15237SOL    HW147152   4.300   6.183  11.410  1.0352  1.3431 -1.0435
15237SOL    HW247153   4.365   6.093  11.307  0.9101  0.1465 -0.0937
15238SOL     OW47154   3.328   5.062   9.239 -0.6890 -0.1577 -0.0838
15238SOL    HW147155   3.374   5.065   9.323 -1.0037  1.4335  0.0578
15238SOL    HW247156   3.386   5.012   9.182 -0.8271 -1.9398  1.2644
15239SOL     OW47157   6.375   4.561  11.955 -0.1534 -0.1979 -0.0385
15239SOL    HW147158   6.323   4.480  11.960 -1.6668  0.8203  1.6159
15239SOL    HW247159   6.418   4.567  12.041 -2.0974  2.0109  0.8616
15240SOL     OW47160   5.816   2.814  11.199 -0.1352 -0.3617 -0.1306
15240SOL    HW147161   5.724   2.798  11.177 -0.0199 -0.5063 -0.5237
15240SOL    HW247162   5.815   2.836  11.292 -0.3957 -1.9712  0.2731
15241SOL     OW47163   5.467   5.319  11.624  0.3899 -0.2670 -0.1516
15241SOL    HW147164   5.416   5.334  11.703 -1.3143 -2.0556 -0.8644
15241SOL    HW247165   5.555   5.297  11.656 -0.4310 -1.6156  1.2884
15242SOL     OW47166   5.022   4.618  12.367 -0.3304  0.2287  0.3426
15242SOL    HW147167   4.982   4.532  12.378  0.3292  0.1759  3.3785
15242SOL    HW247168   4.949   4.680  12.368 -0.8114 -0.2200 -1.9057
15243SOL     OW47169   3.154   4.360  11.279 -0.2271 -0.3958 -0.0021
15243SOL    HW147170   3.116   4.314  11.204 -0.2032 -1.6901  0.7600
15243SOL    HW247171   3.155   4.295  11.349 -0.6642  0.9099  1.2642
15244SOL     OW47172   5.626   4.574  10.151 -0.3881 -0.0005 -0.0522
15244SOL    HW147173   5.612   4.641  10.084 -0.5277 -1.0843 -1.1404
15244SOL    HW247174   5.574   4.604  10.226 -0.6990  0.9387 -0.6201
15245SOL     OW47175   5.394   5.356  11.198 -0.0221 -0.0736  0.4845
15245SOL    HW147176   5.341   5.286  11.159  1.0120  0.0398 -1.2098
15245SOL    HW247177   5.483   5.322  11.197  0.5624  1.3787 -0.7548
15246SOL     OW47178   5.386   4.393   9.905 -0.3927  0.3766 -0.1742
15246SOL    HW147179   5.409   4.399   9.812 -0.7536  0.4495 -0.2589
15246SOL    HW247180   5.303   4.345   9.906 -0.2215  0.0874  0.1341
15247SOL     OW47181   3.150   4.472   9.703  0.6222  0.8064  0.1403
15247SOL    HW147182   3.201   4.407   9.654 -2.7534 -1.7844 -0.3108
15247SOL    HW247183   3.133   4.542   9.639  0.2487 -0.2429 -0.9441
15248SOL     OW47184   5.936   4.541  11.418 -0.1482  0.0273  0.5424
15248SOL    HW147185   6.012   4.574  11.370  0.0488 -1.0665  0.0737
15248SOL    HW247186   5.935   4.591  11.499 -0.0661  1.4167 -0.2801
15249SOL     OW47187   4.688   5.712  10.461  0.3907  0.4655  0.2832
15249SOL    HW147188   4.741   5.703  10.541  0.7346 -1.6470 -0.1052
15249SOL    HW247189   4.598   5.711  10.492  0.5296  1.3836  0.7528
15250SOL     OW47190   3.697   5.586   9.671  0.2404  0.5102 -0.5156
15250SOL    HW147191   3.665   5.543   9.750 -0.2352  1.9139  0.1000
15250SOL    HW247192   3.619   5.628   9.634  0.1672 -1.3232 -2.5671
15251SOL     OW47193   3.998   4.965  10.552  0.0390  0.3054  0.3640
15251SOL    HW147194   3.902   4.967  10.545 -0.1291 -3.2614 -0.6714
15251SOL    HW247195   4.024   5.056  10.558 -3.2301  1.6140 -2.2328
15252SOL     OW47196   4.040   4.419   9.946 -0.8295 -0.7595  0.0714
15252SOL    HW147197   3.949   4.393   9.961 -0.5467 -1.0849  1.2852
15252SOL    HW247198   4.035   4.483   9.874 -2.0773 -0.2798  0.5607
15253SOL     OW47199   5.057   4.262  10.709  0.3774 -0.1057 -0.1528
15253SOL    HW147200   4.972   4.228  10.681  0.8844  0.0108 -1.9034
15253SOL    HW247201   5.046   4.276  10.803 -1.8821  0.9095 -0.4974
15254SOL     OW47202   3.179   4.684  12.450  0.6845  0.2031  0.1403
15254SOL    HW147203   3.249   4.667  12.387 -0.5082 -0.6951 -0.9985
15254SOL    HW247204   3.224   4.698  12.533  2.1502 -2.0667 -0.2060
15255SOL     OW47205   1.866   5.021  10.946  0.5475 -0.1675 -0.2247
15255SOL    HW147206   1.843   5.114  10.943  1.1261  0.0590  1.3781
15255SOL    HW247207   1.924   5.013  11.022 -0.7540 -2.1199  0.6311
15256SOL     OW47208   5.603   4.165  11.097  0.2387  0.0219 -0.2219
15256SOL    HW147209   5.596   4.072  11.119  0.6895  0.2774  1.1051
15256SOL    HW247210   5.514   4.199  11.106  0.3903  0.1073  1.3242
15257SOL     OW47211   5.023   5.718   9.671  0.1979  0.3615 -0.2388
15257SOL    HW147212   4.940   5.763   9.655 -0.3322 -0.0642  1.2211
15257SOL    HW247213   5.088   5.788   9.671 -0.4415  0.9745  0.7122
15258SOL     OW47214   6.606   4.469  10.480  0.3178  0.0677  0.5637
15258SOL    HW147215   6.658   4.550  10.481  0.7449 -0.2025  0.8068
15258SOL    HW247216   6.609   4.441  10.388 -1.2187  1.1863  0.1316
15259SOL     OW47217   4.743   5.364  10.060  0.0601 -0.2992 -0.1858
15259SOL    HW147218   4.825   5.314  10.059  0.7935  0.7793  1.7474
15259SOL    HW247219   4.690   5.321  10.127 -0.3641 -0.1092 -0.4024
15260SOL     OW47220   5.507   4.956   9.062 -0.2310  0.3757  0.4425
15260SOL    HW147221   5.467   5.036   9.030  1.7325  1.3955  0.3506
15260SOL    HW247222   5.470   4.943   9.149 -2.4401 -0.0669 -0.4915
15261SOL     OW47223   4.332   4.294  10.356  0.2998  0.1506  0.1089
15261SOL    HW147224   4.326   4.312  10.262  1.6997  1.3309  0.2053
15261SOL    HW247225   4.289   4.369  10.397 -0.7312 -0.5938  0.4233
15262SOL     OW47226   4.604   4.377   9.752  0.2645 -0.3338 -0.0241
15262SOL    HW147227   4.609   4.380   9.848  0.3328 -1.5060  0.0222
15262SOL    HW247228   4.550   4.300   9.734  2.5610 -1.7916 -0.9783
15263SOL     OW47229   2.755   5.085  11.880  0.1657  0.3275  0.0549
15263SOL    HW147230   2.692   5.071  11.810  0.3220  0.3513 -0.0893
15263SOL    HW247231   2.840   5.074  11.839  0.2453 -0.5716  0.4277
15264SOL     OW47232   4.635   3.974   0.444 -0.7624 -0.2359 -0.1429
15264SOL    HW147233   4.720   3.944   0.414 -0.9786  0.1052 -1.1142
15264SOL    HW247234   4.581   3.894   0.446 -1.0043 -0.1378 -1.5771
15265SOL     OW47235   6.088   4.797   0.215 -0.0795  0.3640 -0.0287
15265SOL    HW147236   6.119   4.862   0.152  0.0150  0.2337 -0.1178
15265SOL    HW247237   5.993   4.800   0.208 -0.0702  0.3822 -0.1472
15266SOL     OW47238   5.037   5.110   0.085 -0.1318 -0.1239  0.4969
15266SOL    HW147239   5.117   5.090   0.132  0.6821 -0.2816 -0.9125
15266SOL    HW247240   4.996   5.025   0.069 -0.8454 -0.0182  1.5997
15267SOL     OW47241   6.653   4.388  11.400  0.1709 -0.0678  0.4761
15267SOL    HW147242   6.569   4.421  11.369  0.6801  0.0373 -0.8287
15267SOL    HW247243   6.713   4.401  11.327  0.9065 -1.8694  0.7167
15268SOL     OW47244   4.707   2.619  10.484 -0.2542 -0.1611  0.4172
15268SOL    HW147245   4.793   2.579  10.472 -0.7891 -2.3717  2.8648
15268SOL    HW247246   4.700   2.633  10.579 -2.7495 -0.5290  0.3675
15269SOL     OW47247   4.522   6.293  11.568 -0.0135  0.0035  0.6660
15269SOL    HW147248   4.471   6.354  11.514  0.8196 -1.5043 -1.9903
15269SOL    HW247249   4.455   6.241  11.613 -0.9683 -1.2051 -1.9100
15270SOL     OW47250   4.449   4.914  11.389  0.0869 -0.7365  0.1905
15270SOL    HW147251   4.476   4.830  11.350  0.2308 -1.8475  2.5315
15270SOL    HW247252   4.363   4.931  11.350  1.4881 -0.1347 -2.9372
15271SOL     OW47253   6.322   3.866  11.154 -0.3573 -0.1728 -0.0618
15271SOL    HW147254   6.338   3.781  11.196  1.1405 -0.3113 -0.8543
15271SOL    HW247255   6.349   3.931  11.219 -0.2006 -0.3302  0.0311
15272SOL     OW47256   3.758   4.243  10.367  0.3642  0.1309  0.3406
15272SOL    HW147257   3.727   4.322  10.323  1.0327  0.4210  0.3867
15272SOL    HW247258   3.816   4.201  10.304  1.7350  0.8134  1.1052
15273SOL     OW47259   5.142   5.329   9.065  0.3088  0.2442 -0.0396
15273SOL    HW147260   5.079   5.352   8.997 -0.2026 -0.2171  0.2737
15273SOL    HW247261   5.138   5.402   9.127  0.4004  0.4177 -0.2333
15274SOL     OW47262   5.437   2.861  10.963  0.8079 -0.6755  0.2025
15274SOL    HW147263   5.461   2.947  10.997  0.5391 -0.7900  0.6816
15274SOL    HW247264   5.476   2.799  11.024  2.2424 -0.9400 -0.9299
15275SOL     OW47265   4.762   4.682  12.070 -0.7833  0.2016 -0.1460
15275SOL    HW147266   4.813   4.609  12.034 -1.0429  1.6631 -3.9296
15275SOL    HW247267   4.700   4.641  12.130 -1.6798 -2.9636 -2.9093
15276SOL     OW47268   5.102   5.558  10.036 -0.1860 -0.2012  0.3386
15276SOL    HW147269   5.158   5.496  10.084  0.6369 -0.2782 -0.6882
15276SOL    HW247270   5.134   5.644  10.063  0.8204 -0.2428 -0.6457
15277SOL     OW47271   5.434   4.612  10.873  0.4619  0.5894 -0.4108
15277SOL    HW147272   5.455   4.557  10.798 -0.1686 -0.8554  0.4365
15277SOL    HW247273   5.384   4.685  10.836  2.3000  1.2730 -1.7075
15278SOL     OW47274   3.377   6.899  11.334  0.0375 -0.1878 -0.3300
15278SOL    HW147275   3.289   6.899  11.296  0.0159 -2.7866 -0.4143
15278SOL    HW247276   3.422   6.971  11.290 -1.8692  0.8589 -0.6694
15279SOL     OW47277   4.448   4.535  10.908  0.3726 -0.4573  0.0960
15279SOL    HW147278   4.363   4.498  10.929 -0.5610  0.6319 -1.5311
15279SOL    HW247279   4.501   4.522  10.987 -1.4161 -0.7991  1.2780
15280SOL     OW47280   6.134   5.353  11.396  0.2963 -0.2110  0.3702
15280SOL    HW147281   6.185   5.281  11.361 -0.6517 -0.3992 -0.6669
15280SOL    HW247282   6.112   5.407  11.320 -0.9503 -0.0848  0.7925
15281SOL     OW47283   5.750   2.811  10.782  0.3078 -0.1740  0.6496
15281SOL    HW147284   5.759   2.808  10.687  1.2192 -1.6890  0.7532
15281SOL    HW247285   5.662   2.847  10.796 -0.4449 -1.3449 -0.7936
15282SOL     OW47286   4.444   4.772  10.499 -0.2053 -0.1254 -0.3663
15282SOL    HW147287   4.432   4.867  10.498 -1.0577 -0.1819 -2.7424
15282SOL    HW247288   4.529   4.758  10.457  0.8877 -0.3971  1.7921
15283SOL     OW47289   3.829   5.006  11.698 -0.8650 -0.2049  0.1520
15283SOL    HW147290   3.892   4.960  11.642  0.4081  1.4203  0.1656
15283SOL    HW247291   3.783   4.937  11.745  0.9095 -1.4744  0.1103
15284SOL     OW47292   6.355   4.464  10.040 -0.2439 -0.1275  0.3682
15284SOL    HW147293   6.318   4.545  10.004 -0.9750  0.1938  1.7905
15284SOL    HW247294   6.390   4.489  10.126  0.7217 -1.0548  0.2754
15285SOL     OW47295   4.412   4.412   8.968  0.4136 -0.0988 -0.2198
15285SOL    HW147296   4.476   4.364   8.916 -0.0604 -0.3905 -0.5473
15285SOL    HW247297   4.337   4.352   8.974  0.7656 -0.4208  1.4908
15286SOL     OW47298   3.292   3.705  10.336 -0.1090 -0.0197 -0.2834
15286SOL    HW147299   3.240   3.637  10.293  1.2707 -1.1588 -0.2162
15286SOL    HW247300   3.316   3.765  10.266 -0.2129 -0.3378 -0.5929
15287SOL     OW47301   4.795   3.774  11.894 -0.6686 -0.2110  0.1416
15287SOL    HW147302   4.817   3.822  11.815 -1.7973 -0.5943 -0.4302
15287SOL    HW247303   4.879   3.751  11.933 -0.0546 -1.3024 -1.7256
15288SOL     OW47304   5.185   4.350  10.469 -0.3802  0.9568 -0.4939
15288SOL    HW147305   5.130   4.368  10.546 -0.0839 -0.3720  0.0609
15288SOL    HW247306   5.249   4.421  10.468  0.0096  0.6654  0.8965
15289SOL     OW47307   6.884   3.418  10.843  0.5340 -0.3126 -0.3742
15289SOL    HW147308   6.932   3.348  10.799  0.7441 -0.9048  0.7711
15289SOL    HW247309   6.805   3.430  10.790  0.8008 -0.9710 -0.9322
15290SOL     OW47310   4.083   4.075   9.286 -0.3193  0.8156  0.0942
15290SOL    HW147311   3.996   4.075   9.325 -0.3319  0.6822  0.0674
15290SOL    HW247312   4.083   3.999   9.228  0.2564  0.0494  1.0685
15291SOL     OW47313   5.451   5.599   9.499 -0.6281 -0.2829 -0.8339
15291SOL    HW147314   5.452   5.685   9.458  2.0100  0.7884  1.2021
15291SOL    HW247315   5.416   5.614   9.587  0.1976 -1.2027 -0.3240
15292SOL     OW47316   4.950   5.213  10.026  0.8429  0.4815  0.0785
15292SOL    HW147317   4.955   5.226   9.931 -0.9494  1.2168  0.0577
15292SOL    HW247318   4.981   5.124  10.040 -3.1212 -1.3983 -1.7357
15293SOL     OW47319   4.672   6.545  11.144 -0.3617  0.1903  0.3939
15293SOL    HW147320   4.621   6.598  11.205 -1.1673  1.4052 -1.2421
15293SOL    HW247321   4.607   6.510  11.083  0.3292 -1.5998  0.6096
15294SOL     OW47322   6.954   3.826  12.165  0.6377 -0.0214  0.4236
15294SOL    HW147323   7.036   3.871  12.146 -0.3744  1.2484 -1.3717
15294SOL    HW247324   6.956   3.748  12.111  0.2717  0.5353 -0.4216
15295SOL     OW47325   4.369   3.666  10.743  0.5634  1.3480  0.0524
15295SOL    HW147326   4.320   3.586  10.758 -1.5606  2.3192 -1.2694
15295SOL    HW247327   4.372   3.710  10.828 -1.7903  1.7128  0.0010
15296SOL     OW47328   6.075   4.116   9.768 -0.3129  0.1660  0.0753
15296SOL    HW147329   6.067   4.132   9.674 -1.1882  1.0248  0.2696
15296SOL    HW247330   6.119   4.194   9.802  0.6254 -0.4500  0.2923
15297SOL     OW47331   4.310   4.129   9.416 -0.2615 -0.3467  0.0467
15297SOL    HW147332   4.316   4.038   9.446 -0.7705  0.2631  2.1620
15297SOL    HW247333   4.224   4.135   9.374  0.0786 -1.0036 -0.7703
15298SOL     OW47334   3.785   5.154  10.324 -0.2333 -0.6288 -0.1438
15298SOL    HW147335   3.842   5.107  10.263  0.1818 -0.2127 -0.0761
15298SOL    HW247336   3.793   5.246  10.299 -2.2560 -0.7064 -1.3140
15299SOL     OW47337   4.915   4.035  11.086  0.2083 -0.0394  0.4233
15299SOL    HW147338   4.856   4.011  11.158 -0.0233  0.7838  0.5141
15299SOL    HW247339   4.860   4.084  11.025  0.0676 -1.8645 -0.9960
15300SOL     OW47340   5.700   5.680  12.010 -0.3013 -0.3219  0.0422
15300SOL    HW147341   5.669   5.770  12.017  1.3155  0.2997 -0.3325
15300SOL    HW247342   5.761   5.669  12.084  1.0044 -0.4367 -0.9978
15301SOL     OW47343   4.568   3.706  10.275  0.2084  0.4280 -0.0012
15301SOL    HW147344   4.532   3.786  10.237 -0.4603  0.0740 -0.1398
15301SOL    HW247345   4.500   3.640  10.260  0.6254 -0.0967  0.3701
15302SOL     OW47346   3.883   5.768   9.253 -0.5254 -0.2598  0.1601
15302SOL    HW147347   3.884   5.790   9.346 -0.5725  1.1831 -0.1628
15302SOL    HW247348   3.974   5.777   9.224 -0.7484  0.8154 -0.2546
15303SOL     OW47349   3.610   5.321  10.507  0.2914 -0.0128  0.2612
15303SOL    HW147350   3.665   5.281  10.439 -0.9260 -0.6844 -0.3656
15303SOL    HW247351   3.526   5.276  10.499  0.1752 -0.2524  2.3756
15304SOL     OW47352   4.634   7.214  10.354  0.5845 -0.3269  0.0969
15304SOL    HW147353   4.710   7.202  10.296 -0.4619  0.7749 -1.5928
15304SOL    HW247354   4.564   7.163  10.313 -0.0993  0.2155  0.5630
15305SOL     OW47355   4.613   3.929  11.679  0.4505  0.2802 -0.1434
15305SOL    HW147356   4.589   3.985  11.606 -0.2529 -0.0959 -0.2052
15305SOL    HW247357   4.659   3.987  11.739  1.1728  0.5529 -0.9490
15306SOL     OW47358   5.698   4.941  10.044 -0.0053 -0.4426 -0.2909
15306SOL    HW147359   5.753   4.944  10.122  0.4332 -2.1728 -0.4903
15306SOL    HW247360   5.610   4.958  10.076  0.1217 -1.4323  0.6551
15307SOL     OW47361   4.569   4.041  11.355 -0.6566  0.3187  0.0435
15307SOL    HW147362   4.489   3.997  11.328 -0.1130  0.2554 -1.5598
15307SOL    HW247363   4.555   4.133  11.333  0.2154  0.0981 -1.6068
15308SOL     OW47364   6.593   4.757  12.449  0.0522  0.3085  0.0263
15308SOL    HW147365   6.625   4.684  12.502 -0.0027  1.3343  1.5411
15308SOL    HW247366   6.527   4.719  12.392  0.0467 -0.8369  0.7660
15309SOL     OW47367   4.083   4.812  10.796 -0.2560 -0.1918  0.7394
15309SOL    HW147368   4.176   4.790  10.788 -0.1629 -0.7032  2.7387
15309SOL    HW247369   4.057   4.839  10.708  1.6746 -0.4491  0.0479
15310SOL     OW47370   4.917   2.467  10.463 -0.7414 -0.0755  0.1299
15310SOL    HW147371   4.985   2.498  10.523 -2.4087 -1.1753  2.7381
15310SOL    HW247372   4.916   2.373  10.475 -3.8789  0.0391  1.6002
15311SOL     OW47373   2.803   6.379  11.969  0.4993 -0.0367  0.2801
15311SOL    HW147374   2.866   6.419  11.909 -1.3970  0.6640 -1.3333
15311SOL    HW247375   2.803   6.436  12.046  0.2190  1.2352 -0.6375
15312SOL     OW47376   5.683   5.469  12.326 -0.9110  0.3799  0.1450
15312SOL    HW147377   5.671   5.418  12.246  0.4527 -0.4485  0.4427
15312SOL    HW247378   5.703   5.558  12.295 -2.1460  0.4945 -0.3883
15313SOL     OW47379   3.374   4.890   9.849 -0.1353 -0.0047  0.0067
15313SOL    HW147380   3.366   4.826   9.779  0.3350  0.0146 -0.0694
15313SOL    HW247381   3.324   4.966   9.818 -2.5347 -1.0717  1.0172
15314SOL     OW47382   3.648   4.839   9.735  0.3012 -0.1251  0.0669
15314SOL    HW147383   3.585   4.868   9.668 -0.7795  0.1594  1.1819
15314SOL    HW247384   3.654   4.745   9.722 -0.4178 -0.1681 -0.0101
15315SOL     OW47385   4.184   6.204  10.924 -0.2244  0.5867  0.0114
15315SOL    HW147386   4.144   6.245  10.847  2.7260  1.4020 -1.2645
15315SOL    HW247387   4.193   6.112  10.900 -0.6226  0.5604 -0.0346
15316SOL     OW47388   4.532   5.062   9.619  0.1528 -0.5158 -0.4046
15316SOL    HW147389   4.535   5.109   9.535  1.3192 -0.6857 -0.4741
15316SOL    HW247390   4.545   5.131   9.684  0.5150 -0.5577 -0.4325
15317SOL     OW47391   4.587   4.446  11.121 -0.0927  0.2753 -0.1968
15317SOL    HW147392   4.643   4.463  11.197 -1.2880 -0.6711  0.9530
15317SOL    HW247393   4.632   4.377  11.073  0.1866  0.1515  0.2324
15318SOL     OW47394   3.934   6.104  10.615 -0.5329  0.8206  0.0504
15318SOL    HW147395   3.996   6.177  10.623 -0.1292  0.4184  0.6666
15318SOL    HW247396   3.892   6.118  10.531 -0.9064  2.1190  0.4273
15319SOL     OW47397   5.282   5.446  10.285 -0.3265 -0.5351 -0.0635
15319SOL    HW147398   5.329   5.505  10.344 -1.8679  1.0498 -0.3539
15319SOL    HW247399   5.349   5.420  10.221  0.1383  2.1002 -0.8089
15320SOL     OW47400   3.715   5.107  10.920 -0.9058 -0.1035 -0.8826
15320SOL    HW147401   3.748   5.192  10.893  0.5446 -0.1406  0.6477
15320SOL    HW247402   3.632   5.127  10.965 -0.8458  0.4434 -1.0090
15321SOL     OW47403   2.966   4.203  11.827 -0.4998  0.2495  0.4800
15321SOL    HW147404   2.970   4.262  11.903  1.3208  1.0470 -0.1589
15321SOL    HW247405   2.919   4.253  11.761 -0.5897  0.2480  0.5433
15322SOL     OW47406   5.335   3.481   8.383  0.2356  0.2712 -0.3975
15322SOL    HW147407   5.317   3.547   8.317  2.6701  1.1363 -0.2957
15322SOL    HW247408   5.307   3.521   8.465  0.8584  0.8406 -0.4515
15323SOL     OW47409   6.792   5.631   9.278 -0.1791 -0.1504 -0.3296
15323SOL    HW147410   6.859   5.618   9.211  0.1708  0.2125 -0.0541
15323SOL    HW247411   6.841   5.633   9.360 -0.6997 -1.5122  0.0314
15324SOL     OW47412   4.420   6.085  11.149  0.4148 -0.4888  0.3002
15324SOL    HW147413   4.378   6.010  11.106 -1.4058 -0.2371  1.5191
15324SOL    HW247414   4.493   6.108  11.091 -1.5603 -0.4668 -2.3921
15325SOL     OW47415   5.295   5.195  11.463  0.0501 -0.0335 -0.9423
15325SOL    HW147416   5.341   5.150  11.392 -0.8694 -0.1948 -1.4516
15325SOL    HW247417   5.363   5.247  11.506  1.2934 -2.2699  0.0051
15326SOL     OW47418   3.448   6.116   9.498  0.4988  0.4728 -0.0076
15326SOL    HW147419   3.437   6.053   9.426  1.4821  0.8163 -0.4690
15326SOL    HW247420   3.390   6.189   9.474  0.8164  0.5840 -0.4536
15327SOL     OW47421   4.504   5.836   8.360  0.4985 -0.1091 -0.2801
15327SOL    HW147422   4.476   5.750   8.393  1.1558 -0.1563  0.1759
15327SOL    HW247423   4.465   5.842   8.272 -0.3475 -0.4587  0.0617
15328SOL     OW47424   6.204   5.352  12.171  0.4085  0.0403  0.6628
15328SOL    HW147425   6.253   5.325  12.094  2.7845 -0.5074  2.2581
15328SOL    HW247426   6.160   5.433  12.145  0.5420 -0.5086 -1.4341
15329SOL     OW47427   4.569   4.189   9.293 -0.1118  0.5862 -0.2783
15329SOL    HW147428   4.496   4.184   9.355  1.0376  1.9681  1.2903
15329SOL    HW247429   4.604   4.100   9.290 -1.7560 -0.0708 -0.9848
15330SOL     OW47430   3.134   2.737   8.816 -0.2306  0.0617 -0.1568
15330SOL    HW147431   3.199   2.721   8.747  1.2722  2.0717  0.7110
15330SOL    HW247432   3.067   2.790   8.774 -1.8068 -2.5723 -1.2420
15331SOL     OW47433   4.685   4.740  10.144  0.4789  0.3621  0.2920
15331SOL    HW147434   4.608   4.781  10.105 -0.2746 -0.4259  0.9202
15331SOL    HW247435   4.675   4.646  10.125  1.2976  0.2500  0.3568
15332SOL     OW47436   5.528   3.492  11.524  0.1042  0.4175 -0.6097
15332SOL    HW147437   5.455   3.554  11.519  0.3543  0.6501 -1.5291
15332SOL    HW247438   5.494   3.420  11.577 -0.4136  1.0318 -0.0866
15333SOL     OW47439   4.703   3.329  10.483 -0.1116  0.2462 -0.7749
15333SOL    HW147440   4.705   3.248  10.431  0.5980 -0.6167  0.5352
15333SOL    HW247441   4.755   3.391  10.432  2.7252 -1.3104 -0.0286
15334SOL     OW47442   4.122   5.463  10.698  0.1584 -0.1725 -0.1056
15334SOL    HW147443   4.077   5.543  10.673  0.9047 -0.8104 -4.2219
15334SOL    HW247444   4.053   5.398  10.708 -0.4183  0.7794  2.8977
15335SOL     OW47445   3.333   3.872  11.542  0.0569  0.1301  0.3561
15335SOL    HW147446   3.338   3.931  11.467  2.9777  0.0967  0.4090
15335SOL    HW247447   3.350   3.785  11.505 -2.2871 -0.5050  0.5760
15336SOL     OW47448   3.398   5.739   9.621 -0.0245 -0.1354 -0.0286
15336SOL    HW147449   3.330   5.737   9.688  2.2059 -0.1347  2.3774
15336SOL    HW247450   3.358   5.696   9.545 -2.6562 -0.1479  1.2504
15337SOL     OW47451   5.247   4.826  11.648  0.3860 -0.1138 -0.1914
15337SOL    HW147452   5.260   4.739  11.686 -2.7524  0.2519  2.1639
15337SOL    HW247453   5.324   4.840  11.593  0.7856 -4.5560 -1.1416
15338SOL     OW47454   4.788   5.903   9.684  0.0080  0.2916 -0.0612
15338SOL    HW147455   4.793   5.996   9.703 -0.7348  0.6180 -1.3122
15338SOL    HW247456   4.741   5.865   9.759  1.7061  0.6264  1.2246
15339SOL     OW47457   4.922   3.758  10.892  0.5381  0.3643  0.4533
15339SOL    HW147458   4.872   3.839  10.881 -1.4995 -0.9997 -1.0592
15339SOL    HW247459   4.866   3.703  10.946  1.0443 -0.6673 -0.0494
15340SOL     OW47460   5.012   4.061  10.459  0.0550  0.2321 -0.0415
15340SOL    HW147461   4.920   4.087  10.460 -0.4640 -1.4667 -0.0170
15340SOL    HW247462   5.053   4.115  10.526 -0.6706  1.7934 -0.8017
15341SOL     OW47463   3.700   5.643  10.084  0.0348 -0.1826 -0.2592
15341SOL    HW147464   3.758   5.719  10.094  1.6911 -1.3902 -0.4385
15341SOL    HW247465   3.626   5.677  10.033  0.9131  1.2146 -0.6707
15342SOL     OW47466   5.812   2.027  11.577  0.3572 -0.1191  0.0682
15342SOL    HW147467   5.887   2.072  11.615  0.2206 -0.7925  1.2041
15342SOL    HW247468   5.836   2.011  11.486  1.5295 -0.1968  0.3784
15343SOL     OW47469   3.566   4.563   9.660  0.0951  0.0727 -0.1462
15343SOL    HW147470   3.483   4.609   9.654 -0.9289 -1.3967  1.6076
15343SOL    HW247471   3.564   4.500   9.588  0.9901  1.8887 -1.8328
15344SOL     OW47472   5.368   2.860   9.481  0.2948 -0.2333 -0.2413
15344SOL    HW147473   5.367   2.916   9.558 -0.9084  0.7362 -0.9381
15344SOL    HW247474   5.400   2.916   9.410 -0.1730 -0.6441 -0.7853
15345SOL     OW47475   5.752   4.998  10.476 -0.6673  0.1289  0.3162
15345SOL    HW147476   5.717   5.086  10.492  0.3812  0.4696  0.8439
15345SOL    HW247477   5.792   4.973  10.560  1.2628  0.2032 -0.5404
15346SOL     OW47478   4.912   4.863   9.083 -0.2332 -0.4537  0.0864
15346SOL    HW147479   4.909   4.769   9.067 -1.6289 -0.2193 -1.1929
15346SOL    HW247480   4.830   4.897   9.048  0.6611  1.3842 -0.3858
15347SOL     OW47481   4.771   4.834  10.538 -0.7677  0.1776  0.0915
15347SOL    HW147482   4.752   4.920  10.575  1.2792 -0.3688  2.6845
15347SOL    HW247483   4.819   4.853  10.457  1.4222  1.5976  1.6029
15348SOL     OW47484   4.241   3.357  10.629  0.2843 -0.4260  0.6059
15348SOL    HW147485   4.234   3.262  10.627 -1.0491 -0.3472  0.4132
15348SOL    HW247486   4.272   3.378  10.717 -0.9802 -0.9770  1.2108
15349SOL     OW47487   4.611   5.810  11.136  0.0232 -0.0288  0.2367
15349SOL    HW147488   4.665   5.888  11.147 -0.0259  0.0379  0.0070
15349SOL    HW247489   4.537   5.838  11.083  0.0516 -0.2496  0.0747
15350SOL     OW47490   5.410   5.406  11.885  0.1965 -0.1505  0.9577
15350SOL    HW147491   5.504   5.400  11.902  0.6752  0.9221 -0.9975
15350SOL    HW247492   5.399   5.492  11.845 -1.3643 -0.9131 -0.3348
15351SOL     OW47493   5.082   3.214   9.456 -0.7431 -0.1645 -0.3834
15351SOL    HW147494   5.040   3.275   9.396 -0.5367  1.1385  0.7580
15351SOL    HW247495   5.017   3.145   9.470 -1.1245 -0.0151 -1.3892
15352SOL     OW47496   5.751   3.923  10.053  0.0817  0.3710 -0.3682
15352SOL    HW147497   5.783   3.837  10.080 -0.6973 -1.1832 -3.7649
15352SOL    HW247498   5.830   3.977  10.045  0.8727 -0.7555 -0.3844
15353SOL     OW47499   5.879   5.666  10.698 -0.2556 -0.0588 -0.0552
15353SOL    HW147500   5.882   5.707  10.612 -1.2039  1.0910  0.4253
15353SOL    HW247501   5.895   5.737  10.759  0.7643 -0.9263  0.7213
15354SOL     OW47502   5.920   4.178  10.086 -0.0675 -0.1769  0.0041
15354SOL    HW147503   5.851   4.244  10.078 -0.5055 -0.3001  2.2539
15354SOL    HW247504   5.948   4.183  10.177 -0.4359 -3.4099  0.4152
15355SOL     OW47505   4.003   6.194   9.749  0.1203  0.5600 -0.0413
15355SOL    HW147506   3.985   6.270   9.694 -0.7237  0.2524 -0.2017
15355SOL    HW247507   3.937   6.129   9.724 -0.4718  0.5111  1.5184
15356SOL     OW47508   3.949   3.719  11.122 -0.1138  0.2062 -0.5555
15356SOL    HW147509   4.022   3.770  11.089 -0.1364  0.9323  0.4823
15356SOL    HW247510   3.952   3.730  11.217 -1.3499 -0.0386 -0.4654
15357SOL     OW47511   6.659   4.155  11.563 -0.2653  0.3228 -0.0291
15357SOL    HW147512   6.743   4.147  11.608 -0.2573  0.8575  0.0562
15357SOL    HW247513   6.665   4.236  11.513 -0.9740  0.7182  0.5003
15358SOL     OW47514   4.833   5.538   9.151 -0.3050  0.4111  0.0817
15358SOL    HW147515   4.796   5.617   9.111 -1.4008  0.4225  1.0554
15358SOL    HW247516   4.908   5.570   9.201 -0.1689  0.6966 -0.3000
15359SOL     OW47517   5.389   4.873   9.305 -0.0694  0.7014 -0.2630
15359SOL    HW147518   5.332   4.827   9.244  0.4313  0.9397 -0.9232
15359SOL    HW247519   5.330   4.929   9.356 -1.0345 -2.2239  2.1361
15360SOL     OW47520   3.313   5.188   0.789  0.4937 -0.0348  0.0684
15360SOL    HW147521   3.245   5.225   0.732 -3.0602 -2.2621  2.4371
15360SOL    HW247522   3.329   5.101   0.753  2.2944  0.4999 -0.5180
15361SOL     OW47523   3.740   5.030   9.228  0.0968  0.1408 -0.2924
15361SOL    HW147524   3.650   5.011   9.200  0.4219 -0.6082 -0.8526
15361SOL    HW247525   3.794   5.006   9.153  0.8315 -0.0918  0.3014
15362SOL     OW47526   4.601   6.215  10.374 -0.1031 -0.4202  0.6518
15362SOL    HW147527   4.661   6.145  10.347  0.2914 -0.1113  0.7187
15362SOL    HW247528   4.658   6.290  10.391 -0.6252  0.2551 -0.5042
15363SOL     OW47529   5.063   3.127  10.681  0.0653  0.4965 -0.5083
15363SOL    HW147530   5.122   3.198  10.703  0.0072  0.5573 -0.5475
15363SOL    HW247531   4.977   3.168  10.674 -0.1172  0.2780  0.3329
15364SOL     OW47532   3.113   5.704  10.507  0.1815  0.1799  0.1438
15364SOL    HW147533   3.099   5.632  10.568 -0.3745  0.2975  0.1628
15364SOL    HW247534   3.099   5.783  10.560 -3.0150  0.3137 -0.6577
15365SOL     OW47535   5.332   5.087   9.840  0.3642 -0.3499 -0.0778
15365SOL    HW147536   5.294   5.174   9.835 -0.1548 -0.3207  2.6272
15365SOL    HW247537   5.265   5.028   9.804 -0.5263  0.1091  0.7907
15366SOL     OW47538   5.178   3.879  10.332  0.0378 -0.2272  0.2649
15366SOL    HW147539   5.101   3.927  10.360 -1.5932 -1.8826 -1.0859
15366SOL    HW247540   5.220   3.936  10.267  0.8902  1.3287  2.0750
15367SOL     OW47541   6.372   4.602  10.331 -0.0198 -0.1404 -0.3931
15367SOL    HW147542   6.420   4.554  10.398  1.6323 -0.5287 -1.7577
15367SOL    HW247543   6.283   4.610  10.365  0.6949 -0.5045  1.7131
15368SOL     OW47544   5.396   2.135  11.197 -0.0926 -0.3535 -0.3180
15368SOL    HW147545   5.371   2.217  11.239  1.0159  0.3949 -1.0699
15368SOL    HW247546   5.326   2.119  11.133 -0.5496 -0.2488  0.1492
15369SOL     OW47547   4.167   4.973  10.996  0.2231 -0.3530  0.4341
15369SOL    HW147548   4.123   4.920  10.929 -2.2171  1.1344  0.7540
15369SOL    HW247549   4.237   5.018  10.949  0.0287 -1.1055 -0.5993
15370SOL     OW47550   3.616   4.743  11.615 -0.4542  0.6859  0.0668
15370SOL    HW147551   3.529   4.726  11.652 -0.5539  0.4068 -0.2903
15370SOL    HW247552   3.668   4.773  11.690 -0.5692 -0.1512  0.4987
15371SOL     OW47553   5.332   4.122  10.446 -0.3289 -0.5988  0.2068
15371SOL    HW147554   5.271   4.193  10.467  2.0973  1.3290  1.2969
15371SOL    HW247555   5.373   4.148  10.364  1.7835  0.2610  1.4358
15372SOL     OW47556   6.572   2.099   8.281  0.2674 -0.4624 -0.3997
15372SOL    HW147557   6.486   2.077   8.246 -1.3357  1.2671  2.0845
15372SOL    HW247558   6.600   2.175   8.230  0.1369 -0.7728 -0.9413
15373SOL     OW47559   2.942   4.491   9.122 -0.3340 -1.1557 -0.1802
15373SOL    HW147560   2.956   4.553   9.193  0.0312  0.3420 -1.5117
15373SOL    HW247561   3.030   4.456   9.103 -0.1392 -0.2395 -1.0308
15374SOL     OW47562   4.313   7.211   9.095  0.6842  0.0342  0.0305
15374SOL    HW147563   4.330   7.165   9.177  1.1930 -0.5494 -0.3929
15374SOL    HW247564   4.317   7.304   9.119 -0.0127 -0.1268  0.8229
15375SOL     OW47565   3.532   4.516  11.946 -0.5699  0.2673 -0.5960
15375SOL    HW147566   3.604   4.566  11.907  0.4911 -0.7013  0.0459
15375SOL    HW247567   3.508   4.567  12.024 -0.4780  0.5251 -0.7340
15376SOL     OW47568   3.639   3.467  11.427 -0.5277  0.5181 -0.1104
15376SOL    HW147569   3.723   3.476  11.471 -1.5701  0.2312  2.0913
15376SOL    HW247570   3.600   3.555  11.432 -0.7999  0.4011 -0.1603
15377SOL     OW47571   3.087   3.973  12.126  0.1949 -0.3156  0.3007
15377SOL    HW147572   3.050   3.952  12.040  2.2793  2.5653 -1.4981
15377SOL    HW247573   3.045   4.055  12.151  1.9349  0.5928  0.3893
15378SOL     OW47574   4.997   4.754   0.368  0.1251 -0.2662  0.2728
15378SOL    HW147575   4.976   4.845   0.346 -3.0614 -0.8922  0.3364
15378SOL    HW247576   4.996   4.752   0.464  1.1133 -0.2281  0.2987
15379SOL     OW47577   5.656   6.199   0.771  0.3616  0.7099 -0.3762
15379SOL    HW147578   5.638   6.111   0.805  2.2459  0.2063 -0.6061
15379SOL    HW247579   5.580   6.251   0.799 -0.0455 -0.6111  1.1156
15380SOL     OW47580   4.325   3.415  10.891  0.3229  0.7302 -0.1837
15380SOL    HW147581   4.348   3.470  10.966  1.5830  0.9163 -0.6778
15380SOL    HW247582   4.342   3.326  10.920  2.6966  0.9058 -0.8183
15381SOL     OW47583   0.027   5.796  11.663 -0.4697 -0.4336 -0.1359
15381SOL    HW147584  -0.019   5.737  11.723  0.4235  0.2086  1.2319
15381SOL    HW247585   0.111   5.753  11.647  0.2050  0.4397  0.9041
15382SOL     OW47586   5.487   4.909  12.151 -0.1441  0.0062  0.2593
15382SOL    HW147587   5.405   4.917  12.101  0.1772 -1.1999 -0.5073
15382SOL    HW247588   5.462   4.931  12.241 -1.0069  0.9840 -0.1888
15383SOL     OW47589   2.828   5.617  12.057 -0.0539  0.3238 -0.3298
15383SOL    HW147590   2.774   5.696  12.060 -1.3031 -0.5240  1.0480
15383SOL    HW247591   2.802   5.568  12.136 -0.2381 -2.0394 -1.7758
15384SOL     OW47592   5.601   3.689  12.445 -0.0035 -0.3917  0.3680
15384SOL    HW147593   5.650   3.638  12.381  0.8117 -0.0661  0.7242
15384SOL    HW247594   5.556   3.623  12.498  0.5287 -0.7214  0.4183
15385SOL     OW47595   3.155   5.505  11.301  0.2274 -0.3905 -0.1320
15385SOL    HW147596   3.210   5.549  11.366  0.2301 -2.3766  1.3163
15385SOL    HW247597   3.217   5.464  11.241  0.3841 -1.7951  0.9253
15386SOL     OW47598   3.179   4.614  11.338  0.1037 -0.8219 -0.3605
15386SOL    HW147599   3.085   4.632  11.339  0.0520 -0.9178  2.0767
15386SOL    HW247600   3.185   4.519  11.328  0.0222 -0.6718 -2.0399
15387SOL     OW47601   4.757   5.096   0.882 -0.1208 -0.1119  0.0940
15387SOL    HW147602   4.775   5.112   0.790  1.3087  1.6884  0.6053
15387SOL    HW247603   4.669   5.130   0.896  0.3263  1.2644 -0.2860
15388SOL     OW47604   3.936   4.562  10.381  0.4486  0.3624  0.0163
15388SOL    HW147605   3.901   4.517  10.458  1.2011  0.0485  0.1777
15388SOL    HW247606   4.028   4.538  10.378  0.4291  0.3570 -0.9950
15389SOL     OW47607   4.416   3.870  12.196 -0.5939  0.4607 -0.1877
15389SOL    HW147608   4.484   3.837  12.137 -1.0011 -2.4268  0.8128
15389SOL    HW247609   4.363   3.927  12.141  1.1534  0.7899 -1.6319
15390SOL     OW47610   4.701   6.437  12.456 -0.0166 -0.2555  0.0635
15390SOL    HW147611   4.714   6.348  12.422  0.1116 -0.7484  1.3459
15390SOL    HW247612   4.606   6.451  12.452 -0.1345 -0.8123  0.6900
15391SOL     OW47613   4.381   6.370  11.108  0.3743 -0.0064  0.2434
15391SOL    HW147614   4.304   6.324  11.074 -0.1676 -0.6809  2.2144
15391SOL    HW247615   4.444   6.301  11.127 -0.2119  0.0149  2.6460
15392SOL     OW47616   7.198   3.195  11.804  0.1218 -0.2197 -0.6308
15392SOL    HW147617   7.113   3.211  11.762 -0.0226 -0.6509 -0.5106
15392SOL    HW247618   7.221   3.278  11.845  1.8052  1.3174 -4.2251
15393SOL     OW47619   6.606   4.343  12.100 -0.0994 -0.6000 -0.6533
15393SOL    HW147620   6.681   4.371  12.153 -1.3119 -1.6863  1.7858
15393SOL    HW247621   6.535   4.402  12.126 -0.8721 -1.5395 -0.5898
15394SOL     OW47622   4.557   3.317   1.427 -0.0997  0.7309 -0.2002
15394SOL    HW147623   4.510   3.332   1.509  2.2692  0.3934  1.3237
15394SOL    HW247624   4.641   3.361   1.439  0.2459  0.8568 -2.5678
15395SOL     OW47625   5.840   3.639  12.210  0.3793  0.1135 -0.3222
15395SOL    HW147626   5.899   3.682  12.273 -0.0879 -2.5664  2.1378
15395SOL    HW247627   5.898   3.612  12.139  1.5642  0.2875  0.5328
15396SOL     OW47628   4.685   3.753   9.679  0.2901  0.3055 -0.0482
15396SOL    HW147629   4.669   3.707   9.596  1.2462  0.1823 -0.1804
15396SOL    HW247630   4.737   3.829   9.653 -0.0930  0.7024  0.3464
15397SOL     OW47631   4.496   4.757   0.843 -0.0289 -0.6403  0.5316
15397SOL    HW147632   4.548   4.787   0.768  0.4978 -3.5079 -0.3778
15397SOL    HW247633   4.535   4.800   0.919  1.4845 -0.1011 -0.5185
15398SOL     OW47634   5.624   5.611  11.285  0.1776 -0.1665 -0.1042
15398SOL    HW147635   5.679   5.591  11.209  0.9201 -0.4391  0.4903
15398SOL    HW247636   5.686   5.641  11.352 -0.3858 -0.5498  0.6022
15399SOL     OW47637   4.574   4.256  12.219  0.3649  0.1560 -0.4511
15399SOL    HW147638   4.530   4.245  12.304  1.5300  1.4478  0.3494
15399SOL    HW247639   4.590   4.167  12.190  0.9147 -0.3306  1.2134
15400SOL     OW47640   4.246   5.202  12.099  0.0950 -0.1288 -0.0690
15400SOL    HW147641   4.298   5.147  12.041  1.1280  0.7251  0.0227
15400SOL    HW247642   4.243   5.287  12.056  0.5223  0.3971  0.8925
15401SOL     OW47643   4.793   4.964  12.006 -0.3274 -0.2583 -0.3240
15401SOL    HW147644   4.717   4.998  11.959 -0.4026 -1.6471 -1.2542
15401SOL    HW247645   4.780   4.869  12.009  0.8178 -0.4192  0.4931
15402SOL     OW47646   3.542   3.921  11.731  0.7162  0.5133 -0.4062
15402SOL    HW147647   3.479   3.906  11.661 -1.9004 -1.7555  2.1682
15402SOL    HW247648   3.626   3.895  11.693 -0.6544 -1.1923 -2.5382
15403SOL     OW47649   4.077   3.619  11.997  0.0747 -0.0521 -0.2506
15403SOL    HW147650   4.045   3.701  12.035  0.2489 -0.1885  0.2058
15403SOL    HW247651   4.154   3.598  12.050 -0.1930 -0.7055 -0.1195
15404SOL     OW47652   4.335   3.955  11.233  0.2920 -0.0276 -0.4925
15404SOL    HW147653   4.263   3.947  11.296 -0.8393 -1.3450 -1.8560
15404SOL    HW247654   4.357   3.865  11.210  0.9683  0.4061 -1.6440
15405SOL     OW47655   2.349   3.457  12.113  0.4774  0.0079 -0.6673
15405SOL    HW147656   2.414   3.517  12.077  1.8446 -1.4303 -0.6955
15405SOL    HW247657   2.341   3.388  12.047 -1.8491  0.6211 -1.1323
15406SOL     OW47658   5.402   3.158  12.190  0.4317  0.0701  0.3152
15406SOL    HW147659   5.321   3.131  12.146  1.9335 -0.5962 -2.2461
15406SOL    HW247660   5.432   3.080  12.235  0.9726 -0.4948 -0.9661
15407SOL     OW47661   5.260   4.734  12.443 -0.0045  0.4089  0.0618
15407SOL    HW147662   5.208   4.663  12.406 -0.4009 -0.0793  1.4784
15407SOL    HW247663   5.198   4.783  12.497  0.8208  0.2598  1.1793
15408SOL     OW47664   3.378   2.915  11.489  0.6464  0.5181 -0.1305
15408SOL    HW147665   3.432   2.874  11.421  2.4535  1.9758  0.3463
15408SOL    HW247666   3.397   3.008  11.481 -0.2241  0.8530  1.4449
15409SOL     OW47667   4.195   4.899  11.269  0.3847 -0.0829 -0.0816
15409SOL    HW147668   4.215   4.916  11.177 -1.1459  1.3911 -0.1834
15409SOL    HW247669   4.203   4.804  11.279 -2.5824 -0.7142 -2.5521
15410SOL     OW47670   1.988   7.025  11.389  0.0462 -0.7559  0.0551
15410SOL    HW147671   1.957   7.027  11.298 -1.2984  1.2137  0.5065
15410SOL    HW247672   2.073   7.069  11.387 -0.7993  0.9391 -0.0109
15411SOL     OW47673   4.516   3.688  12.388 -0.3442  0.1757 -0.1951
15411SOL    HW147674   4.508   3.775  12.347 -1.1153  0.8741  1.3382
15411SOL    HW247675   4.513   3.706  12.482  0.5345 -1.4421  0.1758
15412SOL     OW47676   4.706   3.659  11.078  0.3470 -0.4739  0.0406
15412SOL    HW147677   4.711   3.589  11.144  0.3299 -0.9923 -0.4948
15412SOL    HW247678   4.613   3.679  11.071  0.2932 -0.7990 -0.2099
15413SOL     OW47679   3.429   5.138  11.003 -0.0490  0.7300 -0.2315
15413SOL    HW147680   3.391   5.222  11.032 -0.5642  0.5276 -0.3044
15413SOL    HW247681   3.489   5.114  11.073 -1.4887  0.1118  0.8582
15414SOL     OW47682   5.909   4.720  11.665 -0.3648 -0.1356 -0.0546
15414SOL    HW147683   5.824   4.762  11.661 -0.5151 -0.4074  0.2387
15414SOL    HW247684   5.893   4.636  11.708  0.0465 -0.1996 -0.0149
15415SOL     OW47685   4.121   6.849  12.275 -0.1055 -0.2625 -0.5596
15415SOL    HW147686   4.106   6.827  12.183 -0.4064  2.5843 -1.2851
15415SOL    HW247687   4.209   6.888  12.276 -1.2862  2.5866 -0.3023
15416SOL     OW47688   3.754   4.899  11.402  0.3949  0.2303  0.1488
15416SOL    HW147689   3.834   4.878  11.450  0.3147 -1.1381 -0.2639
15416SOL    HW247690   3.775   4.876  11.311 -0.3718  0.1316 -0.0088
15417SOL     OW47691   7.864   3.163  10.320  0.0720  0.0929  0.7188
15417SOL    HW147692   7.843   3.257  10.327 -2.6446 -0.3365 -0.2546
15417SOL    HW247693   7.787   3.125  10.277  2.5101 -2.0713 -2.1868
15418SOL     OW47694   3.408   5.760   0.109  0.1104  0.1006 -0.2213
15418SOL    HW147695   3.423   5.673   0.146 -0.1161  0.3339  0.4358
15418SOL    HW247696   3.450   5.757   0.023 -1.0665 -1.1059 -0.7869
15419SOL     OW47697   4.753   4.787  11.597 -0.4392  0.6160 -0.4002
15419SOL    HW147698   4.689   4.845  11.639  0.0949  1.1552 -0.3215
15419SOL    HW247699   4.738   4.702  11.637 -0.4150  0.9694  0.3809
15420SOL     OW47700   2.016   4.385  11.000  0.7741  0.1507  0.1370
15420SOL    HW147701   2.035   4.408  11.091 -0.3356  1.3551  0.0958
15420SOL    HW247702   1.940   4.327  11.005  0.1426  0.9425 -0.0500
15421SOL     OW47703   4.149   3.048   0.443 -0.0148 -0.2218  0.0803
15421SOL    HW147704   4.135   3.104   0.519  1.2106 -0.0494  0.2033
15421SOL    HW247705   4.096   3.087   0.373 -0.3467  0.2028  0.5663
15422SOL     OW47706   4.504   6.728  11.295  0.1511 -0.0531 -0.0845
15422SOL    HW147707   4.422   6.757  11.335  0.6672 -0.2724  1.1919
15422SOL    HW247708   4.556   6.808  11.285  0.0778 -0.0178 -0.1835
15423SOL     OW47709   4.419   2.963   0.077 -0.0997  0.7851  0.1003
15423SOL    HW147710   4.382   3.009   0.152 -0.5622  0.2062  0.2365
15423SOL    HW247711   4.351   2.901   0.051  0.3650  0.4364 -0.3101
15424SOL     OW47712   4.228   3.655   0.794  0.1997 -0.2816  0.3356
15424SOL    HW147713   4.286   3.660   0.718 -0.3453  1.3612 -0.0179
15424SOL    HW247714   4.145   3.691   0.762 -0.2892 -0.3507  1.4948
15425SOL     OW47715   4.800   3.903  12.467  0.5067 -0.0774  0.1852
15425SOL    HW147716   4.714   3.869  12.493 -0.5286  2.0527 -0.2804
15425SOL    HW247717   4.794   3.912  12.372  2.0892 -1.9668 -0.1725
15426SOL     OW47718   3.823   3.761  10.809 -0.5955 -0.2152  0.5695
15426SOL    HW147719   3.849   3.774  10.718 -0.3300  1.4099  0.8614
15426SOL    HW247720   3.882   3.692  10.841 -1.8904 -2.1562 -0.9519
15427SOL     OW47721   4.162   4.961   1.358  0.3442 -0.6200 -0.0694
15427SOL    HW147722   4.174   5.055   1.340 -0.1548 -0.7759 -1.2838
15427SOL    HW247723   4.230   4.941   1.423 -1.5853  1.3012  2.8225
15428SOL     OW47724   3.999   5.920  12.065 -0.3475  0.1174  0.2996
15428SOL    HW147725   3.932   5.987  12.059 -0.0042  0.8177  3.0468
15428SOL    HW247726   3.951   5.838  12.073 -1.0721  0.7256  3.6278
15429SOL     OW47727   4.995   3.794  10.557  0.2248 -0.3150 -0.4695
15429SOL    HW147728   4.933   3.825  10.622  0.1751  0.0459 -0.6885
15429SOL    HW247729   5.038   3.873  10.525  1.8362 -0.6526  0.7210
15430SOL     OW47730   4.819   3.771   0.707  0.6348 -0.8099 -0.2641
15430SOL    HW147731   4.762   3.719   0.763  0.9351  0.3312  1.1886
15430SOL    HW247732   4.786   3.758   0.618  0.2380 -2.8182  0.1361
15431SOL     OW47733   5.722   3.633  10.998  0.1987  0.2420  0.3132
15431SOL    HW147734   5.767   3.690  10.936 -0.5886  1.5719  0.9002
15431SOL    HW247735   5.756   3.660  11.084  0.7539 -1.0716  0.5181
15432SOL     OW47736   3.942   4.384  11.446  0.2900 -0.5374 -0.0287
15432SOL    HW147737   4.027   4.383  11.490  0.8654  0.9995 -1.0331
15432SOL    HW247738   3.961   4.414  11.357 -1.2219 -0.7645 -0.4584
15433SOL     OW47739   4.610   2.519   0.517 -0.2347  0.5125  0.4215
15433SOL    HW147740   4.636   2.489   0.430 -1.3665  2.4982 -0.6446
15433SOL    HW247741   4.593   2.438   0.566  0.9231 -0.6415 -1.0056
15434SOL     OW47742   5.418   4.966  12.408  0.1155 -0.2867  0.1633
15434SOL    HW147743   5.361   5.042  12.399  0.8337 -0.0079 -3.1286
15434SOL    HW247744   5.359   4.893  12.426 -0.9789  0.4545 -0.3491
15435SOL     OW47745   5.908   4.239   0.074 -0.1258  0.0460  0.1038
15435SOL    HW147746   5.842   4.176   0.104  0.4405 -0.6987 -0.1761
15435SOL    HW247747   5.902   4.236  -0.022 -0.7143  1.1010  0.0969
15436SOL     OW47748   5.668   5.178  11.179 -0.2485 -0.2289 -0.0000
15436SOL    HW147749   5.737   5.238  11.151 -0.4933 -0.5091 -1.3081
15436SOL    HW247750   5.709   5.120  11.243  0.6877 -0.2856 -0.6424
15437SOL     OW47751   3.872   5.200  11.501  0.1992  0.2459  0.5907
15437SOL    HW147752   3.954   5.157  11.526 -0.7549 -1.6175  0.7118
15437SOL    HW247753   3.805   5.158  11.556 -1.0213  0.7722 -0.4380
15438SOL     OW47754   6.716   5.006   0.593  0.1241  0.3341 -0.5162
15438SOL    HW147755   6.651   5.037   0.656  0.9451  0.0548  0.4862
15438SOL    HW247756   6.743   4.920   0.626  0.5757  0.1809 -1.2519
15439SOL     OW47757   5.190   2.526  10.282 -0.1163 -0.4146 -0.1167
15439SOL    HW147758   5.204   2.453  10.342 -1.1330 -0.7135 -0.2185
15439SOL    HW247759   5.226   2.602  10.327  0.0572 -0.8118  0.4210
15440SOL     OW47760   5.110   4.214  12.166  0.1176  0.0809  0.0372
15440SOL    HW147761   5.097   4.292  12.221  0.5333 -0.7744  1.3805
15440SOL    HW247762   5.039   4.155  12.190  0.0979 -0.1764 -0.6175
15441SOL     OW47763   6.109   4.528   0.202  0.7364  0.2788  0.4226
15441SOL    HW147764   6.091   4.621   0.216 -0.8551  0.0054  0.4185
15441SOL    HW247765   6.184   4.508   0.258  1.9033  1.8264 -0.5097
15442SOL     OW47766   6.046   6.539  11.610  0.1543 -0.0082 -0.2167
15442SOL    HW147767   5.959   6.501  11.605  1.0843 -2.1645 -1.0696
15442SOL    HW247768   6.087   6.496  11.685  0.9678 -0.1587 -0.7276
15443SOL     OW47769   4.293   4.069  12.081 -0.5835 -0.3743  0.8074
15443SOL    HW147770   4.334   4.115  12.009  2.7971 -2.4470  1.1822
15443SOL    HW247771   4.254   4.138  12.135 -1.1025  1.4038 -1.6813
15444SOL     OW47772   3.362   5.318  12.159  0.4765 -0.5085 -0.3125
15444SOL    HW147773   3.387   5.250  12.096  1.1904 -1.5309  1.0238
15444SOL    HW247774   3.270   5.335  12.140  0.2745 -1.8864 -0.6579
15445SOL     OW47775   6.550   4.256   0.559 -0.1070  0.3733 -0.1621
15445SOL    HW147776   6.562   4.202   0.481  0.6184 -1.4056  1.1344
15445SOL    HW247777   6.616   4.325   0.551  0.5811 -0.3306 -0.6797
15446SOL     OW47778   4.328   3.568  12.122  0.3965  0.0247 -0.4288
15446SOL    HW147779   4.332   3.606  12.209  1.3823  2.2296 -1.3606
15446SOL    HW247780   4.419   3.569  12.091 -0.0000 -0.2496 -1.6714
15447SOL     OW47781   4.141   5.223  10.213  0.1754  0.7757  0.4395
15447SOL    HW147782   4.050   5.235  10.185  0.0546  1.3735  1.0538
15447SOL    HW247783   4.192   5.236  10.134 -0.2235  1.3539  0.2650
15448SOL     OW47784   4.626   4.522  12.249 -0.4222  0.6969  0.4493
15448SOL    HW147785   4.660   4.548  12.334  0.6260  0.4824  0.1069
15448SOL    HW247786   4.614   4.427  12.256  1.6444  0.3264 -0.2746
15449SOL     OW47787   7.646   3.591   0.422 -0.5132  0.0910 -0.4789
15449SOL    HW147788   7.716   3.533   0.454 -0.8750  0.0628  0.2876
15449SOL    HW247789   7.691   3.651   0.362 -0.2294 -1.3373 -1.7641
15450SOL     OW47790   2.512   4.569   0.904 -0.3078 -0.0818 -0.4915
15450SOL    HW147791   2.553   4.492   0.866  0.9146  0.1582  0.2644
15450SOL    HW247792   2.421   4.544   0.920  0.1382 -1.4675 -0.0067
15451SOL     OW47793   4.915   4.269   0.195  0.0277  0.3277  0.2125
15451SOL    HW147794   4.820   4.256   0.183  0.3030 -1.5585 -0.2182
15451SOL    HW247795   4.921   4.345   0.253 -1.8318 -0.9085  2.2089
15452SOL     OW47796   5.115   4.689  12.126  0.2445  0.0450  0.2349
15452SOL    HW147797   5.110   4.672  12.220  0.9559  0.7476  0.4110
15452SOL    HW247798   5.059   4.622  12.086  1.1052 -1.1985  1.0485
15453SOL     OW47799   4.904   3.464  10.002 -0.4251  0.1301  0.6149
15453SOL    HW147800   4.967   3.396   9.980 -0.9254  0.2725 -1.3962
15453SOL    HW247801   4.821   3.432   9.967 -0.4785  2.1937 -1.3775
15454SOL     OW47802   4.503   3.042  12.048  0.2012  0.2474  0.0253
15454SOL    HW147803   4.509   3.098  12.125  0.1000 -0.3699  0.4942
15454SOL    HW247804   4.541   2.959  12.076 -0.1315 -0.0883 -0.4887
15455SOL     OW47805   4.569   5.190   0.427  0.3010  0.1073 -0.4891
15455SOL    HW147806   4.524   5.108   0.410  0.3706  0.1445 -0.8458
15455SOL    HW247807   4.528   5.253   0.369 -2.2595  1.2031  2.2454
15456SOL     OW47808   2.558   4.059  12.108 -0.1222  0.6765 -0.4580
15456SOL    HW147809   2.480   4.031  12.060 -0.8869 -0.4302  1.3429
15456SOL    HW247810   2.561   4.154  12.094 -2.0506  0.8134 -0.2491
15457SOL     OW47811   4.417   4.640   0.533  0.5827 -0.0445  0.1078
15457SOL    HW147812   4.460   4.709   0.483  0.7072 -0.6139 -0.5888
15457SOL    HW247813   4.485   4.610   0.594  0.9562 -0.4470 -0.4958
15458SOL     OW47814   6.345   3.880   0.211  0.3908 -0.7702 -0.5737
15458SOL    HW147815   6.403   3.934   0.158 -1.7094  0.2257 -2.0009
15458SOL    HW247816   6.359   3.910   0.301  0.1560  1.3600 -1.2028
15459SOL     OW47817   4.029   4.840  11.997 -0.3119  0.1958  0.8634
15459SOL    HW147818   3.950   4.823  11.946  0.4598 -0.6171 -0.0857
15459SOL    HW247819   3.998   4.894  12.070 -0.9692  4.3064 -2.1104
15460SOL     OW47820   5.238   4.121  11.748 -0.5392  0.2889  0.0615
15460SOL    HW147821   5.305   4.188  11.765 -0.2875 -0.2475  1.2897
15460SOL    HW247822   5.206   4.142  11.660  0.3339  1.3316 -0.0413
15461SOL     OW47823   5.176   4.504  10.931 -0.2194 -0.5970  0.3973
15461SOL    HW147824   5.265   4.521  10.901 -0.7265  0.3385 -0.6377
15461SOL    HW247825   5.163   4.568  11.002 -0.8660  0.9664 -1.0632
15462SOL     OW47826   4.579   5.998   1.140 -0.3803 -0.8644 -0.2191
15462SOL    HW147827   4.485   5.978   1.145 -0.2482 -1.4153  0.2487
15462SOL    HW247828   4.583   6.088   1.107 -1.1373  0.0667  2.0687
15463SOL     OW47829   4.128   3.766   0.202  0.5070  0.0115  0.3287
15463SOL    HW147830   4.114   3.817   0.281  1.2252  1.0786 -0.2035
15463SOL    HW247831   4.123   3.830   0.131  2.8360 -0.3774 -0.2650
15464SOL     OW47832   4.138   4.983   1.024  0.2465  0.2850 -0.4851
15464SOL    HW147833   4.153   5.060   1.079  1.4395 -1.1888  1.3665
15464SOL    HW247834   4.046   4.991   0.997  0.5531  2.7363 -1.0753
15465SOL     OW47835   4.514   5.195   0.876 -0.1342  0.1148 -1.0746
15465SOL    HW147836   4.447   5.240   0.824 -0.6620  1.6641  0.8182
15465SOL    HW247837   4.471   5.177   0.960  1.0037 -1.3390 -0.7604
15466SOL     OW47838   5.096   5.318  11.347 -0.0576  0.1533  0.3515
15466SOL    HW147839   5.138   5.389  11.297  0.8294  0.3454  1.3402
15466SOL    HW247840   5.169   5.262  11.373 -0.3624  0.6013  2.2794
15467SOL     OW47841   4.335   4.903  12.204  0.1780 -0.0750  0.1578
15467SOL    HW147842   4.324   4.977  12.264 -0.1765  0.7844 -0.9122
15467SOL    HW247843   4.343   4.827  12.260 -0.0704  0.7044  1.2883
15468SOL     OW47844   4.466   4.617  11.465 -0.0147  0.0090  0.0284
15468SOL    HW147845   4.550   4.651  11.435 -0.7384  0.5448 -1.5254
15468SOL    HW247846   4.488   4.543  11.522  1.4978 -0.2676 -0.8733
15469SOL     OW47847   4.251   2.935  12.261 -0.4058 -0.6774  0.9797
15469SOL    HW147848   4.200   3.015  12.273 -0.5959 -0.9603  2.1977
15469SOL    HW247849   4.342   2.964  12.263 -0.4858 -0.3991  0.6471
15470SOL     OW47850   4.317   4.878  11.735  0.7291  0.0692 -0.0821
15470SOL    HW147851   4.387   4.923  11.688  0.4103  0.1530 -0.4897
15470SOL    HW247852   4.253   4.856  11.667  0.6318 -0.5249  0.1961
15471SOL     OW47853   4.788   3.873  11.313 -0.7232  0.4200  0.1238
15471SOL    HW147854   4.756   3.813  11.246  1.4646 -1.4550  0.6362
15471SOL    HW247855   4.713   3.929  11.333 -1.7268  0.4509 -3.1772
15472SOL     OW47856   6.140   1.872   1.370  0.1897  0.3896  0.0944
15472SOL    HW147857   6.105   1.956   1.344 -0.5576  0.2333  0.5749
15472SOL    HW247858   6.227   1.892   1.406  0.9107  0.6953 -1.7240
15473SOL     OW47859   4.478   5.098  11.595 -0.4357 -0.1042 -0.1683
15473SOL    HW147860   4.464   5.184  11.555  0.7485  0.6336  0.9266
15473SOL    HW247861   4.518   5.045  11.525  0.8101  0.8945 -0.2529
15474SOL     OW47862   3.814   5.947  11.113 -0.1175  0.3493 -0.1979
15474SOL    HW147863   3.774   5.859  11.112 -1.3045  0.6952  3.0207
15474SOL    HW247864   3.907   5.931  11.101 -0.4228 -1.2366 -0.7513
15475SOL     OW47865   5.127   3.294   1.154  0.5015  0.2480 -0.0588
15475SOL    HW147866   5.163   3.382   1.168 -1.5879  1.2475 -0.5438
15475SOL    HW247867   5.143   3.275   1.062  1.2955 -0.0737  0.1352
15476SOL     OW47868   5.271   5.274   9.424 -0.0738 -0.1544  0.0667
15476SOL    HW147869   5.365   5.278   9.440 -0.0937 -0.5510  0.2780
15476SOL    HW247870   5.237   5.355   9.462  0.2273  0.1632 -0.3284
15477SOL     OW47871   6.065   4.077   1.038 -0.0945 -0.2706 -0.2076
15477SOL    HW147872   6.136   4.018   1.012 -0.3445 -0.9493  0.5882
15477SOL    HW247873   6.024   4.033   1.113 -1.1140  0.2888 -0.4192
15478SOL     OW47874   5.595   6.251   0.494  0.0366 -0.0274 -0.6586
15478SOL    HW147875   5.502   6.228   0.495 -0.1667  0.3368  3.2881
15478SOL    HW247876   5.629   6.214   0.575  3.6590 -1.0498 -2.4439
15479SOL     OW47877   3.199   5.259   0.530  0.2651 -0.3694  0.0684
15479SOL    HW147878   3.132   5.327   0.525  0.5381 -0.1242 -0.3355
15479SOL    HW247879   3.265   5.285   0.465  0.0002 -1.4340 -0.6590
15480SOL     OW47880   6.042   3.693  12.022  0.1467  0.6317  0.0363
15480SOL    HW147881   6.034   3.667  11.930 -1.2444 -1.5865  0.7166
15480SOL    HW247882   6.123   3.652  12.052  0.5728  1.3123 -0.1460
15481SOL     OW47883   6.019   5.126   0.257 -0.4594 -0.7161 -0.2268
15481SOL    HW147884   6.005   5.109   0.164 -0.0134  0.0470 -0.4494
15481SOL    HW247885   5.959   5.067   0.302  1.7811 -3.7575 -0.8648
15482SOL     OW47886   5.002   3.024  10.999  0.3958  0.1314  0.6321
15482SOL    HW147887   5.077   3.078  11.023  0.9824 -0.8600  1.1102
15482SOL    HW247888   4.956   3.075  10.931  0.7387  1.3468  1.2843
15483SOL     OW47889   5.013   3.526  10.740  0.0516 -0.4571  0.3968
15483SOL    HW147890   4.990   3.610  10.780 -1.6403 -1.0264  0.7215
15483SOL    HW247891   5.004   3.540  10.646 -1.4395 -0.5598  0.4956
15484SOL     OW47892   5.304   7.441   1.008  0.3296 -0.4926  0.7044
15484SOL    HW147893   5.290   7.362   0.956 -0.0342  0.0921 -0.1137
15484SOL    HW247894   5.393   7.467   0.989  0.1184 -0.1462  0.1815
15485SOL     OW47895   5.586   3.781  12.160  0.1490 -0.0651 -0.0833
15485SOL    HW147896   5.609   3.857  12.214  1.4347 -1.8532  2.0659
15485SOL    HW247897   5.671   3.742  12.138 -0.4411 -0.3195 -2.0949
15486SOL     OW47898   3.485   3.957  12.404  0.3840 -0.0126  0.0635
15486SOL    HW147899   3.418   3.890  12.414  0.0711  0.6419  3.6615
15486SOL    HW247900   3.463   4.001  12.322 -0.9349 -2.5641 -1.0649
15487SOL     OW47901   4.921   5.050  11.368  0.2595  0.2897 -0.4971
15487SOL    HW147902   4.889   5.070  11.456  0.1529  0.7412 -0.6383
15487SOL    HW247903   4.968   4.967  11.378 -2.7411 -1.5908 -0.6483
15488SOL     OW47904   3.996   3.433  12.308 -0.0936 -0.5836  0.9724
15488SOL    HW147905   3.931   3.454  12.241  1.5998  0.6120 -0.4051
15488SOL    HW247906   4.075   3.412  12.259  1.5344  1.3948  2.5185
15489SOL     OW47907   5.496   4.437  10.659  0.1275  0.1580  0.2752
15489SOL    HW147908   5.473   4.406  10.572  3.1456 -1.1595 -0.1815
15489SOL    HW247909   5.469   4.366  10.717 -0.6341  0.4339  0.2667
15490SOL     OW47910   5.047   4.230  11.915 -0.3184  0.2278  0.5505
15490SOL    HW147911   5.083   4.221  12.003  2.4823  2.1218 -0.2713
15490SOL    HW247912   5.112   4.190  11.857 -0.9004  1.1688 -0.8152
15491SOL     OW47913   4.290   4.483   0.079 -0.2647  0.3221 -0.1088
15491SOL    HW147914   4.197   4.490   0.057 -1.2125 -0.5763  3.0875
15491SOL    HW247915   4.297   4.520   0.167  2.3647  0.0580 -0.1246
15492SOL     OW47916   4.371   3.154  11.580 -0.5792  0.6986  0.7654
15492SOL    HW147917   4.424   3.206  11.641  1.7940 -0.1147 -0.4774
15492SOL    HW247918   4.350   3.074  11.629 -0.1813  0.8006  1.1127
15493SOL     OW47919   3.930   4.953  10.092  0.0933 -0.4097 -0.2143
15493SOL    HW147920   4.002   4.936  10.032  0.0658 -2.0405  0.1570
15493SOL    HW247921   3.962   4.923  10.177 -0.2317  0.9260  0.4080
15494SOL     OW47922   7.247   3.819   1.617 -0.0285 -0.5182  0.6335
15494SOL    HW147923   7.275   3.780   1.534  1.3104 -0.0705  0.8360
15494SOL    HW247924   7.154   3.836   1.606  0.1253 -0.4375 -0.8043
15495SOL     OW47925   4.410   4.286  11.287 -0.0329 -0.2662  0.1256
15495SOL    HW147926   4.439   4.281  11.378  0.7745  1.9212  0.0504
15495SOL    HW247927   4.440   4.372  11.257 -1.7243 -0.2418 -1.7126
15496SOL     OW47928   3.422   3.748  10.572 -0.0246 -0.2283 -0.0183
15496SOL    HW147929   3.513   3.766  10.548 -0.0701 -1.7047 -1.4480
15496SOL    HW247930   3.377   3.736  10.488 -1.4431 -0.0637  0.6813
15497SOL     OW47931   2.715   4.100  10.826 -0.2372  0.6546 -0.0663
15497SOL    HW147932   2.694   4.016  10.867  1.1615 -0.1734 -0.9603
15497SOL    HW247933   2.731   4.078  10.734  0.8776  1.7648 -0.1609
15498SOL     OW47934   4.409   5.193   1.166 -0.0172  1.1814 -0.1887
15498SOL    HW147935   4.504   5.198   1.180 -0.3027  0.6725  2.5509
15498SOL    HW247936   4.380   5.284   1.169  0.3081  1.2980 -0.4343
15499SOL     OW47937   5.354   5.558  11.480  0.2861 -0.1968  0.4771
15499SOL    HW147938   5.376   5.503  11.555  0.7642 -0.0878  0.4164
15499SOL    HW247939   5.266   5.590  11.500  0.2621 -0.4607  0.8174
15500SOL     OW47940   5.918   3.981   0.428 -0.3793  0.3177  0.7454
15500SOL    HW147941   6.001   4.001   0.386 -0.4815  1.2082  0.9464
15500SOL    HW247942   5.902   3.889   0.407  1.2752 -0.2542  1.7961
15501SOL     OW47943   5.646   4.417   0.113 -0.0342  0.4952 -0.1221
15501SOL    HW147944   5.634   4.329   0.078  0.0152  0.9110 -1.2524
15501SOL    HW247945   5.603   4.474   0.048  1.4647  1.4379 -0.3461
15502SOL     OW47946   5.349   5.183  10.951  0.0076  0.5755 -0.3732
15502SOL    HW147947   5.434   5.147  10.925 -0.1748  0.1688 -0.3991
15502SOL    HW247948   5.303   5.197  10.868 -0.9635 -1.6528 -0.2696
15503SOL     OW47949   5.114   5.604  12.448  0.0110  0.0930 -0.2842
15503SOL    HW147950   5.161   5.606  12.364  1.2760  0.9480  0.4205
15503SOL    HW247951   5.099   5.510  12.464  3.7971 -0.4968  0.6747
15504SOL     OW47952   5.301   3.680  11.442  0.1046 -0.0526  0.0907
15504SOL    HW147953   5.343   3.765  11.443 -0.5980  0.3548  2.3252
15504SOL    HW247954   5.208   3.699  11.456 -0.2026 -1.1327 -0.3897
15505SOL     OW47955   3.677   4.678   0.833 -0.5992 -0.1788 -0.2354
15505SOL    HW147956   3.634   4.754   0.872 -1.2603 -0.7955  0.2749
15505SOL    HW247957   3.750   4.714   0.783  0.1490  0.6609  1.4068
15506SOL     OW47958   4.928   4.873  12.485  0.0626 -0.4112  0.0583
15506SOL    HW147959   4.933   4.906  12.395 -1.7034 -2.1161 -0.7332
15506SOL    HW247960   4.844   4.828  12.490 -0.8974  1.4002  3.2201
15507SOL     OW47961   3.476   4.329  11.709 -0.5908  0.1140 -0.3523
15507SOL    HW147962   3.544   4.264  11.692 -0.3540  0.5221 -0.9736
15507SOL    HW247963   3.491   4.355  11.800  1.4773  1.7720 -1.0733
15508SOL     OW47964   5.560   6.279  11.739 -0.5386  0.0233  0.2776
15508SOL    HW147965   5.567   6.320  11.653 -0.5454  1.6014  1.0090
15508SOL    HW247966   5.490   6.214  11.729 -3.2304  2.7710  0.0422
15509SOL     OW47967   4.863   5.448  11.629 -0.1697  0.0727 -0.1192
15509SOL    HW147968   4.852   5.499  11.709 -0.9123 -0.1809 -0.0558
15509SOL    HW247969   4.886   5.360  11.659  2.4232  0.6260 -0.2461
15510SOL     OW47970   4.641   4.248   0.188 -0.3439 -0.3697 -0.4218
15510SOL    HW147971   4.641   4.167   0.137  1.1203 -0.6898  0.0553
15510SOL    HW247972   4.567   4.239   0.248  0.8878 -2.2382  0.9361
15511SOL     OW47973   4.310   3.492  11.686 -0.4600  0.0294  0.1310
15511SOL    HW147974   4.376   3.429  11.714 -0.3169  1.3061  3.0483
15511SOL    HW247975   4.358   3.574  11.672 -1.1791  0.5347  0.5393
15512SOL     OW47976   4.506   4.652  11.833 -0.0815 -0.8684 -0.0453
15512SOL    HW147977   4.512   4.669  11.927 -1.1386  0.7459 -0.2210
15512SOL    HW247978   4.412   4.650  11.815  0.0948 -1.7716 -0.9793
15513SOL     OW47979   3.325   4.284  11.498 -0.4182  0.9875  0.5331
15513SOL    HW147980   3.360   4.270  11.587 -2.3053 -0.6525  1.0914
15513SOL    HW247981   3.403   4.290  11.443  0.8329  2.4237  2.3188
15514SOL     OW47982   6.277   5.145  11.304 -0.3070 -0.3162 -0.2729
15514SOL    HW147983   6.329   5.168  11.227 -0.6780  1.3112 -0.0667
15514SOL    HW247984   6.313   5.061  11.333  2.0776  0.6156 -0.2912
15515SOL     OW47985   5.009   4.571  11.750 -0.1837 -0.3339 -0.5443
15515SOL    HW147986   4.936   4.606  11.699 -0.3985 -1.9386 -1.4144
15515SOL    HW247987   5.030   4.488  11.707 -0.0174 -1.5098  1.6691
15516SOL     OW47988   4.477   5.610  10.844  0.1938 -0.2616 -0.2793
15516SOL    HW147989   4.522   5.580  10.923 -0.6385  1.6217  0.9816
15516SOL    HW247990   4.450   5.699  10.865  0.7712  0.6571 -3.0638
15517SOL     OW47991   5.445   4.878  11.475  0.3193  0.7575 -0.8088
15517SOL    HW147992   5.440   4.948  11.410 -0.8874  0.1545 -1.3979
15517SOL    HW247993   5.501   4.812  11.435  2.6149  1.8834  0.3042
15518SOL     OW47994   5.803   3.868  11.906 -0.7569 -0.6761 -0.0832
15518SOL    HW147995   5.805   3.778  11.873 -0.8167 -0.7417  0.0954
15518SOL    HW247996   5.772   3.920  11.831  1.4103 -0.4922 -0.9266
15519SOL     OW47997   6.433   3.031  11.251 -0.1615  0.3912  0.4084
15519SOL    HW147998   6.463   2.941  11.239 -2.5292 -0.3910 -0.2076
15519SOL    HW247999   6.419   3.039  11.345 -1.4502 -0.4566  0.3179
15520SOL     OW48000   5.561   3.430  12.187 -0.0070 -0.3965 -0.0068
15520SOL    HW148001   5.522   3.343  12.184  1.4359 -1.0540 -1.7250
15520SOL    HW248002   5.525   3.475  12.110  0.1026  0.1377  0.2488
15521SOL     OW48003   4.598   5.392  12.435 -0.0405 -0.0391  0.0969
15521SOL    HW148004   4.629   5.304  12.414 -0.2055 -0.1128  0.1644
15521SOL    HW248005   4.669   5.430  12.487  0.5457  0.2789 -0.9043
15522SOL     OW48006   3.942   6.015  12.367  0.7644  0.0250 -0.0022
15522SOL    HW148007   3.984   5.930  12.379  1.0319  0.3027  1.1230
15522SOL    HW248008   3.856   5.995  12.331  0.3311 -0.8246  1.4394
15523SOL     OW48009   3.180   6.364  12.041  0.2344 -0.3347 -0.1679
15523SOL    HW148010   3.131   6.430  11.992 -0.3653 -0.7977 -0.2011
15523SOL    HW248011   3.246   6.332  11.979 -1.0002 -1.4590 -0.9551
15524SOL     OW48012   6.224   6.009  11.262 -0.0596  0.0143  0.5541
15524SOL    HW148013   6.211   5.918  11.234  1.6680  0.0264 -0.4430
15524SOL    HW248014   6.293   6.004  11.329 -0.2469  0.5446  0.7912
15525SOL     OW48015   3.529   6.239  12.268  0.5106 -0.7295  0.1464
15525SOL    HW148016   3.485   6.170  12.218 -0.7183 -0.3535  0.6559
15525SOL    HW248017   3.506   6.219  12.359 -0.2901  0.6223  0.2627
15526SOL     OW48018   5.707   0.331  11.597  0.0312 -0.0819 -0.1274
15526SOL    HW148019   5.756   0.249  11.604  0.3415  0.1426  0.3121
15526SOL    HW248020   5.654   0.334  11.677  1.7719  1.2917  1.0449
15527SOL     OW48021   2.896   7.535   1.248 -0.0648 -0.5159  0.0110
15527SOL    HW148022   2.843   7.498   1.178  0.4293  0.5503 -0.9500
15527SOL    HW248023   2.958   7.593   1.204  1.5762 -1.3387  1.1448
15528SOL     OW48024   4.744   5.589  11.024 -0.2297  0.0205  0.0995
15528SOL    HW148025   4.699   5.563  11.104  1.5364  0.4914  1.3201
15528SOL    HW248026   4.736   5.685  11.022  0.4973  0.0891  0.2106
15529SOL     OW48027   3.982   6.965   2.142  0.2513 -0.3128  0.2062
15529SOL    HW148028   4.043   7.016   2.089  1.9419 -1.4783  0.9314
15529SOL    HW248029   3.904   6.956   2.087  1.4123 -0.2959 -1.5248
15530SOL     OW48030   4.041   6.954   1.153 -0.1476 -0.4349 -0.4545
15530SOL    HW148031   4.128   6.958   1.115 -0.3023 -1.0923 -0.8943
15530SOL    HW248032   3.991   7.022   1.106  0.1691  0.0702 -0.0701
15531SOL     OW48033   3.109   7.698   1.131 -0.3873 -0.1120  0.3324
15531SOL    HW148034   3.133   7.636   1.063  1.1566 -0.9254  1.5720
15531SOL    HW248035   3.191   7.719   1.175 -0.5084  4.0725 -0.9828
15532SOL     OW48036   1.978   5.000   2.978 -0.4498 -0.1773 -0.4795
15532SOL    HW148037   1.966   4.905   2.971  0.5287 -0.3547 -0.0357
15532SOL    HW248038   2.013   5.026   2.894 -0.4272 -0.2623 -0.4970
15533SOL     OW48039   2.733   0.171   1.354  0.1325  0.2759 -0.4131
15533SOL    HW148040   2.708   0.206   1.439 -0.8086 -0.2659 -0.4587
15533SOL    HW248041   2.705   0.238   1.291 -0.4260  0.0610 -0.3968
15534SOL     OW48042   5.991   0.281   2.368 -0.2306 -0.4113 -0.0224
15534SOL    HW148043   5.970   0.365   2.409  0.3242 -0.8125  1.1193
15534SOL    HW248044   6.078   0.259   2.401 -0.8627 -2.0081  0.6639
15535SOL     OW48045   2.975   5.984  12.211  0.1439 -0.4009  0.1341
15535SOL    HW148046   2.937   5.968  12.297 -0.7150  0.0371 -0.1542
15535SOL    HW248047   2.910   6.038  12.166  1.1971  0.5246 -0.3062
15536SOL     OW48048   5.508   6.914   1.883 -0.3652  0.3691  0.0954
15536SOL    HW148049   5.555   6.983   1.931  0.3391 -1.3687  2.0393
15536SOL    HW248050   5.550   6.912   1.797  0.3564  1.5943  0.3943
15537SOL     OW48051   4.444   1.543   1.122  0.3275 -0.0299 -0.2939
15537SOL    HW148052   4.431   1.455   1.086 -0.9090 -0.0385  0.1365
15537SOL    HW248053   4.357   1.572   1.148  0.9096  0.7529  0.8984
15538SOL     OW48054   4.237   6.019   0.522  0.1252 -0.4588  0.9466
15538SOL    HW148055   4.249   6.039   0.430  0.0674 -0.5035  0.9290
15538SOL    HW248056   4.236   6.104   0.566 -0.2343 -0.4138  0.8584
15539SOL     OW48057   3.763   6.896   0.327 -0.8533  0.2013 -0.3691
15539SOL    HW148058   3.717   6.929   0.250  1.2372 -0.4840 -2.0234
15539SOL    HW248059   3.769   6.971   0.385 -0.8362  1.3034 -1.7308
15540SOL     OW48060   3.559   7.190   1.545  0.6136 -0.7541 -0.4536
15540SOL    HW148061   3.471   7.194   1.506  0.6109 -1.4892 -0.5351
15540SOL    HW248062   3.600   7.273   1.519 -0.9535  0.8357  1.7863
15541SOL     OW48063   4.780   6.729  11.905 -0.8438  0.1831  0.3642
15541SOL    HW148064   4.779   6.737  11.810 -1.8836  2.1112  0.4873
15541SOL    HW248065   4.868   6.697  11.926 -1.0054 -1.5696 -1.2831
15542SOL     OW48066   5.768   5.315   2.439  0.0874 -0.0435 -0.3547
15542SOL    HW148067   5.803   5.328   2.351  0.0761 -2.4576 -0.7864
15542SOL    HW248068   5.810   5.383   2.492  1.4197  0.3769 -1.8755
15543SOL     OW48069   1.586   6.102   0.347 -0.4148  0.5525  0.3133
15543SOL    HW148070   1.585   6.023   0.401  0.7546 -1.0127 -1.8118
15543SOL    HW248071   1.655   6.156   0.384 -0.4708  0.0854  1.1195
15544SOL     OW48072   6.646   6.901   0.262 -0.1257  0.4725  0.0823
15544SOL    HW148073   6.648   6.997   0.272 -1.7814  0.6477 -0.8580
15544SOL    HW248074   6.718   6.882   0.202  0.9767  0.9694  1.2079
15545SOL     OW48075   3.451   7.831  11.877  0.2464 -0.2881 -0.1802
15545SOL    HW148076   3.450   7.736  11.876 -0.1339 -0.2878 -0.5929
15545SOL    HW248077   3.484   7.855  11.963 -0.3543 -0.7900  0.1926
15546SOL     OW48078   4.497   7.271   1.631 -0.0151 -0.1898 -0.1435
15546SOL    HW148079   4.581   7.264   1.677 -0.8639  2.7414  2.1883
15546SOL    HW248080   4.433   7.236   1.694 -0.7770 -0.3055 -0.9669
15547SOL     OW48081   6.855   7.655   0.576 -0.4816 -0.4532 -0.7129
15547SOL    HW148082   6.946   7.626   0.583 -0.2921 -0.5358 -2.7666
15547SOL    HW248083   6.858   7.726   0.511 -1.4620  1.7687  1.5130
15548SOL     OW48084   2.361   7.181   1.445  0.0233 -0.6888  0.0911
15548SOL    HW148085   2.330   7.103   1.490 -0.5470 -0.9160 -0.6835
15548SOL    HW248086   2.319   7.178   1.359  0.3309  0.2469 -0.1034
15549SOL     OW48087   5.011   6.805   0.647 -0.4497  0.5685  0.0956
15549SOL    HW148088   4.979   6.772   0.732 -1.0249  0.5610 -0.1206
15549SOL    HW248089   5.073   6.739   0.618 -0.7925  0.2075  0.1738
15550SOL     OW48090   5.064   6.902   3.236 -0.1464  1.0582  0.3333
15550SOL    HW148091   4.971   6.892   3.213 -0.5194  1.3033  1.6378
15550SOL    HW248092   5.097   6.812   3.239 -0.2726  0.9819 -0.3599
15551SOL     OW48093   3.977   6.729   0.259 -0.8745 -0.1798 -0.1836
15551SOL    HW148094   3.907   6.784   0.293  0.3078  1.9015 -0.9233
15551SOL    HW248095   3.972   6.738   0.164  1.0838  1.0646 -0.2425
15552SOL     OW48096   3.245   6.155   0.703 -0.4207  0.1211  0.5770
15552SOL    HW148097   3.236   6.128   0.795  0.8632 -0.7529  0.4768
15552SOL    HW248098   3.298   6.234   0.706 -1.0293  0.5367  0.6223
15553SOL     OW48099   5.805   6.857   0.817  0.3133  0.3978  0.0318
15553SOL    HW148100   5.825   6.950   0.821  0.5920  0.2986  1.5643
15553SOL    HW248101   5.875   6.815   0.867  0.2467 -0.6470 -0.7235
15554SOL     OW48102   5.155   7.987   0.655  0.0202  0.3589 -0.3799
15554SOL    HW148103   5.125   8.059   0.599  1.5257 -0.3568 -2.2412
15554SOL    HW248104   5.196   7.925   0.594  1.4596 -0.6538  1.4946
15555SOL     OW48105   4.058   6.678   2.742 -0.7337  0.2174 -0.1244
15555SOL    HW148106   4.034   6.654   2.653  1.8605  0.4648 -0.9688
15555SOL    HW248107   4.123   6.612   2.768  1.5546  2.3736 -0.0086
15556SOL     OW48108   6.470   6.675   0.186  0.0210  0.1811  0.0898
15556SOL    HW148109   6.389   6.719   0.210 -0.2356  0.5610 -1.3658
15556SOL    HW248110   6.539   6.733   0.218 -0.2321 -0.4607  1.9225
15557SOL     OW48111   6.719   5.969  11.224  0.1551 -0.3704  0.3969
15557SOL    HW148112   6.786   6.023  11.182  0.7741 -0.1557  1.6132
15557SOL    HW248113   6.663   6.031  11.271  0.4885 -0.7130  1.2732
15558SOL     OW48114   2.271   6.413  12.430  0.0644 -0.0993  0.5678
15558SOL    HW148115   2.330   6.392  12.358 -1.3274  0.0686 -0.6750
15558SOL    HW248116   2.313   6.375  12.507  2.3579  1.0259 -0.0300
15559SOL     OW48117   6.517   5.573   0.569 -0.0958  0.0105 -0.0655
15559SOL    HW148118   6.571   5.506   0.611 -1.8798 -0.2861  1.9191
15559SOL    HW248119   6.440   5.525   0.539 -1.5898  1.1547  1.7478
15560SOL     OW48120   6.546   0.436  11.534  0.4440 -0.6199 -0.0581
15560SOL    HW148121   6.484   0.382  11.584 -0.4486  0.2533 -0.2061
15560SOL    HW248122   6.525   0.526  11.558  2.0299 -0.3151  0.3110
15561SOL     OW48123   4.542   6.091   1.885 -0.2139 -0.0188  0.3849
15561SOL    HW148124   4.569   6.180   1.910 -2.0644  0.7804 -0.2625
15561SOL    HW248125   4.455   6.081   1.923 -1.0550 -0.6113 -1.5768
15562SOL     OW48126   4.970   6.484   0.383 -0.3245  0.5721 -0.2150
15562SOL    HW148127   4.930   6.433   0.454 -0.0039  0.6053 -0.0111
15562SOL    HW248128   4.897   6.531   0.343 -0.4080  1.0877  0.5338
15563SOL     OW48129   4.262   5.301   0.100  0.2675  0.0742 -0.0299
15563SOL    HW148130   4.269   5.246   0.022  0.9084 -0.2559  0.2491
15563SOL    HW248131   4.209   5.249   0.161  0.6776 -0.1454  0.1474
15564SOL     OW48132   5.232   6.434  12.064  0.1993  0.1064 -0.0703
15564SOL    HW148133   5.194   6.347  12.048 -2.3086  1.4308 -2.0061
15564SOL    HW248134   5.280   6.454  11.984 -0.4997  1.0740 -0.2648
15565SOL     OW48135   4.607   5.881  12.279  0.5101 -0.2188  0.6938
15565SOL    HW148136   4.695   5.860  12.247  0.3791 -0.5658  0.5653
15565SOL    HW248137   4.622   5.951  12.342  0.8809 -0.2722  0.6712
15566SOL     OW48138   2.528   0.882  10.842  0.4256 -0.6448  0.1601
15566SOL    HW148139   2.478   0.922  10.914  0.0401 -1.4795  0.3712
15566SOL    HW248140   2.611   0.930  10.842 -0.0103  0.1458  0.4069
15567SOL     OW48141   5.100   7.456   2.498  0.3529  0.2106 -0.6128
15567SOL    HW148142   5.178   7.417   2.538  0.0854  0.1603 -0.1365
15567SOL    HW248143   5.114   7.445   2.404  0.3209 -0.9517 -0.4982
15568SOL     OW48144   3.281   4.880  11.064 -0.3905 -0.2188  0.6262
15568SOL    HW148145   3.336   4.927  11.001  0.2995 -0.3676  1.0982
15568SOL    HW248146   3.212   4.941  11.087 -0.3253  0.0387  0.1486
15569SOL     OW48147   6.380   5.944   2.742 -0.0338  0.0214  0.5962
15569SOL    HW148148   6.377   5.920   2.649  0.5980 -0.7096  0.7522
15569SOL    HW248149   6.403   5.863   2.787  0.7962  0.6111  1.2746
15570SOL     OW48150   2.448   5.734   0.900 -0.2044  0.1041  0.2256
15570SOL    HW148151   2.519   5.747   0.837 -0.0879 -0.4675  0.2338
15570SOL    HW248152   2.462   5.801   0.966 -0.6866  1.1128 -0.6713
15571SOL     OW48153   4.098   6.461  12.390 -0.1939  0.1848 -0.0884
15571SOL    HW148154   4.106   6.491  12.299 -3.4272 -1.7364 -1.2017
15571SOL    HW248155   4.171   6.401  12.403  0.5002  0.7357 -1.2846
15572SOL     OW48156   4.541   7.600   1.074  0.0596  0.2710  0.4019
15572SOL    HW148157   4.480   7.527   1.068  1.6547 -1.0721 -0.0995
15572SOL    HW248158   4.581   7.590   1.161  0.0461  0.7690  0.4697
15573SOL     OW48159   4.895   7.065   0.190 -0.6029  0.6206 -0.1426
15573SOL    HW148160   4.931   7.011   0.260  0.3930  0.6444 -0.6253
15573SOL    HW248161   4.829   7.120   0.234 -1.1061 -0.4448  0.4788
15574SOL     OW48162   3.499   1.536   2.142 -0.1968  0.1940 -0.1254
15574SOL    HW148163   3.442   1.586   2.084  1.2207  1.9272 -0.0936
15574SOL    HW248164   3.496   1.584   2.225  0.2402 -0.4925  0.2947
15575SOL     OW48165   3.612   7.967  11.667  0.5303 -0.3880  0.1826
15575SOL    HW148166   3.698   7.929  11.682  0.1498 -1.4082 -0.0904
15575SOL    HW248167   3.557   7.930  11.736  0.7683  2.0058  1.7660
15576SOL     OW48168   3.147   6.298   1.199 -0.4508  0.2368 -0.1535
15576SOL    HW148169   3.088   6.295   1.274 -0.6391 -1.1361 -0.3228
15576SOL    HW248170   3.201   6.375   1.214 -0.7390  0.2036  1.2057
15577SOL     OW48171   3.574   6.048   0.627  0.2871  0.2656  0.2963
15577SOL    HW148172   3.567   6.083   0.716  0.9076 -0.1291  0.5028
15577SOL    HW248173   3.643   5.982   0.632 -0.3549 -0.4721 -0.2552
15578SOL     OW48174   5.813   7.238   1.014 -0.1114 -0.4740 -0.1123
15578SOL    HW148175   5.885   7.186   0.976  1.3922  1.3906  0.0154
15578SOL    HW248176   5.827   7.232   1.109  0.8921  1.1446 -0.1143
15579SOL     OW48177   2.316   6.300   1.120 -0.4483  0.3363 -0.4387
15579SOL    HW148178   2.291   6.390   1.140  0.1547  0.6218 -0.9363
15579SOL    HW248179   2.399   6.308   1.073 -0.8292 -0.4268 -1.2708
15580SOL     OW48180   6.221   7.693  10.979  0.0664 -0.1385 -0.2053
15580SOL    HW148181   6.262   7.617  11.020  0.1276 -0.8387 -1.4920
15580SOL    HW248182   6.291   7.757  10.970  1.2750 -1.6422 -3.1959
15581SOL     OW48183   4.702   6.705   0.483 -0.7871  0.2697  0.0261
15581SOL    HW148184   4.617   6.741   0.458 -1.2786 -1.0612 -0.2920
15581SOL    HW248185   4.734   6.661   0.403 -0.3421 -0.2397  0.4730
15582SOL     OW48186   3.180   6.189   0.080 -0.4421 -0.2636 -0.7326
15582SOL    HW148187   3.203   6.212  -0.010  0.9829 -0.5930 -0.4727
15582SOL    HW248188   3.258   6.146   0.115 -0.5278  0.8916  1.0366
15583SOL     OW48189   6.912   4.145  11.681  0.2100  0.2180  0.4351
15583SOL    HW148190   6.944   4.124  11.769 -0.1116 -0.5060  0.3946
15583SOL    HW248191   6.921   4.240  11.673  0.4884  0.2550  1.1513
15584SOL     OW48192   3.536   6.571   0.294  0.0477  0.2338 -0.3749
15584SOL    HW148193   3.457   6.516   0.302  0.9907 -1.0906  0.2174
15584SOL    HW248194   3.547   6.608   0.382  0.5045 -0.1978 -0.2469
15585SOL     OW48195   4.172   5.651   2.646 -0.1026 -0.4731 -0.4177
15585SOL    HW148196   4.186   5.684   2.735 -0.7308  0.8430 -0.7739
15585SOL    HW248197   4.175   5.729   2.591  1.4069 -1.3808 -1.7216
15586SOL     OW48198   2.827   7.390  10.602 -0.1305 -0.8604  0.6505
15586SOL    HW148199   2.806   7.484  10.604 -0.4130 -0.9333  1.4517
15586SOL    HW248200   2.913   7.386  10.560 -0.5046 -0.3216 -0.2126
15587SOL     OW48201   4.460   7.271   1.338 -0.1745 -0.1818  0.2522
15587SOL    HW148202   4.408   7.348   1.313 -2.4517 -1.3042  1.2554
15587SOL    HW248203   4.482   7.287   1.430 -0.9065 -0.8342  0.5489
15588SOL     OW48204   3.789   6.552   1.072  0.2085  0.1499 -0.7107
15588SOL    HW148205   3.796   6.638   1.114  0.7983  0.2260 -0.9535
15588SOL    HW248206   3.852   6.497   1.118 -0.3131 -0.2148 -0.4208
15589SOL     OW48207   3.818   7.387   1.839 -0.2761 -0.6496  0.4099
15589SOL    HW148208   3.762   7.405   1.915 -1.2690 -1.4083 -0.1146
15589SOL    HW248209   3.851   7.298   1.854 -0.8848 -1.0013 -0.2748
15590SOL     OW48210   5.610   7.434   1.003  0.5037  0.1292 -0.3160
15590SOL    HW148211   5.597   7.434   0.908 -0.2019  0.8856 -0.2369
15590SOL    HW248212   5.664   7.358   1.020 -1.1927 -1.3294 -1.0863
15591SOL     OW48213   2.978   6.704   0.181 -0.0067 -0.6092 -0.2013
15591SOL    HW148214   2.924   6.746   0.114 -0.7802  0.3349  0.9857
15591SOL    HW248215   3.031   6.641   0.132 -0.8956 -0.2944 -1.6374
15592SOL     OW48216   5.018   5.363   0.426  0.7435 -0.0398  0.0725
15592SOL    HW148217   4.984   5.445   0.462  0.8552 -0.7647  1.9486
15592SOL    HW248218   5.099   5.388   0.382  1.4230  0.7320  1.6748
15593SOL     OW48219   5.133   7.055   0.668  0.2932 -0.1183  0.7898
15593SOL    HW148220   5.061   7.105   0.706 -0.9326 -0.4519 -0.9818
15593SOL    HW248221   5.106   6.964   0.674  0.9118 -0.3106  0.7775
15594SOL     OW48222   4.149   5.951  11.825  0.5308 -0.0560  0.3916
15594SOL    HW148223   4.214   5.881  11.828  0.1360 -0.5211 -0.9718
15594SOL    HW248224   4.085   5.928  11.892  0.6683 -0.7351  0.2970
15595SOL     OW48225   3.932   6.278   0.092  0.1916 -0.3548 -0.0245
15595SOL    HW148226   3.860   6.326   0.133 -0.5016 -0.7522 -0.7369
15595SOL    HW248227   4.011   6.309   0.137 -0.1525  1.9051 -0.8689
15596SOL     OW48228   3.245   7.066   2.227 -0.0211 -0.2478 -0.1502
15596SOL    HW148229   3.164   7.117   2.230 -0.9471 -1.6410 -0.6446
15596SOL    HW248230   3.229   6.991   2.284  0.7737 -0.7568 -0.5780
15597SOL     OW48231   5.068   0.122  11.883 -0.1763 -0.3417  0.2334
15597SOL    HW148232   5.119   0.193  11.844 -0.9474  1.9771  3.0238
15597SOL    HW248233   5.130   0.078  11.942 -0.1256 -0.8663 -0.2123
15598SOL     OW48234   4.251   0.209   0.880  0.2338 -0.6334 -0.6442
15598SOL    HW148235   4.247   0.153   0.958  0.3988  0.4020  0.1420
15598SOL    HW248236   4.164   0.246   0.873  0.2545 -0.6294 -0.8885
15599SOL     OW48237   4.515   7.834   1.533  0.0426  0.5309  0.1141
15599SOL    HW148238   4.573   7.902   1.497  1.5309 -0.1617  1.1136
15599SOL    HW248239   4.574   7.761   1.553 -1.1704 -0.1471  1.3079
15600SOL     OW48240   4.225   6.212  12.454 -0.0873 -0.2911 -0.1873
15600SOL    HW148241   4.285   6.138  12.442  0.4619  0.1462 -0.2008
15600SOL    HW248242   4.236   6.237  12.546 -2.4295 -2.0429  0.6696
15601SOL     OW48243   3.571   6.553   1.588  0.1766  0.1600 -0.2480
15601SOL    HW148244   3.601   6.495   1.659 -2.2742 -1.8390 -0.6769
15601SOL    HW248245   3.587   6.503   1.508  0.9557  1.4925 -0.9497
15602SOL     OW48246   2.594   4.932   1.870 -0.0158 -0.2010  0.1328
15602SOL    HW148247   2.683   4.949   1.840  0.8927  0.7346  3.1078
15602SOL    HW248248   2.541   4.936   1.790  2.6910 -2.0018 -1.9215
15603SOL     OW48249   4.738   5.949   2.662 -0.3646  0.8795  0.1631
15603SOL    HW148250   4.727   6.038   2.694 -4.7329  0.9872 -0.9516
15603SOL    HW248251   4.821   5.920   2.699 -0.3050  4.2627  3.2392
15604SOL     OW48252   4.066   5.789   1.108 -0.3635  0.0110 -0.0541
15604SOL    HW148253   4.055   5.703   1.148  0.3891 -0.4231 -0.7526
15604SOL    HW248254   3.977   5.824   1.102 -0.8061 -1.1872 -0.7816
15605SOL     OW48255   4.131   7.070   0.881 -0.1432  0.3946 -0.0775
15605SOL    HW148256   4.048   7.053   0.837 -0.6099 -0.1623  0.9851
15605SOL    HW248257   4.146   7.164   0.869 -1.6793  0.8077  0.9462
15606SOL     OW48258   2.869   6.451   0.337 -0.2670 -0.0695 -0.4727
15606SOL    HW148259   2.936   6.414   0.395  0.3256  0.4920 -0.7786
15606SOL    HW248260   2.905   6.536   0.311 -1.2586  0.3887 -0.3761
15607SOL     OW48261   6.255   7.192   0.885 -0.2935 -0.4057 -0.4801
15607SOL    HW148262   6.193   7.144   0.829 -2.3885  1.6742 -0.1205
15607SOL    HW248263   6.281   7.267   0.832  0.2462 -0.1236  0.1788
15608SOL     OW48264   3.291   6.852  11.687 -0.0397  0.1521 -0.6827
15608SOL    HW148265   3.212   6.827  11.638 -1.2769  1.3306  0.6126
15608SOL    HW248266   3.361   6.851  11.621 -0.3731 -4.0566 -1.2718
15609SOL     OW48267   5.969   7.246  11.914  0.4513  0.0861 -0.3782
15609SOL    HW148268   6.035   7.177  11.922  1.5184  1.1943  1.0633
15609SOL    HW248269   6.012   7.314  11.862  0.7195  1.0726  1.0770
15610SOL     OW48270   4.951   5.618  11.828  0.1228  0.3916  0.1276
15610SOL    HW148271   5.019   5.585  11.887  0.9440 -0.9987 -1.5213
15610SOL    HW248272   4.893   5.669  11.885 -0.3902 -2.6465  2.6566
15611SOL     OW48273   3.091   5.725  12.235  0.8436 -0.2536  0.3096
15611SOL    HW148274   3.054   5.814  12.238  0.6813 -0.2887 -0.3917
15611SOL    HW248275   3.075   5.696  12.145 -0.5377 -1.6226  0.9556
15612SOL     OW48276   5.294   6.586   0.861  0.3775  0.8971  0.2949
15612SOL    HW148277   5.230   6.572   0.930 -0.0431  1.8639  0.1173
15612SOL    HW248278   5.300   6.681   0.852  0.8949  0.7974 -0.5645
15613SOL     OW48279   5.476   7.970   1.048 -0.0093 -0.2939  0.3334
15613SOL    HW148280   5.439   7.901   1.103 -0.6419  0.1032  0.4165
15613SOL    HW248281   5.443   7.950   0.960  1.5221 -1.3028 -0.0559
15614SOL     OW48282   5.705   5.858   0.877 -0.8155  0.0440 -0.6116
15614SOL    HW148283   5.679   5.766   0.886  0.8489 -0.4669 -0.8231
15614SOL    HW248284   5.622   5.905   0.865 -1.6109 -1.5515 -1.5929
15615SOL     OW48285   6.392   6.932   0.389 -0.2279  0.6437  0.2245
15615SOL    HW148286   6.329   6.938   0.317  0.7895  2.1288 -0.5810
15615SOL    HW248287   6.477   6.928   0.345  0.3017 -0.8532  1.3093
15616SOL     OW48288   4.077   6.930   1.471 -0.0088  0.4736 -0.5309
15616SOL    HW148289   4.000   6.976   1.503  1.4638  2.7751 -0.1124
15616SOL    HW248290   4.045   6.879   1.396 -2.0794  0.6238  0.1979
15617SOL     OW48291   5.075   6.825   2.064  0.1211  0.1636 -0.0610
15617SOL    HW148292   5.066   6.744   2.115  0.3176 -0.7016 -1.3585
15617SOL    HW248293   4.990   6.868   2.072  0.5574  0.7285  2.0715
15618SOL     OW48294   4.463   7.075   0.929 -0.0768  0.7317  0.5512
15618SOL    HW148295   4.395   7.062   0.864  0.0339  2.2576  0.0886
15618SOL    HW248296   4.417   7.107   1.007 -0.0664  0.1369  0.8069
15619SOL     OW48297   2.314   6.659   0.135  0.2084 -0.0279 -0.1283
15619SOL    HW148298   2.282   6.627   0.051 -0.6368  2.6002 -0.8959
15619SOL    HW248299   2.239   6.652   0.194 -0.5469  2.0099 -0.7637
15620SOL     OW48300   2.948   6.355   2.389 -0.4048 -0.1188  0.1179
15620SOL    HW148301   2.967   6.429   2.331  1.6753 -0.3628  0.4146
15620SOL    HW248302   2.882   6.388   2.450  0.8169  1.6784  0.5450
15621SOL     OW48303   4.395   6.958  12.468 -0.1809 -0.3621 -0.3507
15621SOL    HW148304   4.400   7.025  12.400  0.7247 -0.5204 -0.4566
15621SOL    HW248305   4.478   6.912  12.461 -0.7806 -1.4891 -0.2707
15622SOL     OW48306   2.845   6.943  12.148  0.1749  0.6451 -0.0576
15622SOL    HW148307   2.904   6.867  12.144  1.0077  1.2638  0.1573
15622SOL    HW248308   2.794   6.928  12.228  0.7579  0.6035  0.3181
15623SOL     OW48309   5.335   6.048  12.481 -0.0580  0.1755  0.2568
15623SOL    HW148310   5.407   6.107  12.459 -0.7370  0.8107 -0.2880
15623SOL    HW248311   5.272   6.103  12.528 -0.2935 -0.3285  0.5445
15624SOL     OW48312   3.769   6.798  12.421 -0.4776 -0.0257  0.2853
15624SOL    HW148313   3.848   6.759  12.458 -1.3865 -0.4599  1.8618
15624SOL    HW248314   3.766   6.765  12.331  1.5014  0.5976 -0.0406
15625SOL     OW48315   5.894   6.545   0.313  0.3986 -0.3507  0.2151
15625SOL    HW148316   5.892   6.454   0.342  1.2254 -0.1351  1.0237
15625SOL    HW248317   5.921   6.540   0.221 -0.9183 -0.9789 -0.1571
15626SOL     OW48318   5.021   6.010  12.479  0.4733  0.2538 -0.1760
15626SOL    HW148319   5.060   6.082  12.529  0.1824  0.6187 -0.4649
15626SOL    HW248320   5.094   5.973  12.430  0.6887  0.1336  0.2361
15627SOL     OW48321   4.975   6.953   0.962  0.0234  0.3640 -0.0538
15627SOL    HW148322   5.068   6.972   0.967  0.1606  0.0639 -1.1389
15627SOL    HW248323   4.933   7.040   0.960  0.4969  0.6285 -2.5858
15628SOL     OW48324   3.394   7.479   0.997  0.4466  0.1879 -0.4729
15628SOL    HW148325   3.409   7.441   1.083 -0.3889 -2.2534 -1.3297
15628SOL    HW248326   3.308   7.447   0.970 -0.5962  3.1582 -1.1225
15629SOL     OW48327   4.878   7.250   1.451 -0.2715 -0.3647 -0.1982
15629SOL    HW148328   4.894   7.169   1.403 -2.0179 -1.0049  0.1922
15629SOL    HW248329   4.805   7.228   1.509 -0.9813  1.5810 -0.2916
15630SOL     OW48330   3.884   5.269   3.390 -0.2798  0.1049 -0.4493
15630SOL    HW148331   3.907   5.178   3.411 -0.6142  0.0375 -0.3787
15630SOL    HW248332   3.844   5.303   3.469 -0.4683  0.2108 -0.5910
15631SOL     OW48333   4.766   6.401   1.405 -0.4524 -0.0564  0.0560
15631SOL    HW148334   4.697   6.397   1.338 -0.0140 -0.9682 -0.3607
15631SOL    HW248335   4.720   6.427   1.485 -0.7025  3.0131 -0.9592
15632SOL     OW48336   3.130   5.553   0.801  0.4897 -0.3833 -0.0069
15632SOL    HW148337   3.088   5.605   0.732 -0.5776 -0.8851  0.2439
15632SOL    HW248338   3.214   5.597   0.816 -1.4989  3.1884  2.2595
15633SOL     OW48339   4.752   7.203   0.718 -0.3500 -0.4932 -0.0846
15633SOL    HW148340   4.685   7.241   0.774  0.8920  0.7596  0.6006
15633SOL    HW248341   4.828   7.191   0.775  1.3913  1.9978 -1.6306
15634SOL     OW48342   3.777   7.794   0.921 -0.4021  0.5645  0.2945
15634SOL    HW148343   3.704   7.782   0.981 -1.1576  1.8387 -0.3236
15634SOL    HW248344   3.766   7.725   0.855  0.7601 -1.2176  1.8410
15635SOL     OW48345   2.965   6.098   0.871 -0.0198  0.0607 -0.1120
15635SOL    HW148346   2.953   6.110   0.777 -1.0715  0.7135  0.0980
15635SOL    HW248347   2.881   6.064   0.902  0.9338 -2.1535  0.2933
15636SOL     OW48348   3.184   0.235   2.866 -0.3855  0.3281  0.0503
15636SOL    HW148349   3.098   0.263   2.835 -0.8408 -0.7746  0.2459
15636SOL    HW248350   3.165   0.188   2.948  0.6003  1.5842  1.0395
15637SOL     OW48351   3.533   5.530  12.075 -0.2978  0.1425 -0.0778
15637SOL    HW148352   3.452   5.497  12.115 -0.4613  0.2047 -0.3513
15637SOL    HW248353   3.598   5.526  12.145 -0.6032  0.3460  0.2215
15638SOL     OW48354   5.154   7.267   0.366  0.8445 -0.1839  0.4126
15638SOL    HW148355   5.224   7.235   0.423  1.0276 -0.1868  0.1881
15638SOL    HW248356   5.079   7.278   0.424  0.6634 -1.3951  0.4174
15639SOL     OW48357   2.578   5.384   0.569  0.3395  0.8514  0.1972
15639SOL    HW148358   2.637   5.396   0.644  1.2609  0.6828 -0.4735
15639SOL    HW248359   2.637   5.363   0.496 -0.5874  0.3848 -0.4332
15640SOL     OW48360   5.153   5.069   0.432  0.5696 -0.0780  0.3307
15640SOL    HW148361   5.211   5.033   0.499 -1.2061 -3.5379  0.1942
15640SOL    HW248362   5.209   5.079   0.355  1.3476 -1.8714  0.6272
15641SOL     OW48363   3.849   6.694  11.878 -0.0954  0.3819 -0.1489
15641SOL    HW148364   3.931   6.695  11.830 -0.6954  2.0850 -1.2240
15641SOL    HW248365   3.781   6.695  11.811 -0.9698  1.2837  0.6975
15642SOL     OW48366   3.372   7.869   1.603 -0.2976 -0.5649 -0.1551
15642SOL    HW148367   3.372   7.834   1.514 -0.7774 -2.5339  0.5722
15642SOL    HW248368   3.404   7.798   1.657 -2.2067 -0.2461  1.5337
15643SOL     OW48369   2.998   5.708  12.487  0.5756 -0.0726  0.1046
15643SOL    HW148370   2.909   5.677  12.472  1.3371 -2.7192  0.5426
15643SOL    HW248371   3.040   5.706  12.401  0.7007 -0.6068  0.1727
15644SOL     OW48372   3.922   6.260   2.738  0.4331 -0.1490  0.3650
15644SOL    HW148373   3.920   6.172   2.699  0.8199 -1.2295  2.6178
15644SOL    HW248374   3.838   6.299   2.715  0.1546 -1.1983 -0.4727
15645SOL     OW48375   5.004   5.880  11.449 -0.5028 -0.0256 -0.2590
15645SOL    HW148376   4.993   5.788  11.425 -1.0665  0.3900 -1.6619
15645SOL    HW248377   4.930   5.899  11.507 -1.2769 -0.0616 -1.2114
15646SOL     OW48378   5.449   5.830  12.232  0.4070 -0.2404 -0.0168
15646SOL    HW148379   5.527   5.827  12.177  1.3612  3.0392  0.9240
15646SOL    HW248380   5.481   5.855  12.319 -1.6199  1.0998  0.4359
15647SOL     OW48381   6.245   6.038   0.336  0.3833  0.0920 -0.5112
15647SOL    HW148382   6.308   5.966   0.334 -0.9186 -1.1076 -0.0393
15647SOL    HW248383   6.249   6.076   0.249  1.4208 -0.2523 -0.6269
15648SOL     OW48384   3.662   4.219   0.894  0.2763 -0.2591 -0.3299
15648SOL    HW148385   3.749   4.217   0.856  0.1457 -0.7143 -0.6080
15648SOL    HW248386   3.630   4.130   0.886 -0.2622 -0.0693 -0.3387
15649SOL     OW48387   3.380   6.389   0.694 -0.4485  0.3650  0.4511
15649SOL    HW148388   3.469   6.404   0.663  0.4639  0.7957  3.0088
15649SOL    HW248389   3.342   6.477   0.701 -0.3018  0.3612  1.3953
15650SOL     OW48390   3.726   6.014   1.355 -0.5495  0.3013  0.1192
15650SOL    HW148391   3.730   6.002   1.261  0.9009 -1.1436  0.3219
15650SOL    HW248392   3.646   6.063   1.370 -0.2964  1.4281 -1.9326
15651SOL     OW48393   4.379   5.155   1.648 -0.1718  0.3811 -0.0066
15651SOL    HW148394   4.470   5.175   1.625 -0.7442  0.7686 -2.1108
15651SOL    HW248395   4.353   5.226   1.706  0.5878  0.7619 -0.1125
15652SOL     OW48396   3.651   7.250   0.511 -0.0296 -0.5698 -1.0771
15652SOL    HW148397   3.594   7.324   0.528 -0.1925 -0.7058 -1.0280
15652SOL    HW248398   3.676   7.218   0.598  0.9055  0.0857 -1.0915
15653SOL     OW48399   2.372   5.973   1.067 -0.0512  0.5254 -0.4397
15653SOL    HW148400   2.424   6.052   1.074 -0.4237  0.6747  0.8655
15653SOL    HW248401   2.314   5.975   1.143  2.5525 -2.8793  1.9471
15654SOL     OW48402   3.246   7.218   3.932 -0.2921  0.0806 -0.0247
15654SOL    HW148403   3.332   7.260   3.921  0.0281 -0.5816 -0.1299
15654SOL    HW248404   3.248   7.144   3.871 -0.5339 -0.5581  0.7297
15655SOL     OW48405   4.601   6.700  11.613  0.2560  0.0924 -0.5883
15655SOL    HW148406   4.546   6.759  11.560 -1.7369 -0.4237  0.7812
15655SOL    HW248407   4.557   6.696  11.697  2.8761  0.2145  0.8878
15656SOL     OW48408   4.305   5.302   0.742  0.2022 -0.2345 -0.5270
15656SOL    HW148409   4.285   5.264   0.656  0.1240 -0.8023 -0.2667
15656SOL    HW248410   4.310   5.396   0.727 -2.0427 -0.0950 -0.7513
15657SOL     OW48411   4.484   6.345   1.930  0.2218  0.1029  0.0676
15657SOL    HW148412   4.424   6.397   1.878  1.8898  3.3200  1.1115
15657SOL    HW248413   4.442   6.336   2.015  0.5349  1.0585  0.3338
15658SOL     OW48414   3.522   6.197   0.055  0.0427  0.1361 -0.7547
15658SOL    HW148415   3.500   6.140   0.128  0.3754 -0.6625 -1.2679
15658SOL    HW248416   3.588   6.258   0.090 -0.5114  0.3823 -0.1361
15659SOL     OW48417   5.318   6.421  12.399 -0.4571  0.1636 -0.4076
15659SOL    HW148418   5.261   6.388  12.468  0.7241 -0.8060  0.1463
15659SOL    HW248419   5.325   6.515  12.418  0.8701 -0.2678  1.6385
15660SOL     OW48420   4.774   6.430   1.070  0.1388 -0.1284  0.4830
15660SOL    HW148421   4.804   6.372   1.000 -1.3638 -1.5302  0.9449
15660SOL    HW248422   4.855   6.461   1.111  1.0040 -0.9594 -0.5326
15661SOL     OW48423   3.629   6.159   0.883 -0.0752  0.2674 -0.0876
15661SOL    HW148424   3.717   6.174   0.851  0.4902 -0.1272  1.2097
15661SOL    HW248425   3.638   6.086   0.945 -1.5104 -0.6082 -0.8284
15662SOL     OW48426   4.521   0.234   2.259  0.0794 -0.1768  0.3859
15662SOL    HW148427   4.600   0.208   2.213  0.7119 -0.3443  1.5195
15662SOL    HW248428   4.456   0.168   2.236  0.1463  0.1802 -0.8658
15663SOL     OW48429   3.574   6.407   1.232 -0.2356 -0.2465 -0.4839
15663SOL    HW148430   3.518   6.398   1.155  1.4127 -1.8848 -1.5981
15663SOL    HW248431   3.653   6.449   1.198 -0.6817  1.9708  1.0333
15664SOL     OW48432   4.141   6.227  12.190  0.2145 -0.9379 -0.1662
15664SOL    HW148433   4.124   6.203  12.099  0.2802 -1.8794  0.0579
15664SOL    HW248434   4.225   6.185  12.210 -0.2282 -1.4906  0.5921
15665SOL     OW48435   4.316   6.302   0.687 -0.2016 -0.1343 -0.7526
15665SOL    HW148436   4.410   6.311   0.676 -0.3132  2.8340 -0.1464
15665SOL    HW248437   4.291   6.375   0.744 -2.7132 -1.5445  0.1280
15666SOL     OW48438   6.514   6.374   0.331 -0.2034  0.0050  0.1113
15666SOL    HW148439   6.603   6.384   0.298 -0.5274 -1.0273 -1.1347
15666SOL    HW248440   6.467   6.451   0.298  0.2245  0.5992  0.8485
15667SOL     OW48441   5.807   7.306   1.318 -0.3299 -0.0578  0.3685
15667SOL    HW148442   5.713   7.292   1.333 -0.3399 -0.9157 -0.4339
15667SOL    HW248443   5.848   7.223   1.342  0.1046 -0.0401 -0.2833
15668SOL     OW48444   5.550   6.841   0.154 -0.1233  0.2261 -0.0159
15668SOL    HW148445   5.487   6.900   0.196  0.1111 -0.8522  1.9451
15668SOL    HW248446   5.523   6.754   0.181  1.0743 -0.3967 -0.7630
15669SOL     OW48447   4.021   6.490   1.208  0.3265 -0.0334  0.1217
15669SOL    HW148448   4.057   6.402   1.221 -1.0795 -0.9257 -1.4842
15669SOL    HW248449   4.089   6.538   1.162  1.5475  0.1270  1.9972
15670SOL     OW48450   2.776   6.914   2.094 -0.5817  0.0364 -0.4164
15670SOL    HW148451   2.849   6.974   2.081 -1.4376  1.1866 -0.0787
15670SOL    HW248452   2.801   6.834   2.047  1.0389  0.2630  0.0311
15671SOL     OW48453   1.791   5.669   1.158  0.3086 -0.0015  0.4444
15671SOL    HW148454   1.841   5.635   1.232 -0.0887 -2.4651 -0.3491
15671SOL    HW248455   1.710   5.617   1.157  0.3197 -0.0579 -1.7114
15672SOL     OW48456   5.266   5.363   0.335 -0.3510  0.1327  0.1374
15672SOL    HW148457   5.325   5.415   0.281 -0.5058  0.8002  0.5969
15672SOL    HW248458   5.276   5.273   0.303  1.4256  0.1070  0.6308
15673SOL     OW48459   6.663   7.122   0.038  0.1366 -0.1470  0.2014
15673SOL    HW148460   6.705   7.129  -0.048  0.0287 -2.9017 -0.1708
15673SOL    HW248461   6.590   7.061   0.024 -0.9245  0.6864  1.9017
15674SOL     OW48462   4.410   1.068   1.266  0.0535 -0.0001 -0.0540
15674SOL    HW148463   4.345   1.137   1.281  0.2918 -0.0352  1.2398
15674SOL    HW248464   4.358   0.988   1.257 -0.0920 -0.0561  1.1647
15675SOL     OW48465   3.914   7.889  12.461 -0.6359 -0.2619  0.0988
15675SOL    HW148466   3.868   7.968  12.490 -1.0682 -0.1006 -0.9708
15675SOL    HW248467   3.975   7.921  12.394 -0.2761 -0.7370  0.1970
15676SOL     OW48468   4.895   7.916  11.906 -0.0099  0.6211 -0.3574
15676SOL    HW148469   4.960   7.986  11.908  2.0735 -1.1768 -1.5082
15676SOL    HW248470   4.861   7.918  11.817  0.7985 -0.4223 -0.7094
15677SOL     OW48471   3.356   5.835   0.603  0.6314  0.0653 -0.3319
15677SOL    HW148472   3.445   5.862   0.582  1.0375 -1.1718 -0.3035
15677SOL    HW248473   3.300   5.890   0.549  1.3919  1.1679 -0.0197
15678SOL     OW48474   5.275   6.988   1.963  0.0914 -0.0543 -0.2534
15678SOL    HW148475   5.355   6.938   1.944  0.2213 -0.7736  1.8919
15678SOL    HW248476   5.217   6.925   2.005 -0.2814  1.2414  1.2875
15679SOL     OW48477   6.162   3.997  11.442 -0.0917 -0.2348  0.2287
15679SOL    HW148478   6.103   4.002  11.517 -0.7032 -0.2826 -0.2445
15679SOL    HW248479   6.157   3.906  11.413  0.0304 -0.1833  0.0415
15680SOL     OW48480   3.314   6.905   0.055 -0.1071 -0.3041 -0.2848
15680SOL    HW148481   3.358   6.989   0.044 -1.1879  0.1440 -1.3733
15680SOL    HW248482   3.370   6.841   0.012  0.5316 -0.0957  0.2247
15681SOL     OW48483   3.945   6.826  11.431  0.5737 -0.1922  0.3031
15681SOL    HW148484   4.017   6.791  11.484  2.1562  1.5790 -0.5619
15681SOL    HW248485   3.908   6.896  11.485  0.0676 -0.5314  0.3935
15682SOL     OW48486   5.602   7.059   3.818  0.1999 -0.1409 -0.2338
15682SOL    HW148487   5.585   7.116   3.743 -1.2836  1.8868  1.5258
15682SOL    HW248488   5.535   6.990   3.811 -2.0682  1.8083  0.8377
15683SOL     OW48489   2.584   6.950   0.672 -0.0741  0.2097  0.3181
15683SOL    HW148490   2.579   7.035   0.716  2.0452  0.3480  0.4193
15683SOL    HW248491   2.630   6.969   0.590 -1.2070 -0.5680 -0.5211
15684SOL     OW48492   4.558   7.335   0.850  0.5304  0.4854 -0.3158
15684SOL    HW148493   4.555   7.267   0.917  3.2853  1.4117  0.8992
15684SOL    HW248494   4.477   7.383   0.860 -0.5186 -1.2914  0.2132
15685SOL     OW48495   4.968   6.157   2.425 -0.1585 -0.1360  0.2164
15685SOL    HW148496   4.969   6.137   2.519 -3.1833 -3.8306 -0.2727
15685SOL    HW248497   4.917   6.237   2.418 -0.6765 -0.3004  1.6756
15686SOL     OW48498   4.600   0.116  12.395 -0.2197  0.1189 -0.0923
15686SOL    HW148499   4.556   0.063  12.329 -1.6133  2.1868 -0.9577
15686SOL    HW248500   4.531   0.135  12.460  0.1911  0.9577  0.1180
15687SOL     OW48501   4.552   6.744   1.254  0.0870  0.0725  0.6214
15687SOL    HW148502   4.586   6.831   1.273 -0.6879  0.1116  1.9358
15687SOL    HW248503   4.562   6.695   1.336 -2.0672 -0.1870  0.7912
15688SOL     OW48504   3.443   7.122  12.451 -0.3602 -0.4380  0.1120
15688SOL    HW148505   3.506   7.193  12.438 -0.5800 -0.2428  0.1180
15688SOL    HW248506   3.431   7.085  12.364 -1.3247  0.4431 -0.1493
15689SOL     OW48507   3.161   6.871   0.988  0.3780 -0.2959  0.1295
15689SOL    HW148508   3.182   6.886   0.896  0.6777  1.3505  0.4381
15689SOL    HW248509   3.230   6.812   1.019  1.5305  0.8550 -0.1763
15690SOL     OW48510   3.008   7.278   0.189  0.1578 -0.8230 -0.2948
15690SOL    HW148511   2.959   7.357   0.211  1.3139 -0.5441  1.4961
15690SOL    HW248512   3.096   7.310   0.168 -0.0553 -1.4190 -2.2939
15691SOL     OW48513   2.692   5.848   1.202 -0.2564  0.0436 -0.0883
15691SOL    HW148514   2.744   5.797   1.265 -1.4923 -1.2185 -0.0407
15691SOL    HW248515   2.701   5.800   1.120 -0.6641  0.2787 -0.2710
15692SOL     OW48516   2.840   5.736   1.424  0.2135  0.5808 -0.1620
15692SOL    HW148517   2.783   5.675   1.471  0.6812 -0.7708 -1.2753
15692SOL    HW248518   2.849   5.811   1.483 -2.2169  0.5942  0.3140
15693SOL     OW48519   6.752   6.719   0.893 -0.7083 -0.2267 -0.3050
15693SOL    HW148520   6.665   6.756   0.906 -0.0086  1.2928  0.2838
15693SOL    HW248521   6.739   6.651   0.827 -2.4575 -0.5407  0.3097
15694SOL     OW48522   5.326   4.216  12.407 -0.0340  0.4696 -0.2579
15694SOL    HW148523   5.243   4.218  12.454  0.4897  2.7715  0.7113
15694SOL    HW248524   5.388   4.177  12.469 -0.0356  0.3829 -0.3116
15695SOL     OW48525   5.737   7.139   0.551  0.2846  0.1156  0.1914
15695SOL    HW148526   5.700   7.227   0.541  2.6249  1.2904  0.9147
15695SOL    HW248527   5.662   7.083   0.571 -1.3305  1.8754 -0.5980
15696SOL     OW48528   5.614   7.740   1.975  0.0209 -0.1642  0.2097
15696SOL    HW148529   5.648   7.651   1.984  1.2585  0.0335 -1.8849
15696SOL    HW248530   5.644   7.768   1.889  0.2763  2.5526  1.0984
15697SOL     OW48531   4.479   0.476   1.370 -0.1290 -0.5515 -0.2265
15697SOL    HW148532   4.438   0.407   1.319  1.7500 -0.8756 -1.3846
15697SOL    HW248533   4.406   0.519   1.415 -1.7161 -1.1481 -2.0866
15698SOL     OW48534   3.877   7.066   1.572  0.0508  0.4844 -0.2740
15698SOL    HW148535   3.878   7.154   1.534 -0.8283  1.0631  0.9508
15698SOL    HW248536   3.862   7.081   1.665  0.7880 -0.9385  0.0981
15699SOL     OW48537   5.366   6.541   0.368  0.2683 -0.3056  0.0198
15699SOL    HW148538   5.457   6.569   0.379  0.2235 -0.1084 -0.1135
15699SOL    HW248539   5.317   6.591   0.433 -0.0567  1.1509 -1.2852
15700SOL     OW48540   4.444   6.490   0.064  0.0249  0.4442  0.0422
15700SOL    HW148541   4.418   6.441   0.142  0.8906 -0.1531 -0.0320
15700SOL    HW248542   4.372   6.477   0.003 -0.0841 -0.1405  0.2865
15701SOL     OW48543   4.671   0.337   1.643  0.4191 -0.1063  0.3062
15701SOL    HW148544   4.701   0.379   1.563 -1.0365 -1.2692 -0.9122
15701SOL    HW248545   4.614   0.402   1.685  2.4767  1.1316  1.3151
15702SOL     OW48546   4.527   6.956   1.494 -0.6262  0.0469  0.0402
15702SOL    HW148547   4.513   7.031   1.436 -3.4854  0.3786  1.0052
15702SOL    HW248548   4.448   6.952   1.548 -0.0341 -2.9417  0.8714
15703SOL     OW48549   4.498   5.829   0.246  0.7151  0.7316  0.1916
15703SOL    HW148550   4.503   5.791   0.158  1.4815  1.1045  0.0660
15703SOL    HW248551   4.508   5.923   0.232 -0.4174  0.9363  0.5702
15704SOL     OW48552   4.546   6.296   1.086  0.3970 -0.2019  0.7053
15704SOL    HW148553   4.622   6.346   1.114  0.4797 -0.3793  0.7987
15704SOL    HW248554   4.519   6.336   1.004 -0.2259  0.7421  1.3402
15705SOL     OW48555   4.228   5.862  12.221  0.2391 -0.1692  0.0043
15705SOL    HW148556   4.162   5.900  12.163 -0.5744  1.3990  1.8182
15705SOL    HW248557   4.210   5.768  12.219 -1.5312  0.1253 -0.2280
15706SOL     OW48558   4.442   4.200  11.887  0.2143  0.0666 -0.4897
15706SOL    HW148559   4.474   4.219  11.799  0.7516  2.5880  0.1777
15706SOL    HW248560   4.409   4.284  11.919 -0.6549 -0.9553  1.4533
15707SOL     OW48561   5.514   7.404   0.755  0.2197  0.2100 -0.1163
15707SOL    HW148562   5.577   7.411   0.683  2.0569 -0.0780  1.3887
15707SOL    HW248563   5.462   7.484   0.748  1.3121  0.8871 -0.9195
15708SOL     OW48564   4.281   6.539   0.841 -0.3160 -0.4057 -0.3710
15708SOL    HW148565   4.240   6.623   0.861 -0.7430 -1.5270  4.7423
15708SOL    HW248566   4.371   6.548   0.872  0.6621 -1.0082 -2.7427
15709SOL     OW48567   6.280   6.202  11.764  0.2998  0.8277 -0.2459
15709SOL    HW148568   6.193   6.164  11.777  0.4126  0.7789  0.3759
15709SOL    HW248569   6.289   6.268  11.832  1.1608  0.0900  0.3976
15710SOL     OW48570   4.890   7.643   1.053  0.4360 -0.5589  0.3830
15710SOL    HW148571   4.896   7.578   1.123  0.2879 -0.5727  0.3838
15710SOL    HW248572   4.816   7.699   1.078  0.8893 -0.0741  0.6458
15711SOL     OW48573   5.159   5.699  11.644  0.0278 -0.8671  0.6093
15711SOL    HW148574   5.122   5.783  11.615 -0.0139 -0.7942  0.8714
15711SOL    HW248575   5.091   5.661  11.699 -1.1367 -2.3573 -1.6803
15712SOL     OW48576   3.506   7.485   0.553 -0.2915 -0.1721 -0.2760
15712SOL    HW148577   3.414   7.458   0.549 -0.0689 -1.0310  0.1440
15712SOL    HW248578   3.503   7.574   0.588 -0.9735 -0.1056 -0.4767
15713SOL     OW48579   3.689   7.704   0.013  0.1692  0.2386  0.0504
15713SOL    HW148580   3.649   7.768  -0.045 -1.0590  2.1173  2.7398
15713SOL    HW248581   3.673   7.620  -0.028 -3.8215  1.1578 -0.6292
15714SOL     OW48582   4.291   6.840   1.630 -0.3762  0.2118  0.1985
15714SOL    HW148583   4.230   6.868   1.562 -2.4061 -3.3056  0.3351
15714SOL    HW248584   4.239   6.840   1.710  0.2811 -1.2421  0.6532
15715SOL     OW48585   4.392   5.599  11.444 -0.1025 -0.4918  0.3479
15715SOL    HW148586   4.384   5.543  11.367  1.9069 -1.5690  0.8631
15715SOL    HW248587   4.383   5.540  11.519 -2.4219  0.5928  1.0271
15716SOL     OW48588   6.380   5.893   0.655 -0.4182  0.1242  0.5549
15716SOL    HW148589   6.442   5.862   0.721 -1.5955 -0.9800  1.1969
15716SOL    HW248590   6.409   5.854   0.573 -0.4622 -0.6980  0.9223
15717SOL     OW48591   5.562   0.003  11.854 -1.0848  0.4993  0.1491
15717SOL    HW148592   5.490  -0.056  11.830 -1.4298  0.8499  0.3063
15717SOL    HW248593   5.636  -0.055  11.870 -1.4876  0.0894  0.5548
15718SOL     OW48594   3.739   6.249   1.952 -0.3358 -0.1348  0.3089
15718SOL    HW148595   3.682   6.275   2.025  0.5893 -0.8463  1.3213
15718SOL    HW248596   3.826   6.277   1.979  0.4007 -2.4594  0.5937
15719SOL     OW48597   2.968   0.075   0.010 -0.3748  0.1438 -0.2860
15719SOL    HW148598   2.916  -0.000   0.038 -1.0384 -0.0084 -1.8100
15719SOL    HW248599   3.055   0.039  -0.009  0.0894  0.2502  1.4383
15720SOL     OW48600   4.194   0.505   1.121  0.0460  0.1739 -0.3870
15720SOL    HW148601   4.182   0.587   1.169 -0.0435 -1.2726  2.2530
15720SOL    HW248602   4.281   0.511   1.083  0.1063  1.4067 -0.0819
15721SOL     OW48603   3.426   5.994  12.183  0.1875  0.2696 -0.0761
15721SOL    HW148604   3.435   5.920  12.243  0.1154  1.7706  1.8870
15721SOL    HW248605   3.347   6.039  12.212 -0.8389  0.1350 -2.4212
15722SOL     OW48606   4.013   6.702  12.473  0.3624  0.6337 -0.5088
15722SOL    HW148607   4.057   6.748  12.401  0.6732  0.8444 -0.1876
15722SOL    HW248608   4.028   6.609  12.454 -0.4403  0.6526 -1.2659
15723SOL     OW48609   2.155   5.711   0.777  0.3400  0.0514  0.4203
15723SOL    HW148610   2.072   5.725   0.730 -0.1731 -0.1082  1.2495
15723SOL    HW248611   2.197   5.639   0.731 -0.0446  0.0472  0.0639
15724SOL     OW48612   1.741   5.832   0.279 -0.2799  0.0754 -0.3461
15724SOL    HW148613   1.696   5.843   0.196  1.2825 -0.6555 -1.3352
15724SOL    HW248614   1.671   5.824   0.344 -1.5219  0.9658 -1.5261
15725SOL     OW48615   3.879   6.652   0.786  0.4813 -0.4066 -0.4122
15725SOL    HW148616   3.861   6.603   0.866 -1.2710 -0.4731 -0.8011
15725SOL    HW248617   3.881   6.586   0.717  1.3158 -0.2752 -0.5236
15726SOL     OW48618   1.294   7.256   1.507 -0.7046  0.3441  0.8703
15726SOL    HW148619   1.349   7.197   1.456 -1.0752 -0.6348  1.5606
15726SOL    HW248620   1.246   7.198   1.567 -0.1003  1.4614  2.5078
15727SOL     OW48621   3.361   6.834   1.481 -0.1277  0.2090  0.3821
15727SOL    HW148622   3.279   6.831   1.531  1.0301 -2.3337  2.3532
15727SOL    HW248623   3.334   6.862   1.393 -3.1716 -0.8118  0.8564
15728SOL     OW48624   3.014   0.066   3.030 -0.2974  0.1073  0.1045
15728SOL    HW148625   3.036   0.015   3.107 -1.2992  0.2372  0.4981
15728SOL    HW248626   2.937   0.117   3.056 -1.5332 -0.8886 -1.4121
15729SOL     OW48627   5.647   0.895   1.054 -0.4466  0.5002  0.2086
15729SOL    HW148628   5.654   0.966   1.117 -1.4125  0.6320  0.1830
15729SOL    HW248629   5.736   0.859   1.048 -0.1474  1.1023  0.9127
15730SOL     OW48630   5.150   6.470   2.201  0.4818 -0.3192 -0.0356
15730SOL    HW148631   5.064   6.449   2.165 -0.1127  0.6595  0.7667
15730SOL    HW248632   5.210   6.411   2.155 -0.5999 -0.9819 -0.6458
15731SOL     OW48633   6.391   5.828   2.476 -0.4861  0.1257 -0.0546
15731SOL    HW148634   6.456   5.762   2.500 -0.0945 -0.1943 -1.8406
15731SOL    HW248635   6.361   5.802   2.389  0.5979  2.9684 -1.3948
15732SOL     OW48636   4.818   7.290   1.848  0.3243  0.7003  0.2380
15732SOL    HW148637   4.787   7.202   1.825 -1.8876  0.8139  2.4571
15732SOL    HW248638   4.858   7.323   1.767 -0.7570 -1.5012 -1.2847
15733SOL     OW48639   3.698   5.711   3.076 -0.0633 -0.8095 -0.0565
15733SOL    HW148640   3.756   5.787   3.072 -0.5943 -0.3676  0.5036
15733SOL    HW248641   3.745   5.649   3.131  0.6958 -1.1886 -1.0871
15734SOL     OW48642   4.099   6.308   2.931  0.8844  0.5262 -0.6433
15734SOL    HW148643   4.038   6.287   2.859  0.0104  3.2241 -0.8019
15734SOL    HW248644   4.057   6.272   3.009 -0.5150  1.4978 -0.8947
15735SOL     OW48645   3.180   5.702   2.231  0.2067 -0.5387 -0.0669
15735SOL    HW148646   3.213   5.614   2.210  0.5101 -0.6141  0.6775
15735SOL    HW248647   3.100   5.686   2.281 -1.7716 -0.3530 -2.9636
15736SOL     OW48648   4.595   0.222   3.266 -0.1175 -0.6462 -0.4205
15736SOL    HW148649   4.595   0.127   3.255  1.4792 -0.4353 -2.8278
15736SOL    HW248650   4.676   0.251   3.225 -1.2657  1.8872 -1.0795
15737SOL     OW48651   3.962   7.460   3.885 -0.2877  0.2990 -0.6028
15737SOL    HW148652   3.987   7.411   3.807 -1.4884 -0.7869 -0.3429
15737SOL    HW248653   4.011   7.542   3.880  0.7396 -0.3724 -1.7469
15738SOL     OW48654   3.372   5.694   2.978 -0.6666  0.2913 -0.1621
15738SOL    HW148655   3.396   5.635   2.906 -0.6885 -0.8044  0.7067
15738SOL    HW248656   3.413   5.777   2.954 -1.9024  0.3996 -2.1724
15739SOL     OW48657   4.660   4.877   0.672  0.2496  0.0745  0.3113
15739SOL    HW148658   4.696   4.963   0.694 -1.2567  0.8238  0.0173
15739SOL    HW248659   4.727   4.836   0.618  0.1575  1.9633 -1.3949
15740SOL     OW48660   4.054   0.180   2.034  0.5372  0.3466 -0.3447
15740SOL    HW148661   4.099   0.263   2.019  1.1214  0.3780  1.3488
15740SOL    HW248662   4.060   0.166   2.129  0.3377 -1.5654 -0.5697
15741SOL     OW48663   6.610   6.953   4.243  0.2695 -0.3539  0.3970
15741SOL    HW148664   6.642   7.020   4.304  0.1143  0.5064 -0.4303
15741SOL    HW248665   6.648   6.871   4.275 -1.2372 -0.2354  2.6887
15742SOL     OW48666   4.590   6.252   2.449  0.2172  0.3835 -0.1442
15742SOL    HW148667   4.668   6.308   2.444  0.2008  0.3392 -1.0817
15742SOL    HW248668   4.579   6.235   2.542  0.9152  0.9758  0.0580
15743SOL     OW48669   3.613   4.891   2.604  0.1939 -0.6252 -0.7205
15743SOL    HW148670   3.550   4.848   2.546  1.1319 -2.1365 -0.6725
15743SOL    HW248671   3.620   4.832   2.679  1.1244 -0.1161 -0.3871
15744SOL     OW48672   4.250   7.093   2.066 -0.1064  0.0413 -0.6453
15744SOL    HW148673   4.281   7.047   2.145 -0.2822 -0.0226 -0.6126
15744SOL    HW248674   4.211   7.024   2.012 -0.6215  0.1905 -0.4746
15745SOL     OW48675   4.853   6.379   2.547  0.1948  0.2747 -0.0104
15745SOL    HW148676   4.943   6.400   2.569  0.4541 -0.2198 -0.5817
15745SOL    HW248677   4.811   6.359   2.631  0.2898  1.6821  0.4013
15746SOL     OW48678   2.886   7.304   1.395 -0.0616  0.0551 -0.6414
15746SOL    HW148679   2.897   7.371   1.328  1.0226 -1.3854 -1.9915
15746SOL    HW248680   2.909   7.347   1.477 -0.0304  1.4789 -1.3695
15747SOL     OW48681   5.653   5.566   2.965  0.1674  0.1318 -0.0660
15747SOL    HW148682   5.682   5.650   2.998 -0.3045  0.7602 -1.1973
15747SOL    HW248683   5.650   5.509   3.042 -2.6741  2.0266  1.3790
15748SOL     OW48684   3.603   0.018   2.211  0.0469  0.4669  0.3630
15748SOL    HW148685   3.635  -0.016   2.294 -0.4914 -1.6560 -0.2223
15748SOL    HW248686   3.682   0.038   2.160  0.3806  0.8734  1.0385
15749SOL     OW48687   4.511   5.378   2.175  0.0888 -0.2270  0.0782
15749SOL    HW148688   4.465   5.303   2.213  0.5086 -0.3229  0.4049
15749SOL    HW248689   4.509   5.445   2.243  0.2461 -0.1573  0.0142
15750SOL     OW48690   6.800   6.546   2.685  0.0627 -0.3881 -0.2935
15750SOL    HW148691   6.825   6.490   2.758 -0.9227  0.1875  0.5075
15750SOL    HW248692   6.869   6.533   2.620  1.7250  0.1136  1.2817
15751SOL     OW48693   2.770   5.235   3.605 -0.4392 -0.3962 -0.1372
15751SOL    HW148694   2.823   5.239   3.525  1.1521 -0.9455  0.8362
15751SOL    HW248695   2.796   5.153   3.647  0.8729  1.1241  2.3047
15752SOL     OW48696   5.570   7.510   1.261  0.0397  0.3981 -0.0144
15752SOL    HW148697   5.586   7.433   1.315 -0.9402 -0.3525 -0.7753
15752SOL    HW248698   5.594   7.483   1.173 -3.1031 -0.0691 -0.8322
15753SOL     OW48699   6.139   6.762   3.884  0.2745 -0.5064  0.0995
15753SOL    HW148700   6.162   6.694   3.948 -1.7072 -1.3445  0.0217
15753SOL    HW248701   6.050   6.788   3.908 -0.0250  0.1095 -1.5185
15754SOL     OW48702   3.419   6.052   1.688 -0.5511 -0.3280 -0.0363
15754SOL    HW148703   3.383   5.989   1.750 -0.5969  1.2430  1.6317
15754SOL    HW248704   3.389   6.021   1.603 -1.0858 -2.1888  0.7632
15755SOL     OW48705   2.465   6.772   1.670  0.5214  0.5074 -0.0115
15755SOL    HW148706   2.549   6.791   1.712  0.3727 -0.1078  0.5866
15755SOL    HW248707   2.425   6.857   1.655  0.7045  0.7592  0.8652
15756SOL     OW48708   4.279   7.081   0.507 -0.3046  0.4427 -0.4488
15756SOL    HW148709   4.221   7.026   0.455 -1.0890  1.9773 -1.2738
15756SOL    HW248710   4.366   7.045   0.493 -0.9038 -1.3125  0.0425
15757SOL     OW48711   5.534   0.051   3.372 -0.0456  0.3932  0.0465
15757SOL    HW148712   5.458  -0.005   3.390 -0.5940  0.9967 -0.3778
15757SOL    HW248713   5.608  -0.011   3.368 -0.3845 -0.1100  1.2065
15758SOL     OW48714   3.006   6.340   2.799 -0.3481  0.3908 -0.3141
15758SOL    HW148715   2.950   6.418   2.801  0.5413  1.0519  2.3197
15758SOL    HW248716   2.958   6.276   2.851 -0.5131 -0.4509 -1.4769
15759SOL     OW48717   5.999   7.677   3.716  0.3104  0.2356  0.2195
15759SOL    HW148718   5.968   7.606   3.772 -0.9729  0.4495 -0.1928
15759SOL    HW248719   6.094   7.672   3.721  0.2470 -1.6116  0.0710
15760SOL     OW48720   4.359   1.176   0.443  0.6369  0.4261 -0.4390
15760SOL    HW148721   4.335   1.178   0.536 -1.1209 -0.1339 -0.8311
15760SOL    HW248722   4.290   1.227   0.401  1.8391  1.3200 -1.3757
15761SOL     OW48723   6.295   6.692   1.170  0.2545  0.4914 -0.2646
15761SOL    HW148724   6.300   6.607   1.213 -1.5944  0.5683  0.1851
15761SOL    HW248725   6.308   6.755   1.240 -0.7177  0.5904 -0.1612
15762SOL     OW48726   5.591   5.413   2.731  0.0489  0.0396 -0.3992
15762SOL    HW148727   5.605   5.433   2.824 -0.8195  0.4827 -0.3491
15762SOL    HW248728   5.628   5.488   2.685  1.6066 -0.7455 -0.4978
15763SOL     OW48729   5.993   1.143   0.145  0.2642  0.7265 -0.3480
15763SOL    HW148730   5.951   1.122   0.062 -2.2785  0.1157  0.9821
15763SOL    HW248731   6.076   1.097   0.143 -0.3519 -0.3976 -2.0086
15764SOL     OW48732   4.583   6.649   1.001 -0.1013 -0.4212  0.1106
15764SOL    HW148733   4.671   6.612   1.004 -0.3421 -0.9394  1.2039
15764SOL    HW248734   4.570   6.687   1.088 -1.0792 -0.6486  0.0771
15765SOL     OW48735   2.870   7.116   2.697  0.1456  0.1227 -0.0512
15765SOL    HW148736   2.797   7.056   2.710 -0.1926  0.9352  2.1866
15765SOL    HW248737   2.947   7.059   2.693 -0.3931 -0.5961 -0.2997
15766SOL     OW48738   5.153   6.657   4.216 -0.0733 -0.1815  0.2089
15766SOL    HW148739   5.239   6.620   4.235  0.0511  0.4869  1.0057
15766SOL    HW248740   5.097   6.624   4.286 -0.5356 -0.8177 -0.4464
15767SOL     OW48741   3.978   6.305   2.076 -0.1771 -0.2970  0.4783
15767SOL    HW148742   4.029   6.362   2.133  1.0904  0.2094 -1.0581
15767SOL    HW248743   4.006   6.217   2.099 -0.5714 -0.1862  1.4263
15768SOL     OW48744   4.619   6.636   1.501  0.3854 -0.3065  0.2344
15768SOL    HW148745   4.571   6.673   1.576  0.6085 -0.8085  0.6284
15768SOL    HW248746   4.705   6.678   1.505 -0.1578  0.9866 -0.7744
15769SOL     OW48747   4.621   6.471   3.878  0.4872 -0.5732  0.5328
15769SOL    HW148748   4.681   6.402   3.849 -1.3198 -1.9881 -0.0951
15769SOL    HW248749   4.539   6.425   3.895 -0.3436  1.2209  1.6965
15770SOL     OW48750   5.642   7.363   1.660  0.5007 -0.0557  0.1619
15770SOL    HW148751   5.605   7.348   1.747 -0.4498  1.3471  0.0166
15770SOL    HW248752   5.630   7.456   1.644 -0.3071 -0.4594 -1.9087
15771SOL     OW48753   6.404   6.224   3.989 -0.3522  0.3260 -0.1023
15771SOL    HW148754   6.460   6.238   4.065  0.0008  2.0349 -0.6280
15771SOL    HW248755   6.373   6.312   3.965 -2.5917 -0.4472 -0.3424
15772SOL     OW48756   4.931   7.321   0.508 -0.6613  0.2675  0.3784
15772SOL    HW148757   4.880   7.282   0.580  1.4558 -0.5685  1.4979
15772SOL    HW248758   4.918   7.416   0.519 -2.9152  0.0834 -0.1461
15773SOL     OW48759   5.404   5.826   3.333  0.0685  0.3777  0.2293
15773SOL    HW148760   5.371   5.797   3.247 -0.2338  2.6248 -0.4582
15773SOL    HW248761   5.333   5.804   3.394  0.4474 -1.6154  0.0403
15774SOL     OW48762   4.362   7.362   2.348  0.3122  0.4989  0.5069
15774SOL    HW148763   4.367   7.456   2.369  0.4898  0.5410  0.2805
15774SOL    HW248764   4.305   7.357   2.272  2.4449  0.7165 -1.1953
15775SOL     OW48765   3.908   7.028   2.407  0.7128  0.2764  0.6579
15775SOL    HW148766   3.896   6.948   2.458  0.0993 -0.0506  0.0278
15775SOL    HW248767   3.920   6.997   2.317 -0.8561  0.9225  0.1925
15776SOL     OW48768   4.847   5.298   2.106 -0.2524  0.2872 -0.5770
15776SOL    HW148769   4.760   5.288   2.068 -0.4756  2.5626 -0.8123
15776SOL    HW248770   4.883   5.209   2.109 -2.6940 -0.7510 -0.1419
15777SOL     OW48771   5.766   6.281   3.836  0.2569  0.3109 -0.1223
15777SOL    HW148772   5.678   6.252   3.861 -0.0235  2.3293  1.4867
15777SOL    HW248773   5.824   6.237   3.898  0.4060 -0.8212 -1.0235
15778SOL     OW48774   4.348   5.808   3.233  0.7450  0.5307 -0.4194
15778SOL    HW148775   4.325   5.782   3.322  0.2322  0.4797 -0.5622
15778SOL    HW248776   4.427   5.860   3.243  1.2079 -0.2214 -0.0238
15779SOL     OW48777   4.428   5.785   1.867  0.1006  0.7808 -0.2833
15779SOL    HW148778   4.483   5.795   1.945  0.9686  2.7256 -1.0738
15779SOL    HW248779   4.481   5.823   1.796 -0.2841 -1.6949 -2.0339
15780SOL     OW48780   2.462   6.513   3.432  0.0953  0.1638 -0.0270
15780SOL    HW148781   2.434   6.595   3.472  2.1159  1.3089 -0.8186
15780SOL    HW248782   2.518   6.472   3.498 -0.1779 -0.1325  0.0214
15781SOL     OW48783   3.723   7.744   1.977  0.4477  0.1221 -0.2145
15781SOL    HW148784   3.763   7.768   2.060  0.2513 -1.2131  0.2941
15781SOL    HW248785   3.794   7.755   1.913  0.9310  0.1079  0.3056
15782SOL     OW48786   2.058   6.438   2.382 -0.1832  0.0474  0.5114
15782SOL    HW148787   2.043   6.532   2.393 -1.0479 -0.2514  2.3302
15782SOL    HW248788   1.992   6.411   2.318 -1.0801  0.4205  1.2496
15783SOL     OW48789   5.652   7.481   2.202  0.0371  0.5672 -0.2775
15783SOL    HW148790   5.738   7.439   2.197  0.0786  0.6299 -0.1119
15783SOL    HW248791   5.614   7.468   2.116  0.2706  0.6579 -0.3960
15784SOL     OW48792   3.689   5.644   2.295 -0.2595 -0.1454 -0.2106
15784SOL    HW148793   3.682   5.726   2.247 -0.9378 -0.4743 -0.6864
15784SOL    HW248794   3.754   5.662   2.363  0.4110  0.4508 -0.9890
15785SOL     OW48795   4.632   7.127   3.249  0.2581 -0.1277  0.0704
15785SOL    HW148796   4.572   7.078   3.193  0.0969  0.8216 -0.6040
15785SOL    HW248797   4.645   7.210   3.204  2.1590 -0.3324  0.1418
15786SOL     OW48798   4.461   0.563   1.987  0.4704  0.1253  0.0347
15786SOL    HW148799   4.496   0.501   2.051  0.6057 -0.0380 -0.1958
15786SOL    HW248800   4.487   0.649   2.019  0.6716  0.0333  0.1157
15787SOL     OW48801   2.527   6.938   2.447  0.3795 -0.6253  0.2150
15787SOL    HW148802   2.467   6.913   2.517  1.0156 -2.7967  0.0648
15787SOL    HW248803   2.582   6.860   2.434  1.8143  0.5485 -1.0969
15788SOL     OW48804   4.840   5.441   3.049  0.4835  0.1829 -0.3131
15788SOL    HW148805   4.871   5.413   3.135 -0.1630 -0.3215 -0.2317
15788SOL    HW248806   4.893   5.518   3.028 -1.4401  2.2625  1.9103
15789SOL     OW48807   5.077   5.713   1.935  0.6679  0.6002  0.4191
15789SOL    HW148808   5.077   5.662   1.854 -0.2712 -0.0699  0.8281
15789SOL    HW248809   5.030   5.793   1.913 -0.8344 -0.1950  0.6583
15790SOL     OW48810   6.507   5.271   4.137  0.2726 -0.3645 -0.3224
15790SOL    HW148811   6.498   5.348   4.081  0.3308 -1.4162 -1.8225
15790SOL    HW248812   6.431   5.274   4.195 -0.0875  0.4468 -0.8253
15791SOL     OW48813   4.446   5.749   4.162  0.1109  0.1330  0.0754
15791SOL    HW148814   4.398   5.810   4.107  0.2164  1.6702  1.5759
15791SOL    HW248815   4.384   5.678   4.181 -0.7007  0.7846 -0.1008
15792SOL     OW48816   3.917   5.391   5.242 -0.7335 -0.1249 -0.2558
15792SOL    HW148817   3.965   5.319   5.200 -0.0218  0.6568 -0.8211
15792SOL    HW248818   3.896   5.359   5.329  0.8675 -0.4908  0.0289
15793SOL     OW48819   4.563   6.204   2.698  0.2647 -0.1264 -0.6117
15793SOL    HW148820   4.603   6.224   2.783  0.7940 -0.1628 -0.8495
15793SOL    HW248821   4.495   6.141   2.718 -0.0024  0.3042 -0.1337
15794SOL     OW48822   1.806   6.759   1.741  0.0142 -0.7477  0.0209
15794SOL    HW148823   1.793   6.731   1.832  0.8266 -0.1254  0.3445
15794SOL    HW248824   1.760   6.694   1.689 -0.0623 -1.3818  0.8593
15795SOL     OW48825   5.561   7.693   3.119 -0.1310 -0.1074  0.0339
15795SOL    HW148826   5.523   7.610   3.149 -0.2199 -0.5701 -1.2988
15795SOL    HW248827   5.655   7.682   3.130 -0.2005  0.0746  0.9423
15796SOL     OW48828   4.046   6.106   2.277  0.2113  0.2515  0.4573
15796SOL    HW148829   4.002   6.135   2.357  0.9352 -0.0252  0.9705
15796SOL    HW248830   4.139   6.105   2.300  0.3169 -1.1835  0.0491
15797SOL     OW48831   5.317   5.346   2.491 -0.0586  0.0927  0.1630
15797SOL    HW148832   5.412   5.333   2.491  0.2554  1.8739 -1.4963
15797SOL    HW248833   5.281   5.266   2.528  2.0903 -0.6494  0.7554
15798SOL     OW48834   4.698   6.655   3.327 -0.5228  0.2922  0.2137
15798SOL    HW148835   4.707   6.700   3.243  2.3005  0.8076  0.7018
15798SOL    HW248836   4.695   6.562   3.305  1.1144  0.3668 -0.4669
15799SOL     OW48837   5.272   6.738   2.437 -0.1467 -0.5489 -0.4403
15799SOL    HW148838   5.306   6.699   2.356  2.4219 -1.5117  0.9983
15799SOL    HW248839   5.278   6.668   2.501 -0.8020  0.6061  0.9242
15800SOL     OW48840   4.241   6.311   1.136 -0.3894 -0.2701  0.1515
15800SOL    HW148841   4.320   6.277   1.095  0.2655 -1.5550  2.3095
15800SOL    HW248842   4.183   6.236   1.142 -1.4614  0.4675 -0.6205
15801SOL     OW48843   5.113   7.909   1.275  0.4503 -0.2775 -0.0055
15801SOL    HW148844   5.190   7.959   1.302  0.6739 -0.1517 -0.8697
15801SOL    HW248845   5.039   7.969   1.292  0.2888 -1.0820  2.6819
15802SOL     OW48846   3.154   7.148   3.194 -0.2144  0.1595 -0.6422
15802SOL    HW148847   3.198   7.195   3.264 -0.7920  1.9248 -1.3962
15802SOL    HW248848   3.073   7.116   3.234  0.5392 -0.9402  0.0800
15803SOL     OW48849   1.800   5.605   4.271  0.4465  0.2911 -0.2090
15803SOL    HW148850   1.831   5.515   4.261 -0.3326  0.1088 -1.1271
15803SOL    HW248851   1.781   5.634   4.181 -0.0487  1.0983  0.1471
15804SOL     OW48852   4.711   6.970   2.669  0.0053 -0.3219  0.3317
15804SOL    HW148853   4.707   7.018   2.752  0.5949  0.6238 -0.1698
15804SOL    HW248854   4.768   6.896   2.688 -2.0663 -1.7223  1.5214
15805SOL     OW48855   6.130   5.281   2.988 -0.5202 -0.1658  0.1157
15805SOL    HW148856   6.199   5.254   3.049 -0.6086 -0.9213 -0.1110
15805SOL    HW248857   6.049   5.251   3.028 -0.6168 -0.2884 -0.1692
15806SOL     OW48858   4.219   5.838   2.023  0.0830 -0.1568 -0.1184
15806SOL    HW148859   4.293   5.797   1.977 -0.2691  0.1084 -0.9398
15806SOL    HW248860   4.223   5.930   1.997  0.2674  0.1403  0.9187
15807SOL     OW48861   4.529   6.973   3.017  0.1469  0.2274  0.0176
15807SOL    HW148862   4.447   6.962   3.064  0.3655 -1.7374  0.0362
15807SOL    HW248863   4.503   6.997   2.928 -0.4943 -0.6203 -0.0448
15808SOL     OW48864   6.170   6.132   3.838 -0.4949  0.1253 -0.1040
15808SOL    HW148865   6.113   6.140   3.914 -0.1489 -0.1449  0.1815
15808SOL    HW248866   6.227   6.209   3.842 -0.2699 -0.0522  0.0789
15809SOL     OW48867   4.676   7.295   1.136  0.2543 -0.0057  0.0795
15809SOL    HW148868   4.721   7.366   1.181  1.9529 -0.8414 -0.2277
15809SOL    HW248869   4.593   7.286   1.183  0.6823  1.1408  1.0999
15810SOL     OW48870   4.257   6.702   1.177  0.0560 -0.1529 -0.2140
15810SOL    HW148871   4.345   6.736   1.190  0.1977 -0.4685 -0.3423
15810SOL    HW248872   4.230   6.737   1.092  1.1114 -2.2400 -1.4830
15811SOL     OW48873   5.221   6.445   3.284  0.1388  0.3451  0.0029
15811SOL    HW148874   5.220   6.527   3.234 -1.1781  0.1293 -0.3493
15811SOL    HW248875   5.131   6.434   3.315  0.6727 -0.1260  1.4541
15812SOL     OW48876   5.151   7.651   1.702 -0.6679 -0.1810  0.5861
15812SOL    HW148877   5.240   7.686   1.708 -0.6726 -0.3214  1.7487
15812SOL    HW248878   5.125   7.665   1.611 -0.6363  2.8008  0.9445
15813SOL     OW48879   6.318   7.055   2.901  0.3856 -0.5908 -0.6596
15813SOL    HW148880   6.317   7.150   2.902 -0.4102 -0.5536 -2.1295
15813SOL    HW248881   6.336   7.032   2.810 -1.7348 -1.8297 -0.8363
15814SOL     OW48882   4.632   6.435   3.550 -0.2599 -0.0556 -0.5535
15814SOL    HW148883   4.645   6.519   3.506 -0.7496 -0.4569 -1.4902
15814SOL    HW248884   4.692   6.437   3.624  0.1301  0.8961 -0.8827
15815SOL     OW48885   7.166   6.858   2.377 -0.1411  0.2821  0.1022
15815SOL    HW148886   7.239   6.852   2.439 -0.0610  1.1174  0.0919
15815SOL    HW248887   7.192   6.926   2.316 -0.9022  0.5341  0.0523
15816SOL     OW48888   4.837   0.377   4.083  0.2428  0.0136  0.4623
15816SOL    HW148889   4.832   0.449   4.146  0.7127  0.2155  0.2711
15816SOL    HW248890   4.930   0.368   4.064  0.2574 -1.0480  0.9409
15817SOL     OW48891   5.243   6.253   4.099 -0.0129 -0.2873 -0.0551
15817SOL    HW148892   5.286   6.258   4.185  1.2642  0.0554 -0.6926
15817SOL    HW248893   5.162   6.303   4.110  0.6177  0.5975  0.6678
15818SOL     OW48894   5.100   5.580   3.690  0.3392  0.3547 -0.2709
15818SOL    HW148895   5.185   5.623   3.685 -0.0040  1.0532 -0.1413
15818SOL    HW248896   5.046   5.625   3.625 -0.4921  1.2159  0.9683
15819SOL     OW48897   5.805   0.280   4.312  0.0216 -0.3007 -0.0316
15819SOL    HW148898   5.711   0.284   4.292  0.1263  0.1368 -0.4583
15819SOL    HW248899   5.818   0.343   4.382  0.3242  1.1313 -1.3310
15820SOL     OW48900   5.840   7.850   1.815 -0.7754 -0.0328 -0.0255
15820SOL    HW148901   5.885   7.831   1.733 -0.5877  1.8546 -0.4236
15820SOL    HW248902   5.824   7.945   1.811 -1.9758 -0.1364  1.5148
15821SOL     OW48903   4.777   4.930   2.133  0.1058 -1.0160 -0.2823
15821SOL    HW148904   4.853   4.986   2.113 -0.7496  0.1519 -0.3482
15821SOL    HW248905   4.762   4.881   2.053 -1.3385  1.3175 -1.5408
15822SOL     OW48906   5.831   4.950   2.972 -0.0711  0.3173  0.1999
15822SOL    HW148907   5.813   4.957   2.878  0.9774 -0.7938 -0.0997
15822SOL    HW248908   5.864   5.037   2.996  3.2853 -0.3626 -1.3154
15823SOL     OW48909   4.132   7.691   1.344  0.1478  0.2646 -0.1453
15823SOL    HW148910   4.103   7.771   1.300 -0.3834  0.3417  0.3298
15823SOL    HW248911   4.063   7.627   1.325 -0.2497  0.3925  0.8364
15824SOL     OW48912   3.451   6.241   2.361  0.3805  0.0937 -0.0699
15824SOL    HW148913   3.356   6.240   2.358  0.3289 -0.3499  1.1865
15824SOL    HW248914   3.477   6.289   2.283 -0.8715  0.3143 -0.3694
15825SOL     OW48915   5.335   6.127   3.863  0.2188 -0.3099  0.0919
15825SOL    HW148916   5.268   6.062   3.840 -0.8139  0.8036 -0.1590
15825SOL    HW248917   5.302   6.169   3.942  0.6768  0.1930  0.0208
15826SOL     OW48918   5.219   7.430   1.446  0.0200  0.1742 -0.5691
15826SOL    HW148919   5.164   7.508   1.445 -0.5055 -0.1564  0.5111
15826SOL    HW248920   5.238   7.416   1.539  0.9939 -0.3680 -0.8391
15827SOL     OW48921   4.656   5.572   1.713  0.0001  0.1813  0.5229
15827SOL    HW148922   4.620   5.644   1.662 -0.4080 -0.9239 -0.8127
15827SOL    HW248923   4.656   5.604   1.803 -2.6508  0.8952  0.3481
15828SOL     OW48924   3.640   6.819   3.042 -0.0415  0.2289 -0.5454
15828SOL    HW148925   3.637   6.793   3.134 -1.6230  1.7657 -0.0992
15828SOL    HW248926   3.670   6.741   2.995  0.5820 -0.6383  1.2374
15829SOL     OW48927   3.665   7.019   3.424  0.5816 -0.1560 -0.2345
15829SOL    HW148928   3.593   6.961   3.445  2.3289 -1.5334  2.4683
15829SOL    HW248929   3.660   7.089   3.489  0.0261  1.3875 -1.8607
15830SOL     OW48930   4.486   3.989   2.364  0.3715  0.1183 -0.0441
15830SOL    HW148931   4.542   3.994   2.286 -1.0453 -1.6780 -1.2538
15830SOL    HW248932   4.521   3.915   2.413 -0.6754 -0.7876 -0.6284
15831SOL     OW48933   3.464   5.588   4.646  0.1612 -0.1094 -0.1452
15831SOL    HW148934   3.495   5.668   4.688 -0.1639 -0.6002  1.0447
15831SOL    HW248935   3.543   5.549   4.608  0.5417  0.0684  0.4632
15832SOL     OW48936   4.959   6.366   1.648  0.2784  0.0069  0.0499
15832SOL    HW148937   5.003   6.404   1.572  1.7221  0.2282  0.9478
15832SOL    HW248938   5.028   6.356   1.713 -1.1089  1.0484  1.8096
15833SOL     OW48939   3.164   3.319   2.909  0.1504 -0.0353 -0.2669
15833SOL    HW148940   3.135   3.237   2.869 -0.5988 -0.6573  1.4748
15833SOL    HW248941   3.238   3.293   2.964  0.6088  0.6641 -0.5396
15834SOL     OW48942   6.240   6.619   2.566  0.4709  0.7169  0.7183
15834SOL    HW148943   6.223   6.705   2.527  0.8376  0.8374  0.8180
15834SOL    HW248944   6.292   6.573   2.500 -1.1890 -0.0785 -0.0900
15835SOL     OW48945   3.974   4.971   3.380  0.2769  0.2221  0.0688
15835SOL    HW148946   3.927   4.978   3.463  0.8229  2.4640  0.2519
15835SOL    HW248947   4.063   4.947   3.404  0.0575 -0.6838 -0.0067
15836SOL     OW48948   4.940   7.117   3.374 -0.4319 -0.0029  0.0244
15836SOL    HW148949   4.969   7.163   3.295 -0.7809  0.6324  0.2587
15836SOL    HW248950   4.972   7.028   3.362 -0.4434  0.0938 -0.8165
15837SOL     OW48951   4.131   4.963   2.331  0.3023  0.0598  0.1712
15837SOL    HW148952   4.205   4.908   2.356  0.4817  0.6514  0.9688
15837SOL    HW248953   4.080   4.973   2.411  0.0756  0.7542 -0.0543
15838SOL     OW48954   4.346   5.689   2.942 -0.5222 -0.3193 -0.3140
15838SOL    HW148955   4.347   5.730   3.029 -2.4812  0.9636 -0.8396
15838SOL    HW248956   4.426   5.720   2.900 -0.0592 -0.1504  0.6753
15839SOL     OW48957   1.508   6.811   1.920  0.0687  0.5554  0.2898
15839SOL    HW148958   1.577   6.745   1.924 -0.8503 -0.4343  0.4033
15839SOL    HW248959   1.508   6.852   2.006 -0.7324 -0.7818  0.9650
15840SOL     OW48960   4.421   5.957   1.619 -0.0150 -0.2221 -0.4933
15840SOL    HW148961   4.469   6.011   1.555 -1.0197  0.9175 -0.3189
15840SOL    HW248962   4.393   6.019   1.686 -0.9178 -1.0292 -0.1136
15841SOL     OW48963   4.912   6.688   0.877 -0.3376 -0.2497  0.6966
15841SOL    HW148964   4.915   6.773   0.920 -3.0698 -0.8016  2.2486
15841SOL    HW248965   4.962   6.630   0.935 -0.7319 -0.2191  1.0703
15842SOL     OW48966   2.869   6.151   2.937  0.1771 -0.1822  0.1661
15842SOL    HW148967   2.820   6.092   2.879 -1.6548  1.5070 -0.1016
15842SOL    HW248968   2.817   6.153   3.018  0.4956  0.6370  0.3587
15843SOL     OW48969   6.545   7.645   3.494  0.0132 -0.1901 -0.1816
15843SOL    HW148970   6.608   7.657   3.423  1.3944 -1.0013  0.8508
15843SOL    HW248971   6.497   7.565   3.469  2.1981 -1.9571  0.9100
15844SOL     OW48972   3.810   5.669   1.854  0.0260  0.0160  0.0987
15844SOL    HW148973   3.893   5.689   1.898  0.1734 -0.2158 -0.0699
15844SOL    HW248974   3.759   5.622   1.920 -0.4696  1.2348  0.6237
15845SOL     OW48975   6.250   5.025   3.358 -0.3664  0.1588  0.1041
15845SOL    HW148976   6.160   5.059   3.367  0.6269  2.4604  3.1874
15845SOL    HW248977   6.288   5.078   3.289 -0.3974  1.8233  1.2931
15846SOL     OW48978   3.300   6.929   1.237  0.4999 -0.1026 -0.5148
15846SOL    HW148979   3.229   6.979   1.196  0.8311 -0.5509 -1.6641
15846SOL    HW248980   3.303   6.847   1.189  1.9041 -0.0316 -0.5819
15847SOL     OW48981   4.599   7.924   2.739 -0.1917  0.2506 -0.2881
15847SOL    HW148982   4.540   7.892   2.671 -1.1671  1.7583 -0.1846
15847SOL    HW248983   4.617   8.015   2.715  1.8893 -0.0655 -0.1567
15848SOL     OW48984   5.444   4.243   2.960  0.7765  0.5810  0.1961
15848SOL    HW148985   5.396   4.190   2.897  1.0383 -1.6451  1.7602
15848SOL    HW248986   5.534   4.245   2.926  0.5182  1.0341 -0.4730
15849SOL     OW48987   3.166   6.221   2.357 -0.2083 -0.0882  0.2361
15849SOL    HW148988   3.079   6.262   2.362  0.2915  0.9486  0.6586
15849SOL    HW248989   3.153   6.134   2.394 -1.0172  0.1538  0.5532
15850SOL     OW48990   4.726   5.804   3.721 -0.3225  0.1379  0.2849
15850SOL    HW148991   4.683   5.729   3.761 -0.5650 -0.0251 -0.2749
15850SOL    HW248992   4.685   5.813   3.634  0.6181  0.0992 -0.1766
15851SOL     OW48993   6.092   4.782   2.374  0.3147 -0.0522  0.1863
15851SOL    HW148994   6.182   4.790   2.344  0.3901  0.3932  0.5161
15851SOL    HW248995   6.060   4.701   2.335  0.6712  0.0921 -0.4069
15852SOL     OW48996   4.093   6.079   1.192 -0.5405 -0.2323  0.1780
15852SOL    HW148997   4.024   6.071   1.258 -0.4684  1.0755  0.4503
15852SOL    HW248998   4.170   6.041   1.234 -0.4060  0.9145  1.0202
15853SOL     OW48999   4.910   6.196   3.481 -0.0854  0.5161 -0.2200
15853SOL    HW149000   4.988   6.146   3.507 -0.9698 -0.4967  0.5888
15853SOL    HW249001   4.840   6.160   3.535 -1.0023  1.8274 -0.5060
15854SOL     OW49002   4.056   0.783   1.744  0.6819 -0.5741 -0.0614
15854SOL    HW149003   4.021   0.785   1.655 -1.1519  1.2161  0.6175
15854SOL    HW249004   4.150   0.800   1.734  0.2962  0.8598 -1.5949
15855SOL     OW49005   4.326   5.749   1.483  0.4485  0.3006  0.2206
15855SOL    HW149006   4.351   5.820   1.542 -0.2530 -0.0477  0.9556
15855SOL    HW249007   4.256   5.704   1.528  1.9455 -1.8805  0.5340
15856SOL     OW49008   3.091   5.722   3.025 -0.4712 -0.0296 -0.1534
15856SOL    HW149009   3.087   5.783   3.099  0.5778  0.4567 -0.4796
15856SOL    HW249010   3.183   5.701   3.017 -0.2809  1.3535 -2.4464
15857SOL     OW49011   4.743   7.078   1.672  0.1995  0.7345 -0.6609
15857SOL    HW149012   4.690   7.045   1.599  1.7403  0.9101 -1.9164
15857SOL    HW249013   4.782   6.999   1.710 -0.8755  0.6083  0.2437
15858SOL     OW49014   4.119   7.018   4.184 -0.1102 -0.5179 -0.3786
15858SOL    HW149015   4.173   7.096   4.200  2.5799 -2.4319  0.5104
15858SOL    HW249016   4.160   6.949   4.236 -3.1617 -2.2788 -0.1013
15859SOL     OW49017   5.230   7.155   1.259  0.2787  0.3045  0.0681
15859SOL    HW149018   5.176   7.104   1.320 -3.0411  3.9211  0.5523
15859SOL    HW249019   5.268   7.225   1.312  1.6345  0.5351 -1.1546
15860SOL     OW49020   6.230   5.975   4.127 -0.0315  0.2070 -0.1986
15860SOL    HW149021   6.153   5.917   4.124  0.0114  0.2013 -1.3924
15860SOL    HW249022   6.197   6.056   4.167 -0.6506  0.1962 -0.6778
15861SOL     OW49023   3.520   6.143   4.007  0.0262  0.4658  0.0534
15861SOL    HW149024   3.493   6.105   3.923 -0.1572 -0.8524  0.6714
15861SOL    HW249025   3.513   6.070   4.069  0.2882  1.3785  1.1900
15862SOL     OW49026   5.026   4.798   3.817  0.6498  0.5376 -0.1933
15862SOL    HW149027   4.983   4.851   3.884  1.3458  0.7129  0.1219
15862SOL    HW249028   5.093   4.855   3.781 -0.6310  0.9576 -2.0616
15863SOL     OW49029   3.801   7.561   1.616  0.4270  0.1086  0.0913
15863SOL    HW149030   3.809   7.521   1.702  0.1869  0.0123  0.0674
15863SOL    HW249031   3.882   7.538   1.571  0.2408 -0.4406  0.0364
15864SOL     OW49032   4.015   6.669   1.746  0.0618  0.2617  0.0108
15864SOL    HW149033   4.060   6.595   1.787 -0.8432 -0.4023 -0.1814
15864SOL    HW249034   4.031   6.658   1.653 -1.1930 -0.4809 -0.1462
15865SOL     OW49035   5.584   7.627   1.586  0.1556  0.1856 -0.2226
15865SOL    HW149036   5.596   7.656   1.495 -0.1290 -0.0019 -0.3225
15865SOL    HW249037   5.548   7.704   1.631 -1.3867 -0.2450 -0.6740
15866SOL     OW49038   5.596   6.561   1.193 -0.4427  0.5172  0.0492
15866SOL    HW149039   5.613   6.627   1.261 -0.5521 -1.5089  2.1918
15866SOL    HW249040   5.665   6.496   1.206 -1.1330 -0.4762 -1.0585
15867SOL     OW49041   3.941   6.092   0.952 -0.5336  0.5827  0.5878
15867SOL    HW149042   3.997   6.106   1.029 -1.1648  0.9142  0.9946
15867SOL    HW249043   3.869   6.038   0.984 -0.1428 -0.3399 -0.0744
15868SOL     OW49044   6.643   6.771   3.172  0.3013  0.5070  0.1028
15868SOL    HW149045   6.668   6.844   3.228 -1.3065 -0.5031  2.2602
15868SOL    HW249046   6.671   6.798   3.084 -0.0672  3.6161  0.8164
15869SOL     OW49047   5.516   7.266   3.626  0.9482  0.3443 -0.2198
15869SOL    HW149048   5.550   7.208   3.558  0.5291 -1.2167  0.8503
15869SOL    HW249049   5.436   7.303   3.590 -0.1469 -1.7267 -0.0079
15870SOL     OW49050   3.618   6.238   2.699 -0.2235  0.2094 -0.4451
15870SOL    HW149051   3.578   6.310   2.748  1.5059  0.6042  0.4997
15870SOL    HW249052   3.630   6.169   2.764  1.8846  0.6482 -0.2934
15871SOL     OW49053   5.391   0.261   2.688  0.6093  0.5419  0.3606
15871SOL    HW149054   5.437   0.345   2.694 -0.3163  1.0159  1.3016
15871SOL    HW249055   5.303   0.281   2.719 -0.7016 -0.0174 -2.6673
15872SOL     OW49056   4.385   5.225   2.779  0.9195  0.0661 -0.0500
15872SOL    HW149057   4.369   5.295   2.715 -1.4250 -0.1518  0.2083
15872SOL    HW249058   4.478   5.231   2.798  0.9699  2.5118 -0.7502
15873SOL     OW49059   6.206   6.157   2.806 -0.6107  0.4119  0.4234
15873SOL    HW149060   6.246   6.074   2.782 -0.6248  0.3922  0.4688
15873SOL    HW249061   6.113   6.137   2.818 -0.9467  0.7552 -1.2448
15874SOL     OW49062   2.519   5.767   2.057 -0.1487  0.0715  0.0972
15874SOL    HW149063   2.567   5.772   2.139 -2.9229  0.6538  1.8036
15874SOL    HW249064   2.497   5.857   2.036 -1.2198 -0.2331 -0.1520
15875SOL     OW49065   4.199   5.650   1.776  0.2103 -0.6473 -0.1132
15875SOL    HW149066   4.277   5.705   1.791 -0.6468  0.9991 -1.3865
15875SOL    HW249067   4.156   5.647   1.862 -0.0601  1.3125 -0.1177
15876SOL     OW49068   4.348   6.210   4.832 -0.4208 -0.3673 -0.5165
15876SOL    HW149069   4.416   6.196   4.766 -0.8240 -0.8330 -0.8352
15876SOL    HW249070   4.267   6.183   4.790 -0.5854 -1.4048  0.4130
15877SOL     OW49071   2.798   0.612   2.204  0.2716  0.5151  0.4349
15877SOL    HW149072   2.833   0.614   2.293  2.1153 -0.2626 -0.2422
15877SOL    HW249073   2.845   0.682   2.158 -0.2109  0.5023 -0.0934
15878SOL     OW49074   5.985   6.502   2.487  0.2953  0.4116 -0.8226
15878SOL    HW149075   5.944   6.481   2.571  0.2890 -2.3858 -1.4360
15878SOL    HW249076   6.065   6.549   2.510 -0.2508  0.6618  0.6700
15879SOL     OW49077   6.171   4.840   2.965  0.3515 -0.2390  0.1602
15879SOL    HW149078   6.153   4.766   3.023  1.1126 -0.2589  0.3705
15879SOL    HW249079   6.087   4.855   2.920  0.1655 -1.1672  0.1746
15880SOL     OW49080   3.440   7.753   0.599  0.0546 -0.6681  0.0877
15880SOL    HW149081   3.491   7.833   0.584  0.7434 -1.0810  0.2054
15880SOL    HW249082   3.366   7.781   0.653 -0.5006  0.1654 -1.0498
15881SOL     OW49083   4.846   7.569   2.052 -0.0650  0.1099  0.1334
15881SOL    HW149084   4.858   7.649   2.103  0.4693  0.1132  0.0119
15881SOL    HW249085   4.935   7.539   2.033 -0.2586 -0.5131  0.1750
15882SOL     OW49086   5.045   5.901   2.409 -0.0540  0.8372  0.3691
15882SOL    HW149087   5.101   5.871   2.337  2.1574  1.9853  1.5220
15882SOL    HW249088   5.039   5.996   2.396 -0.0058  0.9909  1.4411
15883SOL     OW49089   2.995   6.853   2.380 -0.4168 -0.8126  0.1347
15883SOL    HW149090   3.090   6.849   2.392 -0.1440  0.2286 -1.3671
15883SOL    HW249091   2.972   6.945   2.399 -0.7905 -0.5506 -1.4296
15884SOL     OW49092   6.303   7.329   2.320 -0.4637  0.8155  0.3799
15884SOL    HW149093   6.355   7.277   2.381 -2.3630 -0.8834  0.6482
15884SOL    HW249094   6.288   7.411   2.366  0.2994  0.5604  1.1127
15885SOL     OW49095   3.267   5.890   1.847 -0.5544  0.4288  0.0456
15885SOL    HW149096   3.282   5.799   1.822  1.0167  0.4534  0.8211
15885SOL    HW249097   3.190   5.887   1.903 -0.8997 -0.3244 -0.4491
15886SOL     OW49098   5.277   5.485   2.234  0.8109 -0.5832 -0.3385
15886SOL    HW149099   5.205   5.455   2.178 -0.6806  0.2036  1.0612
15886SOL    HW249100   5.270   5.429   2.312  1.6124 -0.3733 -0.1143
15887SOL     OW49101   2.616   7.157   1.459 -0.3322 -0.2314 -0.3848
15887SOL    HW149102   2.525   7.180   1.441  0.0639  0.8606 -1.0620
15887SOL    HW249103   2.631   7.186   1.549 -0.8648 -1.1311  0.0082
15888SOL     OW49104   4.550   6.992   2.452 -0.2414  0.3353 -0.4290
15888SOL    HW149105   4.600   6.955   2.524 -1.7970 -2.4615 -0.6375
15888SOL    HW249106   4.611   7.052   2.409  1.1881  1.0070  2.2898
15889SOL     OW49107   4.458   0.166   3.840 -0.5374 -0.3089  0.6318
15889SOL    HW149108   4.478   0.205   3.925  1.1310  0.8150 -0.2201
15889SOL    HW249109   4.387   0.219   3.805 -0.2298  0.1494  0.7039
15890SOL     OW49110   5.525   4.918   5.290 -0.3502 -0.0044 -0.7352
15890SOL    HW149111   5.556   4.868   5.214 -1.2949 -1.2000 -0.3756
15890SOL    HW249112   5.431   4.927   5.276 -0.8704 -1.7873  1.0776
15891SOL     OW49113   4.491   7.448   2.884  0.1606 -0.0455  0.1384
15891SOL    HW149114   4.583   7.467   2.870  0.2872 -0.2771  0.6470
15891SOL    HW249115   4.456   7.526   2.928 -0.6534  1.4859 -2.9473
15892SOL     OW49116   5.475   5.740   3.810 -0.2371  0.0991 -0.0981
15892SOL    HW149117   5.536   5.735   3.884 -1.1483 -0.7752  0.6238
15892SOL    HW249118   5.392   5.708   3.845 -0.4230 -1.4169 -1.7849
15893SOL     OW49119   3.604   6.188   0.378  0.3442 -0.0805  0.2617
15893SOL    HW149120   3.572   6.263   0.427  0.2412 -0.5658  0.9583
15893SOL    HW249121   3.593   6.114   0.438  0.5312 -0.6344 -0.3748
15894SOL     OW49122   5.433   6.486   1.715  0.1489  0.2188  0.1592
15894SOL    HW149123   5.526   6.464   1.723  0.0756  0.0624  0.6523
15894SOL    HW249124   5.418   6.552   1.783 -0.4071 -0.8093  1.0831
15895SOL     OW49125   2.363   7.370   2.264 -0.0138 -0.6926  0.2244
15895SOL    HW149126   2.332   7.460   2.250  1.3053  0.0111  1.5322
15895SOL    HW249127   2.300   7.331   2.324 -0.6654 -0.7007 -0.4538
15896SOL     OW49128   5.275   7.260   1.998  0.2591 -0.1624  0.1051
15896SOL    HW149129   5.281   7.173   1.958  1.2157 -0.1385  0.1779
15896SOL    HW249130   5.347   7.262   2.061  0.7786  0.9983 -0.5081
15897SOL     OW49131   4.365   4.194   1.480  0.0919 -0.2277  0.0557
15897SOL    HW149132   4.433   4.176   1.545 -1.2697 -0.6319  1.4328
15897SOL    HW249133   4.379   4.129   1.412  0.5846 -0.8578  0.7365
15898SOL     OW49134   5.388   6.937   2.621 -0.3963 -0.9760  0.2262
15898SOL    HW149135   5.481   6.915   2.627 -0.7055 -2.0516  1.5633
15898SOL    HW249136   5.356   6.887   2.547  0.8766  2.6746 -3.1776
15899SOL     OW49137   4.869   5.702   2.336 -0.6011 -0.6096 -0.0381
15899SOL    HW149138   4.795   5.761   2.330 -0.9664 -1.1427 -1.1694
15899SOL    HW249139   4.943   5.757   2.360 -0.7881  0.4627 -1.7255
15900SOL     OW49140   4.644   7.888   3.746 -0.0298  0.3539  0.3048
15900SOL    HW149141   4.618   7.863   3.657 -1.3208  2.1526  0.1347
15900SOL    HW249142   4.584   7.839   3.803  0.1365 -0.0254  0.1597
15901SOL     OW49143   3.296   6.537   2.347 -0.5307 -0.0145  0.2039
15901SOL    HW149144   3.203   6.553   2.361 -0.4572 -1.4423  2.9992
15901SOL    HW249145   3.329   6.510   2.432  2.3789  0.0030 -0.8089
15902SOL     OW49146   5.338   7.842   3.194  0.1468  0.4014 -0.0633
15902SOL    HW149147   5.421   7.825   3.151 -1.2688 -0.4635 -2.6981
15902SOL    HW249148   5.349   7.807   3.283  2.6380  0.5982 -0.2461
15903SOL     OW49149   5.660   6.023   2.343 -0.1127  0.0930 -0.5334
15903SOL    HW149150   5.640   6.102   2.393 -2.1985  0.1277 -1.3410
15903SOL    HW249151   5.642   5.951   2.403  0.6506  0.1938 -0.1744
15904SOL     OW49152   3.690   6.092   2.923 -0.1449 -1.5736  0.0395
15904SOL    HW149153   3.782   6.105   2.946  0.5108 -2.4387 -1.8944
15904SOL    HW249154   3.642   6.146   2.986  1.6730 -1.0626  1.0646
15905SOL     OW49155   4.650   5.900   2.389 -0.6860 -0.1861  0.0647
15905SOL    HW149156   4.686   5.975   2.341 -0.2896 -0.8231 -0.6677
15905SOL    HW249157   4.668   5.920   2.481 -0.2094  0.4197 -0.1455
15906SOL     OW49158   4.526   7.907   3.011 -0.2421 -0.1779  0.5913
15906SOL    HW149159   4.434   7.933   3.020 -0.1303  0.6972 -0.5596
15906SOL    HW249160   4.533   7.877   2.920  0.3097 -1.5644  1.0666
15907SOL     OW49161   4.669   6.989   2.010 -0.5726 -0.0779  0.1186
15907SOL    HW149162   4.725   6.951   1.942 -0.6242  0.1968 -0.0792
15907SOL    HW249163   4.728   7.004   2.084 -0.3435  0.3907 -0.1562
15908SOL     OW49164   4.507   6.216   3.621 -0.1774  0.4886 -0.3475
15908SOL    HW149165   4.561   6.291   3.598  1.1490 -0.2341  0.3159
15908SOL    HW249166   4.463   6.242   3.702  1.1936  0.1352  0.5328
15909SOL     OW49167   3.290   0.037   2.339  0.2693 -0.0478  0.2033
15909SOL    HW149168   3.237  -0.027   2.388  1.8392 -0.7357  1.0802
15909SOL    HW249169   3.279   0.012   2.247  1.1906 -1.9147  0.5464
15910SOL     OW49170   5.395   7.654   2.824 -0.0702  0.8585  0.1435
15910SOL    HW149171   5.414   7.726   2.884  3.8506  0.6276 -0.5403
15910SOL    HW249172   5.440   7.579   2.862  0.7949  0.2195 -1.9718
15911SOL     OW49173   6.598   6.180   3.078  0.4865 -0.2861  0.4455
15911SOL    HW149174   6.580   6.168   2.984 -0.7542 -1.5327  0.8153
15911SOL    HW249175   6.594   6.092   3.114 -1.2577  0.4029  2.0500
15912SOL     OW49176   2.896   6.634   4.531 -0.0384 -0.0900 -0.6963
15912SOL    HW149177   2.907   6.539   4.536 -0.8621 -0.1861 -0.5833
15912SOL    HW249178   2.883   6.651   4.438 -1.1078 -0.2412 -0.5868
15913SOL     OW49179   5.181   5.763   2.201  0.2638  0.2381 -0.4211
15913SOL    HW149180   5.212   5.674   2.214 -1.1164 -0.3098 -0.7627
15913SOL    HW249181   5.134   5.761   2.118 -0.9040  0.9677  0.1957
15914SOL     OW49182   2.421   7.666   2.465  0.0673  0.0886  0.7752
15914SOL    HW149183   2.378   7.608   2.529  0.9505 -0.7376  0.6410
15914SOL    HW249184   2.378   7.645   2.382  0.6733 -0.7000  0.6502
15915SOL     OW49185   5.462   5.147   2.190  0.4009  0.6791 -0.6461
15915SOL    HW149186   5.522   5.180   2.257  0.6772  0.4250 -0.7688
15915SOL    HW249187   5.517   5.097   2.130 -0.2673 -1.9036  0.7167
15916SOL     OW49188   5.401   4.708   2.222  0.0555  0.4163 -0.2546
15916SOL    HW149189   5.479   4.719   2.169 -1.2325  1.7652 -2.0051
15916SOL    HW249190   5.337   4.668   2.164  0.0147 -2.8011  1.7831
15917SOL     OW49191   5.203   0.055   3.276 -0.3264  0.2309  0.5119
15917SOL    HW149192   5.239  -0.024   3.235 -1.1374 -0.3828  0.9672
15917SOL    HW249193   5.266   0.124   3.253  0.2616 -0.4889 -0.1007
15918SOL     OW49194   5.479   6.080   3.149 -0.5843 -0.0386  0.2869
15918SOL    HW149195   5.513   6.130   3.224  1.0199 -0.5319 -0.0641
15918SOL    HW249196   5.384   6.085   3.158 -0.4386  0.5791  1.9129
15919SOL     OW49197   5.671   7.119   2.471  0.6128  0.4723 -0.0618
15919SOL    HW149198   5.765   7.119   2.451  0.4278 -0.6889 -1.0447
15919SOL    HW249199   5.659   7.048   2.534  0.3682  0.5438 -0.0245
15920SOL     OW49200   4.678   6.612   2.461  0.1712  0.1431 -0.1156
15920SOL    HW149201   4.754   6.657   2.499 -0.7444  0.5057  1.4033
15920SOL    HW249202   4.694   6.519   2.478  0.1860  0.2378  0.4262
15921SOL     OW49203   5.586   6.048   3.383 -0.4712  0.7616  0.1191
15921SOL    HW149204   5.610   6.030   3.474 -0.0700 -0.8044 -0.2480
15921SOL    HW249205   5.536   5.971   3.356  0.9144  0.3545 -1.4814
15922SOL     OW49206   3.948   7.244   1.085  0.0492 -0.4103 -0.1319
15922SOL    HW149207   3.868   7.292   1.106 -0.1230  0.1741 -1.9397
15922SOL    HW249208   3.996   7.302   1.026  2.9683  0.2505  2.6568
15923SOL     OW49209   3.891   6.024   2.619  0.1157 -0.1717  0.5202
15923SOL    HW149210   3.859   5.952   2.674 -0.1442  0.2874  0.9768
15923SOL    HW249211   3.812   6.056   2.574  0.3233 -0.5345 -0.1233
15924SOL     OW49212   4.948   6.820   2.752  0.0929  0.0388 -0.0586
15924SOL    HW149213   5.023   6.801   2.809  0.1048 -1.4945 -0.5543
15924SOL    HW249214   4.986   6.866   2.677  0.2549  0.9154  0.5375
15925SOL     OW49215   3.899   5.404   3.944 -0.2740 -0.3112 -0.4491
15925SOL    HW149216   3.836   5.475   3.947 -3.5043 -2.9402 -0.6967
15925SOL    HW249217   3.914   5.382   4.036 -0.0399  0.0261 -0.4043
15926SOL     OW49218   4.408   4.974   2.989  0.2685 -0.5131  0.4975
15926SOL    HW149219   4.365   4.889   2.991  1.2529 -1.0014  0.9068
15926SOL    HW249220   4.356   5.028   3.049 -0.7106 -0.6376 -0.2161
15927SOL     OW49221   3.935   7.430   2.163  0.0704  0.1764  0.3485
15927SOL    HW149222   3.904   7.434   2.253 -0.1048  0.2260  0.2866
15927SOL    HW249223   3.855   7.416   2.111 -0.0141  1.5929  0.0693
15928SOL     OW49224   4.873   6.619   1.897  0.1805  0.2788 -0.2502
15928SOL    HW149225   4.822   6.590   1.973 -0.3587  0.1511 -0.6584
15928SOL    HW249226   4.894   6.538   1.850 -1.2329  0.5224 -1.3341
15929SOL     OW49227   3.532   5.832   2.545 -0.5647  0.2267 -0.4699
15929SOL    HW149228   3.479   5.912   2.546 -0.0212  0.5965 -0.0532
15929SOL    HW249229   3.611   5.857   2.496  0.0604  0.2691  0.5150
15930SOL     OW49230   2.670   6.252   4.567  0.1309  0.4998  0.6746
15930SOL    HW149231   2.702   6.162   4.576 -0.5227  0.3089  1.1760
15930SOL    HW249232   2.749   6.305   4.557  0.6105  0.0171  1.7416
15931SOL     OW49233   4.400   5.636   4.897  0.2249 -0.3815 -0.1763
15931SOL    HW149234   4.386   5.582   4.819  0.1360 -1.2980  0.4600
15931SOL    HW249235   4.371   5.582   4.970  0.4895  0.3864  0.5199
15932SOL     OW49236   4.882   6.098   6.134  0.0880 -0.4198  0.3749
15932SOL    HW149237   4.969   6.130   6.112  0.0864  0.1800  1.1863
15932SOL    HW249238   4.834   6.097   6.051  1.3370 -2.3616 -0.4072
15933SOL     OW49239   5.391   7.824   3.454  0.2429  0.0218 -0.3572
15933SOL    HW149240   5.309   7.829   3.502  0.4975 -0.8505  0.1869
15933SOL    HW249241   5.457   7.802   3.520  0.6503 -0.8824 -1.0367
15934SOL     OW49242   5.047   6.913   3.574 -0.1301 -0.5259  0.7920
15934SOL    HW149243   4.953   6.910   3.591 -0.5154 -0.6671 -1.1321
15934SOL    HW249244   5.068   6.826   3.540  0.3362  0.0122 -0.3471
15935SOL     OW49245   4.496   7.016   4.501 -0.3574 -0.5139  0.3206
15935SOL    HW149246   4.453   7.040   4.419 -0.9547 -2.0597  0.1472
15935SOL    HW249247   4.530   7.098   4.535 -1.7562  0.4599 -0.5194
15936SOL     OW49248   5.041   0.010   3.802  0.8328 -0.2690 -0.6786
15936SOL    HW149249   5.012   0.029   3.713  0.1835  1.3919 -0.1384
15936SOL    HW249250   4.960  -0.010   3.850  0.6791  2.4167  0.3564
15937SOL     OW49251   6.021   5.923   5.074 -0.5079 -0.2396 -0.0309
15937SOL    HW149252   5.984   5.994   5.023 -2.3450 -1.3091 -0.2601
15937SOL    HW249253   5.948   5.889   5.126  0.5736 -1.2506  0.9105
15938SOL     OW49254   3.411   7.676   4.097 -0.1781 -0.1151 -0.1124
15938SOL    HW149255   3.504   7.673   4.120  0.0073 -2.4751 -0.9206
15938SOL    HW249256   3.410   7.691   4.003 -0.6031 -0.5386 -0.1777
15939SOL     OW49257   3.857   0.649   4.872 -0.3385  0.3891 -0.4734
15939SOL    HW149258   3.882   0.557   4.884 -0.1834  0.2703 -1.5311
15939SOL    HW249259   3.761   0.647   4.870 -0.3311  0.1600 -1.0041
15940SOL     OW49260   3.682   7.462   5.598  0.0931  0.4913 -0.3418
15940SOL    HW149261   3.595   7.473   5.638 -0.7581  1.0895 -2.2538
15940SOL    HW249262   3.741   7.510   5.657 -0.9750  0.7335  0.5794
15941SOL     OW49263   3.569   7.252   6.274 -0.0334  0.5771 -0.1232
15941SOL    HW149264   3.510   7.224   6.344 -0.3057  0.9234 -0.2148
15941SOL    HW249265   3.643   7.292   6.319  0.4298 -0.3947  0.0186
15942SOL     OW49266   3.143   7.037   6.628 -0.3388 -0.2402  0.2495
15942SOL    HW149267   3.185   7.076   6.704  2.8369 -2.1878 -0.3170
15942SOL    HW249268   3.202   7.057   6.555 -1.9057 -0.6967 -1.2107
15943SOL     OW49269   5.097   7.525   3.545  0.0673 -0.2548  0.2128
15943SOL    HW149270   5.020   7.527   3.489  0.7912  0.5330 -0.7972
15943SOL    HW249271   5.070   7.474   3.622 -1.6829  0.6600  0.2557
15944SOL     OW49272   3.794   7.208   3.694  0.0593  0.3125 -0.1575
15944SOL    HW149273   3.865   7.152   3.725 -2.8100 -2.9534  1.2163
15944SOL    HW249274   3.778   7.269   3.766  1.2328  0.9223 -0.3882
15945SOL     OW49275   5.045   6.986   6.169 -0.1324  0.1500  0.2066
15945SOL    HW149276   5.115   7.045   6.140 -0.4154  0.2538 -0.2867
15945SOL    HW249277   5.046   6.915   6.105 -1.8548  1.2072 -1.0976
15946SOL     OW49278   3.836   7.368   3.287  0.1697  0.3526  0.6878
15946SOL    HW149279   3.799   7.442   3.239  0.3744  1.2470  1.8690
15946SOL    HW249280   3.885   7.319   3.221 -2.8611 -0.7660 -0.8890
15947SOL     OW49281   4.438   6.979   3.842 -0.7079  0.1778 -0.1756
15947SOL    HW149282   4.417   7.061   3.887 -1.1139  1.2875 -2.2447
15947SOL    HW249283   4.357   6.927   3.848 -1.7477  1.4627 -1.8866
15948SOL     OW49284   4.981   6.495   5.687 -0.2938 -0.2293 -0.2469
15948SOL    HW149285   4.950   6.581   5.660 -3.1114 -1.4773 -1.3669
15948SOL    HW249286   4.973   6.495   5.782  1.5142  1.3168 -0.0520
15949SOL     OW49287   3.671   6.136   3.646 -0.5958 -0.9756 -0.1954
15949SOL    HW149288   3.605   6.091   3.594 -1.3584 -1.2160  0.9456
15949SOL    HW249289   3.646   6.228   3.643 -1.2456 -1.1129  0.5645
15950SOL     OW49290   5.637   6.305   5.508  0.0715 -0.3334 -0.3476
15950SOL    HW149291   5.570   6.263   5.562  0.0828 -1.2855 -1.0261
15950SOL    HW249292   5.588   6.350   5.439  0.0406  1.1944  0.6344
15951SOL     OW49293   3.653   6.674   5.273 -0.2111  0.1721  0.1382
15951SOL    HW149294   3.603   6.603   5.234 -1.0639 -0.4638  2.2726
15951SOL    HW249295   3.592   6.748   5.276  0.2202  0.5813 -0.7467
15952SOL     OW49296   4.267   6.813   4.788 -0.7096  0.8003 -0.8567
15952SOL    HW149297   4.280   6.746   4.855 -0.5273  2.6531  1.0425
15952SOL    HW249298   4.335   6.795   4.723  0.2286 -0.0114  0.3058
15953SOL     OW49299   4.316   5.861   3.936  0.2264 -1.1163  0.6845
15953SOL    HW149300   4.315   5.956   3.932  1.0276 -1.0380  1.8097
15953SOL    HW249301   4.224   5.835   3.926 -0.1439 -0.1665  1.4817
15954SOL     OW49302   6.459   7.945   4.246  0.4756  0.0155 -0.0049
15954SOL    HW149303   6.439   7.965   4.337  1.1873  0.1010  0.1331
15954SOL    HW249304   6.387   7.984   4.196  0.1017 -0.0061  0.5145
15955SOL     OW49305   5.275   0.116   3.943 -0.1944  0.5975  0.3921
15955SOL    HW149306   5.314   0.175   3.878 -0.9644  1.1884  0.4614
15955SOL    HW249307   5.189   0.094   3.908  0.6144 -1.6860 -0.3566
15956SOL     OW49308   4.161   7.255   4.327  0.4467  0.8577 -0.6761
15956SOL    HW149309   4.079   7.272   4.282  0.5064 -1.2138 -1.6907
15956SOL    HW249310   4.138   7.192   4.396  1.1686  0.2818 -0.9533
15957SOL     OW49311   5.876   6.858   3.962  0.2711  0.3629  0.9345
15957SOL    HW149312   5.885   6.894   3.874 -0.2783  1.0089  1.1342
15957SOL    HW249313   5.796   6.805   3.958  0.3959  0.1746  0.9675
15958SOL     OW49314   4.465   0.876   4.551 -0.2701 -0.1908 -0.0620
15958SOL    HW149315   4.397   0.891   4.485  1.8775 -2.7884 -3.1961
15958SOL    HW249316   4.438   0.797   4.596 -0.8142  0.5488  0.9480
15959SOL     OW49317   3.576   7.667   5.982 -0.6189  0.1755  0.2870
15959SOL    HW149318   3.606   7.741   5.930 -0.6849  0.5777  0.8228
15959SOL    HW249319   3.481   7.664   5.965 -0.9069  1.2559  1.5676
15960SOL     OW49320   5.517   7.158   5.053 -0.3196  0.1505 -0.1528
15960SOL    HW149321   5.536   7.098   5.125 -1.8269  0.3495  0.4475
15960SOL    HW249322   5.512   7.244   5.094  1.7131  0.7322 -0.9888
15961SOL     OW49323   4.956   7.597   4.079  0.0442  0.2936  0.2791
15961SOL    HW149324   4.980   7.667   4.140  0.8851  0.0691  0.2258
15961SOL    HW249325   4.920   7.528   4.134  1.2417 -0.1043  0.6092
15962SOL     OW49326   5.381   6.640   6.050 -0.3961  0.1075 -0.1557
15962SOL    HW149327   5.402   6.715   6.107  0.5896  1.8450 -2.6549
15962SOL    HW249328   5.402   6.670   5.962 -0.1272 -3.1146 -1.3037
15963SOL     OW49329   4.005   5.806   4.799  0.0723 -0.1742  0.1089
15963SOL    HW149330   4.012   5.724   4.750  0.8562  0.1425 -0.3275
15963SOL    HW249331   4.094   5.841   4.800 -0.3647  0.9780 -0.2370
15964SOL     OW49332   5.369   7.675   4.243  0.3684  0.1924 -0.1105
15964SOL    HW149333   5.286   7.719   4.264 -0.8857 -1.9448 -0.2617
15964SOL    HW249334   5.356   7.642   4.154  1.3481 -0.2781 -0.0886
15965SOL     OW49335   3.966   6.649   2.470  0.4417 -0.1188 -0.3688
15965SOL    HW149336   4.028   6.703   2.421 -0.9647  2.7597  0.8204
15965SOL    HW249337   3.888   6.702   2.478 -0.2697 -1.3750  2.9094
15966SOL     OW49338   3.524   6.465   2.884 -0.0032 -0.3392  0.6874
15966SOL    HW149339   3.520   6.538   2.823  0.8775 -1.5535 -0.8922
15966SOL    HW249340   3.591   6.490   2.948  2.3603 -0.8457 -1.4409
15967SOL     OW49341   6.260   6.567   2.844  0.4720 -0.2342 -0.0278
15967SOL    HW149342   6.268   6.594   2.753  0.1763 -1.6913 -0.5069
15967SOL    HW249343   6.222   6.644   2.888 -0.4001  0.1286 -1.3416
15968SOL     OW49344   5.776   7.279   4.488 -0.1501 -0.2763  0.3591
15968SOL    HW149345   5.802   7.290   4.396  0.4696  0.8220  0.6562
15968SOL    HW249346   5.727   7.197   4.488  1.6231 -1.4161 -0.5909
15969SOL     OW49347   4.550   6.840   4.699  0.0195 -0.0996 -0.4595
15969SOL    HW149348   4.582   6.901   4.765 -0.4894  0.4410 -0.7036
15969SOL    HW249349   4.532   6.894   4.622  0.8881 -0.7611 -1.1484
15970SOL     OW49350   6.461   5.325   6.130  0.0149  0.2549 -0.0845
15970SOL    HW149351   6.468   5.233   6.104  3.8780  0.3589  0.0003
15970SOL    HW249352   6.543   5.343   6.176 -1.0950  3.4946  0.8732
15971SOL     OW49353   3.722   7.574   5.301  0.0026  0.0755  0.9459
15971SOL    HW149354   3.729   7.519   5.379 -1.4829 -0.0392  1.0374
15971SOL    HW249355   3.766   7.525   5.233 -0.4721 -0.8035  1.2505
15972SOL     OW49356   5.385   6.164   3.600 -0.1437 -0.5477 -0.5564
15972SOL    HW149357   5.453   6.105   3.569  0.8596 -0.6949  1.7313
15972SOL    HW249358   5.372   6.140   3.692 -1.1587  1.4619 -0.1122
15973SOL     OW49359   3.749   6.679   2.803  0.1851  0.0872  0.6452
15973SOL    HW149360   3.842   6.700   2.802  0.5181 -1.1822  1.5867
15973SOL    HW249361   3.728   6.659   2.712  0.1696  2.8494 -0.0434
15974SOL     OW49362   4.005   6.719   5.757 -0.3435  0.1707  0.1703
15974SOL    HW149363   3.938   6.731   5.824 -0.0158 -2.0473  0.9926
15974SOL    HW249364   4.088   6.727   5.803 -0.1104 -1.1978  0.0514
15975SOL     OW49365   5.156   5.525   6.330  0.0803  0.2586 -0.3001
15975SOL    HW149366   5.068   5.551   6.357  0.8342  2.4699  0.2715
15975SOL    HW249367   5.142   5.468   6.254 -1.8216  1.3345 -0.8333
15976SOL     OW49368   3.798   5.313   4.262  0.4670  0.1436  0.0951
15976SOL    HW149369   3.727   5.300   4.199  1.3342  0.9802 -1.0976
15976SOL    HW249370   3.766   5.383   4.319  1.3309  2.5169 -2.1309
15977SOL     OW49371   6.579   5.358   6.493 -0.2848 -0.0826 -0.2850
15977SOL    HW149372   6.548   5.338   6.582  0.9249  1.9148  0.6436
15977SOL    HW249373   6.609   5.273   6.460  0.3842 -0.6863  1.6910
15978SOL     OW49374   4.994   7.354   4.574 -0.0341  0.3289  0.2259
15978SOL    HW149375   5.059   7.423   4.587 -0.9026  1.3093 -0.3976
15978SOL    HW249376   5.045   7.275   4.558  1.0086  1.1749 -0.7733
15979SOL     OW49377   4.778   7.128   4.960 -0.0359  0.3609 -0.2151
15979SOL    HW149378   4.714   7.122   5.031  0.6926  1.3125  0.5519
15979SOL    HW249379   4.819   7.041   4.957  0.2768  0.4486  0.8952
15980SOL     OW49380   5.385   6.836   3.787  0.2350 -0.1394 -0.2485
15980SOL    HW149381   5.406   6.746   3.814 -0.7165 -0.2927 -0.0033
15980SOL    HW249382   5.296   6.851   3.819 -0.3393  0.2195 -1.9344
15981SOL     OW49383   3.675   7.185   2.927  0.2765 -0.0825  0.1040
15981SOL    HW149384   3.607   7.176   2.992  2.8047  0.5940  3.0750
15981SOL    HW249385   3.667   7.275   2.895 -0.1995  0.0003  0.4602
15982SOL     OW49386   5.045   7.205   5.426 -0.1482 -0.3705  0.1423
15982SOL    HW149387   5.111   7.236   5.364 -0.1889 -0.0315  0.2673
15982SOL    HW249388   4.972   7.268   5.418 -0.4186 -0.6901  0.0685
15983SOL     OW49389   5.168   6.592   5.353  0.1474 -0.4966 -0.0223
15983SOL    HW149390   5.188   6.627   5.267  1.1385 -2.3947 -0.6092
15983SOL    HW249391   5.235   6.629   5.411  0.3871 -0.4287 -0.3469
15984SOL     OW49392   1.479   7.032   1.467  0.0473  0.1569 -0.0624
15984SOL    HW149393   1.519   7.016   1.553 -1.1291  0.2258  0.5309
15984SOL    HW249394   1.505   6.957   1.414  0.1511 -0.2894  0.6041
15985SOL     OW49395   5.656   7.230   3.167  0.1457 -0.0226  0.5769
15985SOL    HW149396   5.744   7.264   3.157 -0.2426  1.7148  2.4191
15985SOL    HW249397   5.662   7.171   3.243 -0.0689 -0.7635  0.0291
15986SOL     OW49398   2.922   0.296   5.041  0.2391 -0.2164 -0.2774
15986SOL    HW149399   2.933   0.318   4.949 -1.2526  0.7830 -0.2667
15986SOL    HW249400   2.939   0.202   5.046  1.1346 -0.1356 -1.4056
15987SOL     OW49401   5.024   0.933   3.982 -0.4411 -0.3841 -0.3186
15987SOL    HW149402   4.985   0.911   3.897 -0.3609 -1.7924 -0.0097
15987SOL    HW249403   5.026   1.029   3.983 -0.8755 -0.3363 -1.7058
15988SOL     OW49404   3.272   5.760   4.895 -0.1091 -0.0595 -0.0618
15988SOL    HW149405   3.284   5.846   4.935  1.3170 -1.4127  2.7267
15988SOL    HW249406   3.349   5.747   4.841 -0.3063  0.3937 -0.4526
15989SOL     OW49407   5.325   6.251   2.955 -0.8988  0.3561  0.3004
15989SOL    HW149408   5.335   6.256   2.860 -1.7544 -1.4568  0.0845
15989SOL    HW249409   5.409   6.283   2.989 -0.6689  1.2824 -1.0319
15990SOL     OW49410   2.821   7.832   3.757 -0.2513 -0.1656 -0.1494
15990SOL    HW149411   2.861   7.770   3.818  0.5284  1.2653  0.8560
15990SOL    HW249412   2.799   7.779   3.680 -0.4943 -1.8572  1.0297
15991SOL     OW49413   7.263   5.989   2.957 -0.4078 -0.0062  0.0367
15991SOL    HW149414   7.307   6.059   2.910  2.8891 -0.5687  1.9589
15991SOL    HW249415   7.183   5.972   2.907  1.8035  0.7330 -4.1567
15992SOL     OW49416   4.223   6.922   6.075  0.1276 -0.1521 -0.0324
15992SOL    HW149417   4.220   6.937   6.170 -0.2261  0.5316 -0.1489
15992SOL    HW249418   4.194   6.831   6.065  3.0778 -1.3085  0.7443
15993SOL     OW49419   4.129   6.371   7.761 -0.0939  0.1491 -0.0069
15993SOL    HW149420   4.067   6.444   7.762  0.5765  0.8308 -2.5486
15993SOL    HW249421   4.079   6.297   7.726  0.0938  0.2596 -0.5082
15994SOL     OW49422   5.390   4.878   4.777  0.0134  0.6560 -0.2430
15994SOL    HW149423   5.433   4.912   4.699 -0.1384 -0.1528 -0.6933
15994SOL    HW249424   5.399   4.783   4.770 -2.2406  0.4131 -0.6017
15995SOL     OW49425   5.241   5.808   5.122 -0.4632  0.0425  0.5685
15995SOL    HW149426   5.232   5.713   5.112  0.6714 -0.1349  1.0598
15995SOL    HW249427   5.253   5.840   5.033 -2.0323 -0.1173  0.2738
15996SOL     OW49428   4.626   6.144   5.991  0.0111 -0.1405 -0.0842
15996SOL    HW149429   4.567   6.158   6.065 -1.7229 -0.2432 -1.3962
15996SOL    HW249430   4.639   6.231   5.953 -3.0066 -0.5601 -2.4570
15997SOL     OW49431   3.573   7.000   4.064 -0.0444  0.1608  0.0966
15997SOL    HW149432   3.562   6.988   3.970 -1.1511  2.7124 -0.1893
15997SOL    HW249433   3.667   7.013   4.076  0.0619  0.1828 -0.6993
15998SOL     OW49434   4.387   7.283   4.885 -0.9325  0.4077  0.2115
15998SOL    HW149435   4.339   7.204   4.906  0.0748 -0.0588  0.8447
15998SOL    HW249436   4.396   7.329   4.969 -1.6862  1.3142 -0.1781
15999SOL     OW49437   4.835   7.959   4.842 -0.1548  0.0138  0.5758
15999SOL    HW149438   4.852   7.982   4.934 -0.0647  2.2007  0.0762
15999SOL    HW249439   4.921   7.963   4.801 -0.3768  0.4045  0.1423
16000SOL     OW49440   5.346   6.900   5.872 -0.2422 -0.4977 -0.7216
16000SOL    HW149441   5.397   6.899   5.791  0.4661  0.7780 -0.3147
16000SOL    HW249442   5.356   6.989   5.906 -2.2647 -0.3750 -0.3129
16001SOL     OW49443   4.798   5.405   3.404  0.2217  0.1667  0.2711
16001SOL    HW149444   4.753   5.485   3.430 -1.5920 -0.6042 -0.3748
16001SOL    HW249445   4.878   5.436   3.360 -0.6730  1.6366 -0.3877
16002SOL     OW49446   3.121   5.932   4.548  0.1182 -0.9256  0.1467
16002SOL    HW149447   3.074   5.849   4.548 -0.7734 -0.4355 -0.0953
16002SOL    HW249448   3.067   5.991   4.602  0.1174 -0.1844 -0.6289
16003SOL     OW49449   4.032   5.566   4.632 -0.4512 -0.2943 -0.3602
16003SOL    HW149450   4.013   5.519   4.713 -0.6579 -0.8679 -0.7430
16003SOL    HW249451   4.039   5.499   4.565  0.7880  0.0780 -0.6413
16004SOL     OW49452   7.595   6.591   3.832 -0.1623 -0.2520 -0.8347
16004SOL    HW149453   7.621   6.683   3.822 -1.5099  0.1306 -1.0070
16004SOL    HW249454   7.561   6.566   3.746 -1.3430 -0.3910 -0.3454
16005SOL     OW49455   5.162   5.842   3.514 -0.6503  0.0808 -0.0402
16005SOL    HW149456   5.083   5.804   3.475  0.0556  0.1558 -1.6228
16005SOL    HW249457   5.168   5.929   3.476  1.5533 -0.8308 -2.0538
16006SOL     OW49458   4.790   5.732   3.196  0.1710 -0.2074 -0.2759
16006SOL    HW149459   4.749   5.817   3.205  0.7078  0.1614 -1.1864
16006SOL    HW249460   4.831   5.734   3.110 -1.7476 -2.2332 -1.3473
16007SOL     OW49461   4.607   0.300   3.531 -0.4137  0.6590 -0.2578
16007SOL    HW149462   4.662   0.372   3.499 -1.2688  2.1397  1.4133
16007SOL    HW249463   4.590   0.247   3.453  0.7319  1.9269 -1.4381
16008SOL     OW49464   3.638   5.081   3.514 -0.0116 -0.5298 -0.1074
16008SOL    HW149465   3.598   5.068   3.600 -1.1696  0.1218 -0.5314
16008SOL    HW249466   3.672   5.171   3.518 -0.4386 -0.3524 -0.4735
16009SOL     OW49467   4.154   5.483   5.533 -0.5770 -0.6117 -0.5052
16009SOL    HW149468   4.250   5.480   5.537 -0.6173 -1.0155  0.3625
16009SOL    HW249469   4.126   5.435   5.610 -1.4882  1.3820  0.4686
16010SOL     OW49470   5.380   6.004   5.502 -0.6269 -0.0654 -0.2910
16010SOL    HW149471   5.290   5.983   5.477 -0.7243  0.3006 -0.2463
16010SOL    HW249472   5.406   5.931   5.559 -1.8555  1.1756  2.0031
16011SOL     OW49473   3.996   5.463   4.893 -0.0755 -0.2475  0.2030
16011SOL    HW149474   3.911   5.422   4.906  0.0434 -0.3104  0.8532
16011SOL    HW249475   4.019   5.498   4.980 -1.2047  3.2452 -0.7673
16012SOL     OW49476   5.185   4.866   4.561  0.0292  0.2466 -0.2649
16012SOL    HW149477   5.198   4.877   4.467  1.9909 -1.2835 -0.2608
16012SOL    HW249478   5.257   4.915   4.601 -0.0193 -0.1779  0.3616
16013SOL     OW49479   7.386   5.623   3.816  0.0154 -0.5034  0.0311
16013SOL    HW149480   7.438   5.670   3.750  0.2248 -0.5826  0.1383
16013SOL    HW249481   7.417   5.532   3.810  0.4087 -0.4128  0.6008
16014SOL     OW49482   5.285   6.380   1.983  0.4997  0.3936 -0.7013
16014SOL    HW149483   5.356   6.342   2.035 -0.8816  0.4326  1.3525
16014SOL    HW249484   5.312   6.470   1.966  1.5728 -0.0180 -1.2504
16015SOL     OW49485   6.304   6.963   4.158 -0.1631  0.2954  0.3696
16015SOL    HW149486   6.295   6.885   4.212  0.7225  1.0022  1.5909
16015SOL    HW249487   6.397   6.986   4.163  0.2038 -0.2028 -2.3328
16016SOL     OW49488   5.889   5.167   3.118 -0.5308 -0.4515  0.0248
16016SOL    HW149489   5.939   5.133   3.192  0.0824  0.3303 -0.0216
16016SOL    HW249490   5.832   5.234   3.156  1.3106  1.4933 -0.4859
16017SOL     OW49491   5.275   4.975   3.803  0.3487  0.4727  0.2131
16017SOL    HW149492   5.323   4.941   3.879  0.2915  0.0502  0.0622
16017SOL    HW249493   5.250   5.064   3.828 -0.7298 -0.0845  1.1782
16018SOL     OW49494   5.419   6.375   6.107 -0.8452  0.2246  0.2082
16018SOL    HW149495   5.369   6.327   6.041 -0.3561  0.5891 -0.4339
16018SOL    HW249496   5.405   6.467   6.086  0.5659  0.3327 -0.3554
16019SOL     OW49497   5.503   0.301   5.980 -0.4424  0.1394  0.0333
16019SOL    HW149498   5.478   0.387   5.944  1.3090 -0.0246 -1.7444
16019SOL    HW249499   5.524   0.248   5.904 -1.4976 -1.9287  1.1044
16020SOL     OW49500   5.508   5.562   6.424  0.3053 -0.1448 -0.4468
16020SOL    HW149501   5.567   5.633   6.450 -1.1381  0.4008  1.5456
16020SOL    HW249502   5.426   5.606   6.403  0.3211 -0.9673 -2.4533
16021SOL     OW49503   5.645   6.931   4.145  0.0109  0.5825 -0.3441
16021SOL    HW149504   5.720   6.925   4.085  1.2182  1.5599  0.9878
16021SOL    HW249505   5.607   7.017   4.127 -0.4956  0.2976 -0.6618
16022SOL     OW49506   5.141   7.731   3.866  0.5027  0.3067  0.3910
16022SOL    HW149507   5.101   7.674   3.932  2.0194  0.1054  1.1965
16022SOL    HW249508   5.089   7.811   3.868 -0.1715 -0.1360  1.0165
16023SOL     OW49509   5.565   6.074   4.087  0.1399 -0.3806  0.5892
16023SOL    HW149510   5.557   5.991   4.133 -1.4678  0.7238  2.4709
16023SOL    HW249511   5.493   6.074   4.023 -0.0333 -0.3316  0.7830
16024SOL     OW49512   4.580   6.916   4.196  0.1202  0.7355  0.0104
16024SOL    HW149513   4.518   6.988   4.197 -3.1095 -1.7537 -0.9990
16024SOL    HW249514   4.551   6.861   4.123  0.8819 -2.7399  2.0827
16025SOL     OW49515   5.155   6.257   6.275 -0.2608 -0.4374 -0.1666
16025SOL    HW149516   5.198   6.187   6.226 -1.3819 -1.0349 -0.3550
16025SOL    HW249517   5.176   6.337   6.227  1.9292 -0.4578  0.6493
16026SOL     OW49518   4.942   5.768   5.467 -0.1630 -0.1154  0.0286
16026SOL    HW149519   4.945   5.674   5.486  0.1717 -0.1069  0.0246
16026SOL    HW249520   4.904   5.807   5.546 -1.7532 -0.4089 -0.5624
16027SOL     OW49521   4.812   5.660   4.485  0.3011 -0.2308  0.1319
16027SOL    HW149522   4.886   5.645   4.544 -1.0868 -1.6095  1.6337
16027SOL    HW249523   4.806   5.755   4.477  1.9093 -0.0902  0.3913
16028SOL     OW49524   4.745   5.747   4.863  0.6196 -0.0804  0.5079
16028SOL    HW149525   4.804   5.694   4.810  1.2743  1.7806 -0.7365
16028SOL    HW249526   4.666   5.756   4.811  0.9291  1.0281  0.2055
16029SOL     OW49527   5.299   7.372   2.657 -0.1272  0.0663  0.7278
16029SOL    HW149528   5.392   7.355   2.642 -0.4562 -0.5250 -0.9367
16029SOL    HW249529   5.278   7.322   2.736  0.7311 -0.6957  0.4931
16030SOL     OW49530   4.504   6.706   4.020  0.3528  0.5009 -0.2463
16030SOL    HW149531   4.524   6.639   3.955 -1.4271  0.2561 -0.5990
16030SOL    HW249532   4.409   6.699   4.033  0.2502  2.4141  0.3094
16031SOL     OW49533   4.336   5.910   3.669  0.4615 -0.2368  0.3969
16031SOL    HW149534   4.351   5.845   3.737 -0.4442 -1.0995 -0.1842
16031SOL    HW249535   4.250   5.946   3.689 -0.2744 -1.2312 -0.8247
16032SOL     OW49536   4.839   7.383   5.445 -0.4531  0.1000  0.7431
16032SOL    HW149537   4.790   7.459   5.414  0.0239  0.5136  0.9878
16032SOL    HW249538   4.772   7.320   5.472 -0.8530  0.3594  0.3684
16033SOL     OW49539   6.959   6.993   3.594 -0.0579 -0.1266 -0.2533
16033SOL    HW149540   7.055   6.990   3.601 -0.0849  1.8414  2.6602
16033SOL    HW249541   6.944   7.052   3.520  0.8958 -1.4453 -1.5711
16034SOL     OW49542   4.200   6.490   6.764 -0.3176  0.1098  0.6123
16034SOL    HW149543   4.190   6.524   6.852  0.6749  2.0279  0.0436
16034SOL    HW249544   4.237   6.563   6.714 -0.9134 -0.8885 -1.4086
16035SOL     OW49545   5.065   6.152   5.591  0.2577  0.8173 -0.4826
16035SOL    HW149546   5.105   6.176   5.674 -0.3151  1.2964 -0.3452
16035SOL    HW249547   5.061   6.233   5.541 -4.4734  1.8577  1.1227
16036SOL     OW49548   5.728   6.523   6.321 -0.0034  0.1047  0.6309
16036SOL    HW149549   5.812   6.498   6.282  0.6588 -0.0414  2.0978
16036SOL    HW249550   5.676   6.443   6.319 -0.3585  0.3396 -0.8314
16037SOL     OW49551   4.315   6.605   5.064  0.1077  0.2112  0.6000
16037SOL    HW149552   4.280   6.526   5.105  2.4978 -2.1080 -1.4480
16037SOL    HW249553   4.374   6.643   5.130  1.0676 -1.3429  0.6729
16038SOL     OW49554   3.962   6.452   5.279  0.5701 -0.0128  0.2605
16038SOL    HW149555   3.890   6.388   5.282  1.9653 -1.6489  0.4488
16038SOL    HW249556   3.930   6.520   5.219 -0.4839 -1.5333 -0.9985
16039SOL     OW49557   4.039   6.873   5.152 -0.4325  0.5430 -0.9069
16039SOL    HW149558   3.956   6.911   5.180 -0.0822  0.0774  0.8511
16039SOL    HW249559   4.020   6.780   5.140 -0.4854  0.6708 -1.9171
16040SOL     OW49560   5.584   4.610   4.681 -0.1154  0.1801  0.0278
16040SOL    HW149561   5.518   4.581   4.618  0.4733  1.0625 -1.0260
16040SOL    HW249562   5.667   4.576   4.646 -0.1845 -3.9500  3.0925
16041SOL     OW49563   3.049   0.817   4.824 -0.8922 -0.1470 -0.3787
16041SOL    HW149564   2.957   0.844   4.816 -1.4726 -2.4297 -2.5783
16041SOL    HW249565   3.052   0.761   4.901 -1.1807  0.5083  0.1130
16042SOL     OW49566   4.265   5.866   4.787 -0.3025 -0.2932  0.3472
16042SOL    HW149567   4.317   5.881   4.708  0.6990  0.1909  1.0789
16042SOL    HW249568   4.313   5.797   4.834  1.1632  1.9102  2.2754
16043SOL     OW49569   3.812   6.159   4.307 -0.5834  0.0651  0.0727
16043SOL    HW149570   3.799   6.214   4.230 -0.4993 -0.0724 -0.0401
16043SOL    HW249571   3.805   6.219   4.381  1.6035  0.6416 -0.1114
16044SOL     OW49572   4.902   6.357   4.724 -0.8423 -0.2219 -0.8914
16044SOL    HW149573   4.864   6.363   4.636  0.1240 -2.5017 -1.5369
16044SOL    HW249574   4.827   6.345   4.782 -1.5094  1.5465 -1.3361
16045SOL     OW49575   5.263   7.497   3.088 -0.4517 -0.3617 -0.0167
16045SOL    HW149576   5.340   7.499   3.145 -0.5242 -1.7339  0.1568
16045SOL    HW249577   5.277   7.422   3.030 -2.0906 -1.2643  0.6654
16046SOL     OW49578   4.674   7.373   3.972  0.0537  0.5458  0.0858
16046SOL    HW149579   4.651   7.450   4.025  1.4426  0.4708  0.8497
16046SOL    HW249580   4.759   7.346   4.006  0.3476 -0.3361 -1.2961
16047SOL     OW49581   4.701   7.194   6.631  0.6651  0.3738  0.0512
16047SOL    HW149582   4.709   7.289   6.629 -0.4049  0.5665  2.1272
16047SOL    HW249583   4.607   7.177   6.622  0.9631 -0.6158 -1.8082
16048SOL     OW49584   5.264   2.085   3.749 -0.8702 -0.1474 -0.3784
16048SOL    HW149585   5.223   2.034   3.819  0.1140 -0.0310  0.3015
16048SOL    HW249586   5.356   2.091   3.774 -0.8231  1.3982 -0.7734
16049SOL     OW49587   3.843   6.177   5.720 -0.1246 -0.6111  0.7028
16049SOL    HW149588   3.927   6.146   5.755  1.2862  0.7877 -1.1998
16049SOL    HW249589   3.841   6.270   5.742 -1.0132 -0.5517  0.4191
16050SOL     OW49590   4.902   6.043   3.716 -0.0754 -0.0044 -0.0296
16050SOL    HW149591   4.992   6.029   3.745 -0.5009 -0.4893  1.1217
16050SOL    HW249592   4.866   5.955   3.705 -0.9085  0.1541  1.2054
16051SOL     OW49593   4.171   6.913   3.925 -0.2247  0.4660 -0.6482
16051SOL    HW149594   4.157   6.962   4.006 -1.3465  1.4364 -1.3906
16051SOL    HW249595   4.166   6.821   3.951 -2.7660  0.7454  0.0809
16052SOL     OW49596   4.148   7.669   3.814 -0.2227  0.1016  0.3910
16052SOL    HW149597   4.137   7.740   3.751 -1.4376  1.2929  1.8474
16052SOL    HW249598   4.189   7.711   3.890 -0.2202 -0.9399  0.9717
16053SOL     OW49599   3.831   6.447   3.838 -0.6972  0.1388  0.1998
16053SOL    HW149600   3.740   6.469   3.861 -0.2318  2.6622 -0.1018
16053SOL    HW249601   3.833   6.452   3.743 -0.2955 -0.1924  0.1912
16054SOL     OW49602   4.326   5.191   6.447 -0.0206 -0.2027 -0.4898
16054SOL    HW149603   4.336   5.128   6.519  1.5214 -0.4552 -0.8830
16054SOL    HW249604   4.297   5.138   6.373 -1.6180  0.0585 -0.0987
16055SOL     OW49605   3.596   6.746   4.292  0.1936 -0.5019  0.0605
16055SOL    HW149606   3.601   6.676   4.227  2.0500 -0.1204 -0.2755
16055SOL    HW249607   3.669   6.728   4.352  1.3245  1.6464 -0.5904
16056SOL     OW49608   5.244   5.318   5.480 -0.3984 -0.2907  0.3677
16056SOL    HW149609   5.297   5.390   5.515 -0.6113  0.0093  0.0808
16056SOL    HW249610   5.266   5.315   5.387  1.0005 -1.8069  0.7078
16057SOL     OW49611   2.619   6.025   4.255  0.2517  0.0531 -0.4677
16057SOL    HW149612   2.551   5.970   4.294  0.7192  0.5037  1.0917
16057SOL    HW249613   2.694   5.967   4.245  0.3474  0.0895 -0.0082
16058SOL     OW49614   5.154   6.943   4.791  0.0225  0.7804 -0.4474
16058SOL    HW149615   5.064   6.974   4.796 -0.3957 -0.3877 -0.4604
16058SOL    HW249616   5.148   6.859   4.746  0.7937 -0.5619  1.8063
16059SOL     OW49617   4.968   6.589   5.076 -0.1548  0.4313 -0.9588
16059SOL    HW149618   4.891   6.571   5.022 -0.1248  0.7883 -1.1226
16059SOL    HW249619   4.966   6.684   5.089  1.1273  0.6660 -2.2754
16060SOL     OW49620   5.152   6.429   4.937 -0.0089  0.4843 -0.0744
16060SOL    HW149621   5.102   6.501   4.976  0.1372  1.9846 -2.4296
16060SOL    HW249622   5.243   6.449   4.961 -0.1844 -0.4223  1.4605
16061SOL     OW49623   5.668   6.775   6.218  0.2594 -0.1662 -0.1325
16061SOL    HW149624   5.677   6.681   6.202  0.7962  0.3831 -3.9997
16061SOL    HW249625   5.755   6.810   6.202 -0.4938  1.2422 -1.3423
16062SOL     OW49626   4.312   6.051   4.429 -0.1739 -0.1627  0.3204
16062SOL    HW149627   4.355   6.104   4.496 -1.2531  1.2352 -0.0524
16062SOL    HW249628   4.267   5.983   4.478 -0.1247  0.2398  0.9325
16063SOL     OW49629   5.373   6.619   6.378 -0.2515 -0.5046 -0.2751
16063SOL    HW149630   5.450   6.635   6.432 -0.2089 -0.4243 -0.3595
16063SOL    HW249631   5.370   6.693   6.318 -0.4569 -0.4521 -0.2011
16064SOL     OW49632   5.576   6.416   4.063 -0.2152  0.2988  0.2225
16064SOL    HW149633   5.572   6.328   4.099  0.0479 -0.5119 -1.6309
16064SOL    HW249634   5.666   6.444   4.077 -0.4947  0.6163  1.5180
16065SOL     OW49635   6.085   6.058   4.516  0.2833  0.2098  0.4652
16065SOL    HW149636   6.074   6.135   4.461 -2.0681  0.5405  1.2938
16065SOL    HW249637   6.038   6.079   4.597  1.0756 -1.4265  1.4078
16066SOL     OW49638   5.251   7.676   4.554  0.4169 -0.0823  0.4473
16066SOL    HW149639   5.221   7.732   4.483  0.4025 -0.7024 -0.0435
16066SOL    HW249640   5.242   7.730   4.633 -0.8829  0.1510  0.1642
16067SOL     OW49641   4.525   5.479   5.280  0.1170  0.3923 -0.1504
16067SOL    HW149642   4.559   5.569   5.270 -0.1828  0.5264  0.0509
16067SOL    HW249643   4.602   5.428   5.304  0.2239  0.6571  0.0763
16068SOL     OW49644   3.020   0.241   4.764 -0.0279 -0.2916  0.3253
16068SOL    HW149645   3.018   0.308   4.695  0.0852  0.7480  1.3000
16068SOL    HW249646   2.964   0.171   4.731 -0.6558  0.5488 -0.4545
16069SOL     OW49647   2.596   7.430   1.621 -0.1877 -0.4449  0.7209
16069SOL    HW149648   2.655   7.501   1.644  1.0337 -0.1345 -2.7573
16069SOL    HW249649   2.634   7.353   1.664  0.8743  0.2979  1.1639
16070SOL     OW49650   3.189   7.234   5.561 -1.0879  0.4983  0.0197
16070SOL    HW149651   3.243   7.213   5.638  1.5596  1.1663 -1.5266
16070SOL    HW249652   3.200   7.329   5.550 -1.0686  0.3485 -1.4112
16071SOL     OW49653   6.235   6.397   3.783  0.4552  0.6477 -0.1903
16071SOL    HW149654   6.331   6.403   3.782  0.5209 -0.1877  0.0364
16071SOL    HW249655   6.207   6.470   3.837  0.9463  1.1282 -0.5724
16072SOL     OW49656   4.237   6.064   2.778  0.1582 -0.5684  0.7369
16072SOL    HW149657   4.214   6.116   2.854  1.3245  0.1704  0.6160
16072SOL    HW249658   4.308   6.008   2.808 -0.2040 -1.1496  0.5130
16073SOL     OW49659   4.215   6.373   6.054  0.2877  0.0568  0.3463
16073SOL    HW149660   4.294   6.410   6.015 -0.5167  0.5037 -0.9433
16073SOL    HW249661   4.220   6.280   6.035  1.1071 -0.1338  1.4045
16074SOL     OW49662   4.282   7.769   5.112 -0.4607  0.1943 -0.5557
16074SOL    HW149663   4.267   7.845   5.168 -2.4339 -1.0262  0.6902
16074SOL    HW249664   4.211   7.709   5.134  1.2510 -2.1938 -1.1921
16075SOL     OW49665   2.024   7.550   4.607 -0.4865 -0.1032  0.1948
16075SOL    HW149666   2.110   7.585   4.584 -0.8051  0.0759 -0.7658
16075SOL    HW249667   1.991   7.512   4.525 -1.3265 -0.1695  0.5541
16076SOL     OW49668   3.852   6.181   6.113 -0.2759 -0.3460 -0.6393
16076SOL    HW149669   3.882   6.095   6.081 -1.0379 -1.1924  0.8222
16076SOL    HW249670   3.806   6.161   6.194 -0.8438  1.4243 -0.4977
16077SOL     OW49671   3.185   7.113   2.712  0.2944  0.2873 -0.6202
16077SOL    HW149672   3.228   7.197   2.725 -0.6044  0.8455 -1.1145
16077SOL    HW249673   3.253   7.055   2.678  0.6164  1.2016 -1.5813
16078SOL     OW49674   6.708   6.736   4.366  0.7097 -0.2611 -0.5363
16078SOL    HW149675   6.706   6.795   4.442  1.2422  0.9027 -1.4021
16078SOL    HW249676   6.681   6.651   4.402  1.2569  0.1821  1.0242
16079SOL     OW49677   1.257   2.263   5.268  1.2047 -0.3305  0.5154
16079SOL    HW149678   1.299   2.295   5.188 -0.1971  1.3231  0.3768
16079SOL    HW249679   1.165   2.290   5.259  0.8618 -0.7806  2.3486
16080SOL     OW49680   4.302   6.169   3.102 -0.1583 -0.1690  0.6394
16080SOL    HW149681   4.367   6.187   3.034 -1.1969  0.7767 -0.1672
16080SOL    HW249682   4.335   6.214   3.180 -0.3971  1.3691 -0.0928
16081SOL     OW49683   4.152   7.869   4.051 -0.1368  0.0448  0.5095
16081SOL    HW149684   4.093   7.944   4.042  0.4872  0.4736 -0.1271
16081SOL    HW249685   4.240   7.908   4.052  0.1324 -0.4748  2.5538
16082SOL     OW49686   4.803   6.883   3.072 -0.3883  0.6369  0.1210
16082SOL    HW149687   4.848   6.931   3.002 -0.9808  1.5485  0.3390
16082SOL    HW249688   4.711   6.910   3.063 -0.3930  1.1888  1.5775
16083SOL     OW49689   6.359   0.906   4.705 -0.1818  0.1982 -0.1275
16083SOL    HW149690   6.344   0.850   4.781  0.6886  0.7819  0.4966
16083SOL    HW249691   6.274   0.947   4.688 -0.1890  0.7122  1.0701
16084SOL     OW49692   5.097   0.445   3.991  0.4209  0.7229 -0.4683
16084SOL    HW149693   5.126   0.526   4.033  0.0046  0.6643 -0.0642
16084SOL    HW249694   5.071   0.472   3.902 -0.3254  1.1481 -0.1273
16085SOL     OW49695   3.321   4.540   3.950  0.0729  0.0129  0.2384
16085SOL    HW149696   3.344   4.602   4.019 -2.1280  0.5620  0.5639
16085SOL    HW249697   3.361   4.576   3.871  1.4938  0.1062  0.9810
16086SOL     OW49698   5.902   0.538   4.462 -0.1171  0.2607  0.1376
16086SOL    HW149699   5.960   0.511   4.533  0.0237 -1.1787 -0.4781
16086SOL    HW249700   5.961   0.577   4.397  0.1599 -0.9064 -0.3469
16087SOL     OW49701   5.181   5.479   4.797 -0.3667  0.0830  0.0764
16087SOL    HW149702   5.172   5.389   4.766 -1.5781  0.0941  0.3409
16087SOL    HW249703   5.270   5.484   4.832 -0.4846 -1.1884  0.6168
16088SOL     OW49704   3.982   6.202   5.056  0.4014 -0.1563  0.3705
16088SOL    HW149705   4.016   6.290   5.042  0.1590  0.3019  2.3534
16088SOL    HW249706   4.038   6.165   5.124 -0.1721 -1.1386  0.3280
16089SOL     OW49707   5.844   7.389   5.157 -0.4218 -0.4741  0.2615
16089SOL    HW149708   5.753   7.377   5.129 -1.1572  2.9757  0.7023
16089SOL    HW249709   5.851   7.338   5.238 -1.6878 -1.4371 -0.1875
16090SOL     OW49710   3.792   5.925   4.639  0.2631 -0.2313  0.0877
16090SOL    HW149711   3.829   5.892   4.557 -0.0841  2.1002 -1.0953
16090SOL    HW249712   3.868   5.942   4.695  0.6880  0.4759 -0.6903
16091SOL     OW49713   4.783   6.138   5.449  0.2824 -0.6941 -0.3148
16091SOL    HW149714   4.832   6.106   5.373  1.8842  1.4577 -0.2837
16091SOL    HW249715   4.842   6.125   5.523  0.0812  0.2747  0.0265
16092SOL     OW49716   5.174   7.776   3.596  0.2859 -0.1889 -0.0427
16092SOL    HW149717   5.146   7.686   3.579  1.7075 -0.6615 -0.0476
16092SOL    HW249718   5.182   7.781   3.692 -0.3029  0.1002 -0.0060
16093SOL     OW49719   4.555   5.041   4.917 -0.6385 -0.4740 -0.1095
16093SOL    HW149720   4.473   5.088   4.934 -0.0996  0.7791 -0.8170
16093SOL    HW249721   4.621   5.091   4.965 -0.1133 -0.7800 -0.5059
16094SOL     OW49722   3.326   7.031   3.752 -0.7133  0.1773 -0.6213
16094SOL    HW149723   3.401   6.971   3.745 -1.7525 -1.0381 -1.7108
16094SOL    HW249724   3.292   7.039   3.663 -1.3136  1.4873 -0.3031
16095SOL     OW49725   3.729   5.877   3.820  0.3702  0.7589  0.2458
16095SOL    HW149726   3.686   5.962   3.819  0.3726  0.7677 -1.3715
16095SOL    HW249727   3.783   5.879   3.900 -0.8576  1.6152  1.0881
16096SOL     OW49728   2.006   5.577   2.814  0.0301  0.1521 -0.0382
16096SOL    HW149729   1.991   5.600   2.722  1.1253 -0.2724 -0.3451
16096SOL    HW249730   1.934   5.618   2.861 -1.1544 -0.5043 -1.2087
16097SOL     OW49731   2.042   6.918   4.911 -0.5219 -0.7123 -0.8976
16097SOL    HW149732   2.050   6.848   4.846  0.0065 -1.8754  0.3456
16097SOL    HW249733   2.132   6.934   4.939 -0.5641  1.0159 -1.6898
16098SOL     OW49734   2.790   5.754   4.836  0.7095  0.1175  0.3910
16098SOL    HW149735   2.825   5.707   4.912 -0.5557 -2.7038 -0.6710
16098SOL    HW249736   2.841   5.722   4.762 -0.7547 -0.2851 -0.4855
16099SOL     OW49737   3.828   6.791   3.928 -0.2806 -0.2926  0.2094
16099SOL    HW149738   3.773   6.726   3.974 -0.5169 -0.0416  0.2844
16099SOL    HW249739   3.824   6.869   3.984 -0.0638 -0.1868  0.0764
16100SOL     OW49740   6.054   6.447   6.527 -0.3412  0.3620 -0.3465
16100SOL    HW149741   5.990   6.437   6.598  0.5010 -1.1445  0.2380
16100SOL    HW249742   6.138   6.455   6.572 -0.0294  1.7180 -1.1298
16101SOL     OW49743   3.405   5.725   5.188 -0.4248 -0.1299 -0.7644
16101SOL    HW149744   3.349   5.795   5.155  0.4928  1.2789  0.4869
16101SOL    HW249745   3.411   5.742   5.282  2.2846  0.0151 -0.8643
16102SOL     OW49746   5.824   6.630   3.600 -0.5179 -0.1636 -0.9313
16102SOL    HW149747   5.795   6.543   3.574  0.6216 -0.0767 -2.7126
16102SOL    HW249748   5.745   6.683   3.600 -0.8972 -0.6851 -2.2337
16103SOL     OW49749   5.323   6.863   4.509  0.3674  0.1115 -0.0350
16103SOL    HW149750   5.343   6.878   4.416  0.0910 -0.7654 -0.2518
16103SOL    HW249751   5.237   6.822   4.508  0.1937  0.4551  0.6399
16104SOL     OW49752   5.156   0.679   5.703 -0.7913 -0.3171  0.0942
16104SOL    HW149753   5.068   0.699   5.736 -0.0236  0.9429  1.5899
16104SOL    HW249754   5.210   0.673   5.783  0.5517 -0.6367 -0.8051
16105SOL     OW49755   5.228   6.271   4.724 -0.6097  0.2344  0.9845
16105SOL    HW149756   5.260   6.361   4.726  0.4169 -0.1052  0.3383
16105SOL    HW249757   5.166   6.269   4.651  0.0824  0.1921  0.3910
16106SOL     OW49758   5.142   6.880   3.885  0.0293  0.5614 -0.1998
16106SOL    HW149759   5.111   6.906   3.798  0.5731 -1.1506 -0.9312
16106SOL    HW249760   5.079   6.920   3.945  0.5787  3.1867 -1.2336
16107SOL     OW49761   3.275   0.259   5.423  0.5344  0.6582 -0.3488
16107SOL    HW149762   3.292   0.195   5.354  0.4300  1.6439 -1.3122
16107SOL    HW249763   3.360   0.276   5.462  0.2573 -1.7983  1.5271
16108SOL     OW49764   2.381   6.274   4.129  0.0861  0.1016  0.1574
16108SOL    HW149765   2.386   6.359   4.085 -1.3413  0.5637  0.8304
16108SOL    HW249766   2.454   6.275   4.190  0.8548  0.2979 -0.7448
16109SOL     OW49767   4.879   6.985   2.216  0.2447  0.4424 -0.0716
16109SOL    HW149768   4.833   7.025   2.290  0.1716  0.5142 -0.1558
16109SOL    HW249769   4.968   7.019   2.222 -0.2131  1.9373 -1.0984
16110SOL     OW49770   5.791   4.790   4.506 -0.1774 -0.2373  0.6853
16110SOL    HW149771   5.816   4.698   4.520  0.4425 -0.1711  0.0397
16110SOL    HW249772   5.697   4.791   4.522 -0.6231 -1.4509 -1.4836
16111SOL     OW49773   3.921   6.405   5.920  0.3386 -0.1545  0.3266
16111SOL    HW149774   3.908   6.489   5.965 -0.3992  0.1890 -0.5012
16111SOL    HW249775   3.890   6.340   5.983  1.6071  0.1101  1.2720
16112SOL     OW49776   4.786   7.110   2.445  0.1633 -0.5410  0.6247
16112SOL    HW149777   4.821   7.198   2.461  0.5896 -0.4308 -0.7373
16112SOL    HW249778   4.774   7.072   2.532 -1.4517  1.3972  1.3301
16113SOL     OW49779   5.077   0.314   3.583  0.4086  0.7931  0.0335
16113SOL    HW149780   5.023   0.246   3.544  1.3724  1.2929 -2.3023
16113SOL    HW249781   5.014   0.375   3.623 -0.4976 -0.8493  1.2073
16114SOL     OW49782   4.635   5.530   3.835 -0.1881  0.6369 -0.1886
16114SOL    HW149783   4.643   5.517   3.929  0.0621  3.5210  0.2877
16114SOL    HW249784   4.717   5.496   3.799 -0.2111 -0.3229  0.6213
16115SOL     OW49785   5.254   0.425   3.406 -0.1138  0.6560 -0.2571
16115SOL    HW149786   5.201   0.380   3.472 -0.6345  1.8247  0.1622
16115SOL    HW249787   5.316   0.477   3.457  0.1349  0.8063 -0.7094
16116SOL     OW49788   6.164   7.984   4.823 -0.2265  0.2801  0.4275
16116SOL    HW149789   6.158   7.956   4.732  1.0813 -0.4515  0.5481
16116SOL    HW249790   6.256   7.974   4.846 -0.3185  1.5747  1.4895
16117SOL     OW49791   3.611   7.586   3.611 -0.0271  0.4519 -0.3855
16117SOL    HW149792   3.611   7.498   3.573 -0.7665  0.0481  0.5103
16117SOL    HW249793   3.703   7.607   3.624  0.1263 -0.8787  0.9071
16118SOL     OW49794   3.447   6.599   7.270 -0.0985 -0.2401  0.9344
16118SOL    HW149795   3.507   6.568   7.202 -0.2077 -1.2056  1.2684
16118SOL    HW249796   3.365   6.554   7.252 -0.3126 -0.0147  1.3346
16119SOL     OW49797   5.436   5.500   4.093  0.0256 -0.3079 -0.2408
16119SOL    HW149798   5.481   5.421   4.064 -0.2018 -1.9161  3.3213
16119SOL    HW249799   5.492   5.536   4.162 -1.4933  0.7574  0.5010
16120SOL     OW49800   5.274   5.206   4.408  0.2594 -0.4020  0.3511
16120SOL    HW149801   5.245   5.179   4.495  1.5536 -1.8242  0.3836
16120SOL    HW249802   5.254   5.131   4.351  0.3898  0.0873 -0.3529
16121SOL     OW49803   4.006   6.861   4.715 -0.6319 -0.0532 -0.1446
16121SOL    HW149804   3.967   6.781   4.750 -0.2669  0.5024  1.6149
16121SOL    HW249805   4.093   6.865   4.755 -1.0248  1.7312  0.6296
16122SOL     OW49806   3.811   5.879   4.366 -0.5679 -0.2516 -0.1399
16122SOL    HW149807   3.791   5.972   4.355 -0.2860  0.0123  1.3153
16122SOL    HW249808   3.903   5.871   4.342 -0.7827 -0.2935 -0.9550
16123SOL     OW49809   3.907   6.609   4.826 -0.1731 -0.3799  0.0178
16123SOL    HW149810   3.826   6.563   4.804 -0.5897  0.5027 -0.3632
16123SOL    HW249811   3.970   6.540   4.843 -0.2745 -1.1277 -2.3166
16124SOL     OW49812   5.348   5.434   4.532  0.1641 -0.7423 -0.5747
16124SOL    HW149813   5.435   5.467   4.508 -0.2123 -0.2679 -1.3183
16124SOL    HW249814   5.333   5.360   4.474  0.2983 -1.1895 -0.0542
16125SOL     OW49815   4.821   6.807   4.281  0.3074  0.2450 -0.3792
16125SOL    HW149816   4.730   6.830   4.261  0.5613  0.6943 -1.0499
16125SOL    HW249817   4.841   6.735   4.222  0.7173  0.8547 -0.9969
16126SOL     OW49818   5.169   7.125   4.554 -0.0315 -0.3662  0.1227
16126SOL    HW149819   5.259   7.156   4.558 -0.2637  0.3973 -0.3324
16126SOL    HW249820   5.175   7.031   4.570  0.8134 -0.2790  0.3573
16127SOL     OW49821   5.002   5.182   5.937 -0.5855 -0.3672 -0.1282
16127SOL    HW149822   5.000   5.239   5.860  1.1402 -0.5115 -0.3142
16127SOL    HW249823   4.911   5.156   5.949 -1.1004  0.7514 -1.2927
16128SOL     OW49824   4.584   4.512   2.635 -0.0214 -0.3867 -0.2511
16128SOL    HW149825   4.674   4.537   2.615 -0.4129  1.1448 -0.2634
16128SOL    HW249826   4.545   4.493   2.550 -0.0083  0.0815 -0.3666
16129SOL     OW49827   3.907   5.886   3.013  0.5540 -0.4307  0.3624
16129SOL    HW149828   4.002   5.895   2.998  0.1950  1.3038 -1.4039
16129SOL    HW249829   3.869   5.892   2.925 -1.3064  1.0457  1.2056
16130SOL     OW49830   5.849   6.809   4.613  0.1700  0.0202  0.1253
16130SOL    HW149831   5.858   6.898   4.649 -1.1375  0.5789 -0.8320
16130SOL    HW249832   5.755   6.800   4.596  0.3781 -1.3143 -0.3761
16131SOL     OW49833   2.468   5.500   3.365 -0.4325  0.1991  0.9398
16131SOL    HW149834   2.472   5.427   3.427 -0.0718  0.3904  1.1460
16131SOL    HW249835   2.521   5.471   3.290 -0.2538  0.2651  1.0398
16132SOL     OW49836   5.767   6.977   5.579 -0.3665 -0.0066  0.1261
16132SOL    HW149837   5.682   6.958   5.619 -1.4554  1.8514 -1.1201
16132SOL    HW249838   5.825   6.997   5.652 -1.7257  1.1913  0.9334
16133SOL     OW49839   3.572   6.629   5.725 -0.0892  0.2656  0.1805
16133SOL    HW149840   3.631   6.695   5.687  3.0165 -0.9323  2.5109
16133SOL    HW249841   3.583   6.638   5.820 -1.8077 -1.7056  0.6498
16134SOL     OW49842   3.606   5.232   6.391  0.0193 -0.0024 -0.1206
16134SOL    HW149843   3.685   5.219   6.444 -1.0388 -3.0654  0.9473
16134SOL    HW249844   3.545   5.278   6.449 -0.1704 -0.8202  0.3362
16135SOL     OW49845   4.436   5.985   5.266  0.5744  0.8144 -0.9689
16135SOL    HW149846   4.490   6.046   5.215  1.1130  0.3399 -0.9804
16135SOL    HW249847   4.346   6.015   5.252  0.7812  1.1900 -1.5294
16136SOL     OW49848   5.949   6.355   6.288  0.1090  0.0201  0.0968
16136SOL    HW149849   5.999   6.365   6.369 -1.3068 -0.6455  1.0779
16136SOL    HW249850   5.882   6.290   6.309  0.4518 -1.0699 -1.9601
16137SOL     OW49851   4.004   5.549   6.604 -0.0509  0.0846 -0.2212
16137SOL    HW149852   4.028   5.481   6.541  0.6224  0.7674 -0.7232
16137SOL    HW249853   4.039   5.518   6.687 -1.4143 -1.0866 -0.0547
16138SOL     OW49854   4.997   6.549   4.444  0.6233  0.1146 -0.1601
16138SOL    HW149855   5.001   6.594   4.529 -0.8700 -0.0223 -0.0022
16138SOL    HW249856   4.906   6.522   4.435  0.0649  2.5347 -3.0647
16139SOL     OW49857   6.018   6.714   5.099 -0.5113 -0.2114  0.6384
16139SOL    HW149858   5.968   6.795   5.108  0.0113  0.0650  1.1002
16139SOL    HW249859   6.019   6.697   5.004 -1.2118 -0.0644  0.5949
16140SOL     OW49860   6.128   6.196   7.183 -0.0138  0.4726  0.3237
16140SOL    HW149861   6.108   6.290   7.182  0.7434  0.6545 -1.3477
16140SOL    HW249862   6.042   6.153   7.190 -0.3650  1.2696  1.1279
16141SOL     OW49863   5.624   6.099   6.785  0.3286  0.0149  0.2997
16141SOL    HW149864   5.550   6.053   6.744  0.8814 -0.5937 -0.0174
16141SOL    HW249865   5.685   6.030   6.810  0.1626  0.4094  1.8555
16142SOL     OW49866   5.420   6.861   5.040  0.2772 -0.1264  0.0544
16142SOL    HW149867   5.424   6.766   5.044 -2.2188 -0.2662  1.4678
16142SOL    HW249868   5.474   6.891   5.114  1.5130 -0.3913 -0.7249
16143SOL     OW49869   6.192   5.721   7.560 -0.3527 -0.4061  0.4678
16143SOL    HW149870   6.156   5.667   7.489 -2.6743  0.0886  1.1596
16143SOL    HW249871   6.279   5.746   7.530 -0.0187 -2.7678 -0.7926
16144SOL     OW49872   3.014   7.241   8.028  0.1913 -0.1582  0.0310
16144SOL    HW149873   2.980   7.309   8.086 -1.3993 -0.4525 -0.5158
16144SOL    HW249874   3.061   7.181   8.086  0.8041  0.8823  0.6416
16145SOL     OW49875   3.974   6.200   7.612  0.1468  0.9409 -0.4961
16145SOL    HW149876   3.890   6.176   7.652  0.3065  1.2083 -0.0005
16145SOL    HW249877   3.952   6.216   7.520 -0.6390  2.4503 -0.0924
16146SOL     OW49878   2.328   5.755   7.891  0.3915  0.6835  0.8102
16146SOL    HW149879   2.359   5.719   7.974 -2.7589  0.3075  1.9893
16146SOL    HW249880   2.406   5.791   7.849  2.3551 -0.4760  3.2241
16147SOL     OW49881   5.772   5.561   6.656  0.3906 -0.2368 -0.0010
16147SOL    HW149882   5.703   5.516   6.705  0.6971 -1.2983 -0.5105
16147SOL    HW249883   5.848   5.559   6.715  0.4664 -0.5927 -0.1094
16148SOL     OW49884   4.635   0.388   4.782 -0.0965 -0.7171  0.4004
16148SOL    HW149885   4.606   0.346   4.701 -0.4674 -2.7616  1.5501
16148SOL    HW249886   4.611   0.327   4.851 -0.6157  1.3847  2.1807
16149SOL     OW49887   5.037   0.015   6.677 -0.6855  0.5571  0.2873
16149SOL    HW149888   4.956   0.066   6.672 -2.0578 -1.4217  1.0541
16149SOL    HW249889   5.013  -0.064   6.725  1.5439 -0.4452 -0.1044
16150SOL     OW49890   3.040   5.715   8.605  0.2646 -0.3061  0.1108
16150SOL    HW149891   2.954   5.751   8.584 -0.4087 -2.4427 -1.1871
16150SOL    HW249892   3.101   5.766   8.552 -0.5235 -0.3499 -0.8829
16151SOL     OW49893   5.412   5.982   7.003  0.3559 -0.0262 -0.2058
16151SOL    HW149894   5.453   5.969   7.088  2.1205 -1.2927 -1.1690
16151SOL    HW249895   5.462   6.053   6.963 -0.0301  0.1143 -0.4425
16152SOL     OW49896   2.463   6.599   8.724 -0.4503  0.1696 -0.0228
16152SOL    HW149897   2.511   6.649   8.789 -0.1009 -0.7036  0.4063
16152SOL    HW249898   2.504   6.513   8.724 -2.2804 -0.7580  0.6781
16153SOL     OW49899   4.508   6.402   6.261 -0.6507 -0.4984 -0.3637
16153SOL    HW149900   4.540   6.313   6.245 -0.1684 -0.5064  0.6033
16153SOL    HW249901   4.512   6.444   6.176  2.4386 -0.3399 -0.2405
16154SOL     OW49902   5.183   4.378   5.993  0.1956  0.3268  0.4772
16154SOL    HW149903   5.090   4.394   6.009  0.0158  0.0538 -0.2551
16154SOL    HW249904   5.195   4.286   6.016 -0.1961 -0.2438 -1.4007
16155SOL     OW49905   5.037   5.345   5.155  0.6493  0.1507  0.8951
16155SOL    HW149906   4.995   5.266   5.189 -0.6767 -0.2348 -1.3862
16155SOL    HW249907   5.129   5.322   5.146  0.1609 -1.4562 -0.4304
16156SOL     OW49908   5.564   7.785   5.391  0.1563  0.1596  0.1435
16156SOL    HW149909   5.658   7.771   5.393 -0.1751 -3.1251 -0.4532
16156SOL    HW249910   5.532   7.722   5.326 -2.3413  2.2519 -0.8434
16157SOL     OW49911   3.639   5.924   5.329  0.4916 -0.0899 -0.6322
16157SOL    HW149912   3.554   5.968   5.330  1.1007  1.1237 -0.8258
16157SOL    HW249913   3.699   5.986   5.372  1.3034 -0.8817 -0.5840
16158SOL     OW49914   5.834   6.200   4.401 -0.0311  0.1926 -0.1409
16158SOL    HW149915   5.922   6.193   4.363  0.9630  0.9523  1.8307
16158SOL    HW249916   5.813   6.111   4.429  0.1522  0.0142 -0.5677
16159SOL     OW49917   5.932   5.766   5.502 -0.3002  0.1600  0.2765
16159SOL    HW149918   5.988   5.832   5.542  0.4421  0.1049 -0.6402
16159SOL    HW249919   5.965   5.682   5.535  0.0324  0.1372 -0.1200
16160SOL     OW49920   4.556   5.758   7.531  0.2943 -0.1879  0.3817
16160SOL    HW149921   4.476   5.811   7.535  0.5977  0.3379 -0.2249
16160SOL    HW249922   4.574   5.749   7.438  1.3271  0.3147  0.5087
16161SOL     OW49923   4.474   6.939   8.205  0.5869 -0.1966  0.2266
16161SOL    HW149924   4.492   7.030   8.179  0.1938 -0.8005 -2.5520
16161SOL    HW249925   4.382   6.940   8.231 -0.0897 -0.1236 -1.9600
16162SOL     OW49926   5.141   5.520   5.888  0.1003  0.2035  0.6541
16162SOL    HW149927   5.052   5.548   5.865  0.1955 -0.0473 -0.0337
16162SOL    HW249928   5.150   5.434   5.848  0.7357  0.3242  0.5358
16163SOL     OW49929   6.165   5.796   7.188  0.0334 -0.0842 -0.3286
16163SOL    HW149930   6.199   5.770   7.102  0.3756  0.1323 -0.2570
16163SOL    HW249931   6.242   5.802   7.244 -0.0128  1.2688 -0.3892
16164SOL     OW49932   3.315   7.221   7.106 -0.5735 -0.1272 -0.6993
16164SOL    HW149933   3.403   7.225   7.144 -1.0762 -0.4065  0.5549
16164SOL    HW249934   3.329   7.208   7.013  0.7328  1.2318 -0.7345
16165SOL     OW49935   6.020   6.205   6.030  0.3071 -0.0344 -0.9658
16165SOL    HW149936   6.016   6.240   6.119  0.0703 -1.3526 -0.4415
16165SOL    HW249937   6.100   6.153   6.028  0.9497  0.9355 -1.9117
16166SOL     OW49938   4.491   6.454   5.980 -0.1813  0.2583  0.0334
16166SOL    HW149939   4.529   6.541   5.992 -0.8374  0.6399 -0.5532
16166SOL    HW249940   4.491   6.442   5.885 -0.0366 -0.4166  0.1160
16167SOL     OW49941   3.790   5.399   6.267 -0.4924  0.1743 -0.0608
16167SOL    HW149942   3.799   5.346   6.188  0.6577 -0.1787  0.2994
16167SOL    HW249943   3.721   5.357   6.317  0.0253 -0.6622 -0.0390
16168SOL     OW49944   5.568   6.286   4.933  0.6881 -0.4512 -0.4970
16168SOL    HW149945   5.527   6.201   4.917 -1.1281  0.0456  1.2167
16168SOL    HW249946   5.509   6.331   4.993  2.3050  1.4948 -0.2506
16169SOL     OW49947   5.235   0.580   5.953  0.3455  0.2127 -0.0884
16169SOL    HW149948   5.147   0.544   5.939  0.4779 -0.4644  0.7653
16169SOL    HW249949   5.246   0.582   6.048  1.3639 -0.0005 -0.1857
16170SOL     OW49950   4.007   5.580   6.225  0.0769  0.6761 -0.1522
16170SOL    HW149951   3.967   5.501   6.260  2.1733 -0.8373 -0.9851
16170SOL    HW249952   3.969   5.589   6.137 -2.3053  2.3086  0.9446
16171SOL     OW49953   4.806   5.643   7.271  0.2131 -0.2886 -0.1637
16171SOL    HW149954   4.890   5.620   7.310  1.8704  1.2417 -2.5653
16171SOL    HW249955   4.801   5.592   7.190 -0.6725  0.4224 -0.5858
16172SOL     OW49956   4.922   7.459   4.310 -0.0670  0.4941  0.1499
16172SOL    HW149957   4.867   7.396   4.356  0.6453  0.2351  0.6709
16172SOL    HW249958   4.944   7.524   4.376 -0.6160  1.1772 -0.3324
16173SOL     OW49959   6.814   6.278   8.256 -0.3500  0.4646 -0.1796
16173SOL    HW149960   6.876   6.265   8.328 -0.5878 -0.2161 -0.0961
16173SOL    HW249961   6.764   6.356   8.282  1.4075  1.9307 -0.9262
16174SOL     OW49962   3.252   5.930   7.914 -0.0085  0.0174 -0.4503
16174SOL    HW149963   3.193   5.935   7.990  0.4165 -0.7348 -0.0621
16174SOL    HW249964   3.194   5.918   7.839 -0.3554 -0.7965 -0.0616
16175SOL     OW49965   4.621   4.812   7.671 -0.5746 -0.4413 -0.0900
16175SOL    HW149966   4.647   4.828   7.581 -0.5792 -0.7578 -0.1473
16175SOL    HW249967   4.610   4.717   7.677 -2.5059 -0.2591 -0.2815
16176SOL     OW49968   4.875   6.511   7.611  0.9666 -0.5290 -0.9246
16176SOL    HW149969   4.911   6.532   7.525  2.5295 -0.7332 -0.3391
16176SOL    HW249970   4.781   6.526   7.601  1.0054 -1.2346 -2.8759
16177SOL     OW49971   6.133   5.857   3.634  0.1228  0.3054  0.6720
16177SOL    HW149972   6.105   5.836   3.546  1.3160 -0.0217  0.3501
16177SOL    HW249973   6.174   5.944   3.627  0.2567  0.2633  0.8898
16178SOL     OW49974   3.707   4.975   6.717  0.6475 -0.1566  0.3915
16178SOL    HW149975   3.649   5.050   6.705  1.8059  0.6395 -0.4041
16178SOL    HW249976   3.720   4.971   6.812  0.6654  0.7188  0.4366
16179SOL     OW49977   5.052   6.051   6.772 -0.0614  0.2236  0.3751
16179SOL    HW149978   5.085   6.134   6.737  0.5296 -0.0164  0.3601
16179SOL    HW249979   5.116   5.986   6.744 -1.1137 -0.4257 -0.6164
16180SOL     OW49980   6.686   6.046   5.882  0.0553  0.2993  0.0092
16180SOL    HW149981   6.693   6.138   5.906  0.4712 -0.2454  2.1913
16180SOL    HW249982   6.594   6.034   5.858 -0.3687  0.9693  1.2132
16181SOL     OW49983   5.133   5.458   7.249 -0.0072 -0.6548  0.0862
16181SOL    HW149984   5.225   5.470   7.226  0.6159 -1.4550  1.9768
16181SOL    HW249985   5.092   5.429   7.168  1.2366  0.4314 -0.9716
16182SOL     OW49986   5.800   6.151   4.997  0.0503  0.0246 -0.6383
16182SOL    HW149987   5.756   6.067   5.015 -0.5167  0.3311 -0.5777
16182SOL    HW249988   5.730   6.210   4.971  0.2582  0.8649  0.6111
16183SOL     OW49989   6.384   5.782   7.363 -0.1935  0.4156  0.0002
16183SOL    HW149990   6.429   5.697   7.355  1.0339  0.8493  1.8522
16183SOL    HW249991   6.455   5.845   7.376 -1.2479  1.2580  1.9975
16184SOL     OW49992   5.776   0.341   6.666  0.2101 -0.6548  0.1827
16184SOL    HW149993   5.695   0.292   6.653  0.0985 -0.6805  0.9011
16184SOL    HW249994   5.813   0.351   6.579 -0.4458 -0.8551 -0.1229
16185SOL     OW49995   4.003   7.103   7.227  0.0667 -0.4590  0.0894
16185SOL    HW149996   4.022   7.179   7.172 -0.7095 -0.2547  0.0917
16185SOL    HW249997   3.952   7.138   7.300 -1.0389 -1.0972 -0.3541
16186SOL     OW49998   6.528   6.321   6.808  0.5057 -0.2892  0.1002
16186SOL    HW149999   6.621   6.307   6.824 -0.0445 -1.6940  2.6427
16186SOL    HW250000   6.485   6.242   6.841 -1.5701  0.0430 -1.5606
16187SOL     OW50001   5.211   6.869   6.995 -0.0585 -0.2171 -0.4432
16187SOL    HW150002   5.117   6.864   7.011 -0.1999 -0.5416 -1.3027
16187SOL    HW250003   5.221   6.843   6.903  0.9569 -1.1601 -0.0923
16188SOL     OW50004   3.829   5.942   4.966  0.6356  0.4188 -0.5098
16188SOL    HW150005   3.890   5.881   4.926  0.3576  0.0501 -0.3802
16188SOL    HW250006   3.884   6.014   4.998  1.2491 -0.7244  1.1955
16189SOL     OW50007   6.039   5.233   7.604  0.3908  0.2033  0.0279
16189SOL    HW150008   6.074   5.257   7.518  0.6467 -0.2605  0.0001
16189SOL    HW250009   6.084   5.152   7.626  0.6658  0.5616  0.8088
16190SOL     OW50010   5.991   7.622   6.716 -0.5228  0.9812 -0.1045
16190SOL    HW150011   6.005   7.533   6.749  0.0838  0.7036 -1.0596
16190SOL    HW250012   5.902   7.644   6.744 -1.1651 -0.4175 -0.9122
16191SOL     OW50013   7.442   0.578   5.613  0.4309  0.5687  0.4043
16191SOL    HW150014   7.413   0.668   5.599 -1.5002 -0.1110 -0.1569
16191SOL    HW250015   7.392   0.547   5.688 -0.3518 -0.6298 -0.5688
16192SOL     OW50016   2.605   6.520   8.109  0.5161  0.0036  0.6605
16192SOL    HW150017   2.635   6.542   8.197  0.4524  0.9533  0.4508
16192SOL    HW250018   2.515   6.491   8.121  0.7327 -0.5517  0.9889
16193SOL     OW50019   5.691   6.639   4.865 -0.4722  0.4353 -0.0237
16193SOL    HW150020   5.651   6.670   4.784 -1.1345 -0.2702  0.0200
16193SOL    HW250021   5.618   6.626   4.925 -0.0308  0.5120  0.5400
16194SOL     OW50022   4.500   6.668   6.412 -0.0393  0.4220  0.0553
16194SOL    HW150023   4.546   6.609   6.353  0.4182  2.6879 -2.0458
16194SOL    HW250024   4.409   6.666   6.381  0.0779  1.1447 -0.3649
16195SOL     OW50025   5.650   5.152   4.444 -0.1827 -0.2665  0.2373
16195SOL    HW150026   5.710   5.078   4.454 -1.9814 -1.8672 -0.2217
16195SOL    HW250027   5.701   5.228   4.472  1.7782 -1.6453  0.6250
16196SOL     OW50028   3.984   7.104   6.391  0.1026  0.4316 -0.2863
16196SOL    HW150029   3.941   7.066   6.468 -0.3100  3.2196  0.9693
16196SOL    HW250030   4.075   7.077   6.400  0.1533  1.0432  1.4752
16197SOL     OW50031   5.769   5.275   6.537  0.0146 -0.0002 -0.1822
16197SOL    HW150032   5.743   5.343   6.600 -0.6499  0.8494 -1.3309
16197SOL    HW250033   5.714   5.292   6.460  0.5354 -1.2515 -0.8553
16198SOL     OW50034   4.645   5.317   5.874  0.1346  0.6739  0.8141
16198SOL    HW150035   4.696   5.239   5.897  2.6452  0.6489 -3.7714
16198SOL    HW250036   4.560   5.283   5.848 -0.6239  0.1661  3.5980
16199SOL     OW50037   6.117   5.303   7.323  0.2561  0.1118  0.8270
16199SOL    HW150038   6.081   5.321   7.236 -1.2477 -1.3219  1.0944
16199SOL    HW250039   6.150   5.213   7.317 -1.0297 -0.4846  2.0491
16200SOL     OW50040   4.542   6.915   7.817 -0.0043  0.0280 -0.1381
16200SOL    HW150041   4.599   6.961   7.878 -1.2714  0.7999  0.5030
16200SOL    HW250042   4.574   6.940   7.730 -0.4277  1.8573  0.2044
16201SOL     OW50043   5.658   7.944   7.202 -0.2635 -0.1711  0.4359
16201SOL    HW150044   5.743   7.979   7.227 -0.2114  0.5882 -0.7018
16201SOL    HW250045   5.645   7.868   7.258  1.3231 -0.5047  0.3887
16202SOL     OW50046   4.568   0.139   6.757  0.1559 -0.1006 -0.4899
16202SOL    HW150047   4.582   0.234   6.759 -1.4011  0.1330  0.7442
16202SOL    HW250048   4.642   0.105   6.705  0.1661  1.8640 -1.8705
16203SOL     OW50049   4.980   6.443   5.960 -0.3567  0.2641 -0.5883
16203SOL    HW150050   5.045   6.480   6.020 -0.3799  0.8756 -0.9420
16203SOL    HW250051   5.019   6.361   5.931 -0.3322 -0.0349  0.2421
16204SOL     OW50052   3.003   6.060   4.757  0.2125  0.7416 -0.1328
16204SOL    HW150053   2.957   6.041   4.839  0.6924  2.2667  0.5360
16204SOL    HW250054   3.057   6.137   4.778 -1.3760  2.6259 -2.5020
16205SOL     OW50055   5.801   7.691   5.597 -0.1302  0.2441 -0.5223
16205SOL    HW150056   5.716   7.665   5.632 -0.1035 -0.4147 -0.9319
16205SOL    HW250057   5.862   7.679   5.670 -0.8520  3.9933  0.9201
16206SOL     OW50058   4.971   5.622   6.506 -0.6313 -0.0789  0.4194
16206SOL    HW150059   4.939   5.626   6.596 -1.6686 -1.6544  0.1637
16206SOL    HW250060   4.930   5.698   6.463 -1.9215 -0.5448  0.7664
16207SOL     OW50061   4.783   6.466   7.264  0.2598  0.3205 -0.1621
16207SOL    HW150062   4.702   6.446   7.312  1.3803 -0.6743  1.4418
16207SOL    HW250063   4.755   6.521   7.191 -1.9037 -0.3098  0.1199
16208SOL     OW50064   5.238   6.412   6.504 -0.4870  0.2382  0.4225
16208SOL    HW150065   5.231   6.364   6.422  0.6361  0.8287 -0.0309
16208SOL    HW250066   5.288   6.490   6.483 -1.2932  1.0479  1.3983
16209SOL     OW50067   5.187   7.217   5.833 -0.5282 -0.0722  0.1553
16209SOL    HW150068   5.134   7.294   5.812 -0.3157  0.1555  0.4318
16209SOL    HW250069   5.137   7.143   5.800 -0.4751  0.2294 -0.6197
16210SOL     OW50070   3.859   7.407   6.073  0.4120 -0.2205  0.1817
16210SOL    HW150071   3.875   7.477   6.136 -0.6941  0.4322 -0.2423
16210SOL    HW250072   3.919   7.337   6.100  0.9107  0.5469  1.1380
16211SOL     OW50073   6.675   7.161   5.021  0.2184 -0.1495 -0.3940
16211SOL    HW150074   6.602   7.103   5.000 -0.2819  0.0208  0.8013
16211SOL    HW250075   6.635   7.248   5.027  0.2016 -0.2692  1.7908
16212SOL     OW50076   4.159   5.863   5.951  0.5301  0.5249 -0.3408
16212SOL    HW150077   4.245   5.825   5.935  1.0523  1.7486 -0.6042
16212SOL    HW250078   4.101   5.788   5.965  2.2185 -0.3234  3.1612
16213SOL     OW50079   3.709   6.344   8.098  0.5125 -0.6673  0.0947
16213SOL    HW150080   3.739   6.266   8.050 -0.4015 -0.9931  0.0325
16213SOL    HW250081   3.698   6.411   8.031  0.4470 -0.7446  0.0288
16214SOL     OW50082   3.113   5.655   6.079 -0.3792  0.1252  1.0858
16214SOL    HW150083   3.183   5.715   6.105  1.1029 -0.4046 -1.3617
16214SOL    HW250084   3.136   5.572   6.121  1.2452 -0.3754 -0.6454
16215SOL     OW50085   4.405   5.420   5.540 -0.1534  0.4557  1.2364
16215SOL    HW150086   4.445   5.386   5.460  0.2873  1.1518  1.1560
16215SOL    HW250087   4.405   5.345   5.600 -1.3808 -0.3479  0.2800
16216SOL     OW50088   3.584   5.221   6.781 -0.8287  0.4021 -0.7281
16216SOL    HW150089   3.522   5.261   6.721 -1.2093  0.3425 -0.3797
16216SOL    HW250090   3.656   5.283   6.787 -0.7304  0.3463 -1.3426
16217SOL     OW50091   5.558   4.721   6.959 -0.1480 -0.0302  0.1988
16217SOL    HW150092   5.537   4.709   6.866  2.9884 -1.8277 -0.4250
16217SOL    HW250093   5.529   4.640   7.001 -0.3647  0.2352  0.5695
16218SOL     OW50094   4.592   6.704   6.001 -0.4713  0.0671 -0.1961
16218SOL    HW150095   4.593   6.797   5.978  1.0258  0.4923  1.3727
16218SOL    HW250096   4.670   6.692   6.055  0.0037 -2.3715 -1.2982
16219SOL     OW50097   7.262   6.097   5.071  0.7059 -0.0519 -0.0607
16219SOL    HW150098   7.325   6.054   5.013 -0.3060  0.1904 -1.3982
16219SOL    HW250099   7.218   6.024   5.115  0.1370 -0.3450 -1.0815
16220SOL     OW50100   4.319   6.374   6.461 -0.5828 -0.4847 -0.0920
16220SOL    HW150101   4.233   6.396   6.426 -0.5367 -0.2573 -0.0670
16220SOL    HW250102   4.377   6.375   6.385 -0.9442 -2.5822 -0.4431
16221SOL     OW50103   4.525   0.203   5.968 -0.3965 -0.4486 -0.1175
16221SOL    HW150104   4.570   0.123   5.996 -0.3158  0.2997  2.1008
16221SOL    HW250105   4.529   0.260   6.045 -0.0791  1.8622 -1.7679
16222SOL     OW50106   6.870   5.905   6.912 -0.1435  0.3646 -0.3989
16222SOL    HW150107   6.825   5.983   6.944  0.7523  0.3156  1.0548
16222SOL    HW250108   6.959   5.935   6.894  0.4932 -0.5013  1.1233
16223SOL     OW50109   4.079   3.907   5.618  0.2932 -0.0007 -0.1181
16223SOL    HW150110   4.062   3.995   5.585  0.7406  0.4203  0.7770
16223SOL    HW250111   4.084   3.916   5.713  1.5842 -0.7686 -0.0805
16224SOL     OW50112   5.256   0.465   7.460 -0.1543 -0.1499  0.3010
16224SOL    HW150113   5.175   0.415   7.445  0.6280 -1.9762  1.7678
16224SOL    HW250114   5.256   0.484   7.554  1.0910 -0.1120  0.3122
16225SOL     OW50115   3.865   6.464   7.159 -0.4600  0.3627  0.2168
16225SOL    HW150116   3.790   6.511   7.122  0.1388  0.9500 -0.2804
16225SOL    HW250117   3.896   6.409   7.087  1.3425  2.2716 -0.5524
16226SOL     OW50118   5.920   0.784   7.458  0.4017 -0.1291 -0.3650
16226SOL    HW150119   5.892   0.813   7.371 -2.6689 -0.8571  0.2404
16226SOL    HW250120   5.877   0.845   7.519  1.9823 -0.0079  0.6983
16227SOL     OW50121   3.807   7.566   5.844 -0.1974  0.2619 -0.3034
16227SOL    HW150122   3.714   7.581   5.863  0.2032  1.0792  1.2588
16227SOL    HW250123   3.842   7.526   5.924  0.9790  0.8522 -0.4940
16228SOL     OW50124   5.822   5.958   6.136  0.5378  0.0684  0.0710
16228SOL    HW150125   5.814   5.865   6.115  1.5750  0.2191 -1.0875
16228SOL    HW250126   5.802   5.964   6.230 -0.4234 -1.1854 -0.0433
16229SOL     OW50127   4.738   7.698   7.360 -0.5234  0.2919 -0.0655
16229SOL    HW150128   4.675   7.634   7.325 -0.7754 -0.3272  1.4635
16229SOL    HW250129   4.823   7.656   7.349 -0.7412 -0.6484  1.5526
16230SOL     OW50130   5.854   6.249   7.523 -0.0971  0.4611 -0.1332
16230SOL    HW150131   5.874   6.176   7.582  2.0437  0.9446 -0.1756
16230SOL    HW250132   5.793   6.304   7.573  1.6946  0.8878  1.7357
16231SOL     OW50133   6.347   5.372   7.444 -0.1526 -0.5210  0.3591
16231SOL    HW150134   6.255   5.368   7.418 -0.1615 -1.3546  0.4889
16231SOL    HW250135   6.346   5.408   7.532 -0.2597  0.5589 -0.0651
16232SOL     OW50136   3.339   5.838   6.139  0.0401  0.0563  0.3164
16232SOL    HW150137   3.412   5.801   6.088 -1.0581 -0.4436 -0.9699
16232SOL    HW250138   3.378   5.910   6.188  1.2278  0.3722 -1.0257
16233SOL     OW50139   3.155   5.779   5.834 -0.1469  0.2734 -0.8348
16233SOL    HW150140   3.121   5.747   5.917 -0.6130  1.2486 -0.6352
16233SOL    HW250141   3.204   5.705   5.797  0.7469  0.0838  0.6744
16234SOL     OW50142   4.358   6.161   7.425 -0.1375  0.0255  0.2742
16234SOL    HW150143   4.352   6.248   7.465 -0.5648  0.6829 -1.1604
16234SOL    HW250144   4.299   6.165   7.349 -0.8170 -1.7903  0.6516
16235SOL     OW50145   4.920   0.785   7.667  0.0891  0.1748  0.0414
16235SOL    HW150146   4.922   0.755   7.576  2.3561 -0.3447  0.2146
16235SOL    HW250147   4.970   0.867   7.667 -0.8047  0.7449  0.6573
16236SOL     OW50148   4.966   7.711   6.730  0.5213 -0.1775  0.0681
16236SOL    HW150149   4.910   7.661   6.789  0.8661 -1.1141 -0.3696
16236SOL    HW250150   5.055   7.682   6.751  0.8585  1.1661  0.6458
16237SOL     OW50151   4.999   6.587   7.385  0.2669 -0.3789  0.1782
16237SOL    HW150152   5.038   6.642   7.317 -0.8218 -1.2381 -1.1982
16237SOL    HW250153   4.940   6.528   7.337 -0.8800 -0.7116  1.9193
16238SOL     OW50154   2.939   7.508   7.174  0.1687 -0.0057 -0.4235
16238SOL    HW150155   2.877   7.519   7.102  0.5029  0.9258 -0.5938
16238SOL    HW250156   3.020   7.547   7.140  0.2165  0.8293  0.5987
16239SOL     OW50157   4.445   5.535   7.374  0.2246 -0.3380 -0.3201
16239SOL    HW150158   4.491   5.600   7.321 -1.8147  0.0005 -1.7773
16239SOL    HW250159   4.354   5.563   7.374 -0.3176 -1.9218  1.0041
16240SOL     OW50160   5.608   6.708   6.505 -0.2741  0.6259 -0.3984
16240SOL    HW150161   5.659   6.657   6.443 -1.6030  1.9262 -2.7019
16240SOL    HW250162   5.601   6.795   6.465 -3.8583  0.6565 -0.0552
16241SOL     OW50163   4.502   6.977   6.041  0.6660  0.1833 -0.3544
16241SOL    HW150164   4.561   7.014   6.106  0.6047 -0.2228 -0.0620
16241SOL    HW250165   4.414   6.997   6.073  0.5980 -1.4622  0.5739
16242SOL     OW50166   5.409   6.645   7.301  0.0916  0.1209 -0.8320
16242SOL    HW150167   5.439   6.719   7.353 -0.9487  0.6779 -1.0146
16242SOL    HW250168   5.366   6.587   7.364 -0.5282  0.4514 -0.9450
16243SOL     OW50169   4.729   5.438   6.410 -0.3730  0.4764  0.1299
16243SOL    HW150170   4.734   5.415   6.317 -1.4220 -1.9776  0.5963
16243SOL    HW250171   4.805   5.494   6.425  0.8994 -0.6258 -1.7834
16244SOL     OW50172   2.302   7.391   7.382  0.0311 -0.2243  0.4243
16244SOL    HW150173   2.305   7.466   7.442 -1.3873 -0.1142  0.3865
16244SOL    HW250174   2.209   7.377   7.366  0.2315 -2.3401  0.8499
16245SOL     OW50175   5.059   5.894   7.034  0.1165  0.5851  0.1033
16245SOL    HW150176   5.149   5.917   7.057  0.8511  0.0540 -2.0266
16245SOL    HW250177   5.038   5.951   6.960 -1.6488  1.3131  1.0863
16246SOL     OW50178   6.143   6.693   7.943  0.3642  0.0520 -0.1103
16246SOL    HW150179   6.214   6.672   7.883 -0.3072 -0.6057 -0.7056
16246SOL    HW250180   6.087   6.615   7.941  0.9054 -0.4875  2.2457
16247SOL     OW50181   4.237   6.259   5.521  0.1606  0.2308  0.0662
16247SOL    HW150182   4.200   6.257   5.610  0.9875 -0.4136  0.4113
16247SOL    HW250183   4.327   6.227   5.532  0.1113 -0.3390 -1.0881
16248SOL     OW50184   6.151   6.242   5.596 -0.2086 -0.3665  0.4347
16248SOL    HW150185   6.246   6.239   5.580 -0.2594 -0.4134  0.1331
16248SOL    HW250186   6.143   6.277   5.685  0.0313  2.4735 -0.5720
16249SOL     OW50187   3.922   5.626   5.957 -0.2395 -0.3818 -0.4774
16249SOL    HW150188   3.964   5.552   5.914  0.1091  0.6887 -2.0971
16249SOL    HW250189   3.895   5.683   5.885 -0.5723  1.0168  0.6960
16250SOL     OW50190   4.027   5.547   7.997 -0.6398  0.3082 -0.7026
16250SOL    HW150191   4.099   5.519   7.941 -0.8679  1.7753 -1.7795
16250SOL    HW250192   3.980   5.612   7.945 -3.2985 -1.2340 -0.4213
16251SOL     OW50193   7.522   7.857   7.351  0.2032 -0.6865 -0.1233
16251SOL    HW150194   7.487   7.791   7.411 -1.0661 -0.4354 -0.5640
16251SOL    HW250195   7.574   7.806   7.288 -0.0950 -1.1733  0.0171
16252SOL     OW50196   4.488   6.388   6.901 -0.5299 -0.2529  0.0549
16252SOL    HW150197   4.472   6.440   6.822  0.7174  0.4150  0.2168
16252SOL    HW250198   4.402   6.353   6.924 -0.9094 -0.5298 -1.6313
16253SOL     OW50199   6.262   4.950   5.597 -0.7153 -0.2055 -0.1833
16253SOL    HW150200   6.321   5.001   5.542 -0.0364 -2.6419 -1.9165
16253SOL    HW250201   6.191   4.923   5.537 -0.8666 -1.5136  0.5530
16254SOL     OW50202   5.077   4.665   4.860 -0.7179  0.2037 -0.3191
16254SOL    HW150203   5.121   4.745   4.889  2.2035 -0.7548 -1.6836
16254SOL    HW250204   5.055   4.619   4.941 -0.3918  1.3677  0.4507
16255SOL     OW50205   4.913   5.313   6.642  0.0092 -0.5799  0.9448
16255SOL    HW150206   4.928   5.252   6.569  1.6149  0.1553  0.6078
16255SOL    HW250207   4.818   5.317   6.650 -0.1678 -2.0486  0.0671
16256SOL     OW50208   2.800   4.399   5.890  0.0003 -0.3560 -0.4853
16256SOL    HW150209   2.739   4.353   5.948 -2.1569  1.7315 -0.9490
16256SOL    HW250210   2.830   4.332   5.829 -1.4512 -1.5802  0.0808
16257SOL     OW50211   4.072   6.379   6.280 -0.3399  0.2215  0.4352
16257SOL    HW150212   3.983   6.410   6.262  0.1214  2.9444  2.1480
16257SOL    HW250213   4.116   6.383   6.195 -1.2713  1.1319 -0.0296
16258SOL     OW50214   5.571   5.441   6.780  0.2597  0.4540 -0.2503
16258SOL    HW150215   5.500   5.390   6.740 -0.3242  2.5755 -2.0938
16258SOL    HW250216   5.530   5.485   6.854  0.0310  0.5233 -0.4176
16259SOL     OW50217   4.361   5.083   6.190 -0.6039 -0.6435  0.1314
16259SOL    HW150218   4.361   4.987   6.193 -1.3050 -0.6442  0.3116
16259SOL    HW250219   4.324   5.104   6.105 -1.9722 -0.5398  0.7217
16260SOL     OW50220   3.686   6.267   5.204  0.0660  0.3012 -0.2689
16260SOL    HW150221   3.709   6.212   5.279  2.5107  0.0622 -1.1199
16260SOL    HW250222   3.753   6.248   5.139 -1.8415  0.6894 -2.4645
16261SOL     OW50223   3.712   6.307   7.402  0.0425 -0.0355  0.0130
16261SOL    HW150224   3.618   6.312   7.385  0.0544 -1.6147 -0.6575
16261SOL    HW250225   3.752   6.321   7.316  0.3900 -0.2088  0.1466
16262SOL     OW50226   5.337   7.945   7.405 -0.9731  0.0808 -0.1326
16262SOL    HW150227   5.354   7.996   7.485 -2.0192  1.4224 -0.7259
16262SOL    HW250228   5.347   8.008   7.334 -0.7431 -0.9384 -1.0311
16263SOL     OW50229   5.380   7.280   6.616 -0.0239 -0.8610 -0.1374
16263SOL    HW150230   5.434   7.224   6.673  1.4981 -0.4938 -1.1503
16263SOL    HW250231   5.442   7.342   6.578 -1.0673 -0.7748 -1.8026
16264SOL     OW50232   3.115   5.830   7.272  0.2710 -0.2334  0.9489
16264SOL    HW150233   3.199   5.832   7.318  1.5287 -0.4619 -1.1751
16264SOL    HW250234   3.111   5.742   7.233  0.5663  0.7505 -1.4918
16265SOL     OW50235   3.030   5.610   7.158 -0.1244  0.0876 -0.6617
16265SOL    HW150236   3.078   5.550   7.215  0.5214  1.4233  0.2784
16265SOL    HW250237   3.056   5.586   7.070  1.6351  0.1779 -0.2223
16266SOL     OW50238   4.262   6.416   7.521 -0.1748  0.1825  0.2467
16266SOL    HW150239   4.234   6.394   7.610 -0.2491 -0.6746  0.0142
16266SOL    HW250240   4.356   6.428   7.528  0.1373 -1.8122  0.0941
16267SOL     OW50241   5.832   5.415   5.953 -0.5435 -0.3691 -0.4368
16267SOL    HW150242   5.779   5.338   5.977 -1.5395  0.6327  0.6781
16267SOL    HW250243   5.920   5.380   5.940 -0.3380 -1.3515  2.7870
16268SOL     OW50244   5.119   5.679   6.870 -0.2568 -0.3040 -0.6545
16268SOL    HW150245   5.166   5.755   6.836  0.1892 -0.4170 -0.2984
16268SOL    HW250246   5.071   5.712   6.946  0.2213 -0.4481 -0.2827
16269SOL     OW50247   3.271   6.884   8.269 -0.5644  0.0445 -0.8306
16269SOL    HW150248   3.254   6.797   8.233 -5.1253  1.0472 -1.7671
16269SOL    HW250249   3.244   6.878   8.361  1.3905 -0.0127 -0.2127
16270SOL     OW50250   5.531   5.820   6.698 -0.0312  0.2388  0.2696
16270SOL    HW150251   5.610   5.810   6.752  0.7297 -0.7566 -0.9749
16270SOL    HW250252   5.498   5.730   6.687 -1.1850  0.6131  0.5144
16271SOL     OW50253   4.841   1.203   7.232 -0.0880 -0.1864  0.2230
16271SOL    HW150254   4.925   1.210   7.277  0.4303 -0.2374 -0.7107
16271SOL    HW250255   4.857   1.241   7.146 -1.6582  2.0563  0.8237
16272SOL     OW50256   4.780   6.080   7.671 -0.5012 -0.2597 -0.0285
16272SOL    HW150257   4.846   6.031   7.721  0.5245  1.3847  0.2889
16272SOL    HW250258   4.697   6.040   7.696  0.1213 -0.4703  1.8232
16273SOL     OW50259   3.236   6.298   6.868  0.2812  0.8070  0.0911
16273SOL    HW150260   3.176   6.257   6.930  0.5471 -0.1830 -0.2853
16273SOL    HW250261   3.200   6.277   6.782  0.5036  1.2486 -0.1136
16274SOL     OW50262   5.779   5.877   6.854 -0.4992 -0.1290  0.2488
16274SOL    HW150263   5.800   5.861   6.946 -0.1949  0.6520  0.3223
16274SOL    HW250264   5.857   5.849   6.806 -0.6605 -0.5429  0.2314
16275SOL     OW50265   6.565   6.330   5.122  0.0927  0.3536 -0.2181
16275SOL    HW150266   6.638   6.301   5.067 -0.0418 -0.9653  0.2523
16275SOL    HW250267   6.534   6.250   5.164  0.0563  1.2738  1.6261
16276SOL     OW50268   5.511   5.850   7.239  0.1328  1.0766  0.8829
16276SOL    HW150269   5.580   5.887   7.294  2.3056  2.0455 -2.2060
16276SOL    HW250270   5.548   5.769   7.204 -0.3335  1.4580 -0.5921
16277SOL     OW50271   3.930   7.199   5.520 -0.0934 -0.5743  0.1325
16277SOL    HW150272   3.955   7.209   5.612 -0.2398 -1.3348  0.2600
16277SOL    HW250273   3.999   7.144   5.482 -0.0494 -0.2890 -0.2062
16278SOL     OW50274   4.139   5.517   6.859  0.1287  1.0391  0.4280
16278SOL    HW150275   4.067   5.466   6.895 -2.1674  1.9245 -2.5240
16278SOL    HW250276   4.217   5.465   6.877 -1.8934 -3.1783 -1.5529
16279SOL     OW50277   4.604   6.700   8.114  0.1143 -0.3758 -0.1963
16279SOL    HW150278   4.679   6.751   8.084 -0.1577  0.0027 -0.2381
16279SOL    HW250279   4.558   6.757   8.175 -0.9317 -0.0446 -1.2590
16280SOL     OW50280   6.197   5.148   6.267  0.0645 -0.1567 -0.1517
16280SOL    HW150281   6.259   5.122   6.336 -0.1908 -0.3149  0.0227
16280SOL    HW250282   6.133   5.203   6.313 -1.0273 -1.5457  0.1086
16281SOL     OW50283   4.501   6.484   6.661 -0.6392  0.1321 -0.0082
16281SOL    HW150284   4.580   6.460   6.612 -0.9528 -1.6366  0.2885
16281SOL    HW250285   4.429   6.461   6.602 -0.9559  0.3083  0.3115
16282SOL     OW50286   2.373   6.531   9.299 -0.0818 -0.2748 -0.3196
16282SOL    HW150287   2.417   6.594   9.356  0.9629 -0.4966 -0.8527
16282SOL    HW250288   2.381   6.447   9.345  0.6827 -0.4381 -0.7344
16283SOL     OW50289   5.694   5.906   4.989  0.0938 -0.5244 -0.2526
16283SOL    HW150290   5.738   5.821   4.986 -1.4236 -1.3309 -0.8169
16283SOL    HW250291   5.630   5.897   5.060 -1.0001 -0.3465 -1.1921
16284SOL     OW50292   7.491   0.259   7.937  0.1907  0.1992  0.2351
16284SOL    HW150293   7.405   0.262   7.894 -0.1146 -1.9430  0.5635
16284SOL    HW250294   7.491   0.335   7.996 -2.1649 -0.5916  1.4121
16285SOL     OW50295   4.890   5.926   4.475 -0.5201 -0.0444  0.1052
16285SOL    HW150296   4.890   6.017   4.506 -0.6230  0.0315 -0.1190
16285SOL    HW250297   4.882   5.933   4.380  1.5657 -0.2183 -0.1270
16286SOL     OW50298   4.727   6.472   6.498 -0.3541 -0.2886 -0.5955
16286SOL    HW150299   4.708   6.401   6.436  0.5064  0.3938 -1.6893
16286SOL    HW250300   4.815   6.453   6.530  0.0181  0.4436 -1.1514
16287SOL     OW50301   3.990   6.130   7.028  0.2717  0.5564  0.3345
16287SOL    HW150302   3.993   6.048   6.979  2.2724  0.3786  0.6704
16287SOL    HW250303   3.897   6.146   7.042 -0.2450 -0.6853 -1.3367
16288SOL     OW50304   1.784   5.560   5.816 -0.2074 -0.1309  0.1551
16288SOL    HW150305   1.815   5.514   5.894 -1.8381 -0.5785  0.5632
16288SOL    HW250306   1.726   5.628   5.849 -0.7679 -0.2036 -0.6448
16289SOL     OW50307   4.895   5.913   5.673  0.3243 -0.3088  0.3519
16289SOL    HW150308   4.811   5.939   5.711 -0.0359  0.5434 -0.9601
16289SOL    HW250309   4.954   5.986   5.693  0.0081  0.3679 -1.0622
16290SOL     OW50310   6.011   6.632   6.028  0.4307  0.8560 -0.1215
16290SOL    HW150311   6.089   6.584   6.056 -0.2367  0.3362  0.8993
16290SOL    HW250312   5.938   6.576   6.054 -0.2868  1.3940 -0.9614
16291SOL     OW50313   5.479   5.889   6.334 -0.2457  0.0761  0.4006
16291SOL    HW150314   5.440   5.825   6.275  0.1627 -0.3974  0.6308
16291SOL    HW250315   5.442   5.973   6.307 -0.5240 -0.2119 -0.1304
16292SOL     OW50316   5.488   5.873   5.190  0.2727 -0.3767  0.2597
16292SOL    HW150317   5.397   5.845   5.188  0.0873  0.2577 -0.5365
16292SOL    HW250318   5.485   5.967   5.210  0.7000 -0.1589 -0.6676
16293SOL     OW50319   3.180   5.732   6.589  0.5467  0.2035 -0.5134
16293SOL    HW150320   3.146   5.663   6.645  1.5367  1.6185  1.9964
16293SOL    HW250321   3.241   5.687   6.530  0.3273 -1.2200  0.2915
16294SOL     OW50322   3.895   5.887   7.176  0.1464  0.5556  0.1684
16294SOL    HW150323   3.806   5.881   7.140 -0.8034  0.8660  2.2831
16294SOL    HW250324   3.930   5.798   7.167 -0.0257  0.6246 -1.4638
16295SOL     OW50325   5.625   6.236   6.376 -0.1298 -0.3735  0.0427
16295SOL    HW150326   5.532   6.218   6.360 -0.3270 -0.4197  1.1913
16295SOL    HW250327   5.665   6.150   6.385 -0.2203 -0.3387  0.8453
16296SOL     OW50328   5.482   5.610   6.982 -0.1479  0.6064 -0.2988
16296SOL    HW150329   5.406   5.661   7.011 -1.7599 -2.2420  0.9680
16296SOL    HW250330   5.527   5.586   7.063 -0.2641 -1.0850 -0.6952
16297SOL     OW50331   4.679   6.760   7.391  0.2085 -0.0915  0.8121
16297SOL    HW150332   4.654   6.672   7.420 -2.2447 -0.1847 -1.2830
16297SOL    HW250333   4.602   6.794   7.347  1.7726  2.3325 -0.2632
16298SOL     OW50334   5.645   5.330   8.017  0.9144  0.7087 -0.3855
16298SOL    HW150335   5.639   5.253   7.959  1.6249  0.1458  0.2610
16298SOL    HW250336   5.618   5.297   8.103 -2.1389  2.0083 -0.7214
16299SOL     OW50337   4.853   4.863   4.503 -0.1267 -0.2629  0.0554
16299SOL    HW150338   4.783   4.891   4.562  0.7264 -0.6727  1.3118
16299SOL    HW250339   4.897   4.792   4.550  1.7711  0.6744 -0.2022
16300SOL     OW50340   4.557   5.745   7.253  0.3524 -0.5985  0.3876
16300SOL    HW150341   4.648   5.742   7.225  0.1487 -2.3931 -0.1783
16300SOL    HW250342   4.507   5.755   7.172 -0.0194 -1.1564  0.5412
16301SOL     OW50343   4.305   5.170   7.431 -0.7759  0.6142  0.8633
16301SOL    HW150344   4.262   5.085   7.421 -1.2351  0.8211  1.0513
16301SOL    HW250345   4.264   5.225   7.365 -0.1084  0.5572  0.3827
16302SOL     OW50346   3.401   5.403   7.055  0.4833 -0.5352 -0.3044
16302SOL    HW150347   3.450   5.323   7.071 -0.2288 -1.0286 -0.5199
16302SOL    HW250348   3.313   5.384   7.088  0.5165  0.4382  0.3670
16303SOL     OW50349   5.934   5.565   8.653  0.0370  0.5289  0.9103
16303SOL    HW150350   5.845   5.539   8.677 -0.5415  2.2420  0.7796
16303SOL    HW250351   5.984   5.557   8.734 -0.2434 -0.3818  1.0034
16304SOL     OW50352   3.341   6.646   5.537  0.2453 -0.4274 -0.5702
16304SOL    HW150353   3.416   6.640   5.596 -1.0902 -1.4756  1.1178
16304SOL    HW250354   3.304   6.733   5.554 -1.3830 -1.4854  1.8597
16305SOL     OW50355   5.713   7.511   5.956  0.1514 -0.4697 -0.1609
16305SOL    HW150356   5.689   7.454   6.028 -0.0363 -2.4281 -1.6900
16305SOL    HW250357   5.631   7.552   5.929 -0.1189 -1.1473 -0.4009
16306SOL     OW50358   4.919   6.223   6.438 -0.3886 -0.0032  0.7392
16306SOL    HW150359   5.010   6.255   6.436  0.3963 -2.0376  1.0277
16306SOL    HW250360   4.903   6.192   6.349 -0.0469 -1.4882  1.1665
16307SOL     OW50361   5.921   0.037   6.661 -0.1199  0.1545 -0.3612
16307SOL    HW150362   5.954   0.069   6.577  1.4309 -0.3409  0.0264
16307SOL    HW250363   5.929   0.112   6.721  0.4356 -0.0060 -0.2344
16308SOL     OW50364   5.971   6.016   8.582 -0.2591 -0.3492  0.2306
16308SOL    HW150365   5.962   6.050   8.671  0.0652  0.5286 -0.0640
16308SOL    HW250366   6.065   6.001   8.571 -0.0349  1.3778 -0.5985
16309SOL     OW50367   4.700   6.211   6.868  0.1400  0.6686  0.2165
16309SOL    HW150368   4.621   6.264   6.874 -1.8373 -2.0089 -0.4608
16309SOL    HW250369   4.688   6.158   6.789  0.7998 -2.4482  2.0344
16310SOL     OW50370   3.409   6.115   8.191 -0.6581 -0.0302 -0.1272
16310SOL    HW150371   3.401   6.184   8.256 -0.9243  0.2994 -0.5113
16310SOL    HW250372   3.319   6.094   8.166 -0.5249  0.4561 -1.0350
16311SOL     OW50373   5.526   7.129   5.896  0.2433 -0.2719 -0.4687
16311SOL    HW150374   5.522   7.157   5.987  1.1187  2.7986 -1.2350
16311SOL    HW250375   5.591   7.059   5.894  0.0240 -0.5516  1.2752
16312SOL     OW50376   5.067   4.836   6.650  0.6747 -0.0958  0.1469
16312SOL    HW150377   5.108   4.874   6.572  0.1646 -1.2580 -0.7183
16312SOL    HW250378   4.978   4.816   6.624  0.4195 -0.2885  1.1144
16313SOL     OW50379   2.345   5.675   6.019 -0.0982 -0.8265 -0.4751
16313SOL    HW150380   2.367   5.693   6.110  0.8727  1.1892 -1.0490
16313SOL    HW250381   2.421   5.627   5.985  0.7127  0.6650 -0.8457
16314SOL     OW50382   6.066   5.751   7.797 -0.0224 -0.0467 -0.0985
16314SOL    HW150383   6.084   5.722   7.707  0.1492  0.8200 -0.3541
16314SOL    HW250384   6.041   5.671   7.843  0.7248 -0.6469 -0.6998
16315SOL     OW50385   4.890   6.976   6.585  0.0371 -0.1149  0.1431
16315SOL    HW150386   4.943   7.023   6.521 -0.6995  0.1342 -0.3013
16315SOL    HW250387   4.818   7.036   6.606  0.2991 -0.1679  1.2591
16316SOL     OW50388   3.674   7.041   6.907  0.3761  0.3549 -0.1899
16316SOL    HW150389   3.587   7.063   6.872  0.0057  0.9231  1.0305
16316SOL    HW250390   3.661   6.956   6.950  0.3605  0.5691  0.2272
16317SOL     OW50391   5.100   6.249   7.637  0.6456 -0.4972 -0.3561
16317SOL    HW150392   5.069   6.158   7.638 -0.0155 -0.2810  1.2774
16317SOL    HW250393   5.041   6.294   7.577 -1.3583 -0.4275  1.5341
16318SOL     OW50394   4.350   6.542   5.502 -0.1061 -0.4606  0.2902
16318SOL    HW150395   4.294   6.619   5.514 -0.1450 -0.5605  0.7879
16318SOL    HW250396   4.296   6.469   5.532  0.9563 -0.3429  2.7290
16319SOL     OW50397   5.666   6.253   6.084  0.4321 -0.2422  0.0615
16319SOL    HW150398   5.576   6.287   6.093  0.5099  0.0808 -0.3596
16319SOL    HW250399   5.683   6.209   6.168  0.1458  0.3392  0.4375
16320SOL     OW50400   5.435   5.482   4.901  0.3471  0.1116 -0.5991
16320SOL    HW150401   5.518   5.475   4.855  0.2519 -1.1727 -0.6125
16320SOL    HW250402   5.459   5.498   4.992  0.6987 -1.9566 -0.2802
16321SOL     OW50403   3.499   7.127   8.625 -0.2775 -0.3828 -0.2642
16321SOL    HW150404   3.567   7.087   8.571  0.5148  0.9211 -0.2798
16321SOL    HW250405   3.547   7.178   8.690 -1.2050 -1.7810  1.6321
16322SOL     OW50406   3.690   6.437   4.754  0.7783  0.1297  0.1304
16322SOL    HW150407   3.688   6.346   4.786  1.3289  0.3195  0.7258
16322SOL    HW250408   3.631   6.484   4.813  0.0962  0.0694 -0.4902
16323SOL     OW50409   5.646   7.313   7.504 -0.3325 -0.4852  0.3611
16323SOL    HW150410   5.579   7.371   7.539 -1.0436 -0.8152 -0.4161
16323SOL    HW250411   5.687   7.364   7.434 -0.0888 -0.4544  0.5256
16324SOL     OW50412   5.800   5.811   5.242 -0.2004 -0.3990  0.3248
16324SOL    HW150413   5.705   5.821   5.229 -0.1630 -0.0346  0.3231
16324SOL    HW250414   5.808   5.733   5.297 -0.5387 -0.0978  0.8106
16325SOL     OW50415   2.743   0.185   5.602  0.3925 -0.0732  0.2814
16325SOL    HW150416   2.728   0.179   5.696  0.3262 -0.5424  0.2465
16325SOL    HW250417   2.789   0.268   5.589  2.6024 -1.0918  1.0273
16326SOL     OW50418   5.935   7.026   4.396  0.2856 -0.1154  0.2033
16326SOL    HW150419   5.978   7.064   4.320  1.0883  1.7732  1.5323
16326SOL    HW250420   5.956   6.933   4.391  1.9831  0.2763 -0.8111
16327SOL     OW50421   4.494   5.145   7.966  0.4290 -0.0226 -0.7347
16327SOL    HW150422   4.403   5.138   7.935  0.4354  1.1530 -1.0360
16327SOL    HW250423   4.547   5.133   7.888  0.5543 -0.9448 -0.5212
16328SOL     OW50424   5.883   6.422   5.512  0.2231 -0.3450 -0.2948
16328SOL    HW150425   5.801   6.376   5.529  0.6521 -0.6678  1.1362
16328SOL    HW250426   5.873   6.460   5.425 -1.5078 -0.2079 -0.0647
16329SOL     OW50427   5.125   5.948   5.398  0.2971 -0.0729 -0.3732
16329SOL    HW150428   5.117   6.007   5.473 -0.7185 -3.0166  2.0344
16329SOL    HW250429   5.077   5.869   5.424  2.9605 -2.6812 -2.6588
16330SOL     OW50430   3.529   5.572   4.964 -0.0033 -0.4099  0.5131
16330SOL    HW150431   3.482   5.630   5.023  0.0738 -0.6108  0.7709
16330SOL    HW250432   3.465   5.551   4.896  0.2410  0.7005 -0.0842
16331SOL     OW50433   3.336   7.219   6.140 -0.3976 -0.2971  0.1207
16331SOL    HW150434   3.336   7.140   6.194  1.0448  0.0567  0.6905
16331SOL    HW250435   3.405   7.273   6.178 -1.3258  1.2224 -0.2940
16332SOL     OW50436   4.034   7.073   4.529 -0.1978 -0.2714 -0.1931
16332SOL    HW150437   3.945   7.102   4.549 -0.3511 -1.5305  1.1093
16332SOL    HW250438   4.050   7.000   4.589  1.9399  0.2974  0.0170
16333SOL     OW50439   5.455   4.503   7.084  0.0626  0.2850 -0.2443
16333SOL    HW150440   5.500   4.434   7.133 -0.1753  0.6873  0.5638
16333SOL    HW250441   5.362   4.486   7.098 -0.0204  0.1961 -0.8680
16334SOL     OW50442   6.339   4.064   6.168 -0.2300 -0.6339  0.4915
16334SOL    HW150443   6.330   4.156   6.194  0.3997  0.6174 -3.0340
16334SOL    HW250444   6.423   4.037   6.204  1.3596  1.4643 -1.3391
16335SOL     OW50445   5.768   3.769   8.181 -0.1772  0.8580 -0.7342
16335SOL    HW150446   5.747   3.810   8.265 -0.0361  0.8590 -0.7004
16335SOL    HW250447   5.687   3.723   8.156  0.1886 -0.2202  0.0229
16336SOL     OW50448   4.650   7.203   5.532  0.2456  0.1869 -0.2692
16336SOL    HW150449   4.578   7.187   5.471  0.0533  0.3358 -0.0793
16336SOL    HW250450   4.634   7.143   5.605 -0.2671  0.9558  0.2667
16337SOL     OW50451   4.883   6.765   5.838  0.1707  0.0814 -0.3509
16337SOL    HW150452   4.978   6.755   5.850  0.0547 -0.5714  0.1108
16337SOL    HW250453   4.846   6.738   5.922 -0.3838  1.3793 -0.1526
16338SOL     OW50454   2.393   5.490   7.749  0.6025  0.6088 -0.1992
16338SOL    HW150455   2.462   5.528   7.803  0.2732 -0.8026  1.3205
16338SOL    HW250456   2.392   5.397   7.774 -1.3423  0.4463 -0.7109
16339SOL     OW50457   3.366   5.964   8.783  0.3294 -0.2454  0.3776
16339SOL    HW150458   3.330   5.908   8.715 -0.7562  0.4507  0.3703
16339SOL    HW250459   3.460   5.947   8.780  0.1273 -1.3396 -0.2744
16340SOL     OW50460   3.805   6.786   8.479  0.4535  0.0085 -0.2413
16340SOL    HW150461   3.868   6.743   8.421  0.1438 -2.7455  1.3122
16340SOL    HW250462   3.859   6.821   8.550  0.6479  1.8680 -1.2470
16341SOL     OW50463   3.745   6.154   8.582 -0.1842 -0.7993 -0.3684
16341SOL    HW150464   3.706   6.078   8.625 -0.7453  0.6918  1.9831
16341SOL    HW250465   3.680   6.223   8.592  1.8616  1.0456  1.2929
16342SOL     OW50466   6.023   0.680   7.159  0.2892  0.1420  0.2952
16342SOL    HW150467   6.071   0.671   7.076 -1.1683 -1.8529 -0.4104
16342SOL    HW250468   6.079   0.637   7.224 -0.0230 -1.2315 -0.3184
16343SOL     OW50469   5.809   5.402   7.528  0.0881 -0.1053  0.3147
16343SOL    HW150470   5.863   5.336   7.572  0.2466  1.1810  2.1891
16343SOL    HW250471   5.752   5.436   7.597 -0.9881  0.7249 -0.9274
16344SOL     OW50472   5.159   7.014  10.563 -0.0332  0.5770 -0.5127
16344SOL    HW150473   5.202   6.950  10.506 -1.9470  0.1771 -1.5975
16344SOL    HW250474   5.068   7.016  10.532 -0.7610  1.5282  1.5191
16345SOL     OW50475   4.283   6.329   9.707  0.2917 -0.1803  0.2158
16345SOL    HW150476   4.346   6.257   9.712  0.2085 -0.4342 -1.7479
16345SOL    HW250477   4.198   6.286   9.721  0.3304 -0.3005  0.0920
16346SOL     OW50478   6.419   0.447   6.812 -0.5772  0.6213 -0.2535
16346SOL    HW150479   6.492   0.509   6.823 -0.2112  0.2899 -0.7675
16346SOL    HW250480   6.428   0.416   6.722 -1.0087  0.1371 -0.1300
16347SOL     OW50481   5.321   6.861   8.776 -0.2925  0.6602  0.1929
16347SOL    HW150482   5.253   6.798   8.753  2.1013 -2.3583  0.8084
16347SOL    HW250483   5.338   6.908   8.694 -2.0732  0.4690 -0.3210
16348SOL     OW50484   4.190   6.823   7.527  1.1608  0.5342  0.0573
16348SOL    HW150485   4.134   6.900   7.521  2.0710  1.4440  2.2445
16348SOL    HW250486   4.132   6.749   7.507  0.5825  1.7693 -3.5077
16349SOL     OW50487   4.533   6.087   9.073  0.1414 -0.9510 -0.0330
16349SOL    HW150488   4.510   6.002   9.111  2.3310 -0.8060  1.8133
16349SOL    HW250489   4.482   6.150   9.125 -0.4910 -1.0294 -0.5434
16350SOL     OW50490   4.302   5.937  10.457  0.2155 -1.0727 -0.4104
16350SOL    HW150491   4.364   5.951  10.385  0.0429  1.0683 -0.1999
16350SOL    HW250492   4.218   5.967  10.423  0.0302 -0.5160  0.4934
16351SOL     OW50493   5.339   5.735   7.655  0.0783  0.5433  0.0348
16351SOL    HW150494   5.261   5.767   7.610  1.0009  0.4887 -1.7128
16351SOL    HW250495   5.391   5.814   7.672  0.0977  0.4819  0.2599
16352SOL     OW50496   4.073   7.550   7.542  0.5238  0.3700 -0.0890
16352SOL    HW150497   4.137   7.495   7.588  0.9610  0.9852  0.0435
16352SOL    HW250498   4.095   7.639   7.567  0.2841  0.6628 -0.8939
16353SOL     OW50499   6.298   5.109  10.478 -0.0420 -0.0021 -0.3641
16353SOL    HW150500   6.250   5.033  10.512 -2.9677  1.7416 -0.2595
16353SOL    HW250501   6.268   5.117  10.388  0.5976  0.7522 -0.5092
16354SOL     OW50502   3.800   6.198   8.977 -0.0511  0.2849  0.2073
16354SOL    HW150503   3.785   6.231   8.889 -1.6633  1.9621  1.0385
16354SOL    HW250504   3.792   6.276   9.033  0.0736 -0.8793  1.9132
16355SOL     OW50505   5.313   7.717   9.439  0.0060  0.3391  0.0802
16355SOL    HW150506   5.369   7.689   9.366  0.8519  1.6105  0.2061
16355SOL    HW250507   5.234   7.750   9.397  0.4897  1.0671 -0.2764
16356SOL     OW50508   4.430   7.644   6.647 -0.0955  0.1665 -0.0781
16356SOL    HW150509   4.442   7.567   6.702 -0.0748  0.2798  0.0788
16356SOL    HW250510   4.445   7.613   6.558  0.0319  0.0164 -0.0052
16357SOL     OW50511   6.964   4.417   9.734 -0.0144 -0.4761 -0.2159
16357SOL    HW150512   7.037   4.384   9.681  0.6851  0.3718  0.2034
16357SOL    HW250513   7.003   4.486   9.787 -1.3482  0.6696 -0.7031
16358SOL     OW50514   4.944   6.790   8.074  0.3366  0.6767  0.1254
16358SOL    HW150515   4.927   6.762   8.164 -1.2757  0.9247 -0.0694
16358SOL    HW250516   4.943   6.710   8.023 -0.4443  0.6894  0.1070
16359SOL     OW50517   7.206   5.408   7.095 -0.1251 -0.2720 -0.0487
16359SOL    HW150518   7.231   5.327   7.140  0.1598 -0.3810 -0.3966
16359SOL    HW250519   7.278   5.424   7.034 -1.0053 -0.7003 -1.2215
16360SOL     OW50520   3.446   6.315   7.383 -0.3273 -0.0072  0.0180
16360SOL    HW150521   3.407   6.361   7.458 -1.4079 -1.9715  0.7361
16360SOL    HW250522   3.373   6.300   7.323  0.6351  2.0997 -1.8368
16361SOL     OW50523   5.912   7.615   8.115 -0.8132  0.7555 -0.1277
16361SOL    HW150524   5.825   7.628   8.154 -0.9566  1.0166 -0.5366
16361SOL    HW250525   5.916   7.676   8.042  0.5030  2.2754  1.1333
16362SOL     OW50526   6.332   0.153   7.631 -0.1083  0.1376 -0.0594
16362SOL    HW150527   6.271   0.199   7.574 -0.1797 -1.5564 -1.4308
16362SOL    HW250528   6.412   0.146   7.580 -0.1287 -1.3016  0.0701
16363SOL     OW50529   4.857   5.604   8.671  0.4219 -0.0067  0.0014
16363SOL    HW150530   4.824   5.548   8.600  1.9901 -0.9020 -0.0692
16363SOL    HW250531   4.780   5.622   8.724 -0.2536 -1.8462 -0.2594
16364SOL     OW50532   3.362   5.172   7.814  0.1960  0.2984  0.0728
16364SOL    HW150533   3.328   5.146   7.900  2.6905 -1.7658  0.5651
16364SOL    HW250534   3.340   5.099   7.756  1.0345  0.3471 -0.3265
16365SOL     OW50535   6.076   1.063   7.536  0.4200  0.2382  0.6499
16365SOL    HW150536   6.023   1.090   7.461 -0.2918  0.9245  1.3843
16365SOL    HW250537   6.019   1.004   7.586 -0.1154  1.8286  2.0243
16366SOL     OW50538   4.800   7.439   6.629 -0.0107  0.1180 -0.2099
16366SOL    HW150539   4.873   7.472   6.576 -2.3214  2.0592 -2.4326
16366SOL    HW250540   4.813   7.479   6.715  0.7612  1.6785 -1.0109
16367SOL     OW50541   4.501   7.294   8.410  0.2329  0.5432  0.6633
16367SOL    HW150542   4.493   7.202   8.436 -0.3128  0.6431  0.8389
16367SOL    HW250543   4.460   7.298   8.324 -1.5182  1.0092  1.4831
16368SOL     OW50544   6.272   6.607   7.451  0.0329  0.2497 -0.5916
16368SOL    HW150545   6.204   6.540   7.441 -1.5193  1.6982 -0.3804
16368SOL    HW250546   6.294   6.605   7.544 -0.2631  0.2490 -0.5195
16369SOL     OW50547   6.434   7.888   7.690 -0.8528 -0.3869 -0.3969
16369SOL    HW150548   6.395   7.926   7.769  2.1054  1.5047  0.3239
16369SOL    HW250549   6.442   7.962   7.630 -1.5273 -1.4619 -1.8656
16370SOL     OW50550   4.516   5.742  10.222 -0.3559 -0.2227  0.1347
16370SOL    HW150551   4.548   5.717  10.309 -0.5103 -2.6212 -0.4241
16370SOL    HW250552   4.594   5.737  10.166 -0.4700  0.2371 -0.0681
16371SOL     OW50553   5.480   6.622   7.653 -0.2774 -0.0812  0.4839
16371SOL    HW150554   5.539   6.632   7.579 -0.9478  1.0393  0.0792
16371SOL    HW250555   5.402   6.672   7.629 -1.2800 -1.2760  1.1334
16372SOL     OW50556   6.693   7.810   7.517 -0.2678  0.4369 -0.0389
16372SOL    HW150557   6.738   7.878   7.467 -0.1956  0.5175  0.1327
16372SOL    HW250558   6.644   7.761   7.452  0.7457 -0.1940 -0.3488
16373SOL     OW50559   5.101   4.549   7.474 -0.1973 -0.1205 -0.0352
16373SOL    HW150560   5.159   4.625   7.480  0.1804 -0.2110 -2.0233
16373SOL    HW250561   5.158   4.473   7.485  0.0489 -0.1985 -1.6494
16374SOL     OW50562   6.482   5.097   8.507 -0.2274 -0.6571  0.0471
16374SOL    HW150563   6.556   5.154   8.528  0.6392 -1.6187 -0.3120
16374SOL    HW250564   6.439   5.140   8.432  1.5141 -1.3812 -1.4361
16375SOL     OW50565   3.409   6.887   7.274  0.2573  0.1259 -0.0501
16375SOL    HW150566   3.425   6.793   7.285  2.6088  0.5699  1.0631
16375SOL    HW250567   3.362   6.894   7.191  0.3668 -1.9909 -0.3483
16376SOL     OW50568   5.429   5.849   9.961  0.4518  0.7480 -0.3694
16376SOL    HW150569   5.485   5.921   9.989  0.7638 -0.4001  2.1907
16376SOL    HW250570   5.488   5.774   9.953 -0.6182 -0.5344  2.5767
16377SOL     OW50571   5.207   5.623   8.693  0.0363 -0.0139  0.8414
16377SOL    HW150572   5.300   5.622   8.668  0.0384  1.9842  0.5332
16377SOL    HW250573   5.208   5.622   8.789  0.4001  0.3175  0.8438
16378SOL     OW50574   5.470   6.317   9.683  0.1218 -0.0663  0.4934
16378SOL    HW150575   5.470   6.362   9.768  1.1987  1.3163 -0.1827
16378SOL    HW250576   5.527   6.241   9.697 -0.0694 -0.1020  1.1280
16379SOL     OW50577   5.895   6.127   8.098  0.0768 -0.7508 -0.6208
16379SOL    HW150578   5.889   6.132   8.194 -0.1878  1.9316 -0.7060
16379SOL    HW250579   5.971   6.071   8.082  0.9281 -0.2117  1.1839
16380SOL     OW50580   6.189   6.273   8.181 -0.6745 -0.0968 -0.2202
16380SOL    HW150581   6.214   6.207   8.116  0.9438  1.2702 -1.0560
16380SOL    HW250582   6.272   6.311   8.209 -1.5221  4.5795 -3.0063
16381SOL     OW50583   2.710   5.150   8.346 -0.1251 -0.6542  0.9250
16381SOL    HW150584   2.762   5.158   8.425  0.7430  0.7940  0.2421
16381SOL    HW250585   2.769   5.176   8.275 -1.5345  0.2954  0.0505
16382SOL     OW50586   4.994   7.074   7.868 -0.2434  0.6073 -0.0141
16382SOL    HW150587   4.977   6.984   7.839 -1.0127  1.1845 -1.5026
16382SOL    HW250588   4.987   7.126   7.788  1.4397  1.8542  0.5914
16383SOL     OW50589   6.031   7.433   7.467  0.2409 -0.2135  0.8441
16383SOL    HW150590   5.943   7.434   7.429 -0.3936  0.8113  2.2549
16383SOL    HW250591   6.020   7.473   7.553  2.2176  0.5528  0.7784
16384SOL     OW50592   5.330   5.383   8.842 -0.2462  0.3743  0.6823
16384SOL    HW150593   5.392   5.450   8.871  0.4595  0.2561 -0.5135
16384SOL    HW250594   5.264   5.381   8.911 -0.1454  2.1188  0.8833
16385SOL     OW50595   6.042   7.370   6.756  0.0768  0.3715 -0.3654
16385SOL    HW150596   5.986   7.294   6.773 -1.2841  1.2587 -0.7452
16385SOL    HW250597   6.116   7.335   6.705 -1.0325 -0.5451 -1.3972
16386SOL     OW50598   4.882   5.540   7.968 -0.1129 -0.0324  0.0134
16386SOL    HW150599   4.925   5.624   7.988  1.4016 -0.9391  0.7363
16386SOL    HW250600   4.870   5.542   7.873 -1.9452  1.8180  0.2146
16387SOL     OW50601   4.603   7.324   7.847  0.0430 -0.2617 -0.0424
16387SOL    HW150602   4.637   7.235   7.860  0.8065 -0.0301 -0.3802
16387SOL    HW250603   4.666   7.364   7.787  0.5281  0.9748  1.2364
16388SOL     OW50604   3.626   6.840   7.840 -0.2142 -0.3638  0.3011
16388SOL    HW150605   3.547   6.833   7.787 -0.0406 -1.5065  0.1708
16388SOL    HW250606   3.601   6.806   7.926  0.1212 -0.7072  0.2663
16389SOL     OW50607   4.485   5.662   8.591 -0.4153 -0.7056 -0.5590
16389SOL    HW150608   4.547   5.612   8.646 -0.8408 -0.2783  0.3332
16389SOL    HW250609   4.474   5.608   8.513  2.6601  0.1569 -1.7116
16390SOL     OW50610   4.775   0.336   8.930 -0.0665 -0.4186  0.0865
16390SOL    HW150611   4.740   0.282   8.859 -0.2181 -1.5636  0.9867
16390SOL    HW250612   4.833   0.399   8.887  1.0671 -2.0686 -0.9202
16391SOL     OW50613   4.106   5.983   7.784 -0.1278  0.4283  0.2325
16391SOL    HW150614   4.068   6.023   7.863 -1.5169  0.0643 -0.2128
16391SOL    HW250615   4.095   6.048   7.716  0.9228  0.6755  0.2827
16392SOL     OW50616   6.776   4.702   7.160 -0.0043  0.2194 -0.2658
16392SOL    HW150617   6.824   4.716   7.241  0.5352  0.7074 -0.6607
16392SOL    HW250618   6.828   4.747   7.093 -0.9407  0.6500 -0.7263
16393SOL     OW50619   3.717   5.773   8.049  0.2638  0.2376  0.3633
16393SOL    HW150620   3.791   5.778   7.989  0.1506 -0.1120  0.1966
16393SOL    HW250621   3.641   5.798   7.997  0.0379 -0.9089  0.1345
16394SOL     OW50622   6.606   7.366   7.662 -0.0890 -0.5927  0.0771
16394SOL    HW150623   6.628   7.347   7.753  1.9266 -1.1148 -0.4695
16394SOL    HW250624   6.674   7.426   7.633 -1.0714  0.0863 -0.9325
16395SOL     OW50625   3.764   7.126   9.300  0.3565 -0.3709 -0.0914
16395SOL    HW150626   3.834   7.062   9.315  0.2826 -0.9470 -1.9872
16395SOL    HW250627   3.781   7.196   9.364  2.0534 -0.9773  0.1649
16396SOL     OW50628   5.909   7.384   7.100  0.0778 -0.2468 -0.2536
16396SOL    HW150629   5.897   7.290   7.094 -1.8087  0.0228 -1.8797
16396SOL    HW250630   6.004   7.397   7.102  0.3723 -2.2280  2.1194
16397SOL     OW50631   5.711   6.892   8.318  0.1847  0.3900  0.1177
16397SOL    HW150632   5.742   6.848   8.397  1.8600  0.2075 -0.6032
16397SOL    HW250633   5.671   6.973   8.350  0.1394 -0.0471  1.2036
16398SOL     OW50634   6.014   5.508   8.123  0.5542  0.3744 -0.2183
16398SOL    HW150635   5.926   5.525   8.154 -0.9210  1.8349 -4.4437
16398SOL    HW250636   6.032   5.417   8.149 -2.8845 -0.5260 -0.5438
16399SOL     OW50637   3.750   7.577   8.545  0.8149  0.5895  0.8410
16399SOL    HW150638   3.691   7.614   8.480 -1.4496 -0.5167  2.1300
16399SOL    HW250639   3.834   7.572   8.501  0.2122  3.0662 -0.8106
16400SOL     OW50640   6.184   0.612   9.335 -0.4650  0.0583 -0.1383
16400SOL    HW150641   6.098   0.572   9.328  0.3930 -1.8699 -0.1424
16400SOL    HW250642   6.246   0.541   9.317  1.1518  1.1998  0.6446
16401SOL     OW50643   4.970   5.937   7.836  0.7312 -0.2221 -0.1047
16401SOL    HW150644   4.986   5.857   7.886  2.3267  0.4676  0.5558
16401SOL    HW250645   4.955   6.004   7.902  0.8040  0.2867 -0.5997
16402SOL     OW50646   5.059   5.273  10.286 -0.0117  0.3241  0.1973
16402SOL    HW150647   5.057   5.264  10.190 -0.5480  0.4304  0.1978
16402SOL    HW250648   5.141   5.318  10.304 -1.1910  2.8904 -0.4422
16403SOL     OW50649   4.798   6.224   7.457 -0.0782 -0.4119 -0.0918
16403SOL    HW150650   4.796   6.171   7.536 -1.2455  0.2391  0.3376
16403SOL    HW250651   4.706   6.242   7.437  0.2610  1.6125 -0.0840
16404SOL     OW50652   5.186   7.660   9.767  0.1772 -0.0171 -0.5166
16404SOL    HW150653   5.122   7.636   9.700  0.0627 -0.4082 -0.2665
16404SOL    HW250654   5.172   7.754   9.779 -0.8314 -0.2163  0.0261
16405SOL     OW50655   4.343   5.976   9.299 -0.6651  0.1974  0.1778
16405SOL    HW150656   4.324   6.068   9.281  0.3964  0.1702 -1.3442
16405SOL    HW250657   4.386   5.976   9.384  1.3917  1.4329 -0.7856
16406SOL     OW50658   5.297   5.882   9.686  0.0059  0.4207 -0.6816
16406SOL    HW150659   5.241   5.943   9.638 -0.2905 -0.2155 -1.1565
16406SOL    HW250660   5.336   5.935   9.756 -0.1258  1.1867 -1.1767
16407SOL     OW50661   6.419   7.822   8.682 -0.8667  0.1282  0.2878
16407SOL    HW150662   6.499   7.869   8.707  0.1888 -1.3781 -0.1097
16407SOL    HW250663   6.392   7.777   8.762  0.2704 -1.5339 -0.2123
16408SOL     OW50664   5.665   5.598   8.076 -0.4532 -0.2295 -0.1818
16408SOL    HW150665   5.636   5.589   8.166  0.6344  0.0001  0.2141
16408SOL    HW250666   5.670   5.509   8.042 -1.9489 -0.2559 -0.3976
16409SOL     OW50667   4.946   4.936   7.344 -0.1465  0.2157 -0.2109
16409SOL    HW150668   4.972   4.905   7.258  1.8736 -1.0047  0.7712
16409SOL    HW250669   4.996   5.016   7.358 -1.8245  1.4501 -0.8223
16410SOL     OW50670   4.830   6.856   4.892 -0.1942  0.0861 -0.1657
16410SOL    HW150671   4.872   6.793   4.834 -0.4109 -0.7319  0.5412
16410SOL    HW250672   4.865   6.837   4.979 -0.5414  0.6959  0.1177
16411SOL     OW50673   4.972   7.400   7.834  0.1982 -0.2494 -0.0286
16411SOL    HW150674   4.952   7.478   7.782 -1.8687 -0.4245  0.4013
16411SOL    HW250675   4.941   7.327   7.780 -0.7777 -0.5198  0.8446
16412SOL     OW50676   5.878   5.290   4.551 -0.6284  0.3998  0.1011
16412SOL    HW150677   5.954   5.326   4.596 -1.3971  2.2649 -0.0072
16412SOL    HW250678   5.849   5.360   4.492 -2.1087 -0.4537 -0.2461
16413SOL     OW50679   5.248   5.993   7.703 -0.2809 -0.1746 -0.3786
16413SOL    HW150680   5.215   5.962   7.618  0.3472 -2.2036  0.0796
16413SOL    HW250681   5.180   5.969   7.765  0.5378 -1.3798  0.0878
16414SOL     OW50682   5.718   0.450   7.360 -0.2823 -0.1540 -0.1415
16414SOL    HW150683   5.722   0.417   7.449 -0.1634  0.2214 -0.0067
16414SOL    HW250684   5.681   0.378   7.309  0.7271 -0.7809  0.0013
16415SOL     OW50685   4.525   6.458   8.021 -0.4691 -0.4835 -0.5504
16415SOL    HW150686   4.606   6.411   7.998 -0.1524  0.1441 -0.7425
16415SOL    HW250687   4.555   6.544   8.051 -1.0907 -0.0378 -1.1618
16416SOL     OW50688   5.872   6.087   4.736 -0.1402  0.9949 -0.3403
16416SOL    HW150689   5.841   6.118   4.821 -1.7913  1.6001 -1.1335
16416SOL    HW250690   5.809   6.020   4.710  1.3674 -0.5118 -0.2966
16417SOL     OW50691   4.224   6.915   9.513  0.3374 -0.1149  0.1936
16417SOL    HW150692   4.194   6.934   9.602 -0.8392 -0.4047 -0.1301
16417SOL    HW250693   4.301   6.971   9.502 -0.3175  0.9700  0.9007
16418SOL     OW50694   5.547   4.642   7.926  0.5685  0.1774  0.6744
16418SOL    HW150695   5.640   4.651   7.906 -0.0569  1.6993 -2.0228
16418SOL    HW250696   5.510   4.728   7.907 -1.6553 -0.8727 -0.0716
16419SOL     OW50697   4.393   5.513   8.109  0.3187 -0.2991 -0.2272
16419SOL    HW150698   4.411   5.607   8.118 -2.1613  0.2429 -0.2297
16419SOL    HW250699   4.347   5.506   8.025  0.2868 -1.4902 -0.1180
16420SOL     OW50700   4.539   6.845   8.944 -0.4511  0.6986 -0.0191
16420SOL    HW150701   4.602   6.916   8.932 -0.6419  0.5883 -1.8677
16420SOL    HW250702   4.576   6.771   8.897 -1.1053  0.0974  0.3915
16421SOL     OW50703   6.586   5.396   7.140  0.0004  0.1136  0.0865
16421SOL    HW150704   6.573   5.421   7.049  1.0932  0.0815 -0.0829
16421SOL    HW250705   6.583   5.301   7.139 -1.6811  0.1250  0.3625
16422SOL     OW50706   4.107   0.412   7.196  0.1401  0.0046 -0.3427
16422SOL    HW150707   4.197   0.435   7.176 -0.2798 -0.2828 -2.8457
16422SOL    HW250708   4.109   0.382   7.287  2.2913  1.2496  0.0695
16423SOL     OW50709   5.140   5.851   7.495 -0.2052  0.4420 -0.3739
16423SOL    HW150710   5.105   5.767   7.469  1.7748 -0.4570 -0.3541
16423SOL    HW250711   5.144   5.902   7.414  1.2461 -0.5417 -0.9530
16424SOL     OW50712   6.706   6.314   8.897  0.1161  0.2871 -0.4228
16424SOL    HW150713   6.655   6.283   8.972  0.3042  1.4550  0.2051
16424SOL    HW250714   6.642   6.351   8.837  0.0542  0.1392 -0.4478
16425SOL     OW50715   6.353   7.233   6.122  0.6565 -0.2051 -0.3591
16425SOL    HW150716   6.414   7.288   6.172  0.1933  2.0476 -2.1182
16425SOL    HW250717   6.310   7.180   6.189 -0.7208  3.3935  1.9205
16426SOL     OW50718   6.113   4.706   7.916 -0.1793  0.7056  0.3098
16426SOL    HW150719   6.187   4.759   7.888 -0.2447  0.1279 -1.0475
16426SOL    HW250720   6.042   4.768   7.931  0.1632  1.1234  0.1997
16427SOL     OW50721   5.122   0.264   8.223  0.5906  0.1799 -0.1798
16427SOL    HW150722   5.076   0.211   8.288  0.6674 -1.6489 -1.5364
16427SOL    HW250723   5.165   0.200   8.166  1.3347  1.7407 -1.4533
16428SOL     OW50724   5.631   7.279   9.200  0.6243 -0.6039 -0.4552
16428SOL    HW150725   5.581   7.201   9.222  0.7289 -0.9314 -1.3203
16428SOL    HW250726   5.711   7.272   9.252  0.2195 -0.5857  0.1804
16429SOL     OW50727   5.742   6.845   8.931  0.1440 -0.0610  0.2553
16429SOL    HW150728   5.723   6.917   8.870 -0.2992 -0.6125 -0.2644
16429SOL    HW250729   5.749   6.888   9.016  3.9727  1.2437 -0.5085
16430SOL     OW50730   5.513   4.839   8.496 -0.1303  0.0039 -0.3482
16430SOL    HW150731   5.501   4.933   8.484 -0.0268  0.0508 -0.1087
16430SOL    HW250732   5.608   4.829   8.508  0.0680 -0.3390 -2.0497
16431SOL     OW50733   4.932   6.444   9.776 -0.2854 -0.3619 -0.1251
16431SOL    HW150734   4.918   6.528   9.732  4.4690  1.5307  1.3954
16431SOL    HW250735   4.970   6.467   9.860 -1.8175 -4.0871  1.8159
16432SOL     OW50736   4.750   5.280   9.149 -0.0431  0.5238 -0.3859
16432SOL    HW150737   4.677   5.272   9.210  0.3378 -0.4915 -0.0388
16432SOL    HW250738   4.747   5.371   9.120 -1.7042  0.3974 -0.7278
16433SOL     OW50739   4.454   5.314  10.454 -0.1747 -0.5382 -0.4556
16433SOL    HW150740   4.460   5.364  10.536 -1.3485 -2.1727  0.6962
16433SOL    HW250741   4.405   5.371  10.395  0.9765  0.8100 -0.1540
16434SOL     OW50742   4.650   7.507   5.933  0.2249  0.0655 -0.1231
16434SOL    HW150743   4.724   7.467   5.885  0.5163 -0.0627  0.4265
16434SOL    HW250744   4.574   7.455   5.907  0.3251  0.1898 -0.6867
16435SOL     OW50745   4.416   5.772   9.010 -0.0458  0.0899 -0.2753
16435SOL    HW150746   4.491   5.725   8.973 -0.3682 -0.0111 -0.7999
16435SOL    HW250747   4.344   5.755   8.950 -1.1414 -1.7968  1.4487
16436SOL     OW50748   6.479   3.790   7.501 -0.7858 -0.1050  0.1574
16436SOL    HW150749   6.445   3.720   7.557  0.6780  0.0337  1.2787
16436SOL    HW250750   6.425   3.866   7.524 -0.6426 -0.2170  0.9066
16437SOL     OW50751   5.226   6.329   8.340  0.4644  0.5294  0.4953
16437SOL    HW150752   5.320   6.339   8.357  1.2064 -1.1376 -2.1866
16437SOL    HW250753   5.193   6.286   8.419  2.2296 -0.1834  0.9136
16438SOL     OW50754   5.477   6.067   8.088 -0.7443 -0.4806  0.9272
16438SOL    HW150755   5.407   6.047   8.150 -0.9996 -0.9485  0.4935
16438SOL    HW250756   5.502   5.982   8.052  0.5761 -0.4289  1.6330
16439SOL     OW50757   4.258   4.927   7.714  0.0667 -0.4843  0.3268
16439SOL    HW150758   4.204   4.907   7.637 -0.8723 -0.6720  1.0060
16439SOL    HW250759   4.241   4.854   7.775 -1.0096  0.7821  1.6134
16440SOL     OW50760   5.215   1.827   6.779  0.3893  0.6207 -0.3158
16440SOL    HW150761   5.184   1.751   6.730 -1.7486  2.0112 -1.3141
16440SOL    HW250762   5.174   1.819   6.865 -0.5632  1.0548 -0.7153
16441SOL     OW50763   5.056   7.969  10.344 -0.1396  0.1213 -0.1827
16441SOL    HW150764   4.995   8.037  10.314 -1.4088 -0.3298  1.2613
16441SOL    HW250765   5.087   8.001  10.429  2.3656  0.7484 -1.2404
16442SOL     OW50766   4.262   7.731   7.785 -0.2104  0.0964 -0.5935
16442SOL    HW150767   4.277   7.779   7.867  1.4489  1.4219 -1.5844
16442SOL    HW250768   4.341   7.677   7.775  0.7378  1.6918 -2.3836
16443SOL     OW50769   4.202   6.154   8.963 -0.8234 -0.2051  0.0154
16443SOL    HW150770   4.221   6.218   9.032 -0.7523  1.0114 -1.0945
16443SOL    HW250771   4.271   6.089   8.971 -0.6667  0.0568  0.9196
16444SOL     OW50772   4.675   5.955   9.301 -0.1407  0.5799  0.3679
16444SOL    HW150773   4.693   6.049   9.297  0.7506  0.4666  1.2481
16444SOL    HW250774   4.615   5.944   9.375 -0.4957  0.4853  0.0698
16445SOL     OW50775   4.975   5.422   8.840  0.0293 -0.6760  0.0108
16445SOL    HW150776   4.957   5.505   8.797 -0.2224 -0.5370  0.3837
16445SOL    HW250777   4.891   5.376   8.839 -0.3036 -0.1587  1.4670
16446SOL     OW50778   4.198   4.690  10.158  0.0196 -0.1508 -0.6145
16446SOL    HW150779   4.260   4.749  10.114  0.3494  1.3618  1.7441
16446SOL    HW250780   4.123   4.745  10.179 -0.2879 -0.9133  0.3678
16447SOL     OW50781   6.430   5.973  11.430  0.0725  0.2734 -0.6492
16447SOL    HW150782   6.469   5.955  11.516 -1.0709  0.0688 -0.1571
16447SOL    HW250783   6.472   6.054  11.401  1.1457 -0.1469 -0.3190
16448SOL     OW50784   4.229   5.412   7.885 -0.6247 -0.0632 -0.0961
16448SOL    HW150785   4.291   5.451   7.823  0.1142 -1.0421  0.0084
16448SOL    HW250786   4.186   5.342   7.836 -1.7900  0.7136 -0.2194
16449SOL     OW50787   6.216   7.292   7.905  0.1604 -0.8176 -0.0443
16449SOL    HW150788   6.193   7.318   7.994  1.6733 -0.4389  0.2673
16449SOL    HW250789   6.272   7.363   7.873  0.9934 -1.7315 -0.6851
16450SOL     OW50790   4.264   6.921   8.881 -0.5225 -0.4495 -0.2748
16450SOL    HW150791   4.234   6.830   8.881 -0.9398 -0.3137 -0.1156
16450SOL    HW250792   4.353   6.917   8.916 -1.2237 -0.5767  1.6283
16451SOL     OW50793   4.104   6.042   9.439  0.1391 -0.0570  0.4239
16451SOL    HW150794   4.171   6.006   9.381 -0.8215 -1.0589 -0.1137
16451SOL    HW250795   4.120   6.136   9.439  0.6890 -0.1319 -0.8092
16452SOL     OW50796   7.711   7.140   8.438  0.0013  0.3476 -0.1347
16452SOL    HW150797   7.732   7.088   8.360 -0.1036 -2.0066  1.3140
16452SOL    HW250798   7.630   7.186   8.415 -1.3997 -2.2022 -0.6675
16453SOL     OW50799   6.005   5.594   6.845  0.2160  0.0855  0.0320
16453SOL    HW150800   6.072   5.662   6.849 -0.9783  1.4461 -1.6000
16453SOL    HW250801   6.054   5.513   6.833  1.6060  0.9336 -0.2422
16454SOL     OW50802   2.719   5.205   7.937 -0.0877 -0.5754  0.0154
16454SOL    HW150803   2.653   5.150   7.979  0.7188 -0.9219  0.8610
16454SOL    HW250804   2.669   5.273   7.893 -1.1259 -1.9654 -1.0651
16455SOL     OW50805   4.855   5.133   7.131 -0.5635  0.0099  0.8122
16455SOL    HW150806   4.877   5.043   7.107 -0.5818  0.2691 -0.2118
16455SOL    HW250807   4.900   5.187   7.065 -1.6855  0.6882  0.5809
16456SOL     OW50808   5.352   5.342   7.100 -0.1157 -0.2365 -0.2621
16456SOL    HW150809   5.293   5.363   7.027 -1.5219 -3.8353 -0.3537
16456SOL    HW250810   5.426   5.299   7.058  0.0342 -0.4820  0.2558
16457SOL     OW50811   2.896   6.695  10.856  0.1396  0.0482 -0.0926
16457SOL    HW150812   2.961   6.728  10.793 -0.2806  0.8959 -0.1035
16457SOL    HW250813   2.913   6.601  10.862  0.8680  0.1353 -0.6752
16458SOL     OW50814   7.523   7.517   8.409  0.6113  0.1498 -0.1934
16458SOL    HW150815   7.476   7.438   8.382 -0.1543 -0.1915  1.9930
16458SOL    HW250816   7.456   7.585   8.415  1.1598  0.8448 -1.3910
16459SOL     OW50817   4.903   5.909   8.222 -0.2686  0.0910 -0.5554
16459SOL    HW150818   4.823   5.948   8.256  0.4502  1.8242 -0.7788
16459SOL    HW250819   4.931   5.967   8.151  2.2063  0.6681  0.7506
16460SOL     OW50820   6.225   6.892   6.627  0.3564  0.7216  0.1086
16460SOL    HW150821   6.186   6.974   6.595 -1.2367 -0.2955 -0.6776
16460SOL    HW250822   6.291   6.870   6.561  0.1560  0.9036 -0.1577
16461SOL     OW50823   5.732   7.119   7.706 -0.6855  0.2564 -0.1436
16461SOL    HW150824   5.706   7.180   7.637  0.7899  2.0310  0.7861
16461SOL    HW250825   5.651   7.102   7.754 -1.3071  0.7551 -0.9817
16462SOL     OW50826   5.180   7.516   8.003 -0.4376  0.0924  0.5318
16462SOL    HW150827   5.130   7.518   8.085  0.9298 -1.7697  1.4946
16462SOL    HW250828   5.123   7.470   7.941 -0.2894 -1.2345  1.3552
16463SOL     OW50829   5.127   6.256   7.260 -0.1465  0.2694  0.5751
16463SOL    HW150830   5.162   6.171   7.285 -0.3786  0.6551  2.3501
16463SOL    HW250831   5.192   6.319   7.291 -0.4095  0.7844  0.0935
16464SOL     OW50832   4.360   4.082   9.110  0.5797  0.1442  0.1434
16464SOL    HW150833   4.303   4.125   9.046  0.6391 -0.0858 -0.0674
16464SOL    HW250834   4.355   4.137   9.188  1.1844  0.9175 -0.3411
16465SOL     OW50835   4.042   4.972   9.776 -0.3136  0.0898  0.0634
16465SOL    HW150836   4.119   4.940   9.822  0.3354  0.9053 -0.4237
16465SOL    HW250837   4.018   4.901   9.716 -1.1170 -0.9378  1.5562
16466SOL     OW50838   0.499   3.733   8.910  0.1402 -0.1524  0.1284
16466SOL    HW150839   0.454   3.660   8.952  0.6188 -0.8941 -0.5947
16466SOL    HW250840   0.434   3.803   8.907 -0.7214 -0.9427 -0.2166
16467SOL     OW50841   3.170   6.566   8.478 -0.2430 -0.4176 -0.1367
16467SOL    HW150842   3.097   6.512   8.446  0.2050 -0.8757 -0.3873
16467SOL    HW250843   3.143   6.656   8.457 -0.6981 -0.5901 -0.3120
16468SOL     OW50844   5.255   6.487   8.866 -0.2197 -0.2461  0.4172
16468SOL    HW150845   5.177   6.483   8.811  0.2382 -0.5987 -0.2315
16468SOL    HW250846   5.255   6.575   8.903 -0.9117 -0.2422  0.4062
16469SOL     OW50847   4.381   7.070  12.212  0.1391  0.4440 -0.3934
16469SOL    HW150848   4.300   7.083  12.163 -0.3785  0.1083  0.3349
16469SOL    HW250849   4.449   7.110  12.159 -0.5318  0.8603 -0.9531
16470SOL     OW50850   4.603   5.375   8.038 -0.0996 -0.4266 -0.2685
16470SOL    HW150851   4.572   5.284   8.038  1.1716 -0.9067  1.2004
16470SOL    HW250852   4.527   5.426   8.066 -0.1356 -1.3655  1.5056
16471SOL     OW50853   6.349   4.387   7.522 -0.0961 -0.1994 -0.4596
16471SOL    HW150854   6.345   4.323   7.451  1.5711 -0.8045 -0.0474
16471SOL    HW250855   6.396   4.342   7.592  0.8620  1.3791 -0.0460
16472SOL     OW50856   2.306   7.873   9.568 -0.2113 -0.5936 -0.0410
16472SOL    HW150857   2.309   7.967   9.556 -2.0158 -0.2885  1.4751
16472SOL    HW250858   2.348   7.858   9.652  0.2817 -1.2010 -0.3806
16473SOL     OW50859   5.006   6.387   9.023 -0.3870  0.0069  0.2886
16473SOL    HW150860   4.912   6.391   9.007 -0.2252 -0.4300 -0.8955
16473SOL    HW250861   5.029   6.296   9.005 -0.1714 -0.6589  3.3831
16474SOL     OW50862   4.832   7.183   8.215 -0.1933 -0.3695 -0.7118
16474SOL    HW150863   4.925   7.206   8.211 -0.5508  1.4051 -0.0056
16474SOL    HW250864   4.827   7.115   8.282  0.3049  1.6457  1.5153
16475SOL     OW50865   5.686   6.617   7.930  0.4779  0.1379  0.2707
16475SOL    HW150866   5.592   6.605   7.919  0.5764 -0.3624 -0.0732
16475SOL    HW250867   5.725   6.543   7.884  1.0351  0.2366  0.5744
16476SOL     OW50868   2.962   6.628   8.152 -0.3123 -0.3824 -0.0156
16476SOL    HW150869   2.937   6.536   8.141  1.1967 -0.7558 -0.5020
16476SOL    HW250870   2.943   6.647   8.244  0.6886 -1.6163  0.4707
16477SOL     OW50871   5.066   5.293   7.922  0.1381 -0.2773 -0.3373
16477SOL    HW150872   5.030   5.261   7.840 -2.0028 -0.3642  0.5807
16477SOL    HW250873   5.124   5.365   7.897 -1.6142  0.6761 -1.8472
16478SOL     OW50874   4.713   7.454   7.593  0.2752  0.0434  0.4764
16478SOL    HW150875   4.679   7.397   7.524  0.0198  1.3556 -0.5211
16478SOL    HW250876   4.758   7.524   7.546  1.2640  0.2464  1.6934
16479SOL     OW50877   3.071   5.642   7.834 -0.1852  0.1336 -0.1246
16479SOL    HW150878   3.086   5.716   7.776 -0.9703  0.4322  0.0411
16479SOL    HW250879   3.119   5.570   7.793  3.1974  1.3534  1.2649
16480SOL     OW50880   3.670   5.573   7.235  0.1576 -0.7169 -0.1382
16480SOL    HW150881   3.745   5.575   7.176  2.2912 -1.4371  2.3659
16480SOL    HW250882   3.667   5.483   7.267 -1.3330 -0.5127  0.3573
16481SOL     OW50883   6.277   6.890   7.487 -0.0143  0.4108 -0.1748
16481SOL    HW150884   6.225   6.934   7.419 -0.8993 -0.7778 -0.2949
16481SOL    HW250885   6.261   6.797   7.472  1.8904  0.0185  0.0136
16482SOL     OW50886   5.192   6.825   7.989  0.2113  0.5461 -0.1743
16482SOL    HW150887   5.102   6.809   8.016 -0.0669  2.3262  0.0868
16482SOL    HW250888   5.203   6.920   7.997  3.0137  0.1297  2.6708
16483SOL     OW50889   4.117   7.708   9.757 -0.0654  0.2635  0.4243
16483SOL    HW150890   4.053   7.699   9.686  0.4813  0.2360 -0.0749
16483SOL    HW250891   4.097   7.793   9.796  0.7164  1.0923 -0.8867
16484SOL     OW50892   5.040   7.960   6.083  0.1925 -0.4415 -0.1191
16484SOL    HW150893   5.127   7.925   6.064 -0.1642 -2.1348  1.1456
16484SOL    HW250894   5.054   8.020   6.156  0.8513  2.5110 -2.4771
16485SOL     OW50895   3.331   6.583   9.795 -0.1719 -0.4938 -0.1928
16485SOL    HW150896   3.403   6.561   9.737  0.0770 -1.5213  0.4724
16485SOL    HW250897   3.368   6.647   9.856 -0.5828  1.0018 -1.4427
16486SOL     OW50898   4.916   5.890  10.056  0.0168 -0.9296  0.0048
16486SOL    HW150899   4.870   5.972  10.076  1.4069  0.3585 -1.7428
16486SOL    HW250900   5.002   5.900  10.097  0.0386 -1.7250  0.1641
16487SOL     OW50901   7.544   5.689   7.260  0.3323  0.2700  0.4134
16487SOL    HW150902   7.474   5.747   7.229 -0.0457 -1.0675 -1.4224
16487SOL    HW250903   7.515   5.601   7.234  1.5255 -0.5966  1.8772
16488SOL     OW50904   6.828   7.734   8.384  0.1201 -0.1538  0.0704
16488SOL    HW150905   6.919   7.705   8.396 -0.4545 -1.5959  1.2652
16488SOL    HW250906   6.823   7.818   8.429  0.9355  0.1110 -0.3133
16489SOL     OW50907   6.888   2.328   9.786 -0.2647  0.6355  0.9169
16489SOL    HW150908   6.928   2.413   9.768  2.2254  0.0206  2.8617
16489SOL    HW250909   6.810   2.349   9.838  0.6712  1.7516  1.9363
16490SOL     OW50910   6.534   6.743   8.642 -0.3465  1.0640 -0.5109
16490SOL    HW150911   6.593   6.755   8.716 -0.4656  0.8857 -0.3856
16490SOL    HW250912   6.585   6.693   8.578 -0.7710 -0.2046  0.1151
16491SOL     OW50913   5.409   6.783   8.416  0.7396 -1.0212 -0.4127
16491SOL    HW150914   5.378   6.864   8.458  0.6188  0.2146 -2.7391
16491SOL    HW250915   5.329   6.736   8.393  0.8067 -2.4678  1.9737
16492SOL     OW50916   7.140   5.344   8.458 -0.1016  0.2483 -0.2600
16492SOL    HW150917   7.120   5.432   8.427  1.6590  1.3996  1.5981
16492SOL    HW250918   7.231   5.348   8.486 -0.0981 -2.0507  0.2754
16493SOL     OW50919   4.829   7.656   9.323 -0.3592  0.0190  0.3255
16493SOL    HW150920   4.834   7.632   9.230 -1.3589  0.4047  0.1627
16493SOL    HW250921   4.778   7.737   9.324  1.2007  1.0544  1.0527
16494SOL     OW50922   5.798   6.103   8.409  0.2900  0.3753  0.2786
16494SOL    HW150923   5.712   6.111   8.451 -0.9865 -1.6561 -1.7712
16494SOL    HW250924   5.853   6.061   8.475 -0.9868 -0.5763  0.7695
16495SOL     OW50925   3.462   5.459   7.515 -0.0839 -0.1134 -0.7205
16495SOL    HW150926   3.512   5.425   7.589  0.2657  0.0223 -0.8907
16495SOL    HW250927   3.373   5.426   7.528 -0.0494  0.0048 -0.1792
16496SOL     OW50928   4.612   7.254   7.418 -0.0816 -0.1130 -0.3219
16496SOL    HW150929   4.611   7.175   7.472 -0.2494 -0.0285 -0.2001
16496SOL    HW250930   4.524   7.257   7.379 -0.2483  0.2929  0.0788
16497SOL     OW50931   4.731   5.135   8.125 -0.0779 -0.0361 -0.1626
16497SOL    HW150932   4.648   5.123   8.079 -0.4622 -0.7289  0.6978
16497SOL    HW250933   4.722   5.086   8.206  2.0137 -2.0968 -1.0422
16498SOL     OW50934   3.834   7.458   7.631  0.1957 -0.2867  0.3268
16498SOL    HW150935   3.918   7.480   7.590  0.4859  0.8448  1.4561
16498SOL    HW250936   3.779   7.535   7.615 -0.2350 -0.5343  0.6096
16499SOL     OW50937   5.408   7.662   7.635 -0.0136  0.2554 -0.8882
16499SOL    HW150938   5.422   7.755   7.649  1.3135 -0.0917  0.3145
16499SOL    HW250939   5.379   7.656   7.544 -0.0041  1.8175 -1.0233
16500SOL     OW50940   5.641   5.589   8.334  0.0980 -0.1066  0.3389
16500SOL    HW150941   5.696   5.666   8.320 -1.3809  0.8410 -0.6151
16500SOL    HW250942   5.688   5.537   8.398  3.2304 -0.5163 -2.0414
16501SOL     OW50943   5.922   7.570   9.232  0.0716  0.0462  0.0598
16501SOL    HW150944   5.850   7.541   9.176  0.8436 -1.0322 -0.4236
16501SOL    HW250945   5.891   7.555   9.321 -0.3928 -0.1659 -0.1362
16502SOL     OW50946   5.123   4.650   9.018  0.6226  0.2928  0.4473
16502SOL    HW150947   5.093   4.574   9.067 -1.7175  0.3277 -0.8208
16502SOL    HW250948   5.112   4.724   9.078 -0.9978  0.1590  0.3466
16503SOL     OW50949   3.239   5.852   8.491 -0.0985  0.3042 -0.5993
16503SOL    HW150950   3.169   5.904   8.451 -0.7709  0.7986  1.1457
16503SOL    HW250951   3.318   5.906   8.480 -0.0327 -0.0485 -2.1581
16504SOL     OW50952   7.109   4.929   8.505 -0.2280 -0.7941 -0.1727
16504SOL    HW150953   7.018   4.904   8.492 -0.2096 -1.7182  1.2697
16504SOL    HW250954   7.157   4.846   8.511  0.3818 -0.3777  1.1230
16505SOL     OW50955   5.299   6.617   6.874  0.3177 -0.1836 -0.4725
16505SOL    HW150956   5.248   6.658   6.804 -0.7588  0.2673  0.5532
16505SOL    HW250957   5.380   6.590   6.831  0.0393  0.8413 -1.7095
16506SOL     OW50958   4.385   6.762   8.452  0.4284 -0.5060  0.1294
16506SOL    HW150959   4.330   6.752   8.374 -0.0699  0.3813  0.3563
16506SOL    HW250960   4.473   6.742   8.422  0.1432 -0.8638 -0.4974
16507SOL     OW50961   5.071   5.381   8.555 -0.6049 -0.2508 -0.3484
16507SOL    HW150962   5.114   5.300   8.528  1.1277  0.7465 -0.7385
16507SOL    HW250963   5.050   5.368   8.648  1.9434 -0.2892  0.3128
16508SOL     OW50964   2.123   5.753   7.622  0.1922  0.3682  0.0016
16508SOL    HW150965   2.032   5.741   7.592  0.9699  0.5188 -2.6679
16508SOL    HW250966   2.173   5.764   7.541  2.3096  2.3872  1.4898
16509SOL     OW50967   5.846   5.585   9.306  0.2862 -0.2002  0.5712
16509SOL    HW150968   5.821   5.494   9.316  1.0072 -0.2560  2.1236
16509SOL    HW250969   5.886   5.609   9.390  1.1153  1.2146 -0.1790
16510SOL     OW50970   4.035   6.609   7.403  0.4234 -0.0256 -0.1524
16510SOL    HW150971   3.993   6.617   7.318  2.3748  1.3139 -1.0662
16510SOL    HW250972   4.084   6.527   7.399  1.6356  0.7056 -0.8984
16511SOL     OW50973   4.757   7.018   8.865  0.2915 -0.0769  0.0400
16511SOL    HW150974   4.833   6.976   8.825  1.3550  1.2715  0.5642
16511SOL    HW250975   4.782   7.029   8.957  0.5579  2.6911 -0.2880
16512SOL     OW50976   6.757   0.750   8.376  0.0142 -0.6110 -0.7704
16512SOL    HW150977   6.789   0.818   8.435 -0.0056 -1.4095  0.1872
16512SOL    HW250978   6.759   0.790   8.289  2.2713 -0.1637 -0.5683
16513SOL     OW50979   6.111   6.768  10.055  0.2139  0.3485  0.5292
16513SOL    HW150980   6.030   6.729  10.089 -0.1879  0.8504  0.1587
16513SOL    HW250981   6.083   6.821   9.981  0.5869  2.1155  1.5743
16514SOL     OW50982   4.733   6.263   9.675 -0.1836 -0.7143  0.3959
16514SOL    HW150983   4.739   6.310   9.592 -0.7325 -1.8023 -0.2777
16514SOL    HW250984   4.801   6.302   9.730  2.3583 -2.0503 -1.5821
16515SOL     OW50985   4.577   7.159   8.731 -0.4587  0.1266 -0.1963
16515SOL    HW150986   4.647   7.127   8.787 -0.7111 -0.4228 -0.1833
16515SOL    HW250987   4.566   7.091   8.664 -1.3262 -0.0510  0.1103
16516SOL     OW50988   6.013   4.720   9.119  0.5770  0.2266  0.2531
16516SOL    HW150989   5.924   4.744   9.145  0.9805  1.0487  0.9419
16516SOL    HW250990   6.051   4.680   9.197  0.9328  0.2127  0.0743
16517SOL     OW50991   5.810   5.015   8.131 -0.4901 -0.6042  0.0309
16517SOL    HW150992   5.804   4.931   8.175  0.1762 -0.3266  0.6696
16517SOL    HW250993   5.901   5.022   8.102  0.2419  1.0405  2.4093
16518SOL     OW50994   6.347   6.175   7.363 -0.9670 -0.1191  0.9812
16518SOL    HW150995   6.258   6.167   7.330 -0.1669  0.3237 -1.5128
16518SOL    HW250996   6.401   6.129   7.298  0.7201  0.4782  1.8930
16519SOL     OW50997   6.411   5.236   8.266 -0.0553  0.6926 -0.2441
16519SOL    HW150998   6.443   5.299   8.203  2.3228  0.0499  0.2150
16519SOL    HW250999   6.437   5.151   8.231 -0.8937  0.1513  0.3962
16520SOL     OW51000   5.280   5.072   8.489 -0.7996  0.2392 -0.2067
16520SOL    HW151001   5.201   5.082   8.436 -1.5131 -0.8551  0.6278
16520SOL    HW251002   5.255   5.014   8.560 -0.0125  2.1076  1.6955
16521SOL     OW51003   5.238   7.651   6.694 -0.2737  0.2466  0.6614
16521SOL    HW151004   5.214   7.572   6.645 -1.5659  0.1843  1.3450
16521SOL    HW251005   5.318   7.681   6.653 -0.1425 -1.0257 -0.0765
16522SOL     OW51006   4.893   6.911   7.414  0.5451  0.0087  0.1209
16522SOL    HW151007   4.816   6.856   7.400  0.4744 -0.6107  2.4847
16522SOL    HW251008   4.967   6.853   7.395  0.4488 -0.3028  0.6871
16523SOL     OW51009   4.930   6.382   8.639 -0.3403  0.2317 -0.2519
16523SOL    HW151010   4.951   6.475   8.640  2.2929 -0.2102 -2.1963
16523SOL    HW251011   4.836   6.378   8.653 -0.7327  3.2526 -1.3030
16524SOL     OW51012   6.286   7.325   8.250  0.6648  0.3810 -0.4344
16524SOL    HW151013   6.205   7.362   8.215  0.1171  0.3573  0.7608
16524SOL    HW251014   6.355   7.375   8.208 -0.0164  1.5542 -0.2070
16525SOL     OW51015   4.741   7.863   9.056 -0.0139 -0.6636  0.6984
16525SOL    HW151016   4.661   7.813   9.043 -1.1977  1.0526  1.1048
16525SOL    HW251017   4.713   7.944   9.098  1.5448  1.2612 -1.7131
16526SOL     OW51018   4.483   6.797   9.205 -0.5194  0.5414 -0.3210
16526SOL    HW151019   4.391   6.811   9.227 -0.6595 -0.7968 -0.0084
16526SOL    HW251020   4.487   6.812   9.110 -0.8537  1.5625 -0.1863
16527SOL     OW51021   4.706   5.867   8.578 -0.4520  0.2412 -0.1230
16527SOL    HW151022   4.633   5.815   8.545 -0.3183  0.8122 -1.3611
16527SOL    HW251023   4.729   5.925   8.506  1.4506 -0.1551  0.0952
16528SOL     OW51024   5.733   4.265   7.579  0.2245  0.5333 -0.3013
16528SOL    HW151025   5.760   4.209   7.506  0.6907  2.0864 -1.3698
16528SOL    HW251026   5.652   4.225   7.610  1.2120 -1.4585 -0.1604
16529SOL     OW51027   5.413   6.261   7.344 -0.4582  0.1947 -0.2875
16529SOL    HW151028   5.459   6.234   7.264  0.2524  1.2829 -0.2664
16529SOL    HW251029   5.464   6.335   7.377 -0.1261 -0.8716  1.7566
16530SOL     OW51030   5.654   6.343   9.392 -0.0642 -0.0045 -0.2726
16530SOL    HW151031   5.660   6.324   9.485  1.6299 -0.4951 -0.4527
16530SOL    HW251032   5.578   6.293   9.363 -0.8352  0.4493  0.8971
16531SOL     OW51033   4.484   7.530   9.303  0.1671 -0.3057 -0.5246
16531SOL    HW151034   4.415   7.518   9.238 -0.1975  2.4231 -0.7432
16531SOL    HW251035   4.489   7.625   9.316  0.6795 -0.6876  2.9441
16532SOL     OW51036   5.174   6.315   7.912  0.1545 -0.1714 -0.0874
16532SOL    HW151037   5.157   6.292   7.821 -0.0505 -0.0316 -0.0847
16532SOL    HW251038   5.254   6.367   7.910  0.3847 -0.5250 -0.1420
16533SOL     OW51039   3.939   5.733  10.667 -0.0319 -0.5337  0.5180
16533SOL    HW151040   3.877   5.739  10.739 -0.0245  0.5484  0.4478
16533SOL    HW251041   4.003   5.802  10.684 -0.2533  0.0062 -0.7203
16534SOL     OW51042   4.965   7.208   7.139 -0.3508 -0.1124 -0.0185
16534SOL    HW151043   4.892   7.268   7.130  0.3874  1.0125  1.1006
16534SOL    HW251044   5.017   7.220   7.060 -1.8266 -1.6360 -1.2922
16535SOL     OW51045   4.685   6.968   7.600 -0.0724 -0.1271 -0.4783
16535SOL    HW151046   4.619   6.924   7.547 -0.5212 -1.6325  1.2460
16535SOL    HW251047   4.769   6.938   7.564 -0.3702 -2.1355  0.3815
16536SOL     OW51048   5.290   5.763   8.156  0.3234  0.2666 -0.3878
16536SOL    HW151049   5.358   5.770   8.089  1.9751 -0.2251  1.1410
16536SOL    HW251050   5.272   5.853   8.183  0.2049  0.4146 -0.9572
16537SOL     OW51051   4.265   7.917   7.981 -0.0363  0.4057 -0.1135
16537SOL    HW151052   4.331   7.946   7.918 -0.7769 -0.0973 -1.1490
16537SOL    HW251053   4.249   7.993   8.036 -0.5925  1.4066 -1.6001
16538SOL     OW51054   6.922   6.071   8.647 -0.1121 -0.4343  0.1046
16538SOL    HW151055   6.933   6.038   8.736 -0.3211 -0.0860  0.2594
16538SOL    HW251056   6.954   6.161   8.651  2.1928 -1.1412 -0.7282
16539SOL     OW51057   3.794   6.800   7.633  0.0396  0.0438 -0.3028
16539SOL    HW151058   3.732   6.765   7.569 -1.4102  0.0772  1.0099
16539SOL    HW251059   3.744   6.804   7.715  1.6805  0.4355  0.7347
16540SOL     OW51060   4.055   7.754   8.004  0.0406  0.4785 -0.2352
16540SOL    HW151061   4.140   7.795   7.987 -1.5573  3.8131 -0.8839
16540SOL    HW251062   4.023   7.795   8.084 -1.7550  0.7229 -1.0325
16541SOL     OW51063   4.882   6.965  10.183  0.3613  0.2989  0.7198
16541SOL    HW151064   4.873   6.885  10.131 -0.6218  0.5796  0.4303
16541SOL    HW251065   4.976   6.982  10.186  0.4534  0.1291 -0.7459
16542SOL     OW51066   3.650   7.323   8.403 -0.3196 -0.3814  0.4395
16542SOL    HW151067   3.679   7.232   8.412  3.4725  0.5259 -0.5421
16542SOL    HW251068   3.694   7.369   8.474 -1.0309  0.8876  0.0859
16543SOL     OW51069   5.281   6.614  10.169  0.6583  0.0451 -0.7544
16543SOL    HW151070   5.308   6.537  10.218  1.0308  0.2920 -0.5616
16543SOL    HW251071   5.304   6.688  10.226 -0.4877  0.2706 -0.5469
16544SOL     OW51072   6.459   6.076   9.586 -0.8488 -0.2403  0.3072
16544SOL    HW151073   6.544   6.106   9.618 -0.3674 -1.9411  0.7517
16544SOL    HW251074   6.454   5.985   9.614 -1.5664 -1.0509 -2.2276
16545SOL     OW51075   4.252   7.456   9.165 -0.0427  0.1043  0.3941
16545SOL    HW151076   4.165   7.439   9.200 -0.6332 -0.6181 -1.3332
16545SOL    HW251077   4.250   7.548   9.139 -0.8065 -0.2649 -0.9459
16546SOL     OW51078   4.819   5.247   9.521  0.1601 -0.1004  0.3473
16546SOL    HW151079   4.845   5.178   9.460 -0.5691 -2.0283  2.1310
16546SOL    HW251080   4.736   5.279   9.486  0.7042  0.2154 -0.7181
16547SOL     OW51081   4.160   7.185  10.391 -0.5761  0.0922 -0.1418
16547SOL    HW151082   4.249   7.186  10.355  0.2355 -0.7460  1.7182
16547SOL    HW251083   4.153   7.268  10.439  0.0065 -0.7320  1.4436
16548SOL     OW51084   5.142   6.334  11.445  0.0552  0.0692 -0.4951
16548SOL    HW151085   5.071   6.274  11.466 -0.7569  0.6853 -1.4180
16548SOL    HW251086   5.133   6.406  11.507 -0.6766  0.5723 -1.1737
16549SOL     OW51087   5.242   7.367   9.791  0.4046  0.5860  0.0049
16549SOL    HW151088   5.154   7.387   9.759  0.7466  2.4181  0.0528
16549SOL    HW251089   5.236   7.278   9.825 -0.9425 -0.0444 -1.6985
16550SOL     OW51090   3.441   5.188  11.928 -0.3829 -0.0786  0.9470
16550SOL    HW151091   3.465   5.260  11.870 -0.9512 -0.3226  0.3979
16550SOL    HW251092   3.474   5.110  11.884  0.0154 -0.1804  1.4199
16551SOL     OW51093   3.876   0.520  10.885 -0.3509  0.2913  0.6836
16551SOL    HW151094   3.947   0.549  10.828 -0.1851  0.5928  1.0311
16551SOL    HW251095   3.921   0.482  10.961 -0.5529  0.9348  1.1309
16552SOL     OW51096   5.096   7.504  10.754  0.2334 -0.0670 -0.1603
16552SOL    HW151097   5.161   7.544  10.811 -0.9472  0.3599  0.9523
16552SOL    HW251098   5.119   7.411  10.753  0.2970 -0.0904  1.0419
16553SOL     OW51099   3.247   6.076  10.335 -0.0591  0.0996  0.0028
16553SOL    HW151100   3.168   6.022  10.325 -0.6351  0.7161  0.9538
16553SOL    HW251101   3.313   6.032  10.283 -0.9374 -0.6457 -0.5229
16554SOL     OW51102   5.580   6.800  10.874  0.1543  0.0319 -0.2009
16554SOL    HW151103   5.622   6.850  10.944  1.2118 -1.1497  0.0386
16554SOL    HW251104   5.514   6.860  10.838  1.5109  1.6916 -0.0701
16555SOL     OW51105   4.761   5.955  11.652  0.2334 -0.6531 -0.6391
16555SOL    HW151106   4.761   5.880  11.711  1.6336 -1.3063 -1.4365
16555SOL    HW251107   4.701   5.930  11.581  0.6837 -1.0163 -0.8942
16556SOL     OW51108   3.852   6.487   8.902 -0.0031  0.5424 -0.1060
16556SOL    HW151109   3.798   6.525   8.833  1.0046  1.6043 -0.3492
16556SOL    HW251110   3.933   6.462   8.858 -0.3880 -1.3560  0.1800
16557SOL     OW51111   5.077   1.163   8.232  0.2326  0.0732  0.0320
16557SOL    HW151112   5.050   1.147   8.322  0.5074  0.9739  0.2795
16557SOL    HW251113   5.172   1.165   8.235  0.2514  2.7740  0.2478
16558SOL     OW51114   4.547   7.996  10.875  0.4438  0.7024 -0.1412
16558SOL    HW151115   4.637   7.982  10.845  0.9891  1.4585  1.0466
16558SOL    HW251116   4.552   8.077  10.926 -0.7720  0.3665  0.5417
16559SOL     OW51117   4.173   7.853   8.819  0.3566  0.4027  0.2962
16559SOL    HW151118   4.143   7.764   8.838 -3.1342  1.4278  0.3254
16559SOL    HW251119   4.227   7.844   8.741  0.5273 -1.7867  0.6038
16560SOL     OW51120   4.395   6.468   8.286 -0.4676 -0.3374 -0.1981
16560SOL    HW151121   4.379   6.557   8.317  1.6776 -0.1606  0.5346
16560SOL    HW251122   4.426   6.479   8.196  0.9160 -0.2234  0.2746
16561SOL     OW51123   5.691   5.081  12.180 -0.1569  0.5111  0.5064
16561SOL    HW151124   5.624   5.014  12.166 -0.6139  0.9357  0.6485
16561SOL    HW251125   5.751   5.071  12.106 -0.1929 -0.0920  0.5555
16562SOL     OW51126   3.548   6.118  10.516 -0.0105  0.4631 -0.1720
16562SOL    HW151127   3.623   6.119  10.457  1.5264 -0.7070  1.6746
16562SOL    HW251128   3.495   6.044  10.486  0.3121  0.4033 -0.6046
16563SOL     OW51129   4.814   6.578  11.508 -0.0502  0.4527 -0.0129
16563SOL    HW151130   4.805   6.496  11.557 -0.9724  1.3357  1.3654
16563SOL    HW251131   4.742   6.632  11.539  2.5136  3.1370  1.8267
16564SOL     OW51132   4.157   6.489   9.417 -0.6457 -0.1877  0.1038
16564SOL    HW151133   4.096   6.444   9.476 -2.0810  0.1495 -1.0458
16564SOL    HW251134   4.221   6.422   9.394 -1.1823 -0.8736  0.5303
16565SOL     OW51135   4.430   5.723  10.551 -0.0156  0.2207  0.2714
16565SOL    HW151136   4.419   5.720  10.646 -0.3391  0.7878  0.2600
16565SOL    HW251137   4.367   5.789  10.522  0.0176 -0.0098 -0.3495
16566SOL     OW51138   5.739   0.136   9.316 -0.5812  0.3438 -0.3324
16566SOL    HW151139   5.649   0.128   9.349 -0.2409 -3.0403  0.1758
16566SOL    HW251140   5.791   0.090   9.382  1.2679  0.5871 -1.5792
16567SOL     OW51141   3.332   7.740  11.129 -0.2212  0.3741 -0.2226
16567SOL    HW151142   3.308   7.722  11.220  1.8481 -0.0706  0.2870
16567SOL    HW251143   3.261   7.795  11.096 -2.6357 -1.9887  0.6803
16568SOL     OW51144   5.549   6.006   8.916 -0.0644 -0.0094  0.3462
16568SOL    HW151145   5.636   5.970   8.936 -1.3015 -2.2423  2.3326
16568SOL    HW251146   5.547   6.090   8.961  1.2883  0.4182 -0.3400
16569SOL     OW51147   5.911   6.267   9.548 -0.2749 -0.5767 -0.3913
16569SOL    HW151148   5.957   6.309   9.621 -1.2135  1.4581 -0.9050
16569SOL    HW251149   5.918   6.329   9.476 -1.0615 -1.6719 -1.4529
16570SOL     OW51150   5.860   6.849  10.764 -0.5687 -0.2414 -0.1936
16570SOL    HW151151   5.910   6.878  10.688  1.0014 -2.6470 -0.1700
16570SOL    HW251152   5.778   6.815  10.729 -0.8503  0.7359 -0.5335
16571SOL     OW51153   3.491   7.869  10.925 -0.3546  0.1374 -0.6602
16571SOL    HW151154   3.431   7.831  10.988 -1.8733  0.2929 -1.9430
16571SOL    HW251155   3.513   7.797  10.866  1.3218 -0.0937  0.2031
16572SOL     OW51156   5.044   5.857  10.360  0.0394 -0.0610 -0.4645
16572SOL    HW151157   5.135   5.871  10.336 -0.4009  0.2685 -2.0422
16572SOL    HW251158   5.046   5.781  10.418  1.2798 -0.2619 -0.7494
16573SOL     OW51159   2.791   1.176  12.157 -1.0874 -0.2385  0.1734
16573SOL    HW151160   2.766   1.096  12.110  2.0335 -0.7430 -0.8575
16573SOL    HW251161   2.791   1.244  12.089  0.5818 -0.3476  0.0323
16574SOL     OW51162   6.046   0.153   7.803 -0.1477 -0.0604  0.0009
16574SOL    HW151163   6.019   0.244   7.799 -1.0298 -0.3061  0.0532
16574SOL    HW251164   6.138   0.153   7.778 -0.6127  0.6250 -1.9109
16575SOL     OW51165   5.860   0.838  10.893 -0.2117 -0.2100 -0.2887
16575SOL    HW151166   5.942   0.887  10.890  0.6768 -1.6797 -3.0829
16575SOL    HW251167   5.792   0.905  10.884  0.8823  0.7282 -2.1088
16576SOL     OW51168   4.648   6.323   8.668  0.6800 -0.4915  0.6514
16576SOL    HW151169   4.595   6.319   8.589  0.5298 -0.9601  0.7656
16576SOL    HW251170   4.584   6.338   8.738  0.8623  0.3607  0.6355
16577SOL     OW51171   4.859   6.427  10.876 -0.1394 -0.1295  0.7201
16577SOL    HW151172   4.852   6.448  10.970 -2.0761  0.0908  0.5678
16577SOL    HW251173   4.810   6.497  10.833  0.0978 -0.6519 -0.4170
16578SOL     OW51174   5.824   7.852   9.667  0.3293 -0.4489  0.6088
16578SOL    HW151175   5.887   7.850   9.596  0.0072 -0.2596  0.3187
16578SOL    HW251176   5.863   7.910   9.732 -0.1676  0.7607 -0.1516
16579SOL     OW51177   4.941   7.018  12.228  0.2844  0.7983 -0.4467
16579SOL    HW151178   5.026   7.018  12.184 -0.4933  0.5788 -2.0228
16579SOL    HW251179   4.961   7.032  12.321  2.1033 -0.2193 -0.6458
16580SOL     OW51180   5.178   5.193  10.685  0.4438 -0.3064  0.0784
16580SOL    HW151181   5.242   5.261  10.667  0.3626 -0.6887 -1.8511
16580SOL    HW251182   5.094   5.232  10.662  0.1548 -0.3782  0.9735
16581SOL     OW51183   3.829   7.155  10.629  0.1410  0.7710 -0.5177
16581SOL    HW151184   3.864   7.217  10.564  0.6012 -0.6719 -1.7111
16581SOL    HW251185   3.734   7.162  10.620  0.1911  1.2523 -0.6969
16582SOL     OW51186   4.768   6.069  12.395  0.2645  0.0365 -0.2679
16582SOL    HW151187   4.855   6.060  12.433 -0.1029 -1.6175  0.2418
16582SOL    HW251188   4.709   6.077  12.470 -0.2114 -0.8622 -0.5280
16583SOL     OW51189   4.839   3.983  10.126 -0.1577 -0.1719 -0.6797
16583SOL    HW151190   4.885   3.900  10.139 -0.3763 -0.3504 -1.0144
16583SOL    HW251191   4.813   4.010  10.214 -0.9031 -0.9306 -0.6518
16584SOL     OW51192   5.266   6.035   8.256  0.0821  0.4643  0.1786
16584SOL    HW151193   5.223   6.120   8.252 -0.3120  0.2101 -2.4403
16584SOL    HW251194   5.234   5.997   8.338 -2.9160  1.2516 -0.4804
16585SOL     OW51195   3.041   1.353  10.814  0.2710  0.3831  0.3552
16585SOL    HW151196   3.033   1.364  10.719  1.6736  2.3247  0.4154
16585SOL    HW251197   2.962   1.393  10.849 -0.4033 -0.6124  0.0359
16586SOL     OW51198   5.121   7.642   8.899 -0.3517  0.1861 -0.3343
16586SOL    HW151199   5.057   7.572   8.909  1.1388 -1.0189  1.4214
16586SOL    HW251200   5.092   7.712   8.958 -0.3397 -0.1272  0.0415
16587SOL     OW51201   5.381   6.156  11.070 -0.0597 -0.0120 -0.0773
16587SOL    HW151202   5.460   6.108  11.095 -0.2669  0.2737  1.2316
16587SOL    HW251203   5.412   6.234  11.024  0.3836 -0.2636 -0.2048
16588SOL     OW51204   5.450   6.669  10.541  0.0153 -0.0048  0.0525
16588SOL    HW151205   5.389   6.721  10.489  0.4455  0.4574  0.0046
16588SOL    HW251206   5.534   6.712  10.530 -0.1397  1.0227  2.3402
16589SOL     OW51207   5.087   6.087  10.549 -0.2171  0.2352  0.2892
16589SOL    HW151208   5.110   6.031  10.623  0.2444 -0.6036 -0.4685
16589SOL    HW251209   5.071   6.027  10.476  2.4777  1.1234 -1.1697
16590SOL     OW51210   6.334   6.746   8.991  0.3379  0.5549  0.0498
16590SOL    HW151211   6.355   6.798   8.914  1.6011 -1.8742 -1.3477
16590SOL    HW251212   6.415   6.699   9.011 -0.7981 -1.0373  1.1201
16591SOL     OW51213   3.557   0.737  11.654 -0.0565 -0.1123 -0.0037
16591SOL    HW151214   3.634   0.681  11.654 -1.7000 -2.5285 -0.7924
16591SOL    HW251215   3.533   0.746  11.561 -0.4696  0.9999  0.1910
16592SOL     OW51216   5.134   6.972  10.120  0.2058  0.0497 -0.0300
16592SOL    HW151217   5.177   6.891  10.094  0.9240  0.3389  0.2504
16592SOL    HW251218   5.166   6.991  10.208 -1.1498 -0.1745  0.5478
16593SOL     OW51219   5.949   6.764   8.648 -0.3410 -0.6291 -0.4871
16593SOL    HW151220   5.975   6.686   8.600  1.4096 -0.8073  0.6447
16593SOL    HW251221   5.931   6.733   8.737 -1.6826 -0.0354 -0.5298
16594SOL     OW51222   5.678   6.101   8.693 -0.2640 -0.0287 -0.0574
16594SOL    HW151223   5.674   6.016   8.737  1.9783 -0.3004 -0.2478
16594SOL    HW251224   5.592   6.110   8.652 -1.2013 -1.3509  1.4462
16595SOL     OW51225   3.089   6.718  10.665  0.1241 -0.2648 -0.1685
16595SOL    HW151226   3.073   6.688  10.575  1.4721  1.2521 -0.9663
16595SOL    HW251227   3.166   6.775  10.658 -1.9436  2.9686  1.3010
16596SOL     OW51228   4.042   5.904  11.478 -0.2237 -0.1382 -0.3282
16596SOL    HW151229   3.960   5.945  11.451 -0.1776  0.5851  0.5386
16596SOL    HW251230   4.067   5.847  11.406 -1.3136 -0.1048 -0.7410
16597SOL     OW51231   5.024   5.758   8.046  0.2401 -0.0493 -0.5081
16597SOL    HW151232   4.982   5.784   8.128  0.0082 -0.1635 -0.5910
16597SOL    HW251233   5.113   5.734   8.072 -0.4919 -2.3762  0.1157
16598SOL     OW51234   3.498   5.556  10.591  0.0432  0.0609  0.3223
16598SOL    HW151235   3.513   5.486  10.655  0.5091  1.4471  1.7694
16598SOL    HW251236   3.531   5.519  10.508 -3.8923 -3.2182 -0.1169
16599SOL     OW51237   4.292   6.573   9.100  0.2748 -0.4883  0.4198
16599SOL    HW151238   4.272   6.635   9.169 -1.8056  0.8911 -1.2795
16599SOL    HW251239   4.289   6.487   9.143  1.0596  0.4172  2.3836
16600SOL     OW51240   3.676   7.579   9.573 -0.6092  0.0685 -0.2626
16600SOL    HW151241   3.654   7.562   9.665  0.1075  1.3527  0.1746
16600SOL    HW251242   3.682   7.492   9.534 -1.1778 -0.4938  0.8469
16601SOL     OW51243   4.895   4.622  10.327  0.5313 -0.5659  0.1988
16601SOL    HW151244   4.981   4.662  10.313  0.4702 -0.3583  0.4003
16601SOL    HW251245   4.837   4.669  10.266  0.4279 -0.2307  0.5504
16602SOL     OW51246   4.537   7.143   9.320  0.3270 -0.1484 -0.5335
16602SOL    HW151247   4.584   7.060   9.329 -0.4645 -0.6934 -1.3070
16602SOL    HW251248   4.480   7.147   9.397  1.1691  0.2275  0.0907
16603SOL     OW51249   3.412   6.476   9.332  0.1101 -0.0090  0.4536
16603SOL    HW151250   3.504   6.492   9.351  0.0160 -0.3322  1.2332
16603SOL    HW251251   3.400   6.506   9.242  0.7853  0.8069  0.6219
16604SOL     OW51252   5.150   5.570  11.243  0.6006 -0.2962 -0.1971
16604SOL    HW151253   5.064   5.585  11.282  0.0923 -0.5509 -1.1806
16604SOL    HW251254   5.158   5.638  11.176  0.9958 -0.5178 -0.3796
16605SOL     OW51255   4.343   4.751  10.768 -0.1372  0.1283 -0.5755
16605SOL    HW151256   4.385   4.734  10.684 -0.0274  1.6715 -0.8733
16605SOL    HW251257   4.375   4.682  10.826  0.9078 -0.1267 -1.4274
16606SOL     OW51258   4.353   6.141  10.278 -0.4421 -0.4522  0.3661
16606SOL    HW151259   4.300   6.220  10.267 -1.0750 -1.1563 -2.5967
16606SOL    HW251260   4.437   6.174  10.310 -0.7297  1.4461 -0.6261
16607SOL     OW51261   6.781   5.373  10.590  0.2714  0.3981 -0.1287
16607SOL    HW151262   6.773   5.430  10.667  1.6396 -2.3172  2.2070
16607SOL    HW251263   6.875   5.370  10.572  0.6480 -3.1646  1.6444
16608SOL     OW51264   5.325   7.940  10.842  0.1923 -0.5440 -0.5502
16608SOL    HW151265   5.274   7.916  10.920 -0.1383 -0.2833 -0.6804
16608SOL    HW251266   5.396   7.995  10.876 -1.6576  2.1511 -0.6963
16609SOL     OW51267   5.432   5.058  11.276 -0.1458 -0.2020 -0.0659
16609SOL    HW151268   5.520   5.075  11.242  0.4087 -1.6890  0.5275
16609SOL    HW251269   5.386   5.016  11.203 -0.8303  1.7401 -0.8177
16610SOL     OW51270   4.274   5.241   9.200 -0.3827 -0.7326  0.7025
16610SOL    HW151271   4.287   5.181   9.127  1.3495 -0.0592  0.4094
16610SOL    HW251272   4.359   5.243   9.245 -0.9487  0.0873  1.7894
16611SOL     OW51273   4.860   4.957   9.423  0.7419  0.3041 -0.3790
16611SOL    HW151274   4.875   4.930   9.514  1.2341  0.1464 -0.5048
16611SOL    HW251275   4.786   4.904   9.394  1.5097 -0.7095 -0.5332
16612SOL     OW51276   3.817   3.287  10.199 -0.0153 -0.3415 -0.1836
16612SOL    HW151277   3.885   3.237  10.156 -1.0329 -3.4759  1.5155
16612SOL    HW251278   3.843   3.289  10.291 -0.6350  1.2762 -0.0100
16613SOL     OW51279   3.686   6.369  11.614  0.6241 -0.2572 -0.1985
16613SOL    HW151280   3.638   6.451  11.622  0.8700 -0.1741  0.5733
16613SOL    HW251281   3.687   6.350  11.521 -1.0615 -0.3554 -0.2124
16614SOL     OW51282   5.429   7.767  11.484  0.1908  0.6051 -0.2370
16614SOL    HW151283   5.402   7.677  11.502 -0.7771  0.9976  0.3630
16614SOL    HW251284   5.363   7.821  11.527  0.7338  1.6086 -0.6225
16615SOL     OW51285   5.332   5.143   8.968  0.2250  0.0919  0.2517
16615SOL    HW151286   5.274   5.203   9.015  0.4605 -0.1462  0.8595
16615SOL    HW251287   5.341   5.182   8.881 -0.5738  0.3019  0.2575
16616SOL     OW51288   3.791   7.454  11.253 -0.2746  0.3845 -0.0009
16616SOL    HW151289   3.700   7.425  11.245 -0.4190  0.8230  0.0331
16616SOL    HW251290   3.843   7.374  11.243 -0.5846  0.3707 -1.8044
16617SOL     OW51291   4.045   5.435   9.349 -0.3964 -0.4250  0.5394
16617SOL    HW151292   3.984   5.454   9.278  1.1641  1.2453 -0.4232
16617SOL    HW251293   3.996   5.457   9.429 -1.3702 -0.0454 -0.1455
16618SOL     OW51294   2.914   6.191  10.475 -0.4644 -0.1596  0.4392
16618SOL    HW151295   2.885   6.264  10.529 -1.4202  1.2084 -1.7467
16618SOL    HW251296   2.993   6.224  10.432 -0.0752 -0.9763  0.5214
16619SOL     OW51297   6.387   5.704  11.825 -0.2642 -0.2025  0.1734
16619SOL    HW151298   6.339   5.708  11.742  1.6195 -1.0907 -1.0089
16619SOL    HW251299   6.384   5.612  11.850 -0.3910 -0.0209  0.8502
16620SOL     OW51300   3.786   5.428  10.291 -0.0723 -0.1836  0.3736
16620SOL    HW151301   3.799   5.464  10.379  0.3708  1.0240 -0.1653
16620SOL    HW251302   3.732   5.493  10.246 -1.0675 -1.2152  0.0095
16621SOL     OW51303   6.372   5.365  10.563 -0.5306  0.2488  0.2429
16621SOL    HW151304   6.373   5.270  10.549 -2.9678  0.2458 -0.3108
16621SOL    HW251305   6.432   5.378  10.637  0.8270 -1.5416 -0.4652
16622SOL     OW51306   4.022   0.432  11.091  0.1514 -0.1439 -0.6455
16622SOL    HW151307   4.014   0.506  11.151  2.5812 -0.4924  0.2218
16622SOL    HW251308   4.116   0.418  11.082 -0.0527 -4.8230  1.4196
16623SOL     OW51309   4.898   5.042  10.341 -0.0564 -0.0376 -0.0790
16623SOL    HW151310   4.956   5.117  10.334  1.5412 -1.3132 -1.0483
16623SOL    HW251311   4.888   5.010  10.252 -1.5289 -0.4088  0.1851
16624SOL     OW51312   5.160   5.551   8.275 -0.1306 -0.5616 -0.3607
16624SOL    HW151313   5.237   5.494   8.280  0.9389  0.6319 -1.9023
16624SOL    HW251314   5.197   5.639   8.262 -1.7392  0.3531  0.9703
16625SOL     OW51315   5.198   7.272   9.320  0.4175 -0.0741 -0.3141
16625SOL    HW151316   5.143   7.220   9.261 -0.0777  0.2051 -0.1007
16625SOL    HW251317   5.200   7.359   9.282 -0.2143  0.2079  0.2704
16626SOL     OW51318   6.393   5.634  10.445 -0.3249 -0.1685 -0.0130
16626SOL    HW151319   6.411   5.716  10.492  0.1225 -0.3462  0.1294
16626SOL    HW251320   6.471   5.581  10.459 -1.5769 -1.6418  2.0265
16627SOL     OW51321   4.454   5.402   0.280 -0.1889 -0.0884  0.1176
16627SOL    HW151322   4.544   5.430   0.265 -0.9430  3.9032  1.6771
16627SOL    HW251323   4.423   5.373   0.194  1.8380  0.8963 -1.0111
16628SOL     OW51324   5.044   6.349  10.157  0.2773 -0.4269  0.0411
16628SOL    HW151325   5.100   6.293  10.103  0.0822  1.5439 -2.4114
16628SOL    HW251326   5.048   6.435  10.115 -1.7209  0.6948  1.9080
16629SOL     OW51327   3.461   7.778  10.064 -0.3231 -0.4124 -0.3594
16629SOL    HW151328   3.452   7.869  10.089 -1.6232 -0.1114 -1.8042
16629SOL    HW251329   3.552   7.757  10.084  0.0936  1.2929 -0.3076
16630SOL     OW51330   5.565   7.254  10.618 -0.0212  0.5600  0.3922
16630SOL    HW151331   5.503   7.241  10.547  2.3171 -1.4190 -1.4726
16630SOL    HW251332   5.570   7.169  10.661  0.5099  1.0267  1.2768
16631SOL     OW51333   4.560   0.223  10.242 -0.1587 -0.4332 -0.1571
16631SOL    HW151334   4.582   0.177  10.323  1.8222 -1.0381 -0.9739
16631SOL    HW251335   4.504   0.162  10.194 -1.3843 -0.0511  0.7323
16632SOL     OW51336   6.380   0.226  10.447 -0.4115  0.3887  0.1639
16632SOL    HW151337   6.310   0.173  10.484 -1.0573  0.1525 -1.3209
16632SOL    HW251338   6.341   0.312  10.435 -0.8784 -0.0496 -1.7825
16633SOL     OW51339   3.638   4.131  11.890  0.3143  0.4836  0.0739
16633SOL    HW151340   3.550   4.145  11.925  0.8967  1.6934  1.1022
16633SOL    HW251341   3.628   4.054  11.833 -1.3806  0.5385  0.2264
16634SOL     OW51342   5.814   6.414  11.637 -0.6846 -0.1451 -0.2788
16634SOL    HW151343   5.758   6.474  11.587 -1.8660 -1.3718 -0.4839
16634SOL    HW251344   5.769   6.403  11.720 -0.0536 -0.1402  0.0701
16635SOL     OW51345   5.375   6.078  11.653  0.0430 -0.0035 -0.4019
16635SOL    HW151346   5.288   6.089  11.692  0.5072  0.0729  0.6304
16635SOL    HW251347   5.387   5.983  11.646  0.4143 -0.0543  0.7212
16636SOL     OW51348   2.677   6.566   8.969 -0.0059 -0.3951  0.0413
16636SOL    HW151349   2.707   6.545   9.058 -0.8794 -0.6186  0.2984
16636SOL    HW251350   2.638   6.484   8.938 -3.0515  0.5906  0.8736
16637SOL     OW51351   5.401   3.973  11.056  0.4589 -0.3534  0.2094
16637SOL    HW151352   5.308   3.959  11.036  0.3092  1.6526 -0.8032
16637SOL    HW251353   5.447   3.920  10.991  0.0455 -1.4813  0.8135
16638SOL     OW51354   5.088   0.584  10.472  0.3588  0.1801  0.1221
16638SOL    HW151355   5.167   0.582  10.419  0.1812 -1.9274 -0.1866
16638SOL    HW251356   5.115   0.549  10.557 -0.4895 -2.3302 -0.5318
16639SOL     OW51357   5.101   6.051   9.565  0.5044 -0.1832  0.3911
16639SOL    HW151358   5.125   6.111   9.636 -0.2348  1.1957 -0.4788
16639SOL    HW251359   5.019   6.087   9.530 -0.6198 -2.3725  0.5870
16640SOL     OW51360   3.644   5.258   9.551 -0.0515  0.1037  0.3395
16640SOL    HW151361   3.643   5.343   9.508 -0.2527  0.5738  1.2366
16640SOL    HW251362   3.704   5.269   9.625 -1.6981  0.1578  1.7500
16641SOL     OW51363   5.153   7.091   6.684  0.4062 -0.4738  0.1642
16641SOL    HW151364   5.101   7.105   6.605 -0.8921 -0.5593  0.9922
16641SOL    HW251365   5.218   7.162   6.682 -0.1486  0.0284 -0.5352
16642SOL     OW51366   5.764   0.531  10.554 -0.0255  0.3632 -0.4324
16642SOL    HW151367   5.724   0.460  10.603  2.0031  0.3227  1.2736
16642SOL    HW251368   5.744   0.510  10.462 -0.0173 -2.0626  0.0460
16643SOL     OW51369   4.253   4.421  10.102  0.1220  0.1188  0.0779
16643SOL    HW151370   4.233   4.504  10.144  0.7707  0.5342 -0.4056
16643SOL    HW251371   4.197   4.419  10.024 -0.2767 -0.1388  0.3719
16644SOL     OW51372   4.713   6.825   9.360  0.1780  0.8619 -0.1040
16644SOL    HW151373   4.631   6.826   9.310  2.0525 -0.9189 -3.5601
16644SOL    HW251374   4.706   6.747   9.415 -0.6358  0.9827 -0.0198
16645SOL     OW51375   2.917   0.054  12.203 -0.1809  0.4658  0.3792
16645SOL    HW151376   2.823   0.069  12.199 -0.3379 -0.6818 -0.9790
16645SOL    HW251377   2.949   0.117  12.268 -1.8094  1.1717  0.5343
16646SOL     OW51378   3.843   6.588  11.050 -0.3240 -0.3340 -0.7776
16646SOL    HW151379   3.779   6.656  11.069  0.7745  0.9623 -1.4710
16646SOL    HW251380   3.865   6.551  11.135 -2.2624 -1.0929 -0.5784
16647SOL     OW51381   4.712   4.532  11.689  0.4545 -0.6794 -0.0533
16647SOL    HW151382   4.681   4.450  11.651 -0.7969 -0.3820  0.2700
16647SOL    HW251383   4.633   4.576  11.720  1.0466  0.8107 -0.5105
16648SOL     OW51384   3.218   4.076  11.271 -0.3564  0.1339 -0.3374
16648SOL    HW151385   3.200   4.100  11.180  0.5294 -0.8094 -0.7874
16648SOL    HW251386   3.301   4.028  11.266 -0.5478 -0.3342  0.9087
16649SOL     OW51387   6.402   5.731   0.159  0.0824 -0.5306  0.2350
16649SOL    HW151388   6.486   5.694   0.186  0.3168 -0.9263 -0.9529
16649SOL    HW251389   6.336   5.675   0.200  0.3433  0.5009  2.1680
16650SOL     OW51390   6.327   4.634  11.549 -0.8502 -0.1721 -0.3578
16650SOL    HW151391   6.277   4.643  11.468 -1.0211 -0.7160 -0.3168
16650SOL    HW251392   6.346   4.541  11.555 -1.0256 -0.1712  0.3363
16651SOL     OW51393   5.381   5.374   8.299  0.2664  0.3999 -0.2806
16651SOL    HW151394   5.381   5.320   8.221  2.9924 -0.9314  0.5064
16651SOL    HW251395   5.376   5.311   8.372 -0.5315  1.4978  0.6529
16652SOL     OW51396   5.687   5.318   9.183 -0.3669 -0.6159  0.0519
16652SOL    HW151397   5.714   5.234   9.220 -0.2491 -0.8720 -0.5980
16652SOL    HW251398   5.625   5.354   9.247  1.0792 -0.2659  1.3092
16653SOL     OW51399   3.755   6.928   9.654 -0.1169 -0.0883  0.4562
16653SOL    HW151400   3.784   7.011   9.691  1.1818 -1.4465  2.7353
16653SOL    HW251401   3.663   6.919   9.682  0.3589 -0.3266  2.0264
16654SOL     OW51402   4.586   5.957  11.415 -0.5539  0.5096 -0.4884
16654SOL    HW151403   4.491   5.955  11.410 -0.5925  1.0078 -0.0636
16654SOL    HW251404   4.615   5.989  11.330 -0.6809 -1.2018 -1.2124
16655SOL     OW51405   5.904   7.593  11.978  0.2445 -0.7940 -0.7183
16655SOL    HW151406   5.926   7.612  11.887 -0.4235  3.0553 -0.2223
16655SOL    HW251407   5.985   7.612  12.026 -0.0289 -0.7042 -0.2900
16656SOL     OW51408   3.874   4.345   9.647  0.1867 -0.2724 -0.9845
16656SOL    HW151409   3.874   4.337   9.551  2.1521 -0.6088 -1.0045
16656SOL    HW251410   3.934   4.418   9.664 -1.0546  0.5618 -0.0192
16657SOL     OW51411   4.324   5.117   8.950 -0.5240 -0.0615  0.1388
16657SOL    HW151412   4.259   5.084   8.889  0.9190 -1.7803 -0.5338
16657SOL    HW251413   4.384   5.169   8.896  0.2140 -0.7994  0.2223
16658SOL     OW51414   4.570   6.389  10.073 -0.8514 -0.2243 -0.3100
16658SOL    HW151415   4.552   6.313  10.018  1.2471 -0.1488 -1.2216
16658SOL    HW251416   4.595   6.353  10.158  1.4013 -0.7236 -1.1024
16659SOL     OW51417   4.295   7.268   9.926  0.0733 -0.0028 -0.1230
16659SOL    HW151418   4.246   7.188   9.946 -1.0230  0.6778  0.0222
16659SOL    HW251419   4.380   7.238   9.895 -0.2101 -1.2125  0.2437
16660SOL     OW51420   5.084   6.596  11.591  0.0946  0.2799  0.0378
16660SOL    HW151421   5.130   6.666  11.545 -2.0035  2.2000  0.6873
16660SOL    HW251422   4.995   6.597  11.554 -0.2400 -1.4400  0.7039
16661SOL     OW51423   4.738   4.905  11.194 -0.0375  0.0370  0.2977
16661SOL    HW151424   4.668   4.926  11.131 -1.0077 -1.3005  0.8773
16661SOL    HW251425   4.739   4.979  11.254 -0.9978  0.0676  0.2986
16662SOL     OW51426   5.640   7.187   7.120  0.2627 -0.1337  0.0445
16662SOL    HW151427   5.733   7.164   7.114  0.4941  0.8909 -0.4356
16662SOL    HW251428   5.608   7.175   7.031  0.6469  2.4082 -0.4898
16663SOL     OW51429   3.914   4.794   9.621 -0.3464 -0.1273 -0.5434
16663SOL    HW151430   3.822   4.815   9.639 -0.3172 -0.9811  0.6957
16663SOL    HW251431   3.921   4.799   9.525 -1.6946 -0.1326 -0.6648
16664SOL     OW51432   4.000   7.275   9.918  0.0040 -0.1812 -0.0934
16664SOL    HW151433   3.944   7.285   9.995  1.9468  0.6502  1.3075
16664SOL    HW251434   4.071   7.338   9.932 -0.1668  0.8587 -3.1804
16665SOL     OW51435   3.556   7.317  11.237 -0.2584 -0.5865 -0.0428
16665SOL    HW151436   3.543   7.224  11.221 -0.7547 -0.4840 -0.2534
16665SOL    HW251437   3.520   7.361  11.160 -0.0246 -0.2228  0.0512
16666SOL     OW51438   3.945   4.103  12.343  0.2962  0.4180 -0.0821
16666SOL    HW151439   3.924   4.196  12.331 -0.7447  0.2750  0.4786
16666SOL    HW251440   3.916   4.062  12.261 -0.8312  0.3570  0.3310
16667SOL     OW51441   5.276   5.224  12.071  0.4635  0.0632 -0.2947
16667SOL    HW151442   5.235   5.140  12.050 -1.9144  0.9159  0.5546
16667SOL    HW251443   5.297   5.262  11.986 -1.2968 -0.1045 -0.8509
16668SOL     OW51444   5.148   6.281  10.838 -0.3905 -0.0249  0.6463
16668SOL    HW151445   5.201   6.347  10.793 -0.7863 -0.5176 -0.5933
16668SOL    HW251446   5.169   6.293  10.931 -1.3008  2.6077  0.6175
16669SOL     OW51447   5.146   6.117   8.913  0.4130  0.3492  0.4331
16669SOL    HW151448   5.191   6.147   8.834  0.7384 -0.5505  0.2608
16669SOL    HW251449   5.168   6.024   8.919 -0.5547  0.1388  0.9455
16670SOL     OW51450   3.621   6.699  11.713  0.0816 -0.0862 -0.2785
16670SOL    HW151451   3.576   6.642  11.776 -1.2130  1.5050  0.3209
16670SOL    HW251452   3.562   6.703  11.638  1.7501 -2.1907 -1.7945
16671SOL     OW51453   3.721   0.251  11.185  0.5705 -0.4071  0.2001
16671SOL    HW151454   3.694   0.192  11.114 -0.5035  1.5020 -1.0637
16671SOL    HW251455   3.808   0.219  11.211 -0.1660 -2.8255 -0.0373
16672SOL     OW51456   5.118   6.846  11.430 -0.3031  0.2286 -0.1544
16672SOL    HW151457   5.087   6.931  11.401 -1.5375 -0.0110  0.3761
16672SOL    HW251458   5.050   6.785  11.403  0.6671 -0.6316 -0.7169
16673SOL     OW51459   5.897   5.081  11.578  0.6272 -0.1002  0.0268
16673SOL    HW151460   5.886   5.175  11.589 -0.7443 -0.1732 -0.5069
16673SOL    HW251461   5.967   5.057  11.638  2.3774  1.5685 -1.2256
16674SOL     OW51462   5.161   5.883  10.729 -0.0291  0.1121  0.2185
16674SOL    HW151463   5.182   5.799  10.689  0.8363  0.5598 -0.3057
16674SOL    HW251464   5.161   5.867  10.823 -1.1337 -0.7454  0.0863
16675SOL     OW51465   4.897   7.011  10.495 -0.3679  0.5979 -0.4943
16675SOL    HW151466   4.840   6.938  10.519  1.1550 -0.2874  0.6089
16675SOL    HW251467   4.903   7.007  10.399 -0.9762 -0.2097 -0.5050
16676SOL     OW51468   3.923   6.666   9.961  0.2655  0.5132 -0.0236
16676SOL    HW151469   3.938   6.743  10.015  1.2964 -0.0438  0.5095
16676SOL    HW251470   4.008   6.624   9.953 -0.0025  0.1641 -1.4712
16677SOL     OW51471   6.258   6.681  11.376 -0.2489  0.1008  0.3301
16677SOL    HW151472   6.198   6.625  11.425  1.0640 -0.6529  1.1594
16677SOL    HW251473   6.341   6.672  11.423  0.4567  1.2719 -0.6510
16678SOL     OW51474   4.032   0.975  10.866 -0.1981  0.9580 -0.2296
16678SOL    HW151475   4.100   1.036  10.838  0.6284 -0.1223 -0.5994
16678SOL    HW251476   4.016   0.998  10.958  2.2186 -0.1751  0.5317
16679SOL     OW51477   4.352   5.148  10.867 -0.1520  0.7431 -0.2057
16679SOL    HW151478   4.383   5.204  10.796 -0.8148  1.4165  0.0267
16679SOL    HW251479   4.431   5.127  10.917  0.3390  0.2205 -1.1423
16680SOL     OW51480   5.648   7.160  11.852 -0.0292  0.1725  0.0146
16680SOL    HW151481   5.552   7.162  11.859 -0.1828 -2.5539 -0.1750
16680SOL    HW251482   5.664   7.165  11.758  0.3447  4.3723  0.0887
16681SOL     OW51483   3.681   6.001  10.737 -0.1774 -0.0138  0.2268
16681SOL    HW151484   3.624   6.043  10.673 -0.1635  1.9694  1.4303
16681SOL    HW251485   3.768   6.035  10.717  0.4439 -1.9616 -0.7260
16682SOL     OW51486   2.189   7.208  11.370  0.4602  0.3980  0.5563
16682SOL    HW151487   2.189   7.239  11.460  0.3872  2.3885 -0.0858
16682SOL    HW251488   2.208   7.286  11.317 -0.3235 -0.5425 -1.2120
16683SOL     OW51489   5.377   7.937   8.810  0.9746  0.2489 -0.3221
16683SOL    HW151490   5.388   7.902   8.899 -0.5964 -0.8938 -0.5430
16683SOL    HW251491   5.383   8.032   8.822  1.1680  0.1059  0.9424
16684SOL     OW51492   4.992   4.063  11.498 -0.2134  0.0208  0.1315
16684SOL    HW151493   4.924   3.998  11.477 -0.7004  0.3929  0.5502
16684SOL    HW251494   4.946   4.147  11.496  0.5857  0.4541 -1.2390
16685SOL     OW51495   7.672   7.192   9.780 -0.2102 -0.2241  0.4365
16685SOL    HW151496   7.637   7.116   9.733 -1.8326 -1.2941  3.1447
16685SOL    HW251497   7.596   7.232   9.821  0.9016  1.6940  0.7506
16686SOL     OW51498   4.501   6.802   9.748 -0.2981 -0.9361  0.5217
16686SOL    HW151499   4.416   6.846   9.745 -0.3192 -0.9743 -2.2399
16686SOL    HW251500   4.481   6.710   9.730  0.3485 -0.7884 -1.1295
16687SOL     OW51501   3.706   0.494  11.361  0.1791  0.3078 -0.0337
16687SOL    HW151502   3.688   0.420  11.303 -3.3921  0.0553  1.1582
16687SOL    HW251503   3.737   0.454  11.442  1.3497  0.3924 -0.4223
16688SOL     OW51504   5.597   7.501  11.968 -0.3680 -0.5880 -0.0733
16688SOL    HW151505   5.583   7.580  12.021  2.0629 -0.3227  0.2754
16688SOL    HW251506   5.550   7.519  11.886  0.9181  1.6634 -0.3940
16689SOL     OW51507   5.096   4.401   9.404 -0.3073 -0.2844 -0.2673
16689SOL    HW151508   5.021   4.344   9.415 -1.4385  0.8745 -1.5583
16689SOL    HW251509   5.089   4.433   9.314  1.5517  0.1106 -0.3141
16690SOL     OW51510   4.980   0.075   8.837 -0.4796 -0.2936  0.0621
16690SOL    HW151511   4.944   0.005   8.782  1.6006 -0.5445 -1.0965
16690SOL    HW251512   5.014   0.139   8.775 -0.1128  0.5338  1.0940
16691SOL     OW51513   3.716   0.595  12.157  0.1941 -0.5296 -0.8255
16691SOL    HW151514   3.718   0.501  12.144 -1.4904 -0.5010 -1.4941
16691SOL    HW251515   3.693   0.631  12.071 -0.0539  0.4276 -0.3820
16692SOL     OW51516   5.948   5.926   9.769 -0.1576 -0.0093 -0.1647
16692SOL    HW151517   6.022   5.961   9.819 -0.1503 -0.9070  0.4680
16692SOL    HW251518   5.872   5.942   9.825 -0.3663  0.3702 -0.5510
16693SOL     OW51519   4.958   7.390  10.472 -0.4901  0.2378 -0.0434
16693SOL    HW151520   4.992   7.448  10.541  0.5742 -1.0721  0.5707
16693SOL    HW251521   5.036   7.354  10.430 -1.0996  1.3489 -2.2981
16694SOL     OW51522   6.444   5.207   9.917  0.4448  0.5092 -0.7351
16694SOL    HW151523   6.529   5.218   9.874  1.4178 -0.2125  0.9109
16694SOL    HW251524   6.423   5.294   9.950  2.0798  0.1457  1.4839
16695SOL     OW51525   6.194   7.784  10.332 -0.6465  0.0493  0.4214
16695SOL    HW151526   6.254   7.800  10.259 -0.8057  1.2204  0.5297
16695SOL    HW251527   6.135   7.716  10.300  1.5920 -2.2141  0.8208
16696SOL     OW51528   4.890   6.368  11.205 -0.7608 -0.4642 -0.1376
16696SOL    HW151529   4.832   6.438  11.175 -1.5876 -1.6346 -1.4119
16696SOL    HW251530   4.841   6.324  11.274  0.3053  0.9752  1.6114
16697SOL     OW51531   5.322   6.873  11.612  1.0831  0.2976 -0.1259
16697SOL    HW151532   5.379   6.945  11.587  0.6587  0.4645 -0.6379
16697SOL    HW251533   5.276   6.849  11.531  1.2043 -0.5376  0.0412
16698SOL     OW51534   3.940   5.536   9.590  0.0862  0.5231  0.0045
16698SOL    HW151535   3.974   5.614   9.547 -0.4239  0.4954 -0.4745
16698SOL    HW251536   3.849   5.559   9.611  0.3983  0.6172  1.2929
16699SOL     OW51537   4.768   0.163  10.673  0.3454 -0.0420  0.3060
16699SOL    HW151538   4.719   0.232  10.716  0.0543  0.1657 -0.3407
16699SOL    HW251539   4.859   0.192  10.675  0.4087 -0.2813  1.2323
16700SOL     OW51540   6.523   5.763   8.078  0.3184  0.6351 -0.0934
16700SOL    HW151541   6.613   5.751   8.047  1.4875  1.2030  2.7318
16700SOL    HW251542   6.476   5.800   8.004  2.6111  0.9915 -1.4480
16701SOL     OW51543   4.020   7.414   8.294 -0.3861  0.3005 -0.0537
16701SOL    HW151544   4.063   7.350   8.352  0.6538  0.3247 -0.7598
16701SOL    HW251545   3.978   7.476   8.353 -3.4977 -2.2726  0.7178
16702SOL     OW51546   5.082   7.196  11.801  0.6129  0.5936 -0.0299
16702SOL    HW151547   5.032   7.118  11.827  2.1255 -0.6693 -0.7412
16702SOL    HW251548   5.098   7.243  11.883 -1.6315  1.0190  0.2296
16703SOL     OW51549   4.918   0.228  11.601 -0.2528 -0.5615  0.6744
16703SOL    HW151550   4.891   0.140  11.627  2.5628 -1.2983  1.4474
16703SOL    HW251551   5.010   0.233  11.624 -0.3159  2.6640  0.7292
16704SOL     OW51552   5.033   0.242   8.634 -0.4154  0.2980  0.6077
16704SOL    HW151553   5.119   0.282   8.616 -0.1047 -0.9704 -1.0163
16704SOL    HW251554   5.009   0.201   8.551 -2.3463  0.1393  1.2178
16705SOL     OW51555   4.697   7.520   8.345  0.5229  0.1304 -0.4949
16705SOL    HW151556   4.637   7.448   8.325  2.0543 -0.8342 -2.0074
16705SOL    HW251557   4.734   7.497   8.430  0.8051 -0.7710 -0.8442
16706SOL     OW51558   5.110   7.083   9.137  0.3571  0.1313  0.4545
16706SOL    HW151559   5.175   7.068   9.069 -1.0617 -0.5820 -0.8002
16706SOL    HW251560   5.051   7.007   9.132 -1.9864  1.8683 -0.1525
16707SOL     OW51561   5.051   7.317  10.030 -0.2659 -0.1546  0.1203
16707SOL    HW151562   5.097   7.242   9.992  0.2241 -0.3468  1.0615
16707SOL    HW251563   5.112   7.390  10.020 -0.7178  0.1129 -0.7396
16708SOL     OW51564   4.329   5.511  10.285 -0.7289  0.2717  0.1523
16708SOL    HW151565   4.404   5.570  10.274  0.1112 -0.8499 -0.3155
16708SOL    HW251566   4.281   5.519  10.203  0.7339 -1.4861 -0.9581
16709SOL     OW51567   3.017   7.818  10.544  0.1669  0.3370  0.2100
16709SOL    HW151568   3.034   7.904  10.583  1.3223 -0.4872  1.6318
16709SOL    HW251569   3.084   7.808  10.477  0.6631  0.1690  0.7179
16710SOL     OW51570   4.960   5.347  10.629  0.1327  0.2098  0.3004
16710SOL    HW151571   4.963   5.379  10.539  1.6373 -1.2141 -0.1934
16710SOL    HW251572   4.867   5.335  10.647 -0.1442 -0.8245 -1.5738
16711SOL     OW51573   3.788   5.586   8.588 -0.5914 -0.0974 -0.2854
16711SOL    HW151574   3.710   5.563   8.537 -0.2638 -0.7630 -0.4884
16711SOL    HW251575   3.841   5.507   8.589  0.8303  0.7862 -1.5195
16712SOL     OW51576   5.623   7.530  10.655 -0.2566 -0.1444 -0.2469
16712SOL    HW151577   5.621   7.437  10.632  0.7135 -0.1009 -0.5701
16712SOL    HW251578   5.700   7.540  10.710  1.6724  0.9982 -2.9005
16713SOL     OW51579   5.099   5.461   9.528  0.1394 -0.0615 -0.4295
16713SOL    HW151580   5.060   5.531   9.579  0.6407  0.7658 -1.1634
16713SOL    HW251581   5.051   5.382   9.556 -0.8138  0.6419 -0.0094
16714SOL     OW51582   5.352   7.054   8.103 -0.2921  0.3078  0.0560
16714SOL    HW151583   5.347   7.149   8.104  1.1929  0.4054  1.1291
16714SOL    HW251584   5.361   7.029   8.195  0.3785 -0.8028 -0.2937
16715SOL     OW51585   3.957   6.415  11.740 -0.2054 -0.0780  0.1912
16715SOL    HW151586   4.001   6.500  11.730  0.0345 -0.1897  0.3003
16715SOL    HW251587   3.864   6.436  11.730  0.0039 -0.2847 -3.1949
16716SOL     OW51588   5.366   6.256   9.009 -0.4468  0.2407  0.1806
16716SOL    HW151589   5.297   6.191   8.997 -1.4037  0.6785  2.7836
16716SOL    HW251590   5.332   6.335   8.966 -1.2710  0.2539  0.8405
16717SOL     OW51591   2.453   6.502  11.150 -0.1526  0.2940 -0.0735
16717SOL    HW151592   2.493   6.451  11.080  0.5686  0.8743 -0.0903
16717SOL    HW251593   2.517   6.500  11.221 -1.1673 -0.8665  0.8434
16718SOL     OW51594   6.175   6.657  10.892 -0.4122  0.2687  0.3483
16718SOL    HW151595   6.231   6.654  10.970 -0.1807  0.5384  0.1969
16718SOL    HW251596   6.092   6.693  10.924 -0.0737  1.0862  0.3373
16719SOL     OW51597   4.384   0.856  10.568  0.0969  0.4680 -0.0966
16719SOL    HW151598   4.292   0.829  10.565 -0.0207  0.2372  2.6986
16719SOL    HW251599   4.426   0.790  10.625  1.8492  0.9557 -0.7751
16720SOL     OW51600   6.958   6.435  11.254 -0.1807  0.2335  0.3783
16720SOL    HW151601   6.941   6.487  11.176  0.0642 -0.5121 -0.1832
16720SOL    HW251602   7.042   6.468  11.287  0.1448 -0.0449 -0.1727
16721SOL     OW51603   4.089   5.937  10.760 -0.2349 -0.3184  1.0507
16721SOL    HW151604   4.182   5.958  10.763 -0.2543 -0.2440  1.1918
16721SOL    HW251605   4.047   6.019  10.733 -0.2937 -0.2320  1.3966
16722SOL     OW51606   4.874   6.741  10.015  0.5032  0.0729  0.3187
16722SOL    HW151607   4.920   6.657  10.020 -1.8485 -1.3936 -1.1874
16722SOL    HW251608   4.847   6.749   9.924  0.6064  2.5054  0.4263
16723SOL     OW51609   4.438   4.164  10.923  0.0225 -0.5403  0.2016
16723SOL    HW151610   4.406   4.216  10.997 -0.3092 -3.0824  1.9328
16723SOL    HW251611   4.531   4.188  10.916 -0.3747  1.1430  0.1270
16724SOL     OW51612   5.652   7.390  11.555  0.2312  0.2444 -0.1478
16724SOL    HW151613   5.707   7.464  11.578 -0.1432  0.6723 -0.6262
16724SOL    HW251614   5.562   7.421  11.566  0.0630 -0.7967  1.7428
16725SOL     OW51615   5.259   5.349   9.809  0.5771  0.5485 -0.2721
16725SOL    HW151616   5.281   5.438   9.782 -0.7508  0.9525 -0.1338
16725SOL    HW251617   5.174   5.332   9.767  0.8133 -0.6500 -0.2866
16726SOL     OW51618   2.871   6.965  11.643 -0.2023 -0.0705  0.0325
16726SOL    HW151619   2.838   7.040  11.593  1.5559 -0.1311 -1.3162
16726SOL    HW251620   2.912   7.004  11.720 -0.4183  0.2381 -0.0029
16727SOL     OW51621   4.753   6.775  10.606 -0.3256  0.2676 -0.6143
16727SOL    HW151622   4.734   6.690  10.645 -0.2574  0.8936  0.8505
16727SOL    HW251623   4.691   6.783  10.534  0.7087 -1.6776 -1.8071
16728SOL     OW51624   5.885   5.247   9.909 -0.2398 -0.1423 -0.3024
16728SOL    HW151625   5.866   5.153   9.909 -0.0261 -0.1960 -1.6516
16728SOL    HW251626   5.981   5.252   9.915 -0.2378 -0.0167 -0.4259
16729SOL     OW51627   5.382   6.976  11.281 -0.7335 -0.4042 -0.2280
16729SOL    HW151628   5.387   7.071  11.297  0.0295 -0.8256  2.5929
16729SOL    HW251629   5.292   6.961  11.253 -1.0276  1.0869 -0.1634
16730SOL     OW51630   2.576   6.248  10.537 -0.2100  0.1741 -0.2763
16730SOL    HW151631   2.600   6.164  10.574  0.6310  0.3170 -0.4900
16730SOL    HW251632   2.506   6.228  10.474 -0.5927 -0.2474  0.2747
16731SOL     OW51633   3.042   0.051  10.654 -0.8024 -0.4928  0.3366
16731SOL    HW151634   3.024   0.142  10.680 -0.4197 -0.4449  0.4496
16731SOL    HW251635   2.998  -0.002  10.719  1.1035 -0.3728  1.8011
16732SOL     OW51636   4.859   6.129  10.164 -0.4780  0.2428  0.1854
16732SOL    HW151637   4.917   6.204  10.172  1.3764 -1.0108 -0.9136
16732SOL    HW251638   4.839   6.104  10.255  1.1715  0.3843  0.6160
16733SOL     OW51639   4.241   4.952   9.981 -0.0069  0.4219 -0.7044
16733SOL    HW151640   4.236   5.047   9.980  0.1881  0.4331 -0.4988
16733SOL    HW251641   4.329   4.932  10.013 -0.1929  0.1688 -0.3384
16734SOL     OW51642   3.854   5.426  10.023 -0.1150 -0.3753 -0.1411
16734SOL    HW151643   3.771   5.466   9.998  0.0145 -0.3921 -0.6044
16734SOL    HW251644   3.852   5.425  10.119 -0.8152 -0.7364 -0.1542
16735SOL     OW51645   6.407   6.768  10.505  0.1814  0.2694 -0.0401
16735SOL    HW151646   6.438   6.840  10.450 -0.9303 -0.1504 -1.2629
16735SOL    HW251647   6.448   6.690  10.468  0.3178  0.1097  0.4442
16736SOL     OW51648   4.383   5.394  10.704  0.7048  0.1662 -0.1958
16736SOL    HW151649   4.427   5.470  10.742  1.2724 -1.6838  3.2594
16736SOL    HW251650   4.291   5.419  10.700  0.7690  0.8549  1.6013
16737SOL     OW51651   4.623   6.558  10.771 -0.2813 -0.1789 -0.3252
16737SOL    HW151652   4.558   6.572  10.840 -0.2924  1.5101 -0.6192
16737SOL    HW251653   4.578   6.505  10.706 -0.2633 -1.8275  0.9441
16738SOL     OW51654   5.089   5.021  11.099  0.2461  0.2905 -0.7238
16738SOL    HW151655   5.183   4.999  11.099  0.5856  1.6006  0.2499
16738SOL    HW251656   5.045   4.938  11.085  1.5497 -0.4356 -0.6642
16739SOL     OW51657   5.076   4.304  11.226 -0.5659 -0.5493  0.1691
16739SOL    HW151658   5.032   4.381  11.262 -0.6235  0.1088 -1.2366
16739SOL    HW251659   5.005   4.247  11.198 -0.5229 -1.1299  1.2054
16740SOL     OW51660   4.726   6.207  10.696  0.5979 -0.0054 -0.3999
16740SOL    HW151661   4.657   6.141  10.686 -1.1778  1.8742 -1.0967
16740SOL    HW251662   4.693   6.284  10.651  0.4290  2.9893  4.1852
16741SOL     OW51663   4.610   6.103  10.008  0.0438  0.0566  0.1167
16741SOL    HW151664   4.693   6.100  10.057  0.3167 -0.7184 -0.3666
16741SOL    HW251665   4.564   6.023  10.036 -0.5047  0.4403  0.3177
16742SOL     OW51666   6.231   5.578   9.071  0.5435 -0.0203 -0.6321
16742SOL    HW151667   6.236   5.496   9.122  0.8115  0.1438 -0.3907
16742SOL    HW251668   6.196   5.642   9.133  0.1585  0.0063 -0.8757
16743SOL     OW51669   3.931   6.941  10.501 -0.0606 -0.1028  0.8136
16743SOL    HW151670   3.909   6.973  10.413  0.9900  0.6976  0.8190
16743SOL    HW251671   3.891   7.005  10.560 -0.4965 -0.4636  0.9091
16744SOL     OW51672   3.658   6.736  10.345  0.4346  0.2044 -0.0322
16744SOL    HW151673   3.683   6.671  10.411 -2.7581 -0.7125  0.4762
16744SOL    HW251674   3.670   6.691  10.262 -2.1776 -1.3778  0.3285
16745SOL     OW51675   4.882   7.489   9.057 -0.6884 -0.0464  0.2331
16745SOL    HW151676   4.808   7.457   9.109 -0.0836 -1.0549  0.4895
16745SOL    HW251677   4.928   7.410   9.029  0.5080  0.5713  0.3867
16746SOL     OW51678   4.000   5.990   8.986  0.6407 -0.0756 -0.7057
16746SOL    HW151679   3.916   6.036   8.985 -0.0958 -1.3714 -0.6673
16746SOL    HW251680   4.066   6.060   8.983 -0.3974  1.0730  1.2002
16747SOL     OW51681   3.694   0.165  10.678 -0.2623 -0.2769 -0.7121
16747SOL    HW151682   3.601   0.163  10.700  0.1915  3.4205  2.7044
16747SOL    HW251683   3.708   0.252  10.641  1.8260 -0.8296 -1.3743
16748SOL     OW51684   3.409   6.260  11.592  0.2188 -0.0646 -0.4160
16748SOL    HW151685   3.364   6.323  11.536 -0.2757 -2.8003 -3.3778
16748SOL    HW251686   3.421   6.183  11.537  1.4382 -2.3441  2.7316
16749SOL     OW51687   5.891   5.944  12.227  0.1582 -0.2327  0.4377
16749SOL    HW151688   5.848   5.971  12.308  0.4424 -0.3011  0.6129
16749SOL    HW251689   5.837   5.980  12.157 -0.2347 -0.3985  0.6568
16750SOL     OW51690   3.741   0.378  11.606 -0.6455  0.0305 -0.0973
16750SOL    HW151691   3.739   0.385  11.701  1.2014 -0.6691  0.0385
16750SOL    HW251692   3.667   0.321  11.584 -1.8049  1.1545  0.7820
16751SOL     OW51693   5.506   5.173   0.645 -0.1390  0.0022 -0.2567
16751SOL    HW151694   5.457   5.220   0.713 -0.6526 -0.9876  0.0600
16751SOL    HW251695   5.450   5.100   0.620  1.1834 -1.1788  0.1474
16752SOL     OW51696   3.241   6.562  11.726 -0.0676  0.8184  0.1300
16752SOL    HW151697   3.321   6.555  11.777  1.2374 -0.2044 -1.9444
16752SOL    HW251698   3.255   6.637  11.668 -1.3207  1.6528  0.8352
16753SOL     OW51699   6.416   5.707  11.316 -0.1473 -0.4869 -0.1009
16753SOL    HW151700   6.440   5.794  11.348 -0.1576 -0.6651  0.4009
16753SOL    HW251701   6.327   5.717  11.283  0.1324 -0.1276 -0.7679
16754SOL     OW51702   4.309   6.804  11.475  0.3155 -0.1917  0.3174
16754SOL    HW151703   4.276   6.894  11.477 -1.1234 -0.6946  0.6994
16754SOL    HW251704   4.251   6.756  11.534 -0.7181 -1.9332 -1.9391
16755SOL     OW51705   4.021   6.449  10.852  0.4569 -0.1217 -0.1321
16755SOL    HW151706   3.988   6.515  10.913 -0.3845 -0.4404 -0.2240
16755SOL    HW251707   3.943   6.418  10.806  0.6853 -1.8190  0.5434
16756SOL     OW51708   4.806   0.399  10.440 -0.0561 -0.3033 -0.6857
16756SOL    HW151709   4.805   0.324  10.380  1.7845  1.2158 -2.7684
16756SOL    HW251710   4.864   0.371  10.511  2.0563 -0.3160 -2.3197
16757SOL     OW51711   5.927   7.415  12.233  0.1815 -0.5042  0.0808
16757SOL    HW151712   6.022   7.426  12.231 -0.0013  1.3878  0.1670
16757SOL    HW251713   5.904   7.419  12.326 -0.4808  5.3557  0.0403
16758SOL     OW51714   2.894   6.145  10.979  0.2782 -0.2706 -0.4967
16758SOL    HW151715   2.982   6.152  10.943  0.5289 -0.5798  0.0493
16758SOL    HW251716   2.869   6.054  10.965  0.0210 -0.1680 -0.7078
16759SOL     OW51717   5.480   7.250  10.132 -0.4448  0.8014 -0.1288
16759SOL    HW151718   5.548   7.316  10.133 -0.7018  1.0665 -0.0594
16759SOL    HW251719   5.518   7.176  10.085 -0.7921  1.6639 -1.8144
16760SOL     OW51720   4.022   4.758  12.377 -0.5119 -0.2406 -0.2655
16760SOL    HW151721   4.095   4.788  12.431 -1.2794 -1.0699  1.2846
16760SOL    HW251722   4.015   4.825  12.308  0.6880  0.6820  0.4609
16761SOL     OW51723   6.208   7.172  10.360 -0.1456 -0.5040  0.0919
16761SOL    HW151724   6.118   7.158  10.330 -0.1435 -0.3140 -0.0035
16761SOL    HW251725   6.252   7.213  10.285 -0.3255  0.6530  0.6058
16762SOL     OW51726   1.700   7.532  11.359  0.2908 -0.1001 -0.0984
16762SOL    HW151727   1.622   7.533  11.303 -1.3422 -0.2094  2.0219
16762SOL    HW251728   1.745   7.614  11.340 -1.4774  0.9546  0.0661
16763SOL     OW51729   5.202   6.339  10.494 -0.1228  0.5914 -0.2751
16763SOL    HW151730   5.228   6.307  10.407 -0.2594  1.5885 -0.6916
16763SOL    HW251731   5.145   6.270  10.529 -1.5623  1.0076 -1.7329
16764SOL     OW51732   6.013   7.023  11.577  0.3422  0.3255  0.0389
16764SOL    HW151733   6.025   7.059  11.665 -0.4059  0.0664  0.2645
16764SOL    HW251734   5.931   7.062  11.546  0.1330 -0.2715 -0.1780
16765SOL     OW51735   3.200   6.068   1.027  0.2807 -0.2296  0.0817
16765SOL    HW151736   3.186   6.117   1.109 -0.6657 -0.2199 -0.0793
16765SOL    HW251737   3.120   6.082   0.977 -0.1157 -2.1099  0.1086
16766SOL     OW51738   3.895   7.380  10.145  0.1134  0.2913 -0.5343
16766SOL    HW151739   3.817   7.414  10.189  0.0746 -1.1972  0.6036
16766SOL    HW251740   3.966   7.437  10.175 -0.2147  0.4206  0.0107
16767SOL     OW51741   4.713   4.220   9.547  0.1617  0.2736  0.3957
16767SOL    HW151742   4.629   4.253   9.578 -0.9688 -0.4217 -1.6937
16767SOL    HW251743   4.694   4.185   9.460  2.6038 -0.0533 -0.0780
16768SOL     OW51744   3.174   5.608  11.946 -0.4441  0.7327 -0.6775
16768SOL    HW151745   3.179   5.513  11.937 -0.2330  0.5430  1.1333
16768SOL    HW251746   3.245   5.641  11.891 -0.1881 -0.1803 -0.9093
16769SOL     OW51747   4.304   7.368  11.696 -0.1128 -0.3919  0.5763
16769SOL    HW151748   4.358   7.434  11.741 -0.3349  1.7582 -2.0439
16769SOL    HW251749   4.366   7.314  11.648 -0.0386 -1.1179  1.4580
16770SOL     OW51750   6.149   6.642  11.914 -0.4757  0.2131  0.0213
16770SOL    HW151751   6.137   6.677  12.003 -2.2426  1.3937 -0.6424
16770SOL    HW251752   6.067   6.661  11.869 -0.0148 -1.3368 -1.5731
16771SOL     OW51753   5.825   6.414  10.722  0.1806  0.0620 -0.2900
16771SOL    HW151754   5.809   6.457  10.638 -0.1794 -1.2449 -0.9140
16771SOL    HW251755   5.777   6.467  10.786  0.9995  1.4601 -0.7737
16772SOL     OW51756   4.219   6.988  11.772  0.0834 -0.0045 -0.5001
16772SOL    HW151757   4.187   6.903  11.744  0.2256 -1.1282  2.4075
16772SOL    HW251758   4.314   6.977  11.782 -0.0001  0.1767  0.7150
16773SOL     OW51759   3.391   5.527   0.230 -0.4300  0.4904 -0.1439
16773SOL    HW151760   3.353   5.440   0.219  0.0722  0.2612 -0.0989
16773SOL    HW251761   3.346   5.563   0.306 -0.0762 -0.0506  0.3305
16774SOL     OW51762   6.572   7.618  10.308  0.5437 -0.1933 -0.3767
16774SOL    HW151763   6.537   7.700  10.273  0.7227  0.6142  1.2839
16774SOL    HW251764   6.573   7.559  10.232 -0.2057  1.1185 -1.4553
16775SOL     OW51765   7.600   6.172   0.276  0.5722 -0.2203 -0.2476
16775SOL    HW151766   7.516   6.175   0.230  0.4702  1.2803 -0.0142
16775SOL    HW251767   7.623   6.079   0.277 -2.4471 -1.1325  2.1273
16776SOL     OW51768   3.807   6.322  12.280  0.3466  0.0212  0.0475
16776SOL    HW151769   3.809   6.381  12.205  0.8519 -0.3797 -0.2580
16776SOL    HW251770   3.721   6.280  12.276 -0.4319  1.4470  0.8370
16777SOL     OW51771   2.789   6.295  12.494 -0.1166 -0.3768 -0.0977
16777SOL    HW151772   2.737   6.262  12.567 -0.5165  0.3916 -0.0237
16777SOL    HW251773   2.847   6.223  12.471  1.6772  0.1032  2.4950
16778SOL     OW51774   6.241   6.793   0.178 -0.0863 -0.0975  0.1249
16778SOL    HW151775   6.204   6.792   0.267  1.3215  1.3752  0.7715
16778SOL    HW251776   6.210   6.876   0.140  0.4434 -0.0669 -0.2500
16779SOL     OW51777   4.939   5.587   0.621 -0.5050 -0.1684 -0.2249
16779SOL    HW151778   4.848   5.570   0.647 -0.5307 -1.6014 -1.1715
16779SOL    HW251779   4.931   5.644   0.545 -0.7557 -2.0834 -1.7125
16780SOL     OW51780   5.382   7.398  12.133 -0.0353  0.2797 -0.4058
16780SOL    HW151781   5.465   7.437  12.104 -0.6213  0.8198 -1.4234
16780SOL    HW251782   5.342   7.364  12.053 -0.5159 -0.5358  0.1650
16781SOL     OW51783   4.455   7.199   0.145 -0.1989 -0.1371 -0.1160
16781SOL    HW151784   4.538   7.200   0.192  0.0836 -0.1062 -0.6106
16781SOL    HW251785   4.461   7.124   0.086  0.4318  1.1993 -1.8210
16782SOL     OW51786   5.630   5.223   0.184 -0.5914 -0.5910  0.1791
16782SOL    HW151787   5.590   5.247   0.267 -2.4845  0.8654 -1.0642
16782SOL    HW251788   5.678   5.301   0.157 -0.8783 -0.6685 -0.5819
16783SOL     OW51789   3.682   5.933  11.913 -0.2891 -0.0216 -0.0588
16783SOL    HW151790   3.694   5.966  11.823 -0.0763 -0.6353 -0.2581
16783SOL    HW251791   3.667   5.839  11.902 -0.2523 -0.1005  0.5562
16784SOL     OW51792   5.628   6.707   0.675  0.0854  0.0933  0.2363
16784SOL    HW151793   5.710   6.752   0.696 -0.3357  1.1765 -0.3449
16784SOL    HW251794   5.604   6.663   0.756  1.5881 -0.8340  0.2255
16785SOL     OW51795   5.612   7.805  10.584  0.1021 -0.3213  0.0958
16785SOL    HW151796   5.611   7.719  10.626  2.0190  0.2030  1.3191
16785SOL    HW251797   5.616   7.786  10.490  1.2035 -1.6080  0.3745
16786SOL     OW51798   6.056   7.277  11.286 -0.4174 -0.0709  0.2073
16786SOL    HW151799   6.005   7.358  11.284 -0.7338 -0.1867  1.8243
16786SOL    HW251800   6.125   7.294  11.351 -0.6178 -1.1651  0.7280
16787SOL     OW51801   4.050   5.979   0.209 -0.2904  0.0774  0.2520
16787SOL    HW151802   4.069   6.052   0.269  1.0052 -0.1109  0.1048
16787SOL    HW251803   4.013   6.022   0.132 -0.7063  0.4590  0.6588
16788SOL     OW51804   6.686   5.648  11.897 -0.0363 -0.2198  0.1204
16788SOL    HW151805   6.642   5.732  11.907  0.1955 -0.1896  1.0438
16788SOL    HW251806   6.648   5.593  11.965 -0.4638 -0.9899 -0.7256
16789SOL     OW51807   4.060   5.237  12.284 -0.3484  0.5303 -0.4076
16789SOL    HW151808   4.055   5.160  12.340 -0.2474  0.7120 -0.1454
16789SOL    HW251809   4.118   5.211  12.213 -2.0657 -0.3768 -1.5254
16790SOL     OW51810   2.950   0.208  10.405  0.3118 -0.0877  0.2118
16790SOL    HW151811   2.942   0.185  10.312  0.1915  0.4014  0.0990
16790SOL    HW251812   2.883   0.155  10.448  1.0672 -1.1046  0.1638
16791SOL     OW51813   4.349   5.450  12.270  0.0621 -0.7070 -0.0721
16791SOL    HW151814   4.437   5.447  12.306  0.6294  0.1377 -1.3193
16791SOL    HW251815   4.314   5.362  12.284  1.4758 -1.3477 -0.4429
16792SOL     OW51816   3.414   5.465  10.926 -0.3269  0.0049  0.1298
16792SOL    HW151817   3.466   5.407  10.981 -0.1859  0.9991  1.0855
16792SOL    HW251818   3.392   5.539  10.983 -1.4988  0.3288 -0.7047
16793SOL     OW51819   4.003   6.392  11.326  0.3849 -0.0357 -0.1402
16793SOL    HW151820   4.034   6.353  11.408  0.6150  0.6921  0.1337
16793SOL    HW251821   4.029   6.330  11.258 -0.3532 -0.9443  0.3919
16794SOL     OW51822   3.872   5.171   0.315 -0.3400 -1.0901 -0.0281
16794SOL    HW151823   3.967   5.164   0.306 -0.0853  0.5460  1.0364
16794SOL    HW251824   3.852   5.259   0.282 -1.2276 -0.6922  1.5145
16795SOL     OW51825   4.715   4.676  12.465 -0.8872  0.6007 -0.1208
16795SOL    HW151826   4.641   4.737  12.464 -0.3531  1.2816  0.7791
16795SOL    HW251827   4.699   4.620  12.541  1.3922  3.2029  2.5014
16796SOL     OW51828   4.704   7.069  11.699  0.1582 -0.4876 -0.0167
16796SOL    HW151829   4.773   7.016  11.659  0.6453 -0.0408  0.2192
16796SOL    HW251830   4.742   7.100  11.781  0.1387  0.7822 -0.4689
16797SOL     OW51831   4.497   7.147  10.120 -0.5680 -0.2730  0.1584
16797SOL    HW151832   4.565   7.104  10.068 -0.4546  0.2629 -0.1545
16797SOL    HW251833   4.521   7.240  10.117 -2.2767  0.1755 -1.4683
16798SOL     OW51834   3.696   5.954  12.256  0.0856  1.0839  0.6840
16798SOL    HW151835   3.693   5.875  12.203 -0.6339  1.5673 -0.0121
16798SOL    HW251836   3.613   5.999  12.238  0.4087  1.9173  1.1938
16799SOL     OW51837   6.106   6.082  11.963  0.7085  0.0118 -0.6394
16799SOL    HW151838   6.038   6.145  11.987  0.4608  1.1229 -3.7266
16799SOL    HW251839   6.102   6.015  12.031 -1.7604  1.3197  0.6473
16800SOL     OW51840   4.886   6.676  12.266  0.1527  0.3504 -1.2384
16800SOL    HW151841   4.920   6.605  12.321 -1.4828  0.6248  0.2230
16800SOL    HW251842   4.938   6.672  12.187  1.4674 -1.1795 -0.3562
16801SOL     OW51843   5.280   0.287   0.384 -0.3613 -0.1308 -1.0635
16801SOL    HW151844   5.195   0.264   0.423  0.0069  0.6733  0.2512
16801SOL    HW251845   5.325   0.203   0.376  0.6691 -0.1484  2.9922
16802SOL     OW51846   3.804   6.973  11.943 -0.1951 -0.0087 -0.2688
16802SOL    HW151847   3.811   6.949  11.851 -0.8615 -1.2318 -0.0378
16802SOL    HW251848   3.891   6.957  11.979 -0.4367 -1.5822 -0.2763
16803SOL     OW51849   3.420   6.684  11.508 -0.1631  0.0183  0.1856
16803SOL    HW151850   3.439   6.605  11.457  2.6336  0.5664  0.2336
16803SOL    HW251851   3.405   6.752  11.442  0.3321  0.0668  0.1237
16804SOL     OW51852   3.099   5.357  12.195  0.2002 -0.0672  0.0321
16804SOL    HW151853   3.038   5.299  12.149  2.1845 -0.7025 -2.0152
16804SOL    HW251854   3.047   5.435  12.216 -1.9328 -1.6107  0.7869
16805SOL     OW51855   5.921   6.718  11.379 -0.1187 -0.3768 -0.0033
16805SOL    HW151856   5.986   6.692  11.443  0.3865  1.4775  0.2938
16805SOL    HW251857   5.880   6.796  11.416  0.1095  0.6892 -1.8297
16806SOL     OW51858   3.704   0.318  12.374  0.1743 -0.3187 -0.5968
16806SOL    HW151859   3.763   0.325  12.299  1.2262 -0.8387  0.1594
16806SOL    HW251860   3.733   0.386  12.434 -0.9264  0.3686 -0.8102
16807SOL     OW51861   4.146   5.205  11.587 -0.2377 -0.3596 -0.0763
16807SOL    HW151862   4.210   5.135  11.606  0.2482 -0.2178 -1.1298
16807SOL    HW251863   4.110   5.228  11.673  1.7612  0.1519  0.6969
16808SOL     OW51864   3.557   6.646  11.107  0.2773  0.2853 -0.7937
16808SOL    HW151865   3.572   6.553  11.089 -3.4084 -0.5645 -0.4539
16808SOL    HW251866   3.517   6.647  11.194 -0.6697  2.0393 -1.2013
16809SOL     OW51867   4.827   5.348  11.300  0.6687 -0.2696 -0.8843
16809SOL    HW151868   4.772   5.416  11.339  0.8377 -0.5937 -0.0504
16809SOL    HW251869   4.916   5.371  11.327  0.6679 -1.1230 -0.1196
16810SOL     OW51870   6.245   6.208  11.071 -0.1200 -0.1189  0.0766
16810SOL    HW151871   6.208   6.130  11.112  0.0170  0.2015  0.8133
16810SOL    HW251872   6.331   6.220  11.112  0.5844 -0.5259 -1.2090
16811SOL     OW51873   4.324   5.797  11.599  0.4433 -0.2676  0.1239
16811SOL    HW151874   4.346   5.727  11.538 -0.9241 -0.5315 -0.1003
16811SOL    HW251875   4.346   5.762  11.686  1.2716 -0.3382 -0.1010
16812SOL     OW51876   3.760   6.782  12.133  0.0042  0.1150  0.1432
16812SOL    HW151877   3.758   6.866  12.086 -0.2108 -0.8600 -1.6697
16812SOL    HW251878   3.795   6.720  12.070  0.3623 -1.1505  1.5276
16813SOL     OW51879   3.565   5.408   0.051 -0.2869  0.3097 -0.3993
16813SOL    HW151880   3.654   5.435   0.073 -0.5761  1.7264 -0.8617
16813SOL    HW251881   3.510   5.446   0.120 -0.5866 -0.0768 -0.4231
16814SOL     OW51882   4.099   6.978   0.108 -0.5867 -0.4226  0.7103
16814SOL    HW151883   4.088   6.902   0.165  0.5968 -1.8358 -0.8472
16814SOL    HW251884   4.182   6.962   0.063 -0.7349  1.3975 -0.2732
16815SOL     OW51885   4.754   5.248   0.615 -0.0939 -0.0546  0.6390
16815SOL    HW151886   4.730   5.326   0.665 -1.4372  0.5924 -0.9000
16815SOL    HW251887   4.692   5.247   0.542 -0.1114 -2.5762  0.5987
16816SOL     OW51888   3.041   6.378   0.687  0.4810 -0.1396 -0.1139
16816SOL    HW151889   3.078   6.419   0.609  1.9077  0.2305  0.7071
16816SOL    HW251890   3.074   6.288   0.684  1.3912  0.1524  0.5489
16817SOL     OW51891   4.596   7.061  10.686 -0.8359 -0.0377 -0.0780
16817SOL    HW151892   4.650   6.989  10.653 -0.8657 -0.8955  1.5935
16817SOL    HW251893   4.634   7.140  10.648  1.6699 -0.6135  1.0332
16818SOL     OW51894   6.419   3.879  11.481  0.1915 -0.0425 -0.0555
16818SOL    HW151895   6.337   3.927  11.467  0.1189 -0.0387  0.3853
16818SOL    HW251896   6.476   3.909  11.410 -0.2454 -0.1809 -0.4724
16819SOL     OW51897   4.610   7.744  11.591  0.3054 -0.6324  0.2274
16819SOL    HW151898   4.624   7.666  11.536  1.3427 -1.6289  1.8256
16819SOL    HW251899   4.666   7.730  11.667  0.7158  1.8188  0.4531
16820SOL     OW51900   4.524   6.243   0.450 -0.7856  0.1179 -0.6281
16820SOL    HW151901   4.566   6.162   0.423 -1.5164 -1.1866  1.8761
16820SOL    HW251902   4.435   6.238   0.415 -0.8991 -0.2886 -0.2873
16821SOL     OW51903   5.279   6.465  11.785 -0.2778 -0.1807 -0.5002
16821SOL    HW151904   5.239   6.496  11.704  0.2189 -0.6135 -0.9198
16821SOL    HW251905   5.245   6.376  11.796  0.9657 -0.7547 -1.1501
16822SOL     OW51906   3.842   7.969  12.123 -0.2953 -0.4274  0.0072
16822SOL    HW151907   3.918   7.940  12.074 -0.5806 -0.5348 -0.3798
16822SOL    HW251908   3.847   8.065  12.121  0.3705 -0.4371  0.8497
16823SOL     OW51909   3.378   5.512  12.368 -0.2832  0.3592 -0.2310
16823SOL    HW151910   3.345   5.425  12.345 -1.9078  0.2195  2.3035
16823SOL    HW251911   3.450   5.495  12.429 -0.4314  0.7792  0.0637
16824SOL     OW51912   3.727   6.413   0.217  0.2982  0.4912 -0.2592
16824SOL    HW151913   3.709   6.337   0.273  1.0413 -0.3172 -1.0808
16824SOL    HW251914   3.659   6.477   0.240 -0.4445 -0.4835  0.3400
16825SOL     OW51915   5.598   5.379  10.885  0.2303  0.3785  0.2255
16825SOL    HW151916   5.646   5.298  10.867 -0.9792 -0.3027 -0.0461
16825SOL    HW251917   5.512   5.350  10.917 -0.8072  1.4909 -1.3530
16826SOL     OW51918   3.831   5.694  12.119  0.1549  0.6395 -0.0596
16826SOL    HW151919   3.785   5.653  12.045  0.1782  0.3068  0.1107
16826SOL    HW251920   3.895   5.629  12.146  1.1888  1.3631 -0.7183
16827SOL     OW51921   4.166   0.506  11.898  0.2635 -0.1457 -0.1151
16827SOL    HW151922   4.137   0.419  11.924  0.4225  0.0015  0.5762
16827SOL    HW251923   4.164   0.558  11.978  2.0236 -0.0173 -0.1009
16828SOL     OW51924   3.218   6.154  12.231 -0.3930 -0.4904  0.3974
16828SOL    HW151925   3.181   6.232  12.189  0.2584  0.5892  1.7662
16828SOL    HW251926   3.144   6.092  12.235 -1.5498  0.8890  1.3184
16829SOL     OW51927   2.559   4.593   0.576 -0.2332  0.7659  0.2160
16829SOL    HW151928   2.577   4.507   0.615 -1.0670  0.8738  0.8762
16829SOL    HW251929   2.639   4.615   0.529  0.3808  0.1078  0.9205
16830SOL     OW51930   4.891   4.383  12.323  0.1832 -0.0632  0.0947
16830SOL    HW151931   4.869   4.308  12.378 -0.5668  0.1322  0.0737
16830SOL    HW251932   4.877   4.352  12.234 -0.8375  0.3061  0.1104
16831SOL     OW51933   3.733   7.226  11.928  0.3852  0.3694 -0.4097
16831SOL    HW151934   3.808   7.284  11.938  0.8198 -0.3230  0.4449
16831SOL    HW251935   3.769   7.137  11.932 -0.4744  0.0207  0.1187
16832SOL     OW51936   3.742   4.968   1.245 -0.1719 -0.6043  0.2486
16832SOL    HW151937   3.655   4.944   1.276  0.4946 -0.9423  1.9738
16832SOL    HW251938   3.749   4.926   1.159 -2.2826  0.7908 -0.6687
16833SOL     OW51939   4.928   5.609  11.399  0.5554  0.0323 -0.2681
16833SOL    HW151940   4.925   5.561  11.481  0.8147 -0.5924 -0.6205
16833SOL    HW251941   4.838   5.605  11.366  0.7474 -0.9474 -0.7091
16834SOL     OW51942   5.803   5.639  11.487  0.1438 -0.1530  0.7590
16834SOL    HW151943   5.889   5.681  11.490  0.0136  0.0734  1.7034
16834SOL    HW251944   5.764   5.658  11.573 -1.7665  1.7377 -0.3925
16835SOL     OW51945   3.746   5.354  12.011 -0.0743 -0.1915 -0.0256
16835SOL    HW151946   3.693   5.333  12.088 -0.7307 -1.2790 -0.7386
16835SOL    HW251947   3.684   5.352  11.938  0.4774  1.1208 -0.5684
16836SOL     OW51948   3.973   7.284  11.441 -0.3642 -0.6051 -0.3402
16836SOL    HW151949   4.014   7.262  11.525 -0.4340 -0.0501 -0.1506
16836SOL    HW251950   4.046   7.309  11.384 -0.0366 -3.3631 -1.2673
16837SOL     OW51951   4.784   7.952  11.667  0.3554 -0.4796  0.7106
16837SOL    HW151952   4.730   8.022  11.704  1.5543  1.0014 -0.2259
16837SOL    HW251953   4.728   7.910  11.602  0.6339  1.8360 -1.1487
16838SOL     OW51954   3.158   7.846  10.953 -0.8181  0.6013 -0.0964
16838SOL    HW151955   3.179   7.775  10.892 -0.8958  2.0573 -1.9094
16838SOL    HW251956   3.063   7.853  10.952 -0.8457  0.4058  0.4915
16839SOL     OW51957   4.254   7.057  11.395  0.0490  0.0537  0.3458
16839SOL    HW151958   4.289   7.027  11.311  0.8376 -1.1961  1.0780
16839SOL    HW251959   4.203   7.135  11.374  1.0514  0.3457 -1.1497
16840SOL     OW51960   4.265   7.472  12.310 -0.3675 -0.6309  0.4969
16840SOL    HW151961   4.316   7.521  12.375 -0.6387  0.6718 -0.2427
16840SOL    HW251962   4.296   7.381  12.319 -0.4526 -0.5071  2.4745
16841SOL     OW51963   4.098   6.782  12.009 -0.7987 -0.2035  0.5309
16841SOL    HW151964   4.145   6.865  11.999  1.6645 -1.5752 -0.2906
16841SOL    HW251965   4.091   6.748  11.920 -0.1496 -1.6573  1.0030
16842SOL     OW51966   3.811   5.406   0.160 -0.3641 -0.0677  0.1250
16842SOL    HW151967   3.903   5.428   0.148 -0.0377 -0.1345  2.1948
16842SOL    HW251968   3.773   5.484   0.201 -1.3338  0.0817 -0.9984
16843SOL     OW51969   4.484   5.698  11.786  0.2368  0.4665 -0.1897
16843SOL    HW151970   4.518   5.738  11.866 -0.2506  0.2941  0.1081
16843SOL    HW251971   4.518   5.608  11.788  1.8942  1.0196 -1.1952
16844SOL     OW51972   3.194   4.967  11.768 -0.2770 -0.3039  0.1148
16844SOL    HW151973   3.244   4.966  11.850  0.2620 -0.9657 -0.2020
16844SOL    HW251974   3.154   4.880  11.764  1.7999 -1.2938 -1.5307
16845SOL     OW51975   5.539   6.592  12.167  0.3063 -0.6108  0.2079
16845SOL    HW151976   5.552   6.508  12.123 -0.5585  0.1205 -1.5148
16845SOL    HW251977   5.624   6.611  12.207  0.5779 -2.1786  0.4627
16846SOL     OW51978   3.864   4.639  11.494  0.0486 -0.3047 -0.0870
16846SOL    HW151979   3.810   4.643  11.573 -0.5756 -0.6574 -0.4864
16846SOL    HW251980   3.893   4.548  11.490  0.6434 -0.1277  0.0979
16847SOL     OW51981   4.892   7.621  11.947  0.4958 -0.0382  0.4023
16847SOL    HW151982   4.850   7.706  11.929 -0.7188 -0.9354 -1.3065
16847SOL    HW251983   4.930   7.595  11.864  2.7870 -0.2293  1.4331
16848SOL     OW51984   5.528   5.288  12.148  0.2133  0.0343 -0.0198
16848SOL    HW151985   5.453   5.267  12.092  0.3290 -1.2197  0.2516
16848SOL    HW251986   5.566   5.202  12.170  1.9652  0.6419 -0.4621
16849SOL     OW51987   6.638   6.513  10.586  0.1201  0.0008  0.1022
16849SOL    HW151988   6.651   6.607  10.595  0.8959  0.0360 -1.1031
16849SOL    HW251989   6.569   6.504  10.521 -1.2045 -0.2743  1.4906
16850SOL     OW51990   5.001   6.335   1.950 -0.4472  0.0358 -0.4449
16850SOL    HW151991   5.095   6.339   1.965 -0.5031  1.4309 -0.3825
16850SOL    HW251992   4.988   6.252   1.903  0.8391 -0.0209 -0.7445
16851SOL     OW51993   2.930   6.056  12.476  0.3088 -0.6405 -0.3733
16851SOL    HW151994   3.006   6.034  12.530 -0.2071 -2.8706 -0.4320
16851SOL    HW251995   2.855   6.037  12.533 -0.4168  4.4662  0.8431
16852SOL     OW51996   3.830   5.190   9.766 -0.6413 -0.0502 -0.4110
16852SOL    HW151997   3.880   5.118   9.806 -0.3381 -0.6846 -1.8738
16852SOL    HW251998   3.881   5.268   9.786 -0.4371 -0.3607  0.3291
16853SOL     OW51999   5.270   7.662  12.268 -0.2353  0.2310  0.2803
16853SOL    HW152000   5.252   7.635  12.178  0.1618 -1.2009  0.5983
16853SOL    HW252001   5.342   7.724  12.261 -1.3651  1.5062 -0.5173
16854SOL     OW52002   5.471   7.007  12.178  0.3345 -0.3585  0.2834
16854SOL    HW152003   5.512   6.979  12.260  0.7121 -0.6688 -0.0081
16854SOL    HW252004   5.516   6.957  12.110 -1.2383 -1.5372  0.0339
16855SOL     OW52005   4.566   6.653  10.149  0.4663  0.1041 -0.2335
16855SOL    HW152006   4.659   6.677  10.149  0.6909 -0.7247 -0.0729
16855SOL    HW252007   4.564   6.564  10.114 -0.1823 -0.1936  0.5109
16856SOL     OW52008   4.927   6.022  10.927  0.3774 -0.0471  0.1760
16856SOL    HW152009   4.999   5.967  10.957  0.0920 -1.1463 -1.0879
16856SOL    HW252010   4.865   5.961  10.886  0.1513  1.2228 -1.4592
16857SOL     OW52011   5.472   5.834  11.560  0.6304 -0.9947  0.0600
16857SOL    HW152012   5.516   5.763  11.607 -0.4726 -1.3966  0.5294
16857SOL    HW252013   5.423   5.789  11.491 -1.7642 -0.9674  1.6399
16858SOL     OW52014   3.694   6.310  11.890  0.0330 -0.5881  0.5772
16858SOL    HW152015   3.677   6.219  11.914 -0.2286 -0.1705  2.0169
16858SOL    HW252016   3.677   6.313  11.795 -0.2363 -1.9637  0.5646
16859SOL     OW52017   5.669   6.844  10.540  0.6051 -0.5030  0.5708
16859SOL    HW152018   5.586   6.879  10.506 -0.1594 -0.3211  2.4783
16859SOL    HW252019   5.733   6.911  10.519 -0.2037  0.4860  1.1579
16860SOL     OW52020   3.221   5.940  11.679  0.2285 -0.5553  0.7143
16860SOL    HW152021   3.299   5.943  11.734  0.1298 -1.9909  0.9642
16860SOL    HW252022   3.245   5.884  11.606  0.1578  0.8400 -0.4316
16861SOL     OW52023   5.199   6.940  12.152 -0.6009 -0.0526 -0.2363
16861SOL    HW152024   5.291   6.959  12.172 -0.7489  1.4411 -0.8714
16861SOL    HW252025   5.195   6.844  12.149  0.4488 -0.2272  1.9218
16862SOL     OW52026   5.936   7.640  10.236 -0.1115 -0.0318 -0.1282
16862SOL    HW152027   5.962   7.572  10.173  0.2038 -0.8210  0.8262
16862SOL    HW252028   5.854   7.675  10.200  0.1461 -0.3432 -1.0631
16863SOL     OW52029   5.611   6.372  12.013  0.1314  0.2044 -0.1262
16863SOL    HW152030   5.576   6.352  11.927 -0.2241 -0.4597  0.1681
16863SOL    HW252031   5.692   6.420  11.996  0.4058 -0.5022 -0.8272
16864SOL     OW52032   6.683   3.358  11.357 -0.0361  0.0033  0.2781
16864SOL    HW152033   6.711   3.424  11.293  0.0030 -0.7687 -0.5163
16864SOL    HW252034   6.764   3.320  11.390 -0.0828 -1.0478 -0.7673
16865SOL     OW52035   6.166   5.641   0.348 -0.3105  0.3555  0.4565
16865SOL    HW152036   6.112   5.703   0.299  0.7417  0.0181 -1.1884
16865SOL    HW252037   6.123   5.556   0.334 -0.8566  0.4571  1.4061
16866SOL     OW52038   5.980   6.271  12.141 -0.5995 -0.5848  0.4000
16866SOL    HW152039   5.940   6.349  12.103 -1.7637 -0.3544  1.9662
16866SOL    HW252040   5.907   6.212  12.158 -0.0069 -1.1212  1.1979
16867SOL     OW52041   3.697   7.247  11.496 -0.7413 -0.6470 -0.1781
16867SOL    HW152042   3.783   7.277  11.466 -0.7230  1.2865  1.6132
16867SOL    HW252043   3.635   7.285  11.433 -0.4327  0.0631 -0.0673
16868SOL     OW52044   3.392   4.667  10.597 -0.4582  0.0951  0.2108
16868SOL    HW152045   3.340   4.634  10.671 -0.9284  0.7547  0.1840
16868SOL    HW252046   3.337   4.735  10.558  0.7266  1.3341  0.6266
16869SOL     OW52047   4.609   5.200  11.307 -0.1134  0.0934 -0.0400
16869SOL    HW152048   4.703   5.220  11.313 -0.3295  1.0833  0.1776
16869SOL    HW252049   4.566   5.282  11.328 -1.0446 -0.4852  0.3621
16870SOL     OW52050   5.334   6.483  10.710 -0.6412  0.1055 -0.4075
16870SOL    HW152051   5.287   6.452  10.633  1.5594 -0.8885 -1.4354
16870SOL    HW252052   5.377   6.564  10.681  1.8327 -1.3178 -0.9468
16871SOL     OW52053   4.398   7.082  11.143 -0.4125 -0.0052 -0.1512
16871SOL    HW152054   4.431   7.169  11.164 -3.1173  0.7320  1.6291
16871SOL    HW252055   4.394   7.080  11.047 -2.2247  2.7314 -0.2515
16872SOL     OW52056   7.009   6.847   0.818  0.1608 -0.2214 -0.3649
16872SOL    HW152057   6.931   6.808   0.858  0.9475 -0.8988  0.5619
16872SOL    HW252058   6.978   6.881   0.734 -0.8772 -1.5528 -0.5677
16873SOL     OW52059   3.049   4.213  11.084 -0.2996 -0.1137 -0.2046
16873SOL    HW152060   2.983   4.235  11.149  1.2736  1.2625  0.9878
16873SOL    HW252061   3.008   4.145  11.030 -2.7502  0.8573  0.3285
16874SOL     OW52062   3.808   6.945  11.206 -0.1422 -0.0185 -0.0604
16874SOL    HW152063   3.883   6.999  11.181 -1.7822  2.1482 -0.6458
16874SOL    HW252064   3.835   6.903  11.288  1.1503  1.9257  0.5873
16875SOL     OW52065   7.033   7.982  11.851  0.1311 -0.4126  0.8970
16875SOL    HW152066   6.978   7.909  11.823  1.1613 -0.3061 -1.7739
16875SOL    HW252067   7.070   7.954  11.934 -0.0336 -2.6558  0.2922
16876SOL     OW52068   5.439   7.601   9.643 -0.0721 -0.2115  0.0756
16876SOL    HW152069   5.476   7.517   9.619 -0.3137 -0.2331 -0.2287
16876SOL    HW252070   5.381   7.624   9.570  0.2367  0.3665  0.0034
16877SOL     OW52071   4.238   4.654  12.046  0.4920 -0.0401  0.3443
16877SOL    HW152072   4.300   4.641  12.117  0.9346  0.4696  0.0599
16877SOL    HW252073   4.226   4.749  12.041  0.2321 -0.0897 -0.0586
16878SOL     OW52074   4.862   6.342  11.970  0.2655  0.2364  0.8333
16878SOL    HW152075   4.831   6.383  11.890  0.4983  0.2081  0.7286
16878SOL    HW252076   4.933   6.285  11.942  1.7570  1.7809  1.2948
16879SOL     OW52077   4.919   5.990  12.076 -0.1401  0.0217  0.4758
16879SOL    HW152078   4.983   6.033  12.019  1.2355 -0.7206  1.4000
16879SOL    HW252079   4.947   6.013  12.165 -1.4044 -0.0163  0.9090
16880SOL     OW52080   4.027   4.899  11.491  0.4767  0.1742  0.3862
16880SOL    HW152081   4.044   4.809  11.519 -1.1276  0.1299  1.2839
16880SOL    HW252082   4.050   4.899  11.398  2.0076 -0.7320  0.7303
16881SOL     OW52083   4.357   5.956  12.475  0.2315  0.0298 -0.4231
16881SOL    HW152084   4.273   5.948  12.430 -0.0491  1.8781 -0.2802
16881SOL    HW252085   4.407   5.879  12.446 -1.3281 -0.8669 -0.8490
16882SOL     OW52086   5.698   5.498   0.095  0.6099 -0.2482  1.0258
16882SOL    HW152087   5.781   5.512   0.140  0.4104  3.5817  0.5244
16882SOL    HW252088   5.719   5.508   0.002 -0.4104  0.8616  0.8992
16883SOL     OW52089   4.375   6.617  12.105 -0.0325  0.0681 -0.0370
16883SOL    HW152090   4.290   6.597  12.144  0.7603 -2.7831  0.4461
16883SOL    HW252091   4.433   6.549  12.138  2.1345  1.1181 -1.4611
16884SOL     OW52092   5.396   7.431   0.355  0.2629  0.3922 -0.3720
16884SOL    HW152093   5.376   7.480   0.275  0.3190  1.3824  0.2030
16884SOL    HW252094   5.325   7.368   0.363  0.8383 -0.4822 -1.7892
16885SOL     OW52095   4.964   6.484  12.465  0.2741 -0.2504  0.0774
16885SOL    HW152096   5.005   6.420  12.523  0.6509  0.1174  0.2187
16885SOL    HW252097   4.870   6.468  12.475  0.3680 -0.8876 -0.0164
16886SOL     OW52098   6.066   6.767   0.961  0.0519 -0.2039  0.5643
16886SOL    HW152099   6.109   6.843   1.001 -1.5571 -0.2078  2.3954
16886SOL    HW252100   6.117   6.692   0.992  0.3330 -0.0481  0.4928
16887SOL     OW52101   4.240   7.620  11.443 -0.2329  0.0362  0.0362
16887SOL    HW152102   4.279   7.676  11.510 -3.1595  0.4257  1.5739
16887SOL    HW252103   4.235   7.676  11.365  0.8455  0.4403  0.2467
16888SOL     OW52104   4.429   4.376   0.364 -0.5677  0.6897 -0.1723
16888SOL    HW152105   4.418   4.463   0.403  0.8667  1.1629 -0.7420
16888SOL    HW252106   4.467   4.323   0.434 -0.3710  0.8435 -0.1606
16889SOL     OW52107   3.876   5.539   1.050 -0.0608 -0.4066  0.3000
16889SOL    HW152108   3.874   5.617   0.995  1.3150 -0.9411 -0.5796
16889SOL    HW252109   3.905   5.469   0.991  0.2496 -1.2515  1.4175
16890SOL     OW52110   6.328   6.444  12.330 -0.0609  0.2366  0.2477
16890SOL    HW152111   6.329   6.452  12.426 -0.7403 -0.3522  0.3117
16890SOL    HW252112   6.341   6.351  12.314  2.6364  0.6228 -0.3293
16891SOL     OW52113   3.210   1.079  11.184  0.1380 -0.4151 -0.0111
16891SOL    HW152114   3.182   0.989  11.201  1.0279 -1.0433 -1.7036
16891SOL    HW252115   3.302   1.080  11.211  0.8063 -0.7024 -2.1596
16892SOL     OW52116   6.077   7.189  11.039  0.0350 -0.5215 -0.0888
16892SOL    HW152117   6.077   7.197  11.135  1.3499  0.1027 -0.1175
16892SOL    HW252118   5.998   7.236  11.011 -0.3863 -0.7502  0.6807
16893SOL     OW52119   2.560   6.683   1.166  0.2814  0.1475 -0.5481
16893SOL    HW152120   2.638   6.691   1.112 -0.2756  1.6445 -1.1783
16893SOL    HW252121   2.555   6.765   1.215 -0.3064 -0.3792  0.3086
16894SOL     OW52122   5.486   7.696   0.704  0.2046 -0.0436  0.6378
16894SOL    HW152123   5.429   7.733   0.771  0.5899 -0.4492  1.1998
16894SOL    HW252124   5.430   7.688   0.627 -0.6679 -0.9503  1.3268
16895SOL     OW52125   6.201   1.019  10.594  0.5415 -0.0584  0.4188
16895SOL    HW152126   6.245   0.991  10.674  0.8646 -1.4361 -0.2142
16895SOL    HW252127   6.193   1.114  10.603 -0.1085 -0.2532  2.4239
16896SOL     OW52128   6.145   0.752   1.840  0.1518  0.0561  0.5709
16896SOL    HW152129   6.108   0.835   1.869 -0.3398  0.5591 -1.3625
16896SOL    HW252130   6.086   0.686   1.877  0.0900  0.5798  1.4628
16897SOL     OW52131   6.742   7.426   0.654  0.0241 -0.1512  0.1274
16897SOL    HW152132   6.650   7.426   0.631  0.2633 -1.3208 -0.9183
16897SOL    HW252133   6.774   7.512   0.625 -0.2957 -0.5274 -1.4141
16898SOL     OW52134   5.537   6.975   0.648  0.5000 -0.0681  0.6177
16898SOL    HW152135   5.572   6.887   0.630  2.1524  0.6845 -0.0400
16898SOL    HW252136   5.540   6.982   0.743 -1.1061 -1.2597  0.8048
16899SOL     OW52137   4.538   0.086   0.987 -0.1361  0.1909 -0.3402
16899SOL    HW152138   4.500   0.046   1.066 -1.9441  0.9774 -0.7568
16899SOL    HW252139   4.604   0.023   0.957 -0.1871 -0.6223  1.1833
16900SOL     OW52140   3.457   6.349   0.956  0.1483 -0.3022 -0.1959
16900SOL    HW152141   3.517   6.280   0.928 -0.6377 -0.7743 -0.7653
16900SOL    HW252142   3.389   6.350   0.889  1.3678  2.6742 -1.5379
16901SOL     OW52143   4.041   1.185   1.565 -0.4933  0.4192 -0.0385
16901SOL    HW152144   4.070   1.201   1.655 -0.4270 -0.3694  0.0933
16901SOL    HW252145   3.947   1.203   1.567 -0.8303 -1.2096  0.6308
16902SOL     OW52146   6.603   6.869   1.159  0.1607  0.0613 -0.3511
16902SOL    HW152147   6.535   6.891   1.222  1.1370  2.2011  0.0401
16902SOL    HW252148   6.560   6.878   1.074 -0.3667  0.1263 -0.0814
16903SOL     OW52149   5.489   0.362   0.569 -0.7661  0.4160 -0.6658
16903SOL    HW152150   5.426   0.383   0.500 -0.6290 -1.7313 -1.4869
16903SOL    HW252151   5.440   0.307   0.630 -0.2702  0.5336 -0.1499
16904SOL     OW52152   3.446   0.417   0.882 -0.1174 -0.2965 -0.2160
16904SOL    HW152153   3.485   0.463   0.808 -1.2160 -0.5328 -0.9632
16904SOL    HW252154   3.520   0.385   0.933  0.7549 -2.2582 -2.5144
16905SOL     OW52155   4.635   7.097  12.082  0.2116  0.3530 -0.0203
16905SOL    HW152156   4.690   7.159  12.034 -0.4114  1.4052  0.5802
16905SOL    HW252157   4.580   7.057  12.014  0.9094  0.1384 -0.4690
16906SOL     OW52158   4.926   0.370   2.322  0.4797 -0.3802  1.1512
16906SOL    HW152159   4.961   0.421   2.395 -0.1834 -2.1414  2.7739
16906SOL    HW252160   4.832   0.363   2.340 -0.3234  1.8035 -1.5877
16907SOL     OW52161   4.062   7.582   0.681 -0.1372 -0.3830 -1.3251
16907SOL    HW152162   4.070   7.525   0.604  0.2520  0.9180 -2.2876
16907SOL    HW252163   4.104   7.532   0.751  0.1981 -1.2859 -2.1357
16908SOL     OW52164   5.646   7.480   0.155 -0.5219 -0.2900 -0.1363
16908SOL    HW152165   5.615   7.531   0.231 -0.9685  1.4347 -1.3968
16908SOL    HW252166   5.663   7.393   0.190 -1.7279  0.1512  1.7313
16909SOL     OW52167   4.523   7.969  12.188 -0.3707 -0.2068 -0.4796
16909SOL    HW152168   4.450   8.006  12.138 -0.5874 -0.0256 -0.0333
16909SOL    HW252169   4.512   7.874  12.179 -2.7714 -0.3567  2.4690
16910SOL     OW52170   3.481   0.831   2.102 -0.4385 -0.4150 -0.6968
16910SOL    HW152171   3.437   0.853   2.184 -0.4027 -0.0718 -0.7685
16910SOL    HW252172   3.417   0.853   2.034  0.0427  0.6243 -0.8332
16911SOL     OW52173   4.131   7.402   0.337 -0.1843  0.1014 -0.1221
16911SOL    HW152174   4.035   7.410   0.343 -0.0879  1.4271 -0.1540
16911SOL    HW252175   4.158   7.380   0.426 -0.7504 -3.7208 -0.7032
16912SOL     OW52176   4.114   6.990   2.776  0.2577 -0.2237  0.2890
16912SOL    HW152177   4.089   6.897   2.772 -1.1542  0.0410  1.7859
16912SOL    HW252178   4.031   7.037   2.769  0.9981  0.9696 -0.8586
16913SOL     OW52179   5.797   0.854   0.143  0.0488 -0.5451 -0.3301
16913SOL    HW152180   5.702   0.851   0.135 -0.0177  0.9546 -0.3819
16913SOL    HW252181   5.825   0.914   0.074  0.6661  2.1968  2.1358
16914SOL     OW52182   3.154   0.505   1.326 -0.3688  0.0511 -0.3951
16914SOL    HW152183   3.108   0.580   1.364  0.2458  0.6456 -0.8233
16914SOL    HW252184   3.137   0.511   1.232  0.9215  0.5109 -0.6065
16915SOL     OW52185   3.073   0.726   1.466 -0.1886  0.2460  0.3703
16915SOL    HW152186   3.079   0.693   1.556 -1.6373  0.1105  0.4442
16915SOL    HW252187   2.996   0.782   1.467  0.9632  1.8958 -0.3142
16916SOL     OW52188   5.157   7.555   0.650 -0.1649 -0.1902 -0.0998
16916SOL    HW152189   5.127   7.531   0.737  0.7434 -1.9376 -0.2396
16916SOL    HW252190   5.081   7.542   0.593 -1.3847  2.8144  0.6125
16917SOL     OW52191   3.531   7.938  12.446 -0.0109 -0.2093 -0.4615
16917SOL    HW152192   3.592   8.002  12.481  1.4028 -1.1110 -1.2067
16917SOL    HW252193   3.505   7.972  12.360 -0.0789 -0.1218 -0.4051
16918SOL     OW52194   3.035   5.096   0.978 -0.1236  0.3768  0.1059
16918SOL    HW152195   3.021   5.179   0.933 -1.8439  0.0541 -0.0176
16918SOL    HW252196   2.982   5.032   0.930  1.6528 -0.9630 -0.1849
16919SOL     OW52197   4.879   6.906  12.479 -0.0251  0.3580 -0.9936
16919SOL    HW152198   4.942   6.836  12.500 -0.2355 -0.0144 -1.5546
16919SOL    HW252199   4.888   6.969  12.550  0.0821 -0.3023 -0.4114
16920SOL     OW52200   5.872   0.875   1.458  0.1980 -0.4108 -0.0010
16920SOL    HW152201   5.811   0.867   1.531 -0.0085  0.9734  0.0007
16920SOL    HW252202   5.894   0.968   1.455 -0.0130 -0.3787 -1.8638
16921SOL     OW52203   4.321   0.290   1.261 -0.3846 -0.1316  0.4817
16921SOL    HW152204   4.255   0.353   1.231  0.1380  0.7543  1.1358
16921SOL    HW252205   4.307   0.213   1.207 -1.5576  0.2645  0.1915
16922SOL     OW52206   4.213   7.861  12.354  0.5574 -0.2459  0.0560
16922SOL    HW152207   4.166   7.782  12.327  0.3389  0.2184 -0.9671
16922SOL    HW252208   4.281   7.873  12.288  0.5895  0.4153  0.1997
16923SOL     OW52209   4.247   7.957   1.871  0.0911  0.1865 -0.4248
16923SOL    HW152210   4.193   7.898   1.820  1.7893 -1.9966  0.1161
16923SOL    HW252211   4.185   8.014   1.917 -1.7360 -1.9871 -0.0234
16924SOL     OW52212   4.496   7.713   0.728  0.1030 -0.2208  0.6692
16924SOL    HW152213   4.511   7.628   0.770 -1.6199 -1.6522 -1.4012
16924SOL    HW252214   4.532   7.703   0.640 -0.7051  0.9643  0.1693
16925SOL     OW52215   3.680   7.297   0.067  0.1243 -0.2118  0.5728
16925SOL    HW152216   3.653   7.355   0.139  1.1586  1.5262 -0.3898
16925SOL    HW252217   3.750   7.244   0.104 -2.2884 -2.5328  2.1391
16926SOL     OW52218   5.899   0.750   1.028  0.4760 -0.2968 -0.0461
16926SOL    HW152219   5.886   0.741   0.934 -1.7118 -3.4350  0.4282
16926SOL    HW252220   5.973   0.692   1.047  0.0119 -0.7541  0.3549
16927SOL     OW52221   4.435   6.696  11.841  0.5936  0.1683  0.2760
16927SOL    HW152222   4.346   6.703  11.807  0.6795 -0.3431 -0.0636
16927SOL    HW252223   4.423   6.679  11.935  0.3655  2.5308  0.7449
16928SOL     OW52224   6.603   6.191  11.347  0.2909  0.3364  0.4087
16928SOL    HW152225   6.698   6.195  11.347  0.3388 -0.2243 -1.3307
16928SOL    HW252226   6.575   6.266  11.294 -0.3317  1.4419  2.2048
16929SOL     OW52227   4.141   1.086   1.036 -0.3119 -0.0173  0.0542
16929SOL    HW152228   4.173   1.003   1.071 -0.2536  0.3985  1.0130
16929SOL    HW252229   4.111   1.135   1.113  0.4979  1.2089 -0.3717
16930SOL     OW52230   5.149   0.293   1.505  0.4533  0.0900 -0.2903
16930SOL    HW152231   5.132   0.383   1.533  0.9780  0.0089  0.3295
16930SOL    HW252232   5.089   0.240   1.557  0.9537 -0.0043  0.2089
16931SOL     OW52233   6.242   6.142   0.734 -0.8123  0.0310  0.4009
16931SOL    HW152234   6.299   6.102   0.668 -1.5938 -0.7458  0.1838
16931SOL    HW252235   6.301   6.166   0.805 -0.4714 -2.7521  1.1504
16932SOL     OW52236   2.890   0.361  12.244  0.0022 -0.1624  0.0168
16932SOL    HW152237   2.864   0.419  12.172  0.4538  1.2368  0.9178
16932SOL    HW252238   2.986   0.361  12.241  0.0169 -0.3524  0.3952
16933SOL     OW52239   2.868   2.038   2.167  0.2329 -0.2646 -0.1844
16933SOL    HW152240   2.945   2.015   2.219  0.6414  0.3270 -0.5125
16933SOL    HW252241   2.803   2.068   2.230  0.1912 -0.9751  0.1162
16934SOL     OW52242   4.469   0.031   0.305  0.1508  0.1755  0.1204
16934SOL    HW152243   4.413   0.009   0.230 -0.0501  0.3341  0.2249
16934SOL    HW252244   4.409   0.062   0.372  0.1269 -1.5704  0.9672
16935SOL     OW52245   5.955   0.165   0.855  0.7056  0.5519  0.4901
16935SOL    HW152246   5.918   0.150   0.942  0.2482  0.0814  0.2273
16935SOL    HW252247   6.027   0.226   0.869  0.2583  0.9518  1.1145
16936SOL     OW52248   5.651   0.605   0.478 -0.1311  0.3457 -0.4389
16936SOL    HW152249   5.628   0.667   0.547  1.0630 -0.3680  0.6489
16936SOL    HW252250   5.576   0.546   0.473 -0.3608  0.5903  0.0486
16937SOL     OW52251   5.301   6.976   0.254 -0.8748  0.1647  0.1285
16937SOL    HW152252   5.357   7.012   0.322 -0.1789  1.8014 -1.2424
16937SOL    HW252253   5.213   7.008   0.275 -0.9607 -0.6587  1.1014
16938SOL     OW52254   5.058   7.497   0.895 -0.2648 -0.6117  0.2964
16938SOL    HW152255   5.142   7.492   0.942  0.2110  1.2893 -0.2561
16938SOL    HW252256   5.003   7.553   0.951 -1.0515 -1.5400  0.4709
16939SOL     OW52257   5.063   7.527  11.064 -0.3261 -0.3123  0.0197
16939SOL    HW152258   5.092   7.612  11.032  0.0559  0.2094  1.6587
16939SOL    HW252259   5.119   7.509  11.139  0.1653 -2.4306 -0.7907
16940SOL     OW52260   3.560   7.830   0.248 -0.2792  0.3532  0.1251
16940SOL    HW152261   3.637   7.863   0.294 -1.0393  1.2831  0.7876
16940SOL    HW252262   3.594   7.790   0.168  1.1349 -1.7752  1.7000
16941SOL     OW52263   6.149   7.599   1.362 -0.3530  0.1827  0.5624
16941SOL    HW152264   6.235   7.639   1.375 -0.2380  0.6199 -1.3292
16941SOL    HW252265   6.138   7.542   1.439  1.1351  0.9290  1.3857
16942SOL     OW52266   3.054   6.226   0.296 -0.1333 -0.0941 -0.6815
16942SOL    HW152267   3.084   6.205   0.208 -1.1367  0.7272 -1.2489
16942SOL    HW252268   2.968   6.267   0.283 -1.9149 -3.0121  0.8829
16943SOL     OW52269   3.674   7.919   1.320 -0.4021 -0.1010  0.1031
16943SOL    HW152270   3.635   7.835   1.295 -1.7626 -0.1945  2.3321
16943SOL    HW252271   3.699   7.959   1.236 -3.9063 -0.7227 -1.4074
16944SOL     OW52272   5.274   7.163   2.488  0.4902 -0.1049  0.0103
16944SOL    HW152273   5.298   7.091   2.546  2.1795  0.2675 -0.1765
16944SOL    HW252274   5.304   7.242   2.533 -0.3583  0.3966 -0.2832
16945SOL     OW52275   4.512   7.501   1.845 -0.1485  0.2238 -0.2739
16945SOL    HW152276   4.494   7.579   1.896 -0.2214 -1.2978  2.2101
16945SOL    HW252277   4.436   7.445   1.860  1.0096 -1.3112  0.1392
16946SOL     OW52278   5.335   7.842  11.902 -0.0127  0.6661 -0.1921
16946SOL    HW152279   5.267   7.810  11.962 -1.8340  1.8471 -1.5085
16946SOL    HW252280   5.286   7.868  11.824  1.9486  1.9917 -1.0311
16947SOL     OW52281   4.634   7.034   0.495  0.2103 -0.5936  0.4337
16947SOL    HW152282   4.704   6.970   0.506  0.6506  0.0906  1.9080
16947SOL    HW252283   4.643   7.092   0.570 -1.1390  0.2859 -0.0483
16948SOL     OW52284   4.667   0.348   2.952  0.0320 -0.5940 -0.3384
16948SOL    HW152285   4.659   0.326   2.859 -0.3659  0.4726 -0.5764
16948SOL    HW252286   4.576   0.354   2.982  0.0570  1.5764 -0.5289
16949SOL     OW52287   5.628   7.234   0.257 -0.1822 -0.1395 -1.2138
16949SOL    HW152288   5.565   7.174   0.296 -0.0246  0.6714  0.3530
16949SOL    HW252289   5.714   7.197   0.280 -0.0839  0.1486 -1.1182
16950SOL     OW52290   5.275   6.678  12.179  0.0881 -0.0581 -1.0010
16950SOL    HW152291   5.263   6.583  12.172  1.3474 -0.1088 -3.9693
16950SOL    HW252292   5.370   6.690  12.170 -0.0335  1.4994 -0.4237
16951SOL     OW52293   4.036   7.792   1.064 -0.2391 -0.3380  0.1893
16951SOL    HW152294   4.110   7.759   1.013 -0.8476 -2.2173  0.4213
16951SOL    HW252295   3.959   7.772   1.009 -0.6580  0.5741  0.4333
16952SOL     OW52296   3.132   6.490   0.425 -0.4798  0.4298 -0.2099
16952SOL    HW152297   3.194   6.431   0.383  0.3131 -0.5227  2.1211
16952SOL    HW252298   3.160   6.578   0.398  0.8283 -0.0723 -0.5606
16953SOL     OW52299   7.107   6.187   0.672 -0.0167 -0.1755  0.1622
16953SOL    HW152300   7.096   6.282   0.663  0.6095 -0.0149  1.0285
16953SOL    HW252301   7.031   6.159   0.723 -0.5580 -0.2547 -0.6591
16954SOL     OW52302   5.337   0.975   0.936  0.0230  0.1479  0.0726
16954SOL    HW152303   5.266   0.989   0.873  0.1563 -0.9581 -0.3503
16954SOL    HW252304   5.415   1.008   0.892 -0.1107  0.7465  0.2703
16955SOL     OW52305   5.102   7.774   2.005 -0.3341  0.2732  0.2994
16955SOL    HW152306   5.039   7.760   2.076  1.3597  0.5877  1.9417
16955SOL    HW252307   5.090   7.699   1.948 -1.3445 -0.3065  1.2174
16956SOL     OW52308   3.104   7.819   2.419 -0.1166 -0.8113 -0.7773
16956SOL    HW152309   3.044   7.810   2.492  0.7090 -0.9442 -0.0936
16956SOL    HW252310   3.177   7.760   2.440  1.1926  0.7742 -0.5777
16957SOL     OW52311   3.315   6.442   1.394  0.1360 -0.1654  0.3510
16957SOL    HW152312   3.316   6.530   1.432  0.8116 -0.4514  1.0328
16957SOL    HW252313   3.408   6.422   1.379 -0.0017 -0.8339  0.3772
16958SOL     OW52314   5.141   0.412   0.724  0.3696  0.0486  0.2014
16958SOL    HW152315   5.046   0.408   0.726  0.3121  1.5277  1.7430
16958SOL    HW252316   5.162   0.505   0.718  1.7477 -0.3053 -1.7520
16959SOL     OW52317   3.666   7.150   2.274  0.5381 -0.2498 -0.8380
16959SOL    HW152318   3.754   7.158   2.312  0.4398 -1.4851 -0.2800
16959SOL    HW252319   3.625   7.235   2.288  0.7626 -0.4249  1.2431
16960SOL     OW52320   6.144   1.306   2.895  0.5592  0.2632  0.3659
16960SOL    HW152321   6.067   1.281   2.844 -0.7115  1.0283  1.7882
16960SOL    HW252322   6.116   1.296   2.986  2.1570  0.5904  0.9253
16961SOL     OW52323   4.791   6.591   3.018 -0.2574 -0.3277 -0.1017
16961SOL    HW152324   4.801   6.686   3.027 -1.6292 -0.2055  0.3181
16961SOL    HW252325   4.879   6.557   3.032  0.4077  0.9273 -1.0202
16962SOL     OW52326   2.636   1.307   3.857 -0.0548 -0.1940  0.3095
16962SOL    HW152327   2.639   1.254   3.777 -2.0278  1.4071 -0.9195
16962SOL    HW252328   2.723   1.346   3.863 -0.0976  0.2794 -1.5398
16963SOL     OW52329   4.636   7.402   2.231 -0.6832  0.6398  0.4943
16963SOL    HW152330   4.703   7.433   2.292 -1.0182  0.9405  0.7067
16963SOL    HW252331   4.557   7.394   2.283 -0.7433 -0.0235  0.3127
16964SOL     OW52332   4.369   5.638   3.557  0.6655  0.9006  0.3286
16964SOL    HW152333   4.291   5.678   3.518  0.6183 -1.0664 -1.8040
16964SOL    HW252334   4.344   5.621   3.648 -2.0189 -1.0126 -0.6427
16965SOL     OW52335   5.061   0.653   1.858  0.0651 -0.7196 -0.5294
16965SOL    HW152336   5.132   0.711   1.886  1.2047 -2.1145 -0.4369
16965SOL    HW252337   5.039   0.602   1.936 -0.3179 -1.0335 -0.8399
16966SOL     OW52338   6.470   7.265   3.413  0.4652  0.2440  0.1289
16966SOL    HW152339   6.565   7.256   3.404  0.4050  0.4489 -0.8906
16966SOL    HW252340   6.438   7.267   3.322 -0.5662 -0.3829  0.4649
16967SOL     OW52341   3.852   1.665   2.122  0.3702  0.6239  0.5519
16967SOL    HW152342   3.864   1.684   2.215 -4.0647  0.5422  1.3761
16967SOL    HW252343   3.872   1.572   2.113  0.0360  0.4358  1.6375
16968SOL     OW52344   3.930   6.757   3.686  0.0986  0.1375 -0.4728
16968SOL    HW152345   3.896   6.761   3.775  0.0326  1.2692 -0.5287
16968SOL    HW252346   3.958   6.666   3.674  0.3586  0.0388  0.7917
16969SOL     OW52347   4.701   0.294   1.022  0.2521  0.5121  0.1626
16969SOL    HW152348   4.651   0.213   1.022  0.6206  0.2668  1.1840
16969SOL    HW252349   4.639   0.361   0.995 -0.1982 -0.0295 -0.1579
16970SOL     OW52350   5.601   6.844   3.611  0.1822  0.2677  0.2711
16970SOL    HW152351   5.620   6.928   3.570  0.5564  0.0633  0.0127
16970SOL    HW252352   5.523   6.860   3.665  0.4692  0.8720  0.5190
16971SOL     OW52353   4.590   1.177   2.812 -0.5823  0.5605 -0.1978
16971SOL    HW152354   4.564   1.201   2.723 -0.6141  0.9200 -0.0937
16971SOL    HW252355   4.545   1.241   2.867 -1.1051 -0.0702  0.1256
16972SOL     OW52356   3.780   0.096   1.946  0.3397  0.1987 -0.0151
16972SOL    HW152357   3.773   0.010   1.905 -0.0487 -0.4103  1.2579
16972SOL    HW252358   3.874   0.114   1.948  0.4684 -0.4693  0.2215
16973SOL     OW52359   4.540   7.223   1.997  0.1718 -0.0817 -0.3049
16973SOL    HW152360   4.572   7.133   2.001  0.8547  0.1919  1.9344
16973SOL    HW252361   4.455   7.220   2.041 -0.2537  0.2234 -1.0785
16974SOL     OW52362   6.072   0.948   2.584  0.0693 -0.5267  0.1108
16974SOL    HW152363   6.097   0.913   2.669  0.9540  0.9866  0.5081
16974SOL    HW252364   6.144   1.006   2.560 -0.1217 -0.9809 -1.7121
16975SOL     OW52365   3.536   7.750   1.042 -0.1035  0.2528 -0.0303
16975SOL    HW152366   3.497   7.662   1.035 -0.6566  0.5179 -0.3329
16975SOL    HW252367   3.502   7.784   1.125  1.1324 -0.3009  0.7407
16976SOL     OW52368   3.794   6.178   3.969 -0.3057  0.1716  0.0011
16976SOL    HW152369   3.700   6.178   3.954 -0.6388  1.6122  1.6970
16976SOL    HW252370   3.826   6.257   3.925  0.0798 -0.1944 -0.3854
16977SOL     OW52371   4.670   0.345   2.452  0.2317  0.8365 -0.1367
16977SOL    HW152372   4.605   0.298   2.400 -1.6996 -0.0806  2.8733
16977SOL    HW252373   4.659   0.437   2.429 -0.1557  0.4218 -1.6976
16978SOL     OW52374   2.874   1.160   3.092 -0.0425  0.4387  0.2180
16978SOL    HW152375   2.908   1.246   3.069 -2.1403  1.6182  1.2070
16978SOL    HW252376   2.820   1.135   3.017  0.7725 -0.1772 -0.1826
16979SOL     OW52377   3.260   6.823   2.428 -0.1353 -0.2475 -0.2655
16979SOL    HW152378   3.322   6.839   2.500 -0.2180  0.3206 -0.3154
16979SOL    HW252379   3.313   6.786   2.358  0.1349  0.1529 -0.2746
16980SOL     OW52380   4.505   7.055   3.574  0.3413  0.2057 -0.0672
16980SOL    HW152381   4.420   7.065   3.533 -0.4379 -0.8244  1.2074
16980SOL    HW252382   4.485   7.040   3.667  1.9711  1.3104  0.5133
16981SOL     OW52383   2.779   7.725   3.507  0.1749 -0.0060 -0.0692
16981SOL    HW152384   2.771   7.656   3.442 -1.9694  0.0500  0.0595
16981SOL    HW252385   2.756   7.806   3.461 -0.6277  0.1389  0.5648
16982SOL     OW52386   5.117   7.093   1.744 -0.3153 -0.1416  0.1116
16982SOL    HW152387   5.052   7.035   1.705  0.5274 -0.6242 -0.5890
16982SOL    HW252388   5.153   7.043   1.817  0.9915 -0.8619 -0.9837
16983SOL     OW52389   5.003   0.937   2.050  0.4516  0.6844  0.3462
16983SOL    HW152390   4.990   0.957   1.958 -0.7523  2.6170  0.8909
16983SOL    HW252391   4.916   0.914   2.083  1.2355 -2.6427  0.5109
16984SOL     OW52392   4.864   0.814   2.937 -0.1676 -0.3344  0.1504
16984SOL    HW152393   4.786   0.851   2.895 -0.1244  1.0233  1.2206
16984SOL    HW252394   4.891   0.880   3.000  1.4539 -1.0954  0.2950
16985SOL     OW52395   6.520   6.850   1.851  0.4942  0.1392 -0.1711
16985SOL    HW152396   6.483   6.938   1.865  0.8541  0.0011  2.2313
16985SOL    HW252397   6.611   6.859   1.880  0.8580 -0.7600 -1.0193
16986SOL     OW52398   4.961   0.503   2.076  0.3511 -0.0716  0.4939
16986SOL    HW152399   4.909   0.549   2.142 -0.3204  1.9981 -1.3591
16986SOL    HW252400   4.903   0.433   2.044  0.3975 -0.5952  1.5298
16987SOL     OW52401   5.085   7.535   2.753  0.0183  0.3212 -0.1085
16987SOL    HW152402   5.176   7.529   2.783 -0.0363 -1.1853 -0.1251
16987SOL    HW252403   5.089   7.511   2.660 -0.3138  0.9442 -0.2872
16988SOL     OW52404   5.201   7.244   2.877 -0.6896  0.1271  0.2612
16988SOL    HW152405   5.145   7.166   2.882  0.4234 -0.6928  0.2620
16988SOL    HW252406   5.273   7.227   2.937 -0.9589  1.6347  1.0711
16989SOL     OW52407   4.139   7.793   3.288 -0.0058  0.4550  0.6183
16989SOL    HW152408   4.171   7.703   3.290  0.7871  0.7340  0.9205
16989SOL    HW252409   4.066   7.794   3.350  0.1891  0.0957  0.8577
16990SOL     OW52410   1.622   1.347   4.040 -0.2334 -0.3797  0.0613
16990SOL    HW152411   1.581   1.327   3.955 -0.4588  0.3342 -0.0056
16990SOL    HW252412   1.690   1.281   4.050  1.0257  0.6230 -1.5304
16991SOL     OW52413   4.458   0.042   3.538 -0.1703 -0.1614  0.2760
16991SOL    HW152414   4.427   0.014   3.451 -0.9628 -0.5918  0.6886
16991SOL    HW252415   4.379   0.072   3.583  0.4691  1.6230  0.2925
16992SOL     OW52416   5.095   0.807   2.807  0.0982  0.1420 -0.3316
16992SOL    HW152417   5.163   0.765   2.860  1.3051  1.9831 -0.3050
16992SOL    HW252418   5.021   0.817   2.866  0.4427 -0.2966  0.1880
16993SOL     OW52419   4.518   7.549   4.145 -0.2676  0.4312  0.4953
16993SOL    HW152420   4.457   7.520   4.213 -0.5769  1.7558  0.8178
16993SOL    HW252421   4.574   7.612   4.190  0.4376  0.2616 -0.1443
16994SOL     OW52422   4.511   7.822   1.820 -0.2558  0.2823  0.1380
16994SOL    HW152423   4.556   7.849   1.740 -1.2033  2.2960  0.2237
16994SOL    HW252424   4.419   7.841   1.803 -0.6191 -0.4038  1.2669
16995SOL     OW52425   5.169   6.686   1.771  0.0051  0.4810  0.2000
16995SOL    HW152426   5.226   6.642   1.834  1.7783  2.7845  0.3109
16995SOL    HW252427   5.087   6.700   1.818  1.4222  2.5293  2.2636
16996SOL     OW52428   2.747   6.863   2.745 -0.3952 -0.3760 -0.7848
16996SOL    HW152429   2.659   6.870   2.782  0.1987 -2.9499  1.4475
16996SOL    HW252430   2.743   6.787   2.688  0.2306 -0.1482 -1.1345
16997SOL     OW52431   4.951   1.208   3.813  0.2852  0.4647 -0.1990
16997SOL    HW152432   4.984   1.183   3.727  0.9394 -0.9597  0.4469
16997SOL    HW252433   4.999   1.289   3.833  1.4362 -0.1341 -0.4243
16998SOL     OW52434   5.464   6.562   3.185 -0.0718 -0.4867  0.3970
16998SOL    HW152435   5.539   6.615   3.212 -0.9628  2.0023 -1.6745
16998SOL    HW252436   5.430   6.525   3.267  3.5275 -2.0272  1.3835
16999SOL     OW52437   3.359   0.124   2.684  0.1128 -0.5901  0.5086
16999SOL    HW152438   3.338   0.186   2.753  1.6138  0.7044 -0.1450
16999SOL    HW252439   3.441   0.155   2.647 -1.0307 -0.6974 -2.4453
17000SOL     OW52440   5.933   7.335   3.272 -0.2078 -0.4991  0.2329
17000SOL    HW152441   5.998   7.268   3.253 -0.0216  0.0113 -1.0663
17000SOL    HW252442   5.912   7.323   3.364  1.5200 -0.8602  0.6175
17001SOL     OW52443   4.024   1.045   2.046  0.6748 -0.4256  0.6889
17001SOL    HW152444   3.958   0.981   2.019 -0.8675  0.8725  1.2295
17001SOL    HW252445   3.980   1.100   2.109  1.2465  2.4335 -1.2078
17002SOL     OW52446   6.122   5.705   2.638 -0.5085  0.5061  0.0683
17002SOL    HW152447   6.190   5.645   2.667 -0.3337 -0.0334 -1.3489
17002SOL    HW252448   6.042   5.674   2.681  0.1479  1.2946  1.9262
17003SOL     OW52449   5.265   5.926   2.593  0.7382 -0.1635  0.0587
17003SOL    HW152450   5.181   5.896   2.558  1.2089 -0.5989 -0.7288
17003SOL    HW252451   5.272   6.017   2.563  0.7274 -0.2507 -0.2119
17004SOL     OW52452   5.847   0.036   3.956  0.3919 -0.2146 -0.7564
17004SOL    HW152453   5.756   0.062   3.971  0.4812  1.1609 -2.3114
17004SOL    HW252454   5.897   0.118   3.965  1.6067 -1.0608  0.7658
17005SOL     OW52455   5.440   6.235   2.136 -0.2683 -0.7791 -0.2559
17005SOL    HW152456   5.480   6.275   2.213 -0.7711 -0.6785 -0.0421
17005SOL    HW252457   5.405   6.152   2.168 -1.0757 -0.4301 -0.2139
17006SOL     OW52458   5.068   7.347   1.682  0.3165  0.4230  0.2879
17006SOL    HW152459   5.092   7.265   1.724  1.4795  1.0151  0.8279
17006SOL    HW252460   5.037   7.321   1.595  1.3031 -0.5479  0.1937
17007SOL     OW52461   5.468   0.117   2.919  0.7400  0.6082 -0.1723
17007SOL    HW152462   5.412   0.159   2.854  0.5101  2.1694  0.9722
17007SOL    HW252463   5.422   0.130   3.002  0.8071 -1.7258  0.2912
17008SOL     OW52464   5.443   0.669   4.187  0.2353 -0.1058  0.0340
17008SOL    HW152465   5.456   0.585   4.143  0.4961 -0.6258  1.0768
17008SOL    HW252466   5.506   0.668   4.259 -0.1285  0.7631  0.3726
17009SOL     OW52467   4.959   0.127   2.594  0.7997 -0.2679  0.3167
17009SOL    HW152468   4.887   0.147   2.654  0.2384 -1.2658  0.0067
17009SOL    HW252469   4.944   0.036   2.568  0.8658  0.2090 -1.5377
17010SOL     OW52470   3.071   6.290   3.619 -0.5608  0.1349 -0.2751
17010SOL    HW152471   3.035   6.208   3.653  1.9013 -0.9391 -0.0160
17010SOL    HW252472   3.139   6.262   3.557  1.4070  1.9155  0.9630
17011SOL     OW52473   6.813   5.895   3.976 -0.2172 -0.1738  0.4184
17011SOL    HW152474   6.859   5.824   4.021 -1.2702 -1.2803 -0.1952
17011SOL    HW252475   6.818   5.872   3.883 -0.2112  0.7842  0.1719
17012SOL     OW52476   3.947   2.289   2.359  0.8926 -0.4784 -0.2481
17012SOL    HW152477   3.853   2.304   2.371  1.0297  0.5889 -0.3837
17012SOL    HW252478   3.974   2.243   2.438  0.4959  0.3865  0.4104
17013SOL     OW52479   4.197   7.344   2.143 -0.0762  0.3519  0.7279
17013SOL    HW152480   4.105   7.368   2.134 -0.2823 -0.6254  0.1139
17013SOL    HW252481   4.208   7.267   2.088  0.8539 -0.2066  1.6424
17014SOL     OW52482   5.118   0.286   1.844  0.1136 -0.3659  0.2360
17014SOL    HW152483   5.204   0.310   1.807 -0.3704  1.2900  0.1079
17014SOL    HW252484   5.123   0.191   1.856  1.7194 -0.3978 -0.4054
17015SOL     OW52485   5.533   7.542   2.448 -0.2367  0.2203 -0.4274
17015SOL    HW152486   5.482   7.616   2.414  0.0407  0.7247  0.2400
17015SOL    HW252487   5.578   7.507   2.371 -1.5639 -0.2180 -1.0187
17016SOL     OW52488   3.796   7.674   2.326  0.4968 -1.0094  0.0881
17016SOL    HW152489   3.711   7.639   2.349  0.4790 -0.7474  0.4392
17016SOL    HW252490   3.859   7.613   2.365  0.4665 -0.4874  0.9744
17017SOL     OW52491   5.416   6.586   3.884  0.2175 -0.3328  0.3312
17017SOL    HW152492   5.461   6.530   3.947  0.3364 -1.3768 -0.6511
17017SOL    HW252493   5.323   6.573   3.902  0.2446 -0.8642  0.1010
17018SOL     OW52494   4.916   0.071   2.293 -0.6119 -0.3316  0.1465
17018SOL    HW152495   4.906   0.129   2.368 -0.6157 -0.1004 -0.0287
17018SOL    HW252496   5.006   0.087   2.262 -0.1562 -1.3730  0.8771
17019SOL     OW52497   5.114   7.098   2.275  0.3198  0.0339  0.0834
17019SOL    HW152498   5.154   7.135   2.196 -1.2153  1.4141 -0.1195
17019SOL    HW252499   5.170   7.129   2.347 -0.2448  1.8559 -0.1938
17020SOL     OW52500   2.127   1.583   2.573  0.5551  0.3483  0.4022
17020SOL    HW152501   2.199   1.620   2.624  0.1362  0.0667  1.2276
17020SOL    HW252502   2.136   1.622   2.486  0.7734  1.5199  0.9289
17021SOL     OW52503   4.631   5.741   2.871 -0.2700 -0.3003 -0.1616
17021SOL    HW152504   4.659   5.653   2.847 -0.1261 -0.5059  0.7290
17021SOL    HW252505   4.712   5.787   2.894 -0.4306 -0.2258  0.2765
17022SOL     OW52506   3.792   7.573   4.602  0.2299 -0.0336 -0.2010
17022SOL    HW152507   3.760   7.514   4.670 -0.7224  1.4367  0.6837
17022SOL    HW252508   3.883   7.589   4.626  0.3260 -0.6734 -0.1173
17023SOL     OW52509   3.369   1.862   4.343 -0.3239  0.1299 -0.0643
17023SOL    HW152510   3.403   1.948   4.368 -0.4351 -0.1268  0.9939
17023SOL    HW252511   3.305   1.881   4.275 -1.0841  0.9785  0.8571
17024SOL     OW52512   6.716   0.139   3.068 -0.3040 -0.1752 -0.7529
17024SOL    HW152513   6.693   0.053   3.032 -0.2368 -0.9799  1.0186
17024SOL    HW252514   6.757   0.185   2.995  0.6803 -2.0713 -1.4655
17025SOL     OW52515   4.239   0.022   5.273  0.0421  0.0089 -0.5620
17025SOL    HW152516   4.151  -0.014   5.273  0.2854 -0.5967 -1.0371
17025SOL    HW252517   4.227   0.115   5.250 -0.4168 -0.2073 -1.2092
17026SOL     OW52518   4.945   7.916   3.231 -0.0883  1.3530 -0.6919
17026SOL    HW152519   4.961   7.830   3.191 -0.4283  0.3402  1.2308
17026SOL    HW252520   5.027   7.937   3.276 -0.1232  1.8859 -0.8728
17027SOL     OW52521   6.321   0.212   3.807 -0.4692 -0.0718 -0.0302
17027SOL    HW152522   6.307   0.122   3.835  0.9906  0.3590  2.3770
17027SOL    HW252523   6.237   0.239   3.770 -1.3845 -1.9393  0.5610
17028SOL     OW52524   3.793   0.079   2.698  0.1400 -0.0085 -0.4679
17028SOL    HW152525   3.749   0.160   2.676  0.3709 -0.2379 -1.8897
17028SOL    HW252526   3.880   0.087   2.658  0.6121 -0.4355  0.4468
17029SOL     OW52527   3.985   0.014   5.058  0.1378 -0.1301  0.0557
17029SOL    HW152528   3.962  -0.000   4.966 -2.6636  1.3736  0.4118
17029SOL    HW252529   3.902   0.006   5.105  0.8699  2.3664  2.0029
17030SOL     OW52530   4.449   6.733   6.878 -0.0269  0.0522 -0.0583
17030SOL    HW152531   4.520   6.701   6.935  1.0557  2.8716  0.3499
17030SOL    HW252532   4.407   6.802   6.930 -0.2407  1.3878 -1.9189
17031SOL     OW52533   5.328   0.560   4.710  0.0520 -0.2446  0.5005
17031SOL    HW152534   5.354   0.526   4.624  0.9412  1.2092  0.1412
17031SOL    HW252535   5.258   0.502   4.739  0.5435 -1.4803 -0.6678
17032SOL     OW52536   5.881   7.668   5.122 -0.0085  0.3787  0.2324
17032SOL    HW152537   5.875   7.574   5.138 -2.3323  0.3960 -0.2167
17032SOL    HW252538   5.889   7.707   5.209 -0.3000 -0.1680  0.5040
17033SOL     OW52539   5.273   0.781   3.698 -0.1688 -0.9205  0.0186
17033SOL    HW152540   5.193   0.771   3.749  0.6994 -0.7592  1.4734
17033SOL    HW252541   5.338   0.814   3.761  0.9728 -0.7873 -1.1762
17034SOL     OW52542   6.285   1.664   5.026  0.2693 -0.1437  0.4098
17034SOL    HW152543   6.204   1.642   5.071  0.9397 -0.6388  1.3960
17034SOL    HW252544   6.275   1.757   5.005 -1.2344 -0.5613 -0.9625
17035SOL     OW52545   4.765   0.045   3.500  0.2971  0.4637 -0.2158
17035SOL    HW152546   4.728  -0.003   3.426 -0.5046  1.0218 -0.1890
17035SOL    HW252547   4.859   0.032   3.492  0.4027  1.9717 -2.3827
17036SOL     OW52548   5.017   6.888   4.453 -0.3173  0.0244 -0.1812
17036SOL    HW152549   4.963   6.831   4.397 -0.2229  0.1285 -0.3806
17036SOL    HW252550   5.076   6.932   4.392  0.5382 -0.6769  0.1243
17037SOL     OW52551   3.392   1.211   5.190 -0.5183  0.4727 -0.7035
17037SOL    HW152552   3.347   1.164   5.119  0.3913  1.3878 -1.9388
17037SOL    HW252553   3.482   1.221   5.158 -0.0729  0.8504  0.6316
17038SOL     OW52554   3.601   0.539   5.100 -0.4817 -0.3796  0.3100
17038SOL    HW152555   3.508   0.519   5.086 -0.4632 -1.4317  1.4726
17038SOL    HW252556   3.642   0.454   5.114  0.2645  0.1965  1.8880
17039SOL     OW52557   4.175   7.452   5.310  0.1438 -0.2173 -0.1600
17039SOL    HW152558   4.123   7.483   5.385  0.1982 -0.2013 -0.1288
17039SOL    HW252559   4.120   7.470   5.234 -0.3220 -1.1002 -0.0466
17040SOL     OW52560   5.439   6.111   4.720 -0.2722 -0.0097  0.4441
17040SOL    HW152561   5.431   6.072   4.633  0.7303 -0.2574  0.4476
17040SOL    HW252562   5.361   6.165   4.729 -0.2707  0.2248 -0.7172
17041SOL     OW52563   4.669   7.956   3.240  0.0517  0.0652  0.5155
17041SOL    HW152564   4.635   7.945   3.151 -0.9659 -2.5405  1.1378
17041SOL    HW252565   4.764   7.942   3.230 -0.2483 -1.9786  0.0160
17042SOL     OW52566   6.701   7.551   4.416 -0.2355  0.3451  0.3225
17042SOL    HW152567   6.763   7.617   4.386 -0.3992  0.1155 -0.5413
17042SOL    HW252568   6.739   7.468   4.388 -0.7003  0.1672  0.2171
17043SOL     OW52569   3.750   7.826   3.784  0.1293  0.2352 -0.4135
17043SOL    HW152570   3.707   7.889   3.725  0.2699  2.6472  1.8748
17043SOL    HW252571   3.800   7.769   3.725 -0.7687  1.6499 -2.6956
17044SOL     OW52572   2.305   6.344   3.222 -0.5129  0.1783  0.1692
17044SOL    HW152573   2.368   6.401   3.267  2.4089 -0.5544 -2.6082
17044SOL    HW252574   2.230   6.401   3.204  1.0154  2.3244  0.1396
17045SOL     OW52575   4.439   0.187   1.920 -0.5325  0.7338  0.3541
17045SOL    HW152576   4.401   0.108   1.882 -0.1138 -0.2944  1.9940
17045SOL    HW252577   4.533   0.169   1.925 -0.3498  1.5886  0.2194
17046SOL     OW52578   5.591   0.005   4.887 -0.1588  0.0327  0.4429
17046SOL    HW152579   5.531   0.015   4.813 -0.1050 -0.8278  0.2758
17046SOL    HW252580   5.533  -0.016   4.961 -0.1662  0.3839  0.5390
17047SOL     OW52581   4.479   7.754   3.953 -0.1683  0.4017 -0.2163
17047SOL    HW152582   4.499   7.669   3.993  1.1450  0.5680 -0.4662
17047SOL    HW252583   4.491   7.817   4.023  0.0203  0.4911 -0.3293
17048SOL     OW52584   3.266   0.674   3.874  0.0931  0.2079 -0.1887
17048SOL    HW152585   3.252   0.581   3.854  1.0353 -0.6812  2.6220
17048SOL    HW252586   3.178   0.712   3.875 -0.6393 -1.3580  1.2942
17049SOL     OW52587   4.537   7.078   5.733 -0.1103 -0.2695 -0.5092
17049SOL    HW152588   4.596   7.046   5.802  0.6058  0.4764 -0.7554
17049SOL    HW252589   4.464   7.017   5.733  0.4797 -0.9858  0.0786
17050SOL     OW52590   3.495   6.465   5.187  0.0980  0.0824  0.6428
17050SOL    HW152591   3.429   6.436   5.250  0.9299 -1.3625  0.8940
17050SOL    HW252592   3.557   6.392   5.182  0.3727  0.4055 -1.4206
17051SOL     OW52593   3.386   6.869   2.717  0.4245 -0.4760 -0.6164
17051SOL    HW152594   3.469   6.911   2.740 -0.7453  2.2332 -1.0390
17051SOL    HW252595   3.345   6.850   2.801  1.4158 -1.8539 -0.4026
17052SOL     OW52596   4.006   5.419   5.810 -0.1485  0.0474  0.5326
17052SOL    HW152597   3.972   5.330   5.800  1.6687 -0.5553 -0.7020
17052SOL    HW252598   4.093   5.408   5.847 -0.9324  1.5200  3.0467
17053SOL     OW52599   5.107   0.429   4.763  0.0264 -0.5285 -0.1755
17053SOL    HW152600   5.141   0.388   4.843  0.9567  0.4337 -0.0615
17053SOL    HW252601   5.076   0.355   4.710  0.6134 -1.2892  0.5090
17054SOL     OW52602   3.882   0.329   4.570 -0.1388  0.2456  1.0593
17054SOL    HW152603   3.872   0.324   4.665 -3.9330 -0.5577  0.7821
17054SOL    HW252604   3.870   0.422   4.550 -1.0154  0.1994  1.3030
17055SOL     OW52605   4.723   6.468   4.989  0.4190  0.5415 -0.6014
17055SOL    HW152606   4.693   6.520   4.915  1.1904  0.4436 -0.9892
17055SOL    HW252607   4.643   6.444   5.035 -0.2490 -0.8989 -2.3897
17056SOL     OW52608   3.862   0.202   4.344  0.4889 -0.7268  0.3394
17056SOL    HW152609   3.908   0.257   4.280 -2.3243 -1.8554 -2.9425
17056SOL    HW252610   3.871   0.250   4.427  0.4171  3.4095 -1.7564
17057SOL     OW52611   3.596   0.357   4.145 -0.1537  0.0982  0.1486
17057SOL    HW152612   3.672   0.370   4.202  0.5044 -2.4383 -0.0316
17057SOL    HW252613   3.521   0.358   4.205  0.3595 -0.7639  0.8272
17058SOL     OW52614   5.670   6.712   3.948 -0.3365 -0.3363  0.3111
17058SOL    HW152615   5.740   6.646   3.941  1.4614  1.5329 -0.2704
17058SOL    HW252616   5.591   6.666   3.919  0.4567 -2.7429  1.6677
17059SOL     OW52617   5.054   7.806   2.851  0.1901 -0.0294  0.0456
17059SOL    HW152618   5.126   7.869   2.848  0.9959 -0.8571  1.3593
17059SOL    HW252619   5.088   7.729   2.805 -0.8951  0.5145 -1.8229
17060SOL     OW52620   4.820   0.549   4.656  0.4012 -0.1724  0.0592
17060SOL    HW152621   4.862   0.551   4.743  1.9596 -2.5116 -0.5345
17060SOL    HW252622   4.750   0.484   4.666  2.0384 -2.2076 -0.9157
17061SOL     OW52623   2.993   7.615   4.827 -0.0381 -0.4063  0.3542
17061SOL    HW152624   2.910   7.647   4.791  0.9409  1.0545 -0.7438
17061SOL    HW252625   2.997   7.652   4.915 -0.9219 -1.1954  0.7371
17062SOL     OW52626   5.197   6.291   6.757  0.2855 -0.4549 -0.2841
17062SOL    HW152627   5.279   6.316   6.798  0.3154  1.3532 -1.3448
17062SOL    HW252628   5.196   6.339   6.674 -1.8254 -0.4781 -0.3180
17063SOL     OW52629   3.549   0.333   4.710 -0.2896 -0.4839 -0.1142
17063SOL    HW152630   3.616   0.266   4.706  1.1337  0.8269  0.8744
17063SOL    HW252631   3.505   0.319   4.793 -0.1815 -0.3643 -0.0369
17064SOL     OW52632   4.272   7.397   3.772  0.0309 -0.3657  0.3186
17064SOL    HW152633   4.230   7.483   3.775 -0.7799 -0.7701  1.3629
17064SOL    HW252634   4.301   7.387   3.682 -1.1001  0.4243 -0.1482
17065SOL     OW52635   4.422   7.962   2.528  0.2660  0.3631 -0.2781
17065SOL    HW152636   4.431   7.872   2.498 -0.7152 -0.2962  1.2758
17065SOL    HW252637   4.368   8.005   2.461 -1.3415 -0.8966  0.1505
17066SOL     OW52638   5.855   0.589   3.138  0.0270  0.1175 -0.1967
17066SOL    HW152639   5.816   0.656   3.195  0.8559  0.4312  0.0184
17066SOL    HW252640   5.880   0.519   3.197  3.2305  1.4929  0.3014
17067SOL     OW52641   2.856   0.957   5.154 -0.0750  0.4936  0.1942
17067SOL    HW152642   2.820   0.932   5.069  0.4022  1.1698 -0.2172
17067SOL    HW252643   2.848   1.053   5.156  3.2184  0.8815 -0.6428
17068SOL     OW52644   5.761   0.915   4.484 -0.0551 -0.4841 -0.0799
17068SOL    HW152645   5.732   0.893   4.572 -1.3267 -0.2391 -0.4131
17068SOL    HW252646   5.762   1.011   4.482  2.1936 -0.4517  0.3407
17069SOL     OW52647   5.100   1.140   4.908 -0.3160 -0.4205  0.1086
17069SOL    HW152648   5.083   1.066   4.966 -2.8125 -1.3318 -1.5896
17069SOL    HW252649   5.092   1.217   4.964 -3.0669 -1.2396  0.9800
17070SOL     OW52650   3.567   0.641   4.775  0.4452  0.5202 -0.0144
17070SOL    HW152651   3.474   0.655   4.758  0.7153  0.9673 -1.2667
17070SOL    HW252652   3.588   0.558   4.732  0.8681  1.0171 -0.7995
17071SOL     OW52653   4.819   0.233   5.268 -0.1410 -0.1985  0.7728
17071SOL    HW152654   4.855   0.149   5.239 -0.0626  0.5517 -1.4582
17071SOL    HW252655   4.727   0.229   5.243 -0.2120  0.2621  0.9631
17072SOL     OW52656   4.418   1.455   4.331  0.5473  0.1331 -0.0243
17072SOL    HW152657   4.392   1.372   4.370  0.5104 -0.0060 -0.3400
17072SOL    HW252658   4.470   1.431   4.255  1.7333  0.4163  0.6701
17073SOL     OW52659   3.654   7.935   5.881  0.1228  0.5911 -0.0984
17073SOL    HW152660   3.559   7.932   5.896 -0.2496 -0.0260 -2.2625
17073SOL    HW252661   3.678   8.025   5.901 -0.9723  0.8274  0.2284
17074SOL     OW52662   3.298   7.091   4.179 -0.1619 -0.0580 -0.0783
17074SOL    HW152663   3.260   7.143   4.109  0.7155 -0.1163 -0.6180
17074SOL    HW252664   3.346   7.153   4.233 -0.1423 -0.1288 -0.0131
17075SOL     OW52665   3.805   5.257   2.936 -0.0144 -0.0421  0.7969
17075SOL    HW152666   3.879   5.295   2.983  0.8921 -2.4441  1.4419
17075SOL    HW252667   3.770   5.191   2.997 -0.6633 -1.1753 -0.7528
17076SOL     OW52668   4.263   0.304   6.290 -0.1142 -0.1226  0.2871
17076SOL    HW152669   4.226   0.372   6.233  1.3091 -0.6440 -1.3795
17076SOL    HW252670   4.353   0.333   6.305  0.2610 -1.2100  0.2252
17077SOL     OW52671   5.454   7.731   5.638 -0.1208  0.0163 -0.0416
17077SOL    HW152672   5.359   7.747   5.645  0.1692  1.8479  0.2684
17077SOL    HW252673   5.477   7.763   5.551  0.0946 -1.1703 -0.4272
17078SOL     OW52674   4.984   7.448   3.779 -0.0304 -0.0522  0.5126
17078SOL    HW152675   4.990   7.485   3.867  0.8052  1.5708 -0.1838
17078SOL    HW252676   4.893   7.459   3.754 -0.1721 -0.1045  0.9962
17079SOL     OW52677   6.192   7.899   5.540  0.0508 -0.7203  0.5093
17079SOL    HW152678   6.242   7.876   5.618 -1.0777 -0.0824  1.4613
17079SOL    HW252679   6.258   7.924   5.475  1.0605 -2.1536  0.9294
17080SOL     OW52680   3.339   0.069   3.872  0.4319 -0.2154 -0.4549
17080SOL    HW152681   3.342   0.141   3.808 -0.4452  1.2386  1.0683
17080SOL    HW252682   3.387   0.103   3.948 -2.7431  0.1025  1.5530
17081SOL     OW52683   4.579   6.771   3.701  0.0462 -0.5136  0.3962
17081SOL    HW152684   4.594   6.694   3.757 -1.5847 -0.4544  0.9701
17081SOL    HW252685   4.525   6.829   3.755 -2.3399 -0.8264 -1.4829
17082SOL     OW52686   5.077   0.030   5.460  0.5590  0.7520  0.4032
17082SOL    HW152687   5.170   0.008   5.457  0.0891 -1.3242 -0.7345
17082SOL    HW252688   5.041  -0.007   5.379 -1.1942  1.8982  0.6015
17083SOL     OW52689   4.474   7.997   4.715  0.1553  0.2352  0.3125
17083SOL    HW152690   4.496   8.070   4.773  1.1528  1.0977 -1.1187
17083SOL    HW252691   4.518   8.016   4.633 -0.4937 -1.4220 -0.4731
17084SOL     OW52692   5.903   7.644   4.087  0.1003 -0.1825 -0.1258
17084SOL    HW152693   5.832   7.676   4.032  0.5777  1.3014  0.0692
17084SOL    HW252694   5.967   7.608   4.026 -0.2323 -0.3197 -0.3935
17085SOL     OW52695   5.534   6.588   6.736 -0.0096 -0.1752  0.0254
17085SOL    HW152696   5.564   6.659   6.680 -1.9031 -0.6984 -1.8080
17085SOL    HW252697   5.587   6.513   6.710  0.6429  0.0912  0.5598
17086SOL     OW52698   5.013   7.955   4.122 -0.1453 -0.1143  0.6244
17086SOL    HW152699   5.029   8.050   4.130  0.1531 -0.2954  2.5985
17086SOL    HW252700   4.949   7.948   4.051 -2.7637  1.8809  2.5835
17087SOL     OW52701   5.555   6.529   7.056  0.0914 -0.0508 -0.0112
17087SOL    HW152702   5.558   6.450   7.110  1.6991 -0.7045 -0.9675
17087SOL    HW252703   5.619   6.513   6.987 -1.7329  0.8373 -2.0241
17088SOL     OW52704   5.203   1.568   7.369  0.0295  0.4754  0.4618
17088SOL    HW152705   5.182   1.602   7.456 -1.0735  1.8585 -0.3130
17088SOL    HW252706   5.179   1.475   7.373 -1.8051  0.9471  1.0760
17089SOL     OW52707   3.749   7.317   5.370 -0.0481  0.6602  0.6753
17089SOL    HW152708   3.812   7.253   5.402 -0.0616  0.3689  0.1303
17089SOL    HW252709   3.699   7.342   5.448  0.2313  0.3246  0.9676
17090SOL     OW52710   2.912   7.035   7.271  0.3915  0.5149 -0.0360
17090SOL    HW152711   2.954   7.119   7.254  0.6455  0.2204 -0.8732
17090SOL    HW252712   2.976   6.969   7.246 -0.0089  0.0655  0.0906
17091SOL     OW52713   5.692   6.688   4.267 -0.9014  0.4420 -0.3708
17091SOL    HW152714   5.764   6.633   4.235 -1.0932 -1.1197  1.6812
17091SOL    HW252715   5.700   6.769   4.217  3.0934  0.8571  0.5674
17092SOL     OW52716   5.276   4.331   6.806  0.1456  0.3641  0.1091
17092SOL    HW152717   5.290   4.396   6.736 -0.5190  0.1540 -0.2303
17092SOL    HW252718   5.265   4.384   6.885 -1.4345  0.7610 -0.3264
17093SOL     OW52719   4.042   7.794   5.276  1.1476 -0.3843 -0.0140
17093SOL    HW152720   3.978   7.851   5.235 -1.8375 -2.4666  1.3907
17093SOL    HW252721   4.040   7.714   5.223  1.5783 -0.9684  0.8280
17094SOL     OW52722   5.438   6.416   5.332  0.6429  0.0640  0.0295
17094SOL    HW152723   5.442   6.446   5.241 -0.2273 -1.6059 -0.5835
17094SOL    HW252724   5.413   6.494   5.382  0.5894  0.8660 -1.2168
17095SOL     OW52725   4.201   5.632   7.380 -0.3396 -0.7394 -1.0086
17095SOL    HW152726   4.186   5.725   7.366  1.1203 -0.3788 -0.3994
17095SOL    HW252727   4.115   5.596   7.402 -0.7465  0.6691 -0.1923
17096SOL     OW52728   5.563   7.158   6.186 -0.1842 -0.0159  0.0147
17096SOL    HW152729   5.589   7.143   6.277  1.3231 -1.1770 -0.5603
17096SOL    HW252730   5.554   7.253   6.179  0.9592  0.1961  1.0566
17097SOL     OW52731   5.531   0.242   6.709  0.5926 -0.3466 -0.2479
17097SOL    HW152732   5.555   0.216   6.798 -0.7778 -0.6891  0.0468
17097SOL    HW252733   5.455   0.187   6.688  0.6732 -0.0045 -1.4879
17098SOL     OW52734   5.633   6.987   6.597 -0.0072 -0.0971  0.4977
17098SOL    HW152735   5.628   7.031   6.682 -0.3102  0.1255  0.3661
17098SOL    HW252736   5.542   6.975   6.571  0.0560  1.7460 -0.7744
17099SOL     OW52737   4.720   6.752   6.640  0.7180  0.1085  0.1253
17099SOL    HW152738   4.754   6.664   6.624  0.0820 -0.0799 -0.2114
17099SOL    HW252739   4.775   6.809   6.587 -0.9873 -0.4373 -2.4007
17100SOL     OW52740   4.899   7.720   4.417 -1.0663  0.0125 -0.3475
17100SOL    HW152741   4.851   7.768   4.484 -2.5060  0.2978 -1.5184
17100SOL    HW252742   4.830   7.681   4.362  0.0104  0.7034 -2.2981
17101SOL     OW52743   5.147   6.738   5.880  0.2268  0.1849 -0.1092
17101SOL    HW152744   5.222   6.797   5.887  0.6553  0.2421 -3.4152
17101SOL    HW252745   5.185   6.654   5.851 -0.7349 -0.6353  0.9426
17102SOL     OW52746   3.537   7.039   7.440 -0.2244 -0.3140  0.2297
17102SOL    HW152747   3.493   6.993   7.369 -0.2362 -0.9448  0.6431
17102SOL    HW252748   3.468   7.055   7.504 -0.1291 -0.0993  0.2820
17103SOL     OW52749   2.873   6.362   7.019 -0.0764 -0.1550 -0.0980
17103SOL    HW152750   2.800   6.358   6.957 -1.5071 -0.0216  1.5017
17103SOL    HW252751   2.883   6.455   7.040 -0.4451 -0.3012  0.7866
17104SOL     OW52752   4.885   6.665   6.096 -0.1349  0.2701  0.0235
17104SOL    HW152753   4.941   6.693   6.169 -1.4062 -0.1025  1.1624
17104SOL    HW252754   4.928   6.586   6.062 -0.4891 -0.6112  1.5514
17105SOL     OW52755   6.534   6.385   7.170  0.1295  0.2525  0.1576
17105SOL    HW152756   6.483   6.309   7.197  0.5844  0.4428  1.6377
17105SOL    HW252757   6.570   6.420   7.251  0.3532  1.7547 -0.5494
17106SOL     OW52758   4.986   6.388   5.295  0.0027 -0.3038  0.0895
17106SOL    HW152759   5.013   6.435   5.216 -0.2495  0.4670  0.4556
17106SOL    HW252760   5.050   6.415   5.362 -0.1405 -0.4803  0.3000
17107SOL     OW52761   4.620   7.223   6.930  0.4639 -0.3758  0.0113
17107SOL    HW152762   4.674   7.216   6.851 -1.6693  1.5341 -1.7730
17107SOL    HW252763   4.538   7.180   6.907  0.7149 -2.1782  2.2330
17108SOL     OW52764   4.631   6.025   8.026 -0.0752  0.6777 -0.4554
17108SOL    HW152765   4.563   5.958   8.035  2.3273 -2.4200 -2.9552
17108SOL    HW252766   4.668   6.034   8.113 -0.4180 -1.4033 -0.0549
17109SOL     OW52767   4.495   6.317   7.722  0.1165 -0.3941  0.1671
17109SOL    HW152768   4.521   6.369   7.646 -0.9029  0.2236  0.2127
17109SOL    HW252769   4.499   6.226   7.692 -0.5808 -0.1455 -0.7350
17110SOL     OW52770   4.183   7.434   6.082 -0.0117 -0.2723 -0.1030
17110SOL    HW152771   4.212   7.439   5.991  0.6532 -1.9334 -0.0237
17110SOL    HW252772   4.144   7.348   6.090 -1.4255  0.4232  0.8332
17111SOL     OW52773   3.285   7.945   5.542 -0.1245 -0.2345 -0.2309
17111SOL    HW152774   3.275   8.008   5.470  1.5089 -0.1470 -0.4254
17111SOL    HW252775   3.346   7.988   5.602 -0.3445 -0.9259  0.4934
17112SOL     OW52776   2.995   6.822   7.934  0.1952 -0.1609  0.2313
17112SOL    HW152777   2.947   6.905   7.938  2.2541  1.0571  1.3479
17112SOL    HW252778   2.962   6.773   8.010 -0.1037  0.1804  0.3283
17113SOL     OW52779   3.697   7.292   7.816  0.6308 -0.2552  0.2559
17113SOL    HW152780   3.718   7.373   7.771 -0.9373  0.0760  0.0736
17113SOL    HW252781   3.781   7.246   7.822  1.6158  1.4803  0.6167
17114SOL     OW52782   5.624   5.990   5.853 -0.1873  0.5514  0.6265
17114SOL    HW152783   5.574   6.050   5.798  1.7942  0.8123 -1.0093
17114SOL    HW252784   5.568   5.913   5.861 -0.6490  0.5831 -1.6413
17115SOL     OW52785   2.961   1.261   5.428 -0.2074 -0.1683 -0.5696
17115SOL    HW152786   2.911   1.269   5.509 -1.1517 -1.7181 -0.9509
17115SOL    HW252787   3.017   1.185   5.442  2.4262  1.7456 -0.0091
17116SOL     OW52788   4.450   6.964   6.662  0.4193  0.3981  0.3375
17116SOL    HW152789   4.419   7.010   6.740  0.8434  1.2380  0.0260
17116SOL    HW252790   4.378   6.971   6.599 -0.5896 -1.6925  1.1674
17117SOL     OW52791   4.848   5.588   5.115  0.4043 -0.3782 -0.1697
17117SOL    HW152792   4.830   5.520   5.051  0.2398 -0.7257  0.2359
17117SOL    HW252793   4.921   5.554   5.167  0.3980 -0.1929 -0.0378
17118SOL     OW52794   4.885   5.855   6.318  0.2905  0.1193  0.2261
17118SOL    HW152795   4.789   5.848   6.312  0.1868  0.8253  0.8732
17118SOL    HW252796   4.905   5.939   6.276  0.5608  0.2745  0.6675
17119SOL     OW52797   4.256   0.138   6.728 -0.1293 -0.3524  0.6310
17119SOL    HW152798   4.350   0.138   6.708  0.2333  1.3169  2.0710
17119SOL    HW252799   4.248   0.083   6.805 -0.2665 -0.1445  0.7645
17120SOL     OW52800   5.335   1.140   7.730 -0.4655  0.6914 -0.4719
17120SOL    HW152801   5.411   1.108   7.681 -1.5407 -0.5773 -1.4002
17120SOL    HW252802   5.368   1.213   7.782  1.2600  0.5024 -1.2486
17121SOL     OW52803   4.974   6.582   7.864  0.2854 -0.0063  0.7643
17121SOL    HW152804   5.015   6.501   7.895 -1.2878 -0.7876  0.8740
17121SOL    HW252805   4.945   6.562   7.775  0.2772  0.5877  0.6270
17122SOL     OW52806   4.761   5.064   7.511 -0.3366 -0.3630  0.7518
17122SOL    HW152807   4.688   5.092   7.457 -0.2813 -0.8068  0.4452
17122SOL    HW252808   4.819   5.016   7.452  0.9072  1.1643  0.6547
17123SOL     OW52809   4.604   6.993   6.392 -0.6073 -0.5289 -0.0007
17123SOL    HW152810   4.509   6.993   6.376 -0.3304 -0.1168 -1.9467
17123SOL    HW252811   4.614   6.955   6.480 -2.7310  1.9381  1.4379
17124SOL     OW52812   3.169   7.459   5.821 -0.0947  0.3852 -0.3171
17124SOL    HW152813   3.159   7.364   5.823 -1.3609  0.4208 -2.2285
17124SOL    HW252814   3.105   7.491   5.884 -0.1100 -0.0088 -0.1298
17125SOL     OW52815   3.815   5.973   6.823  0.1693 -0.0319 -0.0662
17125SOL    HW152816   3.779   6.046   6.774 -1.5377 -1.7086 -1.4619
17125SOL    HW252817   3.754   5.961   6.896 -0.7383 -1.2503 -0.9737
17126SOL     OW52818   4.091   1.478   6.052  0.2438 -0.5091  0.4614
17126SOL    HW152819   4.051   1.448   5.971  1.0219 -0.2666 -0.0188
17126SOL    HW252820   4.017   1.486   6.113 -0.3230 -0.8619 -0.1597
17127SOL     OW52821   6.068   7.891   4.079  0.1659  0.4205  0.1179
17127SOL    HW152822   6.011   7.963   4.052 -0.4480  0.1244  0.5937
17127SOL    HW252823   6.014   7.813   4.069  0.6480  0.0837  0.1203
17128SOL     OW52824   4.281   7.436   5.764 -0.3100 -0.0189 -0.1140
17128SOL    HW152825   4.294   7.392   5.680 -0.3552 -1.0687  0.4090
17128SOL    HW252826   4.344   7.394   5.823  0.3814  1.3493  0.1664
17129SOL     OW52827   5.176   0.896   6.860 -0.2787  0.3161  0.2774
17129SOL    HW152828   5.097   0.854   6.894 -0.8710 -0.7467 -2.1525
17129SOL    HW252829   5.153   0.919   6.769  2.4547 -0.8901 -0.8204
17130SOL     OW52830   4.152   0.858   6.426  0.6107  0.1217 -0.4405
17130SOL    HW152831   4.101   0.935   6.451 -0.0091 -0.5643  0.4703
17130SOL    HW252832   4.207   0.840   6.503  0.2134 -0.7776 -0.3579
17131SOL     OW52833   4.239   7.501   7.061  0.3150  0.5157  0.3693
17131SOL    HW152834   4.322   7.492   7.108  0.0499 -0.5868  0.6628
17131SOL    HW252835   4.172   7.494   7.129 -0.0896 -1.6301 -0.1825
17132SOL     OW52836   5.162   6.212   8.594  0.0997  0.6687  0.1698
17132SOL    HW152837   5.117   6.128   8.601 -1.4510  1.3251 -1.2325
17132SOL    HW252838   5.091   6.277   8.598  0.9350  1.7733 -1.6927
17133SOL     OW52839   3.496   0.051   5.659  0.2389  0.4253 -0.7977
17133SOL    HW152840   3.524   0.133   5.700 -0.8717  0.4188  0.0358
17133SOL    HW252841   3.553  -0.015   5.698 -0.7739  0.4240  0.8143
17134SOL     OW52842   4.090   7.453   4.569  0.3286  0.4858  0.1723
17134SOL    HW152843   4.048   7.533   4.535  0.2742  0.6121  0.5267
17134SOL    HW252844   4.058   7.383   4.512  1.7731  0.9517 -1.2678
17135SOL     OW52845   5.032   7.189   7.412 -0.0834 -0.7091 -0.0033
17135SOL    HW152846   4.984   7.174   7.331 -0.1049  1.6811 -0.4951
17135SOL    HW252847   5.094   7.116   7.417  0.5235 -0.4483 -2.6333
17136SOL     OW52848   6.241   7.330   4.138  0.2923 -0.3499  0.1537
17136SOL    HW152849   6.180   7.325   4.212 -0.7323 -0.9896 -0.7114
17136SOL    HW252850   6.259   7.239   4.116  0.1823 -0.1700 -0.7127
17137SOL     OW52851   6.790   6.319   6.677 -0.2074 -0.0916  0.0021
17137SOL    HW152852   6.765   6.352   6.590  0.3391 -2.2358 -1.0348
17137SOL    HW252853   6.755   6.230   6.680  0.2262 -0.2386  1.7951
17138SOL     OW52854   2.401   7.044   8.829  0.0262  0.0560 -0.2555
17138SOL    HW152855   2.391   7.139   8.834  0.0238  0.0378  0.1359
17138SOL    HW252856   2.492   7.027   8.853  0.3293  0.0315 -1.3642
17139SOL     OW52857   4.939   6.484   6.824  0.4309 -0.4520  0.7445
17139SOL    HW152858   4.893   6.546   6.881  0.2508 -0.0006  0.1177
17139SOL    HW252859   4.950   6.406   6.878  0.8811  0.2061  1.6331
17140SOL     OW52860   5.278   6.508   5.794  0.2977 -0.5388 -0.0274
17140SOL    HW152861   5.241   6.502   5.705  0.3978 -0.3950 -0.0781
17140SOL    HW252862   5.241   6.432   5.840 -1.9533  0.8817  0.6318
17141SOL     OW52863   3.422   0.211   7.826 -0.8231  0.1759  0.0091
17141SOL    HW152864   3.507   0.173   7.849 -0.8127  0.1704 -0.0390
17141SOL    HW252865   3.365   0.189   7.901 -1.0395 -0.6652 -0.3879
17142SOL     OW52866   3.919   7.553   6.629  0.8322 -0.0618  0.8513
17142SOL    HW152867   3.969   7.480   6.591  0.6051 -0.3213  1.0496
17142SOL    HW252868   3.936   7.546   6.724 -0.6800 -0.9889  1.0801
17143SOL     OW52869   5.375   7.584   7.311  0.6994  0.2754 -0.3704
17143SOL    HW152870   5.324   7.628   7.242  0.1619  0.9748  0.4523
17143SOL    HW252871   5.326   7.504   7.329 -0.6504  1.3438  1.0145
17144SOL     OW52872   4.358   7.920   6.532 -0.2398  0.1005  0.2512
17144SOL    HW152873   4.420   7.944   6.463 -0.8892 -3.5769 -1.8650
17144SOL    HW252874   4.411   7.883   6.601  0.2936  2.5758  1.2893
17145SOL     OW52875   4.294   7.065   7.197 -0.0688 -0.5243 -0.0624
17145SOL    HW152876   4.309   7.089   7.106  2.0188  1.3207  0.6820
17145SOL    HW252877   4.219   7.005   7.194 -0.8469  0.4453 -2.8267
17146SOL     OW52878   5.520   7.103   7.335 -0.2395  0.3356  0.5844
17146SOL    HW152879   5.556   7.166   7.397  0.8332  1.3294 -0.9764
17146SOL    HW252880   5.554   7.131   7.250 -0.9815 -1.4697 -0.3560
17147SOL     OW52881   6.518   7.134   5.910 -0.5148 -0.0813 -0.5685
17147SOL    HW152882   6.472   7.177   5.982  0.9249  1.8222 -0.7079
17147SOL    HW252883   6.448   7.089   5.861 -1.7866  0.2482  0.8595
17148SOL     OW52884   5.429   7.813   6.557  0.5303 -0.7860  0.2472
17148SOL    HW152885   5.506   7.847   6.603  1.4098 -1.8702 -0.3467
17148SOL    HW252886   5.375   7.890   6.539  2.1337  0.2184 -0.5081
17149SOL     OW52887   4.442   7.250   6.551  0.3796  0.0408  0.6220
17149SOL    HW152888   4.399   7.191   6.489 -1.2868  1.7292  0.0728
17149SOL    HW252889   4.475   7.321   6.497 -2.0081  2.0680  1.6589
17150SOL     OW52890   2.715   6.866   4.227 -0.4624  0.2040 -0.2205
17150SOL    HW152891   2.622   6.845   4.229 -0.6300  0.9063 -0.3304
17150SOL    HW252892   2.729   6.898   4.138  0.4022 -2.1273 -1.0193
17151SOL     OW52893   4.928   6.801   5.587 -0.0770 -0.2047 -0.4969
17151SOL    HW152894   4.885   6.779   5.670  1.8045 -0.2962  0.5013
17151SOL    HW252895   4.881   6.748   5.522 -0.4720 -1.4789  0.7599
17152SOL     OW52896   4.766   0.144   6.295  0.4479  0.2245 -0.4399
17152SOL    HW152897   4.679   0.179   6.276  0.9935  1.3976 -0.8454
17152SOL    HW252898   4.763   0.054   6.262 -1.3983 -0.6412  1.8094
17153SOL     OW52899   3.960   6.665   7.933 -0.1425 -1.2057  0.1025
17153SOL    HW152900   3.870   6.630   7.932  0.4381 -2.7399 -1.0009
17153SOL    HW252901   3.990   6.657   7.843  0.8773 -0.0191  0.3166
17154SOL     OW52902   6.104   7.803   5.965  0.4170  0.1653 -0.2499
17154SOL    HW152903   6.030   7.840   6.014 -0.3069  1.1263 -1.9809
17154SOL    HW252904   6.065   7.732   5.913  1.1186 -0.6444  0.2889
17155SOL     OW52905   5.264   5.886   6.773 -0.0193 -0.5815  0.2123
17155SOL    HW152906   5.309   5.880   6.689 -1.2988 -0.3293 -0.5170
17155SOL    HW252907   5.330   5.920   6.834  0.1488  2.2802 -1.3799
17156SOL     OW52908   5.621   0.315   7.598  0.0139  0.1436  0.7550
17156SOL    HW152909   5.628   0.224   7.628  1.3393  0.1272  0.4552
17156SOL    HW252910   5.527   0.333   7.598 -0.4288 -1.7956 -0.8830
17157SOL     OW52911   5.085   6.499   8.180 -0.1074 -0.8332 -0.0656
17157SOL    HW152912   5.123   6.434   8.240 -0.1594 -1.0103 -0.2262
17157SOL    HW252913   5.160   6.550   8.150  0.0744 -1.5027 -0.7741
17158SOL     OW52914   4.158   6.531   8.046 -0.3341  0.7648  0.0275
17158SOL    HW152915   4.122   6.464   8.105  1.9553  0.5357  1.2977
17158SOL    HW252916   4.083   6.585   8.022 -1.7466 -0.5315  1.2989
17159SOL     OW52917   2.999   7.862   7.044 -0.2843 -0.1069 -0.0392
17159SOL    HW152918   3.047   7.779   7.054 -2.7403 -1.5236  0.7655
17159SOL    HW252919   2.961   7.856   6.956  0.5636  0.7993 -0.4887
17160SOL     OW52920   3.083   5.937   7.706  0.2233 -0.1908 -0.7491
17160SOL    HW152921   3.099   6.027   7.679 -0.1196 -0.2614 -1.1953
17160SOL    HW252922   2.990   5.935   7.730 -0.3108 -0.8921 -2.6677
17161SOL     OW52923   5.456   6.205   7.681  0.6247  0.7123 -0.0583
17161SOL    HW152924   5.498   6.196   7.596 -2.5255 -0.7141 -1.6505
17161SOL    HW252925   5.380   6.148   7.676 -0.9845  2.3522  2.8659
17162SOL     OW52926   3.510   0.060   9.161  0.3796  0.0278  0.0380
17162SOL    HW152927   3.454   0.087   9.233  0.2802  1.5379 -0.5674
17162SOL    HW252928   3.450   0.039   9.089  0.4804 -1.3950  0.3445
17163SOL     OW52929   4.863   0.063   9.648 -0.0290 -0.1192 -0.1185
17163SOL    HW152930   4.769   0.066   9.668 -0.6889  0.2096 -2.7757
17163SOL    HW252931   4.901   0.134   9.698 -1.4046  0.4037  0.2349
17164SOL     OW52932   4.989   7.646   7.607  0.2140 -0.5165 -0.0059
17164SOL    HW152933   5.054   7.697   7.557  1.6972 -0.5042  1.7994
17164SOL    HW252934   4.921   7.710   7.628  0.4659 -0.0760 -0.4799
17165SOL     OW52935   3.799   7.725   7.528  0.4548 -0.0262  0.0913
17165SOL    HW152936   3.733   7.747   7.593 -0.0874 -2.3076  0.3990
17165SOL    HW252937   3.882   7.752   7.568  0.0656 -0.8174  1.4984
17166SOL     OW52938   6.829   7.794   5.997  0.3830  0.3100 -0.2773
17166SOL    HW152939   6.790   7.866   5.948 -0.2247 -0.0137 -0.2791
17166SOL    HW252940   6.759   7.763   6.055  0.5265 -0.4947 -0.5172
17167SOL     OW52941   4.435   0.445   7.859  0.6852 -0.3072  0.1807
17167SOL    HW152942   4.436   0.479   7.949  0.3425 -0.4078  0.2241
17167SOL    HW252943   4.484   0.363   7.864  0.2782 -0.5428  0.3725
17168SOL     OW52944   6.666   0.374   8.474  0.1139  0.0251 -0.4520
17168SOL    HW152945   6.633   0.286   8.491 -0.1865  0.1813 -0.2079
17168SOL    HW252946   6.631   0.396   8.387 -0.5368  0.2325 -0.1489
17169SOL     OW52947   1.952   4.425   8.964 -0.6549 -0.0687  0.1356
17169SOL    HW152948   2.043   4.432   8.991 -1.1579  1.2387  1.6502
17169SOL    HW252949   1.955   4.431   8.869  0.8688 -0.5275  0.1289
17170SOL     OW52950   7.148   6.727   7.351 -0.0453  0.4947  0.0308
17170SOL    HW152951   7.079   6.792   7.360 -2.6215 -1.4982 -3.0899
17170SOL    HW252952   7.189   6.747   7.266  0.1229 -0.9814 -0.2714
17171SOL     OW52953   3.958   6.419   8.253 -0.2229 -0.2270  0.6496
17171SOL    HW152954   3.956   6.360   8.328  0.1712 -1.3239 -0.1695
17171SOL    HW252955   3.873   6.407   8.212 -0.9094  1.2712  1.5590
17172SOL     OW52956   2.869   6.018   7.902  0.2634 -0.0644  0.1787
17172SOL    HW152957   2.872   6.063   7.986 -2.2729 -1.8885  1.3424
17172SOL    HW252958   2.797   6.059   7.855  0.3764 -0.3889 -0.2891
17173SOL     OW52959   5.691   6.149   9.693 -0.4048  0.2159  0.4535
17173SOL    HW152960   5.770   6.198   9.669 -1.5951  2.2713  0.5127
17173SOL    HW252961   5.719   6.090   9.763  1.0973  0.8123  0.3813
17174SOL     OW52962   4.316   1.395   8.665  0.3019  0.0513 -0.0642
17174SOL    HW152963   4.405   1.406   8.700  0.6161  1.3522 -1.1911
17174SOL    HW252964   4.260   1.444   8.726 -0.0183 -2.4756  1.8633
17175SOL     OW52965   4.694   7.372   7.143 -0.1716 -0.9829 -0.0795
17175SOL    HW152966   4.655   7.310   7.080 -2.3737  1.4240 -1.2791
17175SOL    HW252967   4.656   7.347   7.227 -2.1093 -0.5174 -0.7668
17176SOL     OW52968   3.721   6.083   7.642  0.6184  0.5565 -0.1874
17176SOL    HW152969   3.714   6.002   7.592  1.1447  0.1651  0.3574
17176SOL    HW252970   3.637   6.127   7.629  0.1868 -0.2469 -0.1972
17177SOL     OW52971   3.491   6.413   8.988 -0.0737  0.6052  0.1981
17177SOL    HW152972   3.481   6.508   8.992 -0.8191  0.5360  0.1258
17177SOL    HW252973   3.538   6.397   8.906  0.4466  0.9323  0.4251
17178SOL     OW52974   5.434   5.275   8.609  0.0673 -0.2947  0.2285
17178SOL    HW152975   5.392   5.322   8.682  0.4959 -0.8215  0.8304
17178SOL    HW252976   5.370   5.208   8.585  0.2136 -0.5747  0.6025
17179SOL     OW52977   5.723   7.657   6.778  0.3858  0.8027 -0.1316
17179SOL    HW152978   5.704   7.571   6.815  0.7550 -0.2934 -2.2867
17179SOL    HW252979   5.719   7.717   6.852 -1.1121 -0.8750  1.2343
17180SOL     OW52980   5.606   0.028   7.664  0.3878  0.5788  0.2832
17180SOL    HW152981   5.636  -0.056   7.630  2.3100  1.7775 -1.1697
17180SOL    HW252982   5.610   0.018   7.759 -0.9627 -1.4339  0.2069
17181SOL     OW52983   5.544   7.567   8.374 -0.0466  0.1878 -0.5751
17181SOL    HW152984   5.605   7.525   8.434 -0.6144  0.6544  0.3670
17181SOL    HW252985   5.522   7.651   8.417 -0.5277  0.4946 -1.3932
17182SOL     OW52986   4.364   7.436   7.850  0.2033 -0.3493 -0.0257
17182SOL    HW152987   4.336   7.386   7.773 -1.0340 -2.7092  1.7969
17182SOL    HW252988   4.453   7.405   7.867  0.5352  0.2877 -0.5625
17183SOL     OW52989   5.230   7.347  10.462 -0.3155  0.4753  0.4683
17183SOL    HW152990   5.212   7.305  10.546 -0.0216  0.3643  0.4762
17183SOL    HW252991   5.308   7.302  10.429  0.1381  1.1672  0.5797
17184SOL     OW52992   4.846   7.512  10.262 -0.4644 -0.1903  0.2950
17184SOL    HW152993   4.885   7.476  10.342 -1.9283  0.2345  1.2278
17184SOL    HW252994   4.786   7.443  10.231  0.3279 -0.4903 -0.6581
17185SOL     OW52995   3.566   0.763   7.362  0.1266  0.1178 -0.6568
17185SOL    HW152996   3.539   0.708   7.436 -0.7406  0.0612 -1.0020
17185SOL    HW252997   3.636   0.818   7.398 -1.8804  1.8040  0.9696
17186SOL     OW52998   5.178   7.433   6.545 -0.0725 -0.3278 -0.3383
17186SOL    HW152999   5.242   7.369   6.576 -0.0644 -0.9816 -1.6194
17186SOL    HW253000   5.178   7.422   6.450 -0.9639  0.7455 -0.4827
17187SOL     OW53001   3.855   6.658  10.547 -0.8932  1.5152  0.3492
17187SOL    HW153002   3.862   6.753  10.550 -1.3283  1.5357  0.7582
17187SOL    HW253003   3.835   6.632  10.637 -0.1848  0.9894  0.3659
17188SOL     OW53004   6.118   7.352   8.527 -0.2443 -0.0864 -0.1276
17188SOL    HW153005   6.210   7.326   8.529 -0.0423  0.6140  1.3044
17188SOL    HW253006   6.086   7.332   8.615 -1.3188  0.1928 -0.4357
17189SOL     OW53007   3.826   7.274   6.988  0.1384 -0.5519  0.1396
17189SOL    HW153008   3.756   7.210   6.983  0.4109 -0.8965  0.6737
17189SOL    HW253009   3.888   7.248   6.920 -0.4428 -0.0054 -0.6108
17190SOL     OW53010   4.430   6.615   7.758  0.0420 -0.3368  0.0784
17190SOL    HW153011   4.460   6.592   7.670 -0.1227  1.1262 -0.3902
17190SOL    HW253012   4.496   6.675   7.791 -1.0761  0.9829  0.0066
17191SOL     OW53013   5.332   7.546   6.934 -0.2054 -0.2903  0.6235
17191SOL    HW153014   5.425   7.525   6.926 -0.5238 -1.1820 -1.1334
17191SOL    HW253015   5.309   7.588   6.852 -1.1540  0.8634  1.4451
17192SOL     OW53016   5.051   7.139   6.423 -0.1374 -0.4459  0.2718
17192SOL    HW153017   5.108   7.087   6.366  1.8818  1.4959  0.3727
17192SOL    HW253018   5.009   7.202   6.364  1.7327  1.3767  0.7804
17193SOL     OW53019   4.794   7.591   6.887  0.0152 -0.8763  0.1023
17193SOL    HW153020   4.706   7.592   6.923  0.3903 -0.5738  1.0667
17193SOL    HW253021   4.851   7.575   6.963  0.7881 -0.9807 -0.4819
17194SOL     OW53022   4.814   1.341   8.837  0.7966  0.5700  0.7862
17194SOL    HW153023   4.835   1.249   8.823  1.6099  0.8700 -0.1168
17194SOL    HW253024   4.897   1.387   8.821  0.2370  1.5129  0.5217
17195SOL     OW53025   5.771   0.124   8.407 -0.2864  0.6870 -0.0045
17195SOL    HW153026   5.824   0.203   8.419  2.1002 -0.8160  0.0166
17195SOL    HW253027   5.745   0.126   8.315  0.1606  1.2503 -0.1264
17196SOL     OW53028   6.853   0.484   6.689 -0.1630  0.0821  0.2408
17196SOL    HW153029   6.789   0.541   6.646 -1.3397 -0.1748  1.5793
17196SOL    HW253030   6.885   0.427   6.618 -0.7694  0.7886 -0.6297
17197SOL     OW53031   2.736   7.387   7.582 -0.1358  0.1629 -0.3907
17197SOL    HW153032   2.760   7.294   7.590 -0.3088  0.2279  1.4367
17197SOL    HW253033   2.665   7.398   7.646 -1.6256  1.0921 -2.1344
17198SOL     OW53034   3.771   0.886   7.509  0.2851  0.0579 -0.2771
17198SOL    HW153035   3.771   0.937   7.589 -1.2950 -0.8916  0.3710
17198SOL    HW253036   3.851   0.832   7.514  1.9912  2.3578 -0.9903
17199SOL     OW53037   4.617   0.382   7.379 -0.0379 -0.2061 -0.1763
17199SOL    HW153038   4.574   0.458   7.418 -1.0419 -1.3764  1.1146
17199SOL    HW253039   4.706   0.384   7.412  0.3861  1.2004 -1.3361
17200SOL     OW53040   4.105   0.674   9.269 -0.4840 -0.0001  0.2030
17200SOL    HW153041   4.067   0.587   9.261  1.0607 -0.8511  1.4682
17200SOL    HW253042   4.114   0.705   9.179 -1.9337 -0.7316 -0.2212
17201SOL     OW53043   2.477   7.963   8.388 -0.2854 -0.0774  0.1502
17201SOL    HW153044   2.434   8.030   8.442  0.4210  0.0753  0.5348
17201SOL    HW253045   2.416   7.889   8.389 -0.0440 -0.2802  1.6185
17202SOL     OW53046   5.722   7.973   8.148  0.8834 -0.1505  0.1331
17202SOL    HW153047   5.794   7.966   8.086  0.7342  1.2154 -0.2268
17202SOL    HW253048   5.706   7.883   8.176  2.2951 -0.5532 -0.2601
17203SOL     OW53049   3.972   7.286   5.775  0.1383 -0.3183  0.1324
17203SOL    HW153050   3.888   7.306   5.815  0.3415 -0.8865  0.8459
17203SOL    HW253051   4.004   7.209   5.821  0.3305 -1.0659 -1.1938
17204SOL     OW53052   3.160   6.298   8.116 -0.6424  0.2267 -0.0167
17204SOL    HW153053   3.080   6.248   8.133 -0.4377  0.3829  1.4817
17204SOL    HW253054   3.201   6.308   8.202 -0.6553  2.9488 -0.2688
17205SOL     OW53055   5.552   6.909   8.018  0.0464 -0.3159  0.2816
17205SOL    HW153056   5.491   6.963   8.067  0.9581  0.4669  0.5860
17205SOL    HW253057   5.516   6.905   7.930 -0.3809  0.2218  0.4316
17206SOL     OW53058   4.755   7.852   8.247  0.6184  0.0688 -0.1297
17206SOL    HW153059   4.744   7.947   8.252  0.1878 -0.0079  0.4569
17206SOL    HW253060   4.830   7.833   8.305 -0.1731 -0.0933  0.8649
17207SOL     OW53061   3.353   7.231   8.382 -0.1864  0.6134 -0.0635
17207SOL    HW153062   3.374   7.210   8.473  1.3757 -0.3105 -0.5908
17207SOL    HW253063   3.433   7.272   8.348 -0.6670  0.7400 -1.0803
17208SOL     OW53064   3.554   6.677   7.507  0.5030 -0.2194  0.6168
17208SOL    HW153065   3.495   6.738   7.550 -0.1447 -1.1866  1.1465
17208SOL    HW253066   3.504   6.643   7.433  0.5430 -0.7163  0.8106
17209SOL     OW53067   4.932   7.723   9.603  0.2325 -0.3259 -0.0596
17209SOL    HW153068   4.930   7.698   9.510  1.3719 -1.3555  0.1616
17209SOL    HW253069   4.840   7.728   9.628 -0.1632  1.6659 -1.6444
17210SOL     OW53070   4.438   0.438   8.143  0.0467 -0.0603  0.4227
17210SOL    HW153071   4.386   0.466   8.218 -1.7127  0.4073 -0.9223
17210SOL    HW253072   4.383   0.373   8.098 -0.6588  2.3363 -2.4971
17211SOL     OW53073   4.961   1.983   7.074 -0.1917 -0.0555 -0.5223
17211SOL    HW153074   4.894   1.950   7.134  0.1900  0.2366  0.0757
17211SOL    HW253075   4.912   2.013   6.998 -0.7740  0.4267  0.0302
17212SOL     OW53076   6.112   0.230   7.467  0.8669 -0.2254 -0.4096
17212SOL    HW153077   6.091   0.271   7.383  0.3094  0.5037  0.0637
17212SOL    HW253078   6.030   0.186   7.492  1.1932 -0.8852 -0.4926
17213SOL     OW53079   4.940   7.467   7.381 -0.2791  0.1784 -0.2907
17213SOL    HW153080   4.958   7.380   7.418 -2.9289  0.0378  0.8965
17213SOL    HW253081   4.994   7.527   7.432  0.5408 -0.6346 -0.1816
17214SOL     OW53082   3.878   5.494   9.154  0.1846  0.0048  0.3492
17214SOL    HW153083   3.909   5.468   9.067  0.7594 -0.3737  0.6644
17214SOL    HW253084   3.848   5.585   9.142 -2.3348 -0.9028 -0.8884
17215SOL     OW53085   6.125   7.923   7.231  0.1413  0.1259 -0.2102
17215SOL    HW153086   6.206   7.973   7.246 -0.3442  0.5198  1.2823
17215SOL    HW253087   6.151   7.832   7.243  0.3346  0.2598  0.4074
17216SOL     OW53088   5.777   0.656   7.085 -0.3660  0.1136 -0.2414
17216SOL    HW153089   5.753   0.585   7.144 -0.0174 -0.3344 -0.6285
17216SOL    HW253090   5.860   0.689   7.120  0.0126 -0.3726 -0.6596
17217SOL     OW53091   4.377   1.441   9.176 -0.0553  0.4502 -0.6477
17217SOL    HW153092   4.328   1.470   9.253  1.2929 -0.3521  0.5473
17217SOL    HW253093   4.311   1.398   9.121 -1.2931  2.1931 -0.6000
17218SOL     OW53094   4.135   1.860   8.797  0.1203 -0.4484  0.5704
17218SOL    HW153095   4.186   1.934   8.829  0.2220  0.1006 -0.7634
17218SOL    HW253096   4.046   1.875   8.830 -0.3128  1.3352 -1.2095
17219SOL     OW53097   3.428   7.772  10.374  0.1468 -0.4078 -0.1688
17219SOL    HW153098   3.420   7.851  10.427 -0.4782 -0.8906  0.4796
17219SOL    HW253099   3.515   7.779  10.333  1.7981 -1.1498  2.8583
17220SOL     OW53100   3.713   6.233   9.245  0.1046  0.5357 -0.1355
17220SOL    HW153101   3.755   6.188   9.171  0.0188  1.0296 -0.4911
17220SOL    HW253102   3.621   6.211   9.237  0.3077 -0.7539  0.7911
17221SOL     OW53103   4.887   0.883   8.580 -0.0129  0.0504  0.2209
17221SOL    HW153104   4.795   0.876   8.605  0.2048  0.3358  1.1466
17221SOL    HW253105   4.931   0.812   8.626  0.1968 -0.2222 -0.3936
17222SOL     OW53106   4.806   7.252  11.874 -0.8155  0.1924  0.0070
17222SOL    HW153107   4.886   7.268  11.924 -0.1696  0.0145 -0.9555
17222SOL    HW253108   4.805   7.320  11.808 -0.9360 -0.4024 -0.6102
17223SOL     OW53109   5.158   7.772  11.004 -0.4368 -0.2719 -0.2784
17223SOL    HW153110   5.177   7.824  11.082  0.3946 -1.9244  0.6879
17223SOL    HW253111   5.065   7.784  10.988 -0.6677 -0.0694  1.1181
17224SOL     OW53112   4.355   7.274   8.835 -0.5849  0.2909 -0.3788
17224SOL    HW153113   4.424   7.220   8.796 -0.9297 -1.5972  1.4428
17224SOL    HW253114   4.349   7.244   8.925 -3.4563  0.7177 -0.3377
17225SOL     OW53115   5.263   7.425   8.753  1.1600 -0.1974 -0.4408
17225SOL    HW153116   5.237   7.475   8.830 -2.5973 -1.8862 -0.3744
17225SOL    HW253117   5.337   7.372   8.781  0.0787 -0.5456  1.9847
17226SOL     OW53118   4.261   6.487  10.774 -0.7331 -0.0619  0.1944
17226SOL    HW153119   4.178   6.476  10.820 -0.4109  1.0155  1.0608
17226SOL    HW253120   4.324   6.510  10.842  0.5776 -2.0976 -0.2575
17227SOL     OW53121   4.618   7.761  12.387  0.4717 -0.1640 -0.0758
17227SOL    HW153122   4.537   7.739  12.432  1.3470  1.7775  2.7292
17227SOL    HW253123   4.675   7.685  12.398  0.6319  0.2367  2.1819
17228SOL     OW53124   4.785   7.521  11.088 -0.3232  0.0912  0.0188
17228SOL    HW153125   4.738   7.571  11.022  1.6218 -0.0510 -1.5960
17228SOL    HW253126   4.877   7.547  11.076  0.5140 -2.4358  0.3566
17229SOL     OW53127   5.461   6.409  10.952 -0.2792 -0.1364 -0.4662
17229SOL    HW153128   5.415   6.436  10.872 -1.1064 -1.1882 -0.3644
17229SOL    HW253129   5.545   6.456  10.948 -1.1197  1.4166 -0.9187
17230SOL     OW53130   4.770   1.392  11.680 -0.4443 -0.4287 -0.0547
17230SOL    HW153131   4.768   1.476  11.725  0.5805 -0.4764  0.1193
17230SOL    HW253132   4.848   1.396  11.624 -0.3166 -1.2873  0.0349
17231SOL     OW53133   5.824   0.454  10.289 -0.1508  0.6959  0.0659
17231SOL    HW153134   5.814   0.487  10.200  0.3609  0.7661  0.0295
17231SOL    HW253135   5.919   0.444  10.301 -0.2710 -0.5982  0.1289
17232SOL     OW53136   4.769   7.718   7.902  0.4953  0.2605  0.1740
17232SOL    HW153137   4.692   7.687   7.856  0.6673  0.3864 -0.2071
17232SOL    HW253138   4.798   7.795   7.852  0.9537  0.1246  0.2202
17233SOL     OW53139   5.097   7.210  11.003 -0.1983 -0.3681 -0.3514
17233SOL    HW153140   5.018   7.243  11.046 -0.7336 -0.4817 -1.2059
17233SOL    HW253141   5.168   7.266  11.036 -0.7674  0.2894 -0.2127
17234SOL     OW53142   4.533   7.401   9.617  0.1031  0.1286  0.1405
17234SOL    HW153143   4.452   7.452   9.617 -0.3885 -0.6209 -0.9861
17234SOL    HW253144   4.579   7.428   9.537  3.0875  3.6940  2.6893
17235SOL     OW53145   3.338   7.060   0.498 -0.0872 -0.1640 -0.2079
17235SOL    HW153146   3.250   7.068   0.461  0.6940  0.4475 -2.0811
17235SOL    HW253147   3.395   7.092   0.428  1.7585 -2.1403  0.3241
17236SOL     OW53148   5.913   7.398  10.962  1.1886 -0.5647  0.1439
17236SOL    HW153149   5.913   7.458  10.887  3.6253  0.9240  1.2402
17236SOL    HW253150   5.857   7.441  11.027  1.5523 -0.3329  0.3034
17237SOL     OW53151   4.757   0.084  11.163  0.7330  0.5082 -0.0009
17237SOL    HW153152   4.720  -0.004  11.166  2.7760 -0.4981 -1.3932
17237SOL    HW253153   4.692   0.136  11.116 -0.0293 -0.5404 -0.1355
17238SOL     OW53154   5.221   0.057   9.165  0.6999 -0.3578  0.0218
17238SOL    HW153155   5.193   0.042   9.255  0.1548 -0.4583 -0.1626
17238SOL    HW253156   5.149   0.024   9.112  1.0086 -0.2716 -0.4502
17239SOL     OW53157   4.007   7.687  11.219  0.3574 -0.1267  0.1831
17239SOL    HW153158   4.064   7.755  11.256  1.5308 -0.3149 -1.2176
17239SOL    HW253159   4.062   7.639  11.158 -0.1440 -3.0352  1.8231
17240SOL     OW53160   4.060   0.812   0.186  0.5609 -0.8278 -0.1049
17240SOL    HW153161   4.120   0.879   0.219  0.3231  0.2033 -1.6349
17240SOL    HW253162   4.110   0.731   0.187  2.1647  0.0651 -1.6729
17241SOL     OW53163   5.386   7.522   9.021 -0.2496 -0.3565  0.4355
17241SOL    HW153164   5.368   7.611   8.988 -1.2309 -1.5171 -2.4477
17241SOL    HW253165   5.306   7.497   9.067 -0.1063  0.0884  0.9431
17242SOL     OW53166   4.972   7.500   7.066  0.2490 -0.2254  0.1056
17242SOL    HW153167   4.940   7.460   7.146  2.0820 -0.2711  0.8833
17242SOL    HW253168   5.029   7.433   7.026  1.2524  0.6296  0.0453
17243SOL     OW53169   4.416   6.619  10.952  0.2182 -0.5957  0.0025
17243SOL    HW153170   4.357   6.694  10.960  2.1235  0.9885 -0.0253
17243SOL    HW253171   4.434   6.593  11.042  2.5499  1.5430  0.2646
17244SOL     OW53172   4.302   7.318  10.800  0.4181 -0.2442 -0.2493
17244SOL    HW153173   4.360   7.374  10.852 -2.1655  2.1614  0.2791
17244SOL    HW253174   4.292   7.363  10.717  0.0685 -1.1234 -0.6965
17245SOL     OW53175   6.662   7.897   9.920  0.1826  0.2978 -0.5236
17245SOL    HW153176   6.631   7.975   9.967 -0.0277 -0.8077  1.2891
17245SOL    HW253177   6.708   7.846   9.987  2.5978  0.0562 -2.2653
17246SOL     OW53178   5.821   1.641  10.751 -0.3568 -0.4104 -0.1201
17246SOL    HW153179   5.856   1.720  10.708 -0.0692  0.7208  2.0520
17246SOL    HW253180   5.774   1.595  10.681  0.4558  1.0820 -1.7343
17247SOL     OW53181   4.461   0.488   9.140 -0.2626 -0.3434  0.2908
17247SOL    HW153182   4.377   0.441   9.138 -0.1637 -0.5277  0.4224
17247SOL    HW253183   4.438   0.578   9.163 -0.6869  0.1754 -1.9528
17248SOL     OW53184   4.711   0.394  11.550  0.0195  0.6337 -0.4873
17248SOL    HW153185   4.776   0.338  11.592  1.7598  2.5945 -0.4148
17248SOL    HW253186   4.753   0.424  11.469 -1.4082  0.7668 -1.2231
17249SOL     OW53187   4.612   7.387  10.077 -0.4876  1.1085  0.5392
17249SOL    HW153188   4.658   7.461  10.038 -0.2557  1.3409  1.2338
17249SOL    HW253189   4.677   7.316  10.079 -0.3733  1.2216  0.8748
17250SOL     OW53190   3.981   1.746  11.819 -0.4740 -0.3551 -0.1467
17250SOL    HW153191   3.934   1.804  11.759 -0.8512 -1.5541 -1.0478
17250SOL    HW253192   4.017   1.677  11.763  1.2314 -0.2042  0.6993
17251SOL     OW53193   5.343   7.124   0.496  0.0726 -0.1004 -0.0941
17251SOL    HW153194   5.264   7.089   0.539 -0.1645 -0.0211 -0.4625
17251SOL    HW253195   5.416   7.089   0.548 -0.2367  1.3970  1.4436
17252SOL     OW53196   4.745   0.006   0.134 -0.1731  0.1169  0.0538
17252SOL    HW153197   4.682   0.014   0.205  0.1066 -2.6735  0.7477
17252SOL    HW253198   4.822   0.054   0.164 -1.2569  1.9509  0.0256
17253SOL     OW53199   3.628   7.585  11.493 -0.4256 -0.4612  0.1825
17253SOL    HW153200   3.627   7.554  11.584  0.1951  1.6492  0.9898
17253SOL    HW253201   3.546   7.632  11.483  0.6367  1.6274  0.6167
17254SOL     OW53202   4.324   7.456  10.111 -0.2354  0.4642 -0.2018
17254SOL    HW153203   4.295   7.415  10.030  1.2105 -1.0539  0.0032
17254SOL    HW253204   4.418   7.471  10.098  0.1971 -0.5948  1.4929
17255SOL     OW53205   3.845   7.023  11.602 -0.1862  0.2373  0.1062
17255SOL    HW153206   3.778   7.089  11.620  0.6284  1.2969 -0.6077
17255SOL    HW253207   3.927   7.066  11.625  0.4410 -0.1730 -1.2642
17256SOL     OW53208   5.668   1.513   8.424  0.1438 -0.1474 -0.9058
17256SOL    HW153209   5.763   1.524   8.433  0.1839  0.1266 -1.6653
17256SOL    HW253210   5.631   1.573   8.489  0.4829 -0.1829 -0.6744
17257SOL     OW53211   4.142   0.710   8.367 -0.5688  0.7746 -0.1064
17257SOL    HW153212   4.237   0.718   8.358 -0.6509  1.4191 -0.4189
17257SOL    HW253213   4.108   0.737   8.282 -0.9687 -0.8602 -0.5009
17258SOL     OW53214   4.702   0.183   8.683 -0.8505 -0.7901  0.3101
17258SOL    HW153215   4.747   0.158   8.602 -0.7540 -0.8511  0.3825
17258SOL    HW253216   4.646   0.109   8.703  0.4477 -1.5561  1.2726
17259SOL     OW53217   4.631   0.060  10.453 -0.0994 -0.3787  0.7029
17259SOL    HW153218   4.537   0.062  10.473  0.1210  0.3172  1.7741
17259SOL    HW253219   4.672   0.101  10.529  1.0603 -0.4608  0.1393
17260SOL     OW53220   4.074   7.889  12.011  0.5981 -0.2871 -0.1446
17260SOL    HW153221   4.165   7.906  12.034  0.9143  0.0037 -1.4794
17260SOL    HW253222   4.056   7.952  11.940 -0.1708 -1.3352 -0.9071
17261SOL     OW53223   5.600   5.569  10.200  0.4647  0.1341 -0.6998
17261SOL    HW153224   5.563   5.559  10.288  0.4054  0.3679 -0.6983
17261SOL    HW253225   5.674   5.509  10.199 -1.0653 -1.8543 -1.3519
17262SOL     OW53226   4.024   0.628  11.273 -0.1662  0.1990 -0.2555
17262SOL    HW153227   3.977   0.710  11.260  1.3068  1.2411  0.6672
17262SOL    HW253228   4.089   0.648  11.341  0.0159 -1.8209  0.2332
17263SOL     OW53229   5.168   7.799   8.671  0.0841 -0.1541 -0.4591
17263SOL    HW153230   5.170   7.730   8.737  0.8423 -1.7542 -2.0626
17263SOL    HW253231   5.234   7.862   8.700  0.7640 -1.0797  0.0701
17264SOL     OW53232   6.363   1.017  10.180 -0.2536 -0.0835  0.2820
17264SOL    HW153233   6.337   0.969  10.101 -1.0975 -0.4990  0.8008
17264SOL    HW253234   6.334   0.962  10.253 -1.9504  1.5468  0.9209
17265SOL     OW53235   6.090   0.228   8.158 -0.1954 -0.4993 -0.3782
17265SOL    HW153236   6.081   0.184   8.243  1.2849  0.3928  0.2810
17265SOL    HW253237   6.000   0.240   8.128 -0.6984 -2.2153  0.3220
17266SOL     OW53238   5.792   0.354   8.236 -0.2591 -0.4600 -0.6178
17266SOL    HW153239   5.704   0.329   8.208 -0.8895  0.0213  0.8580
17266SOL    HW253240   5.790   0.450   8.241  0.1047 -0.4857  0.1664
17267SOL     OW53241   6.803   0.930  10.880  0.1375 -0.7090  0.1304
17267SOL    HW153242   6.880   0.874  10.891  1.2259  0.6241 -0.3468
17267SOL    HW253243   6.789   0.933  10.785 -0.6266 -1.0657  0.2212
17268SOL     OW53244   4.835   6.839  10.877  0.1783  0.6005  0.1271
17268SOL    HW153245   4.760   6.893  10.904  0.5369  1.0054  0.3395
17268SOL    HW253246   4.815   6.813  10.788 -0.3112  0.5390  0.2533
17269SOL     OW53247   3.800   7.913  10.542 -0.0581 -0.0297 -0.2934
17269SOL    HW153248   3.752   7.966  10.605  0.9086 -1.1276  1.4370
17269SOL    HW253249   3.766   7.941  10.456 -1.5725  1.3355  0.6959
17270SOL     OW53250   6.352   1.641  10.064 -0.2394 -0.2393 -0.5319
17270SOL    HW153251   6.355   1.669  10.155  0.4583  0.4081 -0.7434
17270SOL    HW253252   6.430   1.587  10.052 -0.5352 -0.6427 -0.6415
17271SOL     OW53253   3.983   7.448   0.097  0.2016  0.6013  0.3215
17271SOL    HW153254   3.949   7.367   0.136 -1.1438  1.0308  0.0676
17271SOL    HW253255   4.077   7.433   0.092 -0.0211 -0.9813  0.2191
17272SOL     OW53256   5.936   7.615  10.516  0.5084 -0.1362  0.2363
17272SOL    HW153257   5.991   7.537  10.525 -0.4344 -1.0460 -1.3755
17272SOL    HW253258   5.933   7.631  10.422  0.0539  1.4012  0.4893
17273SOL     OW53259   4.926   6.721  11.291  0.0493 -0.4022  0.1422
17273SOL    HW153260   4.891   6.650  11.346 -0.4567 -1.6079 -1.6287
17273SOL    HW253261   4.856   6.739  11.229  1.5248 -0.9432 -1.7598
17274SOL     OW53262   5.822   6.341   8.629  0.6443  0.1751  0.0377
17274SOL    HW153263   5.796   6.249   8.629 -0.5227  0.4408 -1.7560
17274SOL    HW253264   5.917   6.339   8.636  0.7162 -1.2204 -0.9055
17275SOL     OW53265   4.345   7.555   9.751  0.5515  0.4179  0.0115
17275SOL    HW153266   4.264   7.606   9.748 -0.4796 -1.0321  1.4233
17275SOL    HW253267   4.410   7.616   9.787 -0.7702  0.6607  2.1609
17276SOL     OW53268   5.341   1.816  11.653  0.0951  0.0434 -0.4352
17276SOL    HW153269   5.286   1.892  11.637  1.3587  0.8909 -0.9298
17276SOL    HW253270   5.426   1.840  11.616  0.9778 -0.9614  0.8660
17277SOL     OW53271   4.629   7.629  10.643 -0.0651 -0.4907 -0.0342
17277SOL    HW153272   4.557   7.626  10.706 -1.0981  2.7278 -0.8778
17277SOL    HW253273   4.695   7.571  10.680 -1.8724 -1.1787  2.3741
17278SOL     OW53274   4.984   0.463   8.085  0.6930  0.0957  0.0021
17278SOL    HW153275   5.029   0.403   8.145 -0.4359 -1.1034 -0.2981
17278SOL    HW253276   4.893   0.464   8.117  0.6947  1.7629  0.0636
17279SOL     OW53277   6.322   0.343  10.006 -0.0164  0.4998  0.5529
17279SOL    HW153278   6.228   0.324  10.013  0.0990 -0.8027 -0.8315
17279SOL    HW253279   6.340   0.404  10.077 -1.6787 -0.1456  1.5717
17280SOL     OW53280   4.689   0.683   9.373 -0.2029  1.2856  0.5239
17280SOL    HW153281   4.715   0.676   9.465 -0.1208 -0.3316  0.4079
17280SOL    HW253282   4.594   0.675   9.374 -0.0610 -1.4450  0.3253
17281SOL     OW53283   5.251   6.932   9.686 -0.2389  0.4650  0.1006
17281SOL    HW153284   5.301   6.869   9.635  0.3719  1.0008  0.0210
17281SOL    HW253285   5.265   7.016   9.640 -2.0673  0.4566 -0.5390
17282SOL     OW53286   4.657   6.571   9.455 -0.7532 -0.3610 -0.1679
17282SOL    HW153287   4.569   6.606   9.471 -0.0795  1.8498 -0.8741
17282SOL    HW253288   4.645   6.508   9.383 -1.7050  0.2751 -0.5967
17283SOL     OW53289   6.935   5.966  10.114 -0.2289  0.0773  0.4429
17283SOL    HW153290   6.983   6.009  10.042  1.1327 -0.7285  0.8320
17283SOL    HW253291   6.873   6.032  10.144  0.0048  0.8438 -0.6899
17284SOL     OW53292   5.490   0.865  11.469 -0.5599  0.1818 -0.4068
17284SOL    HW153293   5.582   0.872  11.496 -0.4673 -0.9992 -0.3835
17284SOL    HW253294   5.441   0.868  11.551 -0.4452 -0.6066 -0.3002
17285SOL     OW53295   3.686   7.581  11.773 -0.7038 -0.1445  0.4161
17285SOL    HW153296   3.747   7.655  11.773 -0.5673 -0.2444  1.0353
17285SOL    HW253297   3.676   7.559  11.866 -0.5492 -1.0629  0.2241
17286SOL     OW53298   5.730   0.871   0.611  0.0799  0.2006 -0.4255
17286SOL    HW153299   5.794   0.941   0.623  0.3274 -0.0155 -0.4759
17286SOL    HW253300   5.770   0.812   0.547  0.6348 -0.8642  0.8317
17287SOL     OW53301   6.359   7.762  12.456 -0.0040  0.2269 -0.4621
17287SOL    HW153302   6.449   7.786  12.434 -0.1013 -0.0195 -1.1630
17287SOL    HW253303   6.324   7.839  12.500  0.5532  0.3201 -0.1765
17288SOL     OW53304   3.469   1.145   0.404 -0.3376 -0.7555  0.1028
17288SOL    HW153305   3.385   1.190   0.392  0.3778  0.2168 -1.7484
17288SOL    HW253306   3.526   1.212   0.442  0.6467 -0.0998 -2.3586
17289SOL     OW53307   5.331   0.230  11.135 -0.2301  0.0196  0.2164
17289SOL    HW153308   5.286   0.282  11.201  0.7258 -0.0793  0.9644
17289SOL    HW253309   5.418   0.271  11.127 -0.0425 -0.4729 -0.3629
17290SOL     OW53310   6.568   0.436   0.060  0.0106  0.4937  0.5823
17290SOL    HW153311   6.541   0.393   0.141 -0.0479 -1.0971 -0.2527
17290SOL    HW253312   6.649   0.391   0.034 -0.8149 -0.1292 -1.0593
17291SOL     OW53313   4.748   7.272  10.902 -0.0208  0.0865  0.2681
17291SOL    HW153314   4.658   7.301  10.897 -0.2285 -0.6159 -0.2765
17291SOL    HW253315   4.768   7.241  10.814  0.1638 -1.4282  0.8175
17292SOL     OW53316   4.175   7.525  11.084 -0.2021 -0.2756 -0.5435
17292SOL    HW153317   4.260   7.525  11.039  0.0756  1.5112 -0.0830
17292SOL    HW253318   4.114   7.487  11.021  0.5745  0.2517 -1.6290
17293SOL     OW53319   4.172   7.312  11.268 -0.1743 -0.1988  0.0914
17293SOL    HW153320   4.266   7.323  11.282 -0.3283 -0.9789  2.0834
17293SOL    HW253321   4.150   7.376  11.201  1.5153  1.0231  0.6382
17294SOL     OW53322   4.086   6.207  11.581 -0.1670  0.1424 -0.4393
17294SOL    HW153323   4.139   6.286  11.571 -0.4346  0.1231 -2.5441
17294SOL    HW253324   4.005   6.237  11.622  0.2268  0.7210 -0.0774
17295SOL     OW53325   4.415   0.432  12.170 -0.0278 -0.1383  0.6399
17295SOL    HW153326   4.381   0.519  12.151  1.0175  0.2938  0.6576
17295SOL    HW253327   4.449   0.401  12.086  1.4413  0.3305  1.0337
17296SOL     OW53328   6.161   0.025  11.704  0.2089  0.0681 -0.1640
17296SOL    HW153329   6.205   0.032  11.619 -0.9979  0.0630 -0.8095
17296SOL    HW253330   6.129  -0.065  11.707  0.4995 -0.0199  0.4361
17297SOL     OW53331   3.407   5.933  11.895  0.3490 -0.3430 -0.0363
17297SOL    HW153332   3.502   5.934  11.905  0.4261 -0.3932 -0.7390
17297SOL    HW253333   3.374   5.917  11.984  1.0097 -0.8820  0.1244
17298SOL     OW53334   3.667   0.025   0.642  0.2387  0.7023 -0.1285
17298SOL    HW153335   3.642   0.023   0.550 -0.1079 -0.3709 -0.0268
17298SOL    HW253336   3.663   0.117   0.666 -3.7479  0.6660 -0.1147
17299SOL     OW53337   5.340   0.048   1.304  0.1441 -0.1091 -0.4973
17299SOL    HW153338   5.363   0.136   1.333  0.5507 -1.4250  3.9862
17299SOL    HW253339   5.410   0.024   1.243  0.3727  2.3640 -1.3322
17300SOL     OW53340   4.945   6.997  11.910  0.4415  0.0666  0.3958
17300SOL    HW153341   5.007   6.928  11.888  0.1498  0.5363 -2.2274
17300SOL    HW253342   4.927   6.985  12.003  1.2727 -2.6452  0.2783
17301SOL     OW53343   4.078   0.840  11.689  0.0970 -0.0895 -0.1162
17301SOL    HW153344   4.040   0.866  11.773 -1.2255  0.9963 -1.0126
17301SOL    HW253345   4.165   0.880  11.688  0.5204 -0.9073  1.1047
17302SOL     OW53346   6.145   6.693  12.198  0.3473  0.0656 -0.0166
17302SOL    HW153347   6.089   6.760  12.159  1.3061  0.7137 -0.3154
17302SOL    HW253348   6.093   6.657  12.270 -0.5052  0.5387 -0.3845
17303SOL     OW53349   5.637   1.141  12.198  0.4663 -0.3672 -0.3499
17303SOL    HW153350   5.690   1.092  12.261  1.2550  0.1263 -0.6132
17303SOL    HW253351   5.613   1.077  12.132 -0.9830 -1.0653  0.7932
17304SOL     OW53352   6.104   7.640  12.385  0.2004  0.1828 -0.7750
17304SOL    HW153353   6.178   7.631  12.444 -0.5269 -0.8118  0.0330
17304SOL    HW253354   6.027   7.632  12.442 -0.5225 -0.7369 -1.8302
17305SOL     OW53355   5.537   7.780  12.098  0.8871 -0.6861 -0.2063
17305SOL    HW153356   5.506   7.806  12.011 -2.8122 -0.2370  1.0910
17305SOL    HW253357   5.518   7.855  12.154  0.4078 -2.0245  1.5133
17306SOL     OW53358   3.814   0.695  11.559 -0.1991  0.0428  0.3613
17306SOL    HW153359   3.783   0.639  11.488  1.2736 -0.2079 -0.1226
17306SOL    HW253360   3.908   0.675  11.566  0.5646  2.8698 -0.2893
17307SOL     OW53361   5.173   5.903  12.267  0.1525 -0.7367 -0.1301
17307SOL    HW153362   5.164   5.914  12.172 -1.3344 -0.8170 -0.0168
17307SOL    HW253363   5.268   5.896  12.281  0.6475  2.1304 -1.2986
17308SOL     OW53364   5.705   0.616  11.523  0.1736  0.5014 -0.0769
17308SOL    HW153365   5.620   0.640  11.559  0.7969  0.5917  1.3902
17308SOL    HW253366   5.711   0.521  11.537 -0.2459  0.2453 -1.4524
17309SOL     OW53367   4.955   0.590  10.755  0.4518 -0.2183  0.1700
17309SOL    HW153368   4.941   0.649  10.681 -0.0774  0.7212  1.0072
17309SOL    HW253369   4.872   0.543  10.764 -0.4631  1.5931  1.8229
17310SOL     OW53370   5.723   0.197   0.672  0.4860 -0.0010  0.0493
17310SOL    HW153371   5.643   0.186   0.724  0.6677  2.8214  1.0827
17310SOL    HW253372   5.790   0.222   0.736  2.1349 -1.7964 -0.8675
17311SOL     OW53373   3.636   0.791   1.711 -0.2846  0.2534 -0.3415
17311SOL    HW153374   3.602   0.881   1.712 -2.5589 -0.5599  0.1608
17311SOL    HW253375   3.680   0.784   1.626  1.8223  2.4350  0.4263
17312SOL     OW53376   6.135   6.506   0.646 -0.0594  0.0581 -0.3898
17312SOL    HW153377   6.043   6.509   0.620 -0.4825  0.4571  1.0756
17312SOL    HW253378   6.133   6.488   0.740  1.3793 -0.3820 -0.4192
17313SOL     OW53379   5.052   7.684  10.506 -0.1718 -0.2532  0.4388
17313SOL    HW153380   5.104   7.764  10.519 -1.7538  0.6759  1.4098
17313SOL    HW253381   5.067   7.633  10.586 -0.9518  0.1684  0.8729
17314SOL     OW53382   5.570   1.357   0.797 -0.2942  0.0783  0.1178
17314SOL    HW153383   5.633   1.357   0.869 -1.4675  0.3354  1.1819
17314SOL    HW253384   5.615   1.313   0.725  1.2462  0.6621  0.6939
17315SOL     OW53385   6.821   0.048   0.424  0.8168 -0.5968 -0.4831
17315SOL    HW153386   6.746   0.086   0.469  1.0882 -0.8656  0.1980
17315SOL    HW253387   6.790   0.035   0.334  0.8610  1.6207 -0.8664
17316SOL     OW53388   5.778   6.998   0.152 -0.0571 -0.1622  0.0773
17316SOL    HW153389   5.843   6.928   0.144  0.8124  0.5611  0.6304
17316SOL    HW253390   5.694   6.952   0.148  0.4830 -1.3898  1.5332
17317SOL     OW53391   4.408   1.119  12.244  0.1493  0.4221  0.2625
17317SOL    HW153392   4.350   1.046  12.265 -0.2214  0.3960 -0.8163
17317SOL    HW253393   4.350   1.189  12.216  0.6092  0.5279 -0.4534
17318SOL     OW53394   6.316   7.247  12.450 -0.8388 -0.4170 -0.2315
17318SOL    HW153395   6.331   7.184  12.379 -0.2055  0.0929 -0.5610
17318SOL    HW253396   6.402   7.286  12.466 -1.0690 -0.1887  0.5023
17319SOL     OW53397   5.760   7.253  10.168 -0.6943 -0.6723  0.0664
17319SOL    HW153398   5.808   7.181  10.208  1.0943 -0.7976 -2.0597
17319SOL    HW253399   5.741   7.313  10.240  1.9033 -1.0717  1.2074
17320SOL     OW53400   4.989   1.480  11.980 -0.1843  0.0265  0.7086
17320SOL    HW153401   5.009   1.555  12.036 -0.1667  0.7272 -0.1962
17320SOL    HW253402   5.050   1.488  11.907 -2.4184  1.1641 -1.1759
17321SOL     OW53403   2.154   6.940  11.043  0.1060 -0.4000 -0.5985
17321SOL    HW153404   2.218   7.002  11.078 -0.8015 -0.7693  1.9075
17321SOL    HW253405   2.185   6.854  11.072 -0.7786 -0.7042 -0.5249
17322SOL     OW53406   5.189   7.518   0.069 -0.1562  0.7461 -0.0788
17322SOL    HW153407   5.167   7.592   0.126  0.4636 -0.8245  2.3673
17322SOL    HW253408   5.139   7.444   0.106 -0.1870 -0.2403 -1.9871
17323SOL     OW53409   4.133   7.980  11.556  0.5917 -0.2586  0.6254
17323SOL    HW153410   4.167   8.038  11.488  0.8562 -3.0258 -1.7648
17323SOL    HW253411   4.206   7.923  11.578 -0.3930 -1.4725  0.8659
17324SOL     OW53412   5.748   0.324   0.422  0.1709  0.6867 -0.0812
17324SOL    HW153413   5.679   0.301   0.484  0.1514  2.1699  0.4790
17324SOL    HW253414   5.705   0.326   0.337 -0.4021  1.2533  0.2184
17325SOL     OW53415   4.663   7.098  12.345 -0.6180 -0.6364  0.1787
17325SOL    HW153416   4.663   7.178  12.397 -3.5160 -1.3169  1.4254
17325SOL    HW253417   4.660   7.128  12.254 -1.6111  0.6748  0.6219
17326SOL     OW53418   4.507   6.967  11.870 -0.1137  0.1942 -0.2279
17326SOL    HW153419   4.535   6.876  11.881 -1.5776 -0.5815 -2.3021
17326SOL    HW253420   4.559   6.999  11.796 -1.9602 -0.0958 -1.7191
17327SOL     OW53421   5.029   7.533  11.426  0.4769  0.4726 -0.3000
17327SOL    HW153422   5.107   7.577  11.391  1.8227 -0.8672  0.8854
17327SOL    HW253423   5.055   7.442  11.435 -1.0134  0.1212  0.7855
17328SOL     OW53424   4.785   6.737   9.756 -0.1169  0.6169 -0.5045
17328SOL    HW153425   4.820   6.760   9.670 -0.8276 -0.4351 -1.1041
17328SOL    HW253426   4.690   6.740   9.745 -0.2141  0.3084  0.1880
17329SOL     OW53427   5.002   7.065  11.370 -0.2096 -0.2650  0.1810
17329SOL    HW153428   5.028   7.133  11.431  5.1255 -0.4039 -1.4753
17329SOL    HW253429   4.971   7.112  11.292  2.0036  0.3491 -0.3824
17330SOL     OW53430   6.114   7.681  12.118 -0.3501  0.1255 -0.3133
17330SOL    HW153431   6.165   7.762  12.108 -0.1035  0.0915  0.6319
17330SOL    HW253432   6.113   7.664  12.212  0.2161 -1.3621 -0.5353
17331SOL     OW53433   6.400   7.882  11.279 -0.3980  0.0477 -0.2455
17331SOL    HW153434   6.441   7.952  11.329  1.1837 -1.3287  0.4986
17331SOL    HW253435   6.419   7.903  11.188  1.2489 -0.0651  0.0403
17332SOL     OW53436   5.808   7.752   0.063  1.0274 -0.3969  0.1779
17332SOL    HW153437   5.735   7.729   0.120  1.1720  0.5220  0.7637
17332SOL    HW253438   5.770   7.809  -0.003  0.6645 -2.2562 -1.2812
17333SOL     OW53439   5.323   7.702   0.489  0.1194 -0.0913  0.0548
17333SOL    HW153440   5.264   7.709   0.414  0.9910 -2.1559 -0.8999
17333SOL    HW253441   5.278   7.643   0.549 -0.3648  1.1903  0.9976
17334SOL     OW53442   6.444   2.813   1.133 -0.4235 -0.1383 -0.6253
17334SOL    HW153443   6.538   2.812   1.119  0.0177  0.4938  1.9771
17334SOL    HW253444   6.426   2.895   1.178 -2.3137 -0.0151 -1.4980
17335SOL     OW53445   6.720   0.807   0.829 -0.0569 -0.0552 -0.2524
17335SOL    HW153446   6.644   0.766   0.869 -1.4098  1.6443 -0.9193
17335SOL    HW253447   6.747   0.746   0.760 -1.5031 -0.2309 -0.7101
17336SOL     OW53448   6.812   2.999   2.928  0.0176  0.3446  0.8040
17336SOL    HW153449   6.863   3.034   3.001 -1.7075  1.9581  1.3497
17336SOL    HW253450   6.730   3.049   2.932 -0.5479 -0.2934 -1.5873
17337SOL     OW53451   7.571   7.371  12.370  0.3655  0.7307 -0.0834
17337SOL    HW153452   7.614   7.437  12.315  1.1431  0.0947 -0.2560
17337SOL    HW253453   7.529   7.422  12.440 -0.3041  1.5243 -1.0303
17338SOL     OW53454   7.095   1.115   1.809 -0.0665  0.1005  0.3200
17338SOL    HW153455   7.032   1.187   1.809 -0.7288 -0.4493  1.2210
17338SOL    HW253456   7.138   1.122   1.894 -0.3449 -0.7327  0.5349
17339SOL     OW53457   6.531   7.899   0.350  0.1702 -0.4258  0.1916
17339SOL    HW153458   6.446   7.913   0.309  0.5692  0.4014 -0.3821
17339SOL    HW253459   6.542   7.974   0.408  0.5509 -0.4695  0.1770
17340SOL     OW53460   6.122   2.211   0.999 -0.0042  0.2598  0.2621
17340SOL    HW153461   6.107   2.214   0.904  3.2641  0.6306 -0.3433
17340SOL    HW253462   6.091   2.296   1.031  0.8880  1.0448 -0.8728
17341SOL     OW53463   5.093   0.936  12.146  0.2749  0.3058  0.2167
17341SOL    HW153464   5.003   0.968  12.154 -0.0699 -0.2490 -1.0726
17341SOL    HW253465   5.084   0.841  12.140  0.8820  0.2875 -0.6014
17342SOL     OW53466   5.504   0.159   1.754 -0.7353 -0.4876  0.5543
17342SOL    HW153467   5.592   0.196   1.758 -0.0219 -1.5116 -2.6770
17342SOL    HW253468   5.460   0.191   1.833  2.0704  1.1874  1.5527
17343SOL     OW53469   7.356   7.845   2.213 -0.7501 -0.1089  0.5760
17343SOL    HW153470   7.310   7.772   2.255 -0.6583 -0.0060  0.8615
17343SOL    HW253471   7.442   7.810   2.191 -0.8708 -0.2243  0.2810
17344SOL     OW53472   6.494   1.606  11.929 -0.6847  0.0937 -0.5043
17344SOL    HW153473   6.563   1.605  11.995 -1.4426 -0.3593  0.2977
17344SOL    HW253474   6.429   1.544  11.961 -2.5694  2.1956 -0.0452
17345SOL     OW53475   7.398   1.002   2.297 -0.1336 -0.1925  0.1321
17345SOL    HW153476   7.441   1.083   2.269 -0.1402 -0.4460 -0.6266
17345SOL    HW253477   7.368   0.961   2.216  1.1923 -1.6935  0.3507
17346SOL     OW53478   5.141   0.720   0.365  0.5748  0.2064 -0.0740
17346SOL    HW153479   5.219   0.664   0.360  0.0442 -0.5825  0.2663
17346SOL    HW253480   5.076   0.666   0.410 -0.0643  0.9806 -0.0548
17347SOL     OW53481   6.127   1.221   1.734  1.0218 -0.0164  0.1244
17347SOL    HW153482   6.076   1.175   1.801 -0.6725  1.5005 -0.0424
17347SOL    HW253483   6.209   1.172   1.729  0.5909 -1.0826  2.2042
17348SOL     OW53484   5.954   2.206   3.747 -0.2848  0.9740 -0.6235
17348SOL    HW153485   5.890   2.277   3.736 -0.3763  1.0648  0.3747
17348SOL    HW253486   5.920   2.155   3.820 -1.1236 -1.1128 -2.3551
17349SOL     OW53487   6.188   1.304  11.060  0.5462 -0.3636 -0.6228
17349SOL    HW153488   6.240   1.227  11.038  1.6975  0.1378  0.2011
17349SOL    HW253489   6.223   1.373  11.004  2.8038  0.6703  1.8162
17350SOL     OW53490   5.818   6.256   1.997 -0.0534 -0.6194 -0.1975
17350SOL    HW153491   5.776   6.335   2.033 -1.4432 -0.6200 -1.7361
17350SOL    HW253492   5.761   6.184   2.024 -0.3082 -0.7787 -1.1328
17351SOL     OW53493   6.624   6.394  12.241  0.6491  0.4824 -0.5399
17351SOL    HW153494   6.545   6.400  12.294 -0.9761 -0.6023 -2.6764
17351SOL    HW253495   6.688   6.447  12.288 -1.0383  0.6636  1.7563
17352SOL     OW53496   7.001   2.286  11.853 -0.0133  0.2958  0.4794
17352SOL    HW153497   6.966   2.295  11.764  0.1594  0.9030  0.4747
17352SOL    HW253498   6.925   2.297  11.910 -0.1729 -0.3629  0.4039
17353SOL     OW53499   6.054   2.001   0.567 -0.5174  0.3481  0.3028
17353SOL    HW153500   6.040   2.065   0.637  0.7138 -0.6701  1.5629
17353SOL    HW253501   6.059   1.917   0.613  1.3093 -0.2504 -0.8919
17354SOL     OW53502   7.409   0.829   1.038  0.1079  0.4854  0.2427
17354SOL    HW153503   7.389   0.741   1.071  1.0038  0.3479  0.4246
17354SOL    HW253504   7.326   0.876   1.047 -0.4231 -0.3695  0.0269
17355SOL     OW53505   0.040   0.424   1.581  0.5711 -0.6684  0.3125
17355SOL    HW153506   0.004   0.415   1.669  0.1511 -0.1710  0.1941
17355SOL    HW253507   0.088   0.506   1.582 -2.2131  1.1138 -0.8346
17356SOL     OW53508   6.444   0.967   0.881  0.4283  0.0024  0.0802
17356SOL    HW153509   6.409   1.056   0.888  0.7330  0.2792 -1.5001
17356SOL    HW253510   6.504   0.971   0.807 -1.5340 -2.1420 -1.7652
17357SOL     OW53511   6.325   2.041   0.600  0.5563  0.0057 -0.8902
17357SOL    HW153512   6.234   2.018   0.579  0.2223 -0.8262  1.2213
17357SOL    HW253513   6.326   2.136   0.601 -0.5182  0.0265 -0.1398
17358SOL     OW53514   7.030   1.085   1.280 -0.4587  0.0663  0.2268
17358SOL    HW153515   7.048   1.004   1.233 -0.0051  0.2614  0.0560
17358SOL    HW253516   7.064   1.154   1.223 -0.0568  0.3145  0.7536
17359SOL     OW53517   6.021   0.688  10.370 -0.6139  0.2834 -0.6850
17359SOL    HW153518   6.010   0.595  10.389  0.2090  0.3365  0.1486
17359SOL    HW253519   6.010   0.731  10.455 -0.3426  0.8872 -0.9478
17360SOL     OW53520   5.188   1.461   1.208  0.1569 -0.0182 -0.2869
17360SOL    HW153521   5.225   1.383   1.250  2.5783  0.9497 -0.4314
17360SOL    HW253522   5.246   1.478   1.134 -1.4741  0.8126 -1.4173
17361SOL     OW53523   6.844   1.660   0.950  0.1936 -0.0425 -0.5711
17361SOL    HW153524   6.867   1.607   0.874 -0.2385  0.7026 -1.2406
17361SOL    HW253525   6.927   1.673   0.996  0.5684  0.0250 -1.2543
17362SOL     OW53526   5.155   1.780   3.333 -0.5587 -0.0917 -0.6121
17362SOL    HW153527   5.121   1.868   3.321  2.2759  1.6489  2.4613
17362SOL    HW253528   5.096   1.740   3.397 -0.0497  0.8327  0.4619
17363SOL     OW53529   6.409   1.130   1.179 -0.0810 -0.1247  0.0826
17363SOL    HW153530   6.397   1.178   1.097 -1.5704  0.7312  0.7571
17363SOL    HW253531   6.357   1.179   1.243  1.5004 -0.4575  1.6813
17364SOL     OW53532   6.746   0.685   1.275 -0.0477  0.1182 -0.1522
17364SOL    HW153533   6.841   0.690   1.264  0.0289 -0.8199  0.0386
17364SOL    HW253534   6.714   0.651   1.192 -0.2646  0.8427 -0.3703
17365SOL     OW53535   7.095   1.491   1.462  0.6645  0.8327 -0.4701
17365SOL    HW153536   7.118   1.474   1.553  1.0959  0.3812 -0.6560
17365SOL    HW253537   7.013   1.443   1.449  0.5868  0.9220 -0.3124
17366SOL     OW53538   5.740   7.811   1.126  0.5961 -0.4975  0.4257
17366SOL    HW153539   5.721   7.807   1.032  0.7324  0.3481  0.3538
17366SOL    HW253540   5.835   7.809   1.132  0.5926 -0.3897  0.5302
17367SOL     OW53541   7.541   0.741   1.335  0.2550 -0.0532 -0.2908
17367SOL    HW153542   7.597   0.810   1.299  0.6885 -0.1736  0.1482
17367SOL    HW253543   7.503   0.699   1.258 -0.4116  0.9990 -0.5501
17368SOL     OW53544   6.963   0.245  10.486  0.5341  0.4413 -0.6271
17368SOL    HW153545   6.883   0.245  10.432 -0.0868  0.9824  0.2636
17368SOL    HW253546   6.939   0.196  10.565  1.2966  0.0361 -0.6345
17369SOL     OW53547   5.648   7.896   1.371  0.3377 -0.0951 -0.0091
17369SOL    HW153548   5.607   7.870   1.289 -1.2447  1.7963  0.1266
17369SOL    HW253549   5.703   7.971   1.349  1.3925 -0.7245  0.3664
17370SOL     OW53550   6.783   0.235   1.361  0.0810  0.6806  0.6229
17370SOL    HW153551   6.721   0.270   1.297  1.5912 -1.2182 -2.0593
17370SOL    HW253552   6.752   0.147   1.379 -0.5946  1.3281  3.0624
17371SOL     OW53553   0.311   1.038   1.043  0.1829 -0.1615  0.5860
17371SOL    HW153554   0.390   0.987   1.027 -1.5272 -2.8522  0.0971
17371SOL    HW253555   0.316   1.063   1.135  1.7072 -0.0271  0.4880
17372SOL     OW53556   5.798   0.951   2.486 -0.1201  0.0232  0.0731
17372SOL    HW153557   5.882   0.921   2.521  0.9779  0.5332 -1.9705
17372SOL    HW253558   5.804   1.047   2.487 -0.3057  0.0539 -0.8735
17373SOL     OW53559   5.435   2.081   0.221  0.3409 -0.8703  0.0158
17373SOL    HW153560   5.344   2.075   0.189  0.4670 -2.6136 -0.1201
17373SOL    HW253561   5.468   2.162   0.183 -1.1988 -0.1238  0.1816
17374SOL     OW53562   5.437   0.471   0.094 -0.1578  0.7005  0.3787
17374SOL    HW153563   5.351   0.436   0.072  0.3868 -0.1335 -0.5071
17374SOL    HW253564   5.456   0.534   0.024 -0.1783  1.1127  0.7423
17375SOL     OW53565   6.863   1.419   2.317 -0.7320  0.0422 -0.1928
17375SOL    HW153566   6.823   1.504   2.336 -1.6361 -0.8332  2.2541
17375SOL    HW253567   6.912   1.397   2.396 -1.7223 -2.3166 -0.1457
17376SOL     OW53568   5.561   6.851  12.381  0.2065  0.3401 -0.1453
17376SOL    HW153569   5.544   6.818  12.470 -0.4461 -0.1122 -0.4300
17376SOL    HW253570   5.630   6.793  12.348 -1.5288 -1.4028 -0.9614
17377SOL     OW53571   6.346   0.346   0.487  0.2843 -0.0880 -0.4704
17377SOL    HW153572   6.366   0.377   0.399  0.6642 -0.6611 -0.5935
17377SOL    HW253573   6.252   0.357   0.496  0.1898 -0.3725 -1.0851
17378SOL     OW53574   6.466   1.886  11.919 -0.5372 -0.1226 -0.1637
17378SOL    HW153575   6.463   1.882  12.015 -0.4304 -1.6257 -0.2004
17378SOL    HW253576   6.555   1.912  11.899 -0.2660 -0.7969  0.1384
17379SOL     OW53577   6.812   0.657  11.216 -0.3918 -0.1582 -0.5838
17379SOL    HW153578   6.853   0.578  11.251 -0.7618 -0.0894  0.0118
17379SOL    HW253579   6.885   0.709  11.182  0.0071 -0.0978  0.3517
17380SOL     OW53580   6.292   0.821   0.124 -0.2747  0.1537 -0.3128
17380SOL    HW153581   6.216   0.797   0.071 -0.2907 -0.2051 -0.1254
17380SOL    HW253582   6.313   0.743   0.175  1.1414 -0.2771 -1.4625
17381SOL     OW53583   5.699   2.799   2.335 -0.1992  0.4615 -0.1242
17381SOL    HW153584   5.640   2.782   2.262  0.4909  1.1406 -0.8703
17381SOL    HW253585   5.761   2.726   2.332  1.0036  1.4738 -1.4835
17382SOL     OW53586   0.021   0.498   1.271  0.5327 -0.1426  0.4305
17382SOL    HW153587   0.115   0.504   1.291  0.1392  1.2340  2.1432
17382SOL    HW253588  -0.014   0.583   1.297 -1.0689 -0.2933 -1.0697
17383SOL     OW53589   5.366   0.681  11.972 -0.0885  0.2630 -0.3543
17383SOL    HW153590   5.271   0.674  11.978 -0.1105  0.8392 -0.0216
17383SOL    HW253591   5.398   0.591  11.983 -0.7461 -0.4883 -3.6015
17384SOL     OW53592   5.620   1.469   1.046 -0.0016  0.1059 -0.1402
17384SOL    HW153593   5.675   1.546   1.056  0.3555 -0.2007  0.3311
17384SOL    HW253594   5.641   1.415   1.123 -0.2523 -0.4497 -0.4583
17385SOL     OW53595   7.173   1.535   3.053 -0.9157  0.2287 -0.8584
17385SOL    HW153596   7.196   1.609   2.997 -0.0290  0.3061 -0.4080
17385SOL    HW253597   7.247   1.475   3.046 -0.8583  0.1745  0.1153
17386SOL     OW53598   7.230   1.509   1.722 -0.8842 -0.5473 -0.5139
17386SOL    HW153599   7.179   1.524   1.801 -0.0194 -1.0918  0.1630
17386SOL    HW253600   7.305   1.568   1.730 -0.8296 -0.5502 -0.9658
17387SOL     OW53601   5.850   0.893   2.161 -0.1379  0.1265 -0.0886
17387SOL    HW153602   5.893   0.914   2.244  0.5255 -0.8506 -0.1750
17387SOL    HW253603   5.921   0.896   2.096  0.0790 -2.5971 -0.0646
17388SOL     OW53604   5.294   2.001   0.807  0.0715  0.1111  0.0031
17388SOL    HW153605   5.278   1.914   0.843 -0.1541  0.2738  0.3065
17388SOL    HW253606   5.373   2.031   0.851  0.8058 -0.3868 -0.9346
17389SOL     OW53607   6.464   2.309   0.042 -0.0948 -0.4373  0.8104
17389SOL    HW153608   6.498   2.230   0.086  1.8085  1.2502  2.5834
17389SOL    HW253609   6.512   2.312  -0.040 -2.9310 -3.0604 -1.1700
17390SOL     OW53610   6.078   7.428  11.727  0.0958  0.0870  0.2674
17390SOL    HW153611   6.149   7.486  11.700 -0.0685  0.5817  0.8845
17390SOL    HW253612   5.998   7.470  11.694  0.0334 -0.1534  0.1073
17391SOL     OW53613   6.088   1.851   1.897 -0.3582 -0.2335  0.2174
17391SOL    HW153614   6.028   1.801   1.841 -0.5316  0.0798  0.1173
17391SOL    HW253615   6.103   1.932   1.848 -0.2775 -0.0843  0.4915
17392SOL     OW53616   0.114   2.050   0.826 -0.2642 -0.1809 -0.1983
17392SOL    HW153617   0.032   2.011   0.797 -0.2247 -0.3783 -0.0471
17392SOL    HW253618   0.133   2.117   0.760  1.0651 -2.2388 -2.0472
17393SOL     OW53619   6.388   7.455   1.828  0.0844  0.0584 -0.5298
17393SOL    HW153620   6.424   7.477   1.743 -0.7856  0.6683 -0.7450
17393SOL    HW253621   6.419   7.365   1.844  0.1934 -0.0888 -1.5079
17394SOL     OW53622   5.165   0.285  10.884 -0.1330 -0.7662 -0.0050
17394SOL    HW153623   5.092   0.259  10.940  1.0090  1.6046  2.8223
17394SOL    HW253624   5.243   0.261  10.933  0.9612  0.5279 -1.0334
17395SOL     OW53625   5.344   7.650   2.058  0.2561 -0.2066  0.0358
17395SOL    HW153626   5.412   7.715   2.038 -0.0442  0.7110  1.8469
17395SOL    HW253627   5.264   7.701   2.070 -0.4152 -1.1215 -0.4395
17396SOL     OW53628   6.397   1.960   1.496 -0.3914  0.5529 -0.3700
17396SOL    HW153629   6.367   1.889   1.553 -2.3623  1.1400 -0.5822
17396SOL    HW253630   6.472   1.924   1.449 -0.9784 -1.1843 -0.0433
17397SOL     OW53631   7.096   0.442   0.396  0.3667  0.1157 -0.3396
17397SOL    HW153632   7.039   0.518   0.387  1.1001  0.6522 -0.5918
17397SOL    HW253633   7.148   0.441   0.315  0.9257 -0.1715  0.0137
17398SOL     OW53634   5.658   1.888   1.018 -0.5362  0.0732 -0.6296
17398SOL    HW153635   5.719   1.960   1.033 -0.2907 -0.4346  1.0464
17398SOL    HW253636   5.587   1.903   1.079 -0.4659 -1.1089 -0.2253
17399SOL     OW53637   5.814   0.201  11.930  0.4957  0.0187 -0.1884
17399SOL    HW153638   5.734   0.236  11.891  0.4253 -0.8942 -0.8913
17399SOL    HW253639   5.784   0.143  11.999  0.5748  0.2975  0.0816
17400SOL     OW53640   6.219   7.756   1.961 -0.4787  0.4494 -0.2149
17400SOL    HW153641   6.152   7.745   2.027 -0.8059  1.4843 -0.3579
17400SOL    HW253642   6.216   7.849   1.938  2.3635  1.0404  1.2410
17401SOL     OW53643   7.804   2.739   0.947  0.0607 -0.0684  0.4283
17401SOL    HW153644   7.756   2.668   0.989  1.4088 -0.7496  0.8937
17401SOL    HW253645   7.894   2.706   0.941  0.0788  0.2271 -2.4374
17402SOL     OW53646   4.746   7.802  10.423  0.1361  0.4291  0.1222
17402SOL    HW153647   4.693   7.880  10.444  1.9749  1.1327  2.6407
17402SOL    HW253648   4.694   7.729  10.456 -0.8778  0.7078 -0.7888
17403SOL     OW53649   6.984   0.793   1.226 -0.4482  0.0773 -0.1620
17403SOL    HW153650   7.053   0.745   1.274  0.6925  0.6236 -1.2076
17403SOL    HW253651   6.991   0.760   1.137 -2.4023 -0.7572 -0.0552
17404SOL     OW53652   4.604   1.059   0.457  0.2243  0.7756 -0.0328
17404SOL    HW153653   4.515   1.093   0.465 -0.1045  0.3014 -1.3769
17404SOL    HW253654   4.615   1.002   0.533 -0.6891  0.6987  0.0463
17405SOL     OW53655   0.062   1.656   2.373 -0.4992 -0.0601  0.0123
17405SOL    HW153656   0.026   1.743   2.354 -1.1378 -0.0571  1.1229
17405SOL    HW253657   0.099   1.627   2.291 -4.0503 -0.5208 -1.6226
17406SOL     OW53658   5.562   1.696   0.075 -0.2183 -0.2962 -0.3307
17406SOL    HW153659   5.559   1.697  -0.021 -0.3422  1.5440 -0.3564
17406SOL    HW253660   5.593   1.609   0.098  0.5105 -0.5316 -2.0780
17407SOL     OW53661   5.941   1.678  11.918 -0.3676  0.4021 -0.5515
17407SOL    HW153662   5.943   1.582  11.922 -1.5063  0.3495 -0.8148
17407SOL    HW253663   5.873   1.698  11.854 -0.8317  1.3870  0.2104
17408SOL     OW53664   7.497   1.164   1.393  0.0224 -0.1147  0.6159
17408SOL    HW153665   7.447   1.244   1.412 -1.1622 -0.6637 -0.1209
17408SOL    HW253666   7.446   1.094   1.434 -0.3401 -0.7935 -0.9469
17409SOL     OW53667   5.359   2.038   0.549 -0.1738 -0.0190 -0.4690
17409SOL    HW153668   5.313   2.016   0.630 -0.8057  1.8037 -0.2778
17409SOL    HW253669   5.298   2.093   0.501  0.6993  0.0086 -1.5832
17410SOL     OW53670   5.337   1.331   0.480 -0.7684 -0.8281 -0.1359
17410SOL    HW153671   5.337   1.364   0.390 -1.1872 -0.0410  0.1395
17410SOL    HW253672   5.245   1.312   0.499 -1.2567  2.2752  1.2368
17411SOL     OW53673   6.480   6.815   0.937 -0.0442  0.2680 -0.7614
17411SOL    HW153674   6.438   6.738   0.974 -0.2088  0.0083 -1.4741
17411SOL    HW253675   6.427   6.837   0.861 -1.2618  2.3539  0.5854
17412SOL     OW53676   7.259   0.047   0.425 -0.0352  0.3536 -0.0418
17412SOL    HW153677   7.186   0.070   0.483 -0.6153  0.4818 -0.8101
17412SOL    HW253678   7.253  -0.048   0.414  0.7865  0.1549  1.0323
17413SOL     OW53679   0.302   2.374   1.080 -0.3224 -0.6488 -0.2890
17413SOL    HW153680   0.213   2.359   1.048 -0.6513  1.0342 -0.2355
17413SOL    HW253681   0.316   2.468   1.070  0.9411 -0.6640  0.9925
17414SOL     OW53682   5.870   0.668  12.123  0.7057 -0.4069 -0.0497
17414SOL    HW153683   5.836   0.718  12.049 -1.5161 -1.3523  0.2600
17414SOL    HW253684   5.888   0.581  12.086 -0.3999 -0.8775  0.4932
17415SOL     OW53685   0.285   7.504  12.136  0.0509  0.2352 -0.4302
17415SOL    HW153686   0.363   7.538  12.092 -0.8666 -0.7177 -3.0082
17415SOL    HW253687   0.251   7.578  12.187  1.3765  1.3259 -1.0847
17416SOL     OW53688   5.608   1.528  11.381 -0.0861  0.1173  0.0025
17416SOL    HW153689   5.613   1.436  11.353  0.7382  0.0527  0.3279
17416SOL    HW253690   5.526   1.533  11.429 -0.2806 -0.3844 -0.2656
17417SOL     OW53691   0.634   1.934  11.190  0.2051 -0.4254 -0.1998
17417SOL    HW153692   0.639   1.841  11.212 -0.0806 -0.8499 -1.7779
17417SOL    HW253693   0.573   1.937  11.116  0.5495  0.9620 -0.4402
17418SOL     OW53694   7.202   0.777   1.798  0.5067 -0.3587 -0.0276
17418SOL    HW153695   7.221   0.703   1.856  0.9291 -1.2833 -1.2878
17418SOL    HW253696   7.116   0.809   1.826 -0.2550 -2.1267 -0.2234
17419SOL     OW53697   6.326   1.288  11.986  0.0783  0.1450 -0.2210
17419SOL    HW153698   6.252   1.306  12.044 -2.3335 -0.2065 -2.9679
17419SOL    HW253699   6.286   1.276  11.899  3.5817  2.2475 -2.3303
17420SOL     OW53700   6.568   3.201   1.776  0.2828 -0.0230 -0.1405
17420SOL    HW153701   6.596   3.271   1.835  0.3468  1.4159 -1.7784
17420SOL    HW253702   6.639   3.193   1.712  0.0473 -1.2452 -0.2692
17421SOL     OW53703   6.898   2.287   1.914  0.7257  0.4729 -0.5345
17421SOL    HW153704   6.819   2.301   1.862  0.8804 -1.2178 -1.3110
17421SOL    HW253705   6.946   2.369   1.908  0.3147  0.6324 -2.3603
17422SOL     OW53706   7.846   1.062   2.402 -0.1668 -0.1892 -0.1780
17422SOL    HW153707   7.920   1.010   2.371 -0.6468 -0.8992 -0.1571
17422SOL    HW253708   7.883   1.117   2.472  0.2009 -1.0415  0.3202
17423SOL     OW53709   5.868   1.586   1.844  0.7150 -0.2609 -0.4449
17423SOL    HW153710   5.776   1.565   1.856  0.9576 -0.8794  0.4227
17423SOL    HW253711   5.895   1.624   1.928  1.3023 -0.2530 -0.6300
17424SOL     OW53712   6.628   1.376   1.962  0.2846  0.6325  0.2164
17424SOL    HW153713   6.554   1.322   1.935  0.8138 -0.6524  1.2183
17424SOL    HW253714   6.591   1.463   1.975 -0.5390  0.6028 -1.6997
17425SOL     OW53715   7.859   0.694   1.012 -0.2467  0.5487  0.0123
17425SOL    HW153716   7.854   0.723   1.103 -1.8248 -0.3828  0.2661
17425SOL    HW253717   7.791   0.745   0.967 -2.2022 -1.6971  0.2181
17426SOL     OW53718   7.453   1.015   1.799 -0.3965  0.0011  0.3874
17426SOL    HW153719   7.533   0.976   1.763  1.8237  0.8859  3.9141
17426SOL    HW253720   7.464   1.109   1.785 -1.6867  0.0602 -0.4988
17427SOL     OW53721   7.150   1.145  11.167 -0.2756  0.4562 -0.5135
17427SOL    HW153722   7.106   1.146  11.082  1.6014  1.7832 -1.5477
17427SOL    HW253723   7.148   1.053  11.194 -1.4788  0.1114 -1.6606
17428SOL     OW53724   6.167   6.888   1.704 -0.3333 -0.6312  0.5791
17428SOL    HW153725   6.220   6.876   1.782  2.2634 -0.9054 -1.1241
17428SOL    HW253726   6.214   6.954   1.653 -2.7204  0.6185 -0.1753
17429SOL     OW53727   6.909   1.961   2.292 -0.1354  0.5897 -0.0672
17429SOL    HW153728   6.869   2.026   2.234 -0.2932 -0.0116 -0.6386
17429SOL    HW253729   6.834   1.919   2.335 -0.0269  0.9115  0.4503
17430SOL     OW53730   5.664   1.110   1.657  0.7031  0.5525  0.9070
17430SOL    HW153731   5.710   1.194   1.666  0.1978  0.8156  1.0882
17430SOL    HW253732   5.720   1.047   1.702  1.6607  0.5716 -0.2172
17431SOL     OW53733   6.796   7.149  12.296  0.0289 -0.1933 -0.2410
17431SOL    HW153734   6.753   7.122  12.214 -0.6667 -0.3564  0.1671
17431SOL    HW253735   6.879   7.188  12.268 -0.6226  0.6418 -1.1055
17432SOL     OW53736   6.473   1.460   0.784 -0.6135 -0.1954  0.0177
17432SOL    HW153737   6.423   1.514   0.723  1.3107 -0.5392 -1.9457
17432SOL    HW253738   6.539   1.417   0.731  1.6036 -0.0290  2.4147
17433SOL     OW53739   6.204   2.535  12.363 -0.3017 -1.0338  0.1909
17433SOL    HW153740   6.298   2.520  12.352  0.1615 -1.0620  3.3447
17433SOL    HW253741   6.183   2.600  12.296  1.9826 -0.9057 -0.5047
17434SOL     OW53742   0.270   2.026   1.574  0.0950  0.0472  0.3255
17434SOL    HW153743   0.322   1.961   1.621  1.6115 -0.3533 -1.7769
17434SOL    HW253744   0.268   2.103   1.632  1.4520 -0.5803  1.2369
17435SOL     OW53745   7.363   1.451  10.460 -0.2936 -0.4952  0.1296
17435SOL    HW153746   7.319   1.400  10.392 -0.2436  0.4145 -0.6160
17435SOL    HW253747   7.448   1.408  10.471 -1.7270 -2.9972  2.4434
17436SOL     OW53748   5.635   2.450   2.503  0.1087  0.5546 -0.3165
17436SOL    HW153749   5.704   2.440   2.437  1.0085 -0.3210  0.7066
17436SOL    HW253750   5.560   2.403   2.466  0.0591  1.4508 -1.4113
17437SOL     OW53751   6.478   0.879   1.335  0.6653 -0.0901 -0.1083
17437SOL    HW153752   6.461   0.954   1.278  0.5686 -1.3290 -1.7901
17437SOL    HW253753   6.396   0.865   1.382  0.9656  1.3867  0.9268
17438SOL     OW53754   6.799   7.948   2.353 -0.2099 -0.4046  0.0708
17438SOL    HW153755   6.780   8.015   2.287 -1.7510 -0.7122  0.1673
17438SOL    HW253756   6.812   7.998   2.434 -1.5294 -0.2067  0.1814
17439SOL     OW53757   6.797   7.759   1.984 -1.0079 -0.1138  0.2253
17439SOL    HW153758   6.848   7.840   1.986 -1.8691  0.4636 -0.5843
17439SOL    HW253759   6.862   7.690   1.996 -0.1967  0.6631  0.4211
17440SOL     OW53760   6.856   6.931   1.461 -0.7223 -0.0422 -0.3355
17440SOL    HW153761   6.839   6.870   1.533  1.9200  1.0601  1.4010
17440SOL    HW253762   6.875   6.876   1.386  3.5707 -1.7269  1.6148
17441SOL     OW53763   5.228   0.853   1.484 -0.5942 -0.6568  0.7561
17441SOL    HW153764   5.312   0.807   1.481 -1.3751 -2.1529  1.1206
17441SOL    HW253765   5.237   0.915   1.557  2.1442  3.3044 -2.4936
17442SOL     OW53766   6.763   1.012   1.360  0.3972  0.1677  0.0539
17442SOL    HW153767   6.726   1.040   1.277  0.3871 -1.4744 -0.5413
17442SOL    HW253768   6.857   1.025   1.351  0.4968 -0.8505 -0.6048
17443SOL     OW53769   7.649   0.915   1.597  0.4171 -0.1534  0.2890
17443SOL    HW153770   7.685   0.963   1.523  0.0581 -1.1801 -0.5821
17443SOL    HW253771   7.715   0.849   1.617 -0.8547 -2.0265 -1.2964
17444SOL     OW53772   5.849   7.837   1.540 -0.3927 -0.1626 -0.0416
17444SOL    HW153773   5.829   7.761   1.486  1.9765 -0.6647 -0.3207
17444SOL    HW253774   5.825   7.912   1.486  0.7007 -0.6808 -1.3263
17445SOL     OW53775   6.224   2.176  12.478  0.3064 -0.5876  0.6832
17445SOL    HW153776   6.211   2.102  12.537  1.1745 -1.5524 -0.3056
17445SOL    HW253777   6.306   2.216  12.506  0.0589 -0.2617  0.9445
17446SOL     OW53778   6.461   0.894  12.218 -0.1660  0.0224  0.3995
17446SOL    HW153779   6.421   0.945  12.288 -0.9673 -1.1142  0.7926
17446SOL    HW253780   6.438   0.804  12.237 -0.8627 -0.2825 -1.6195
17447SOL     OW53781   0.076   1.201   2.489 -0.2086  0.0411  0.1470
17447SOL    HW153782   0.074   1.130   2.553 -0.3546  0.0229  0.1215
17447SOL    HW253783   0.168   1.228   2.487 -0.0790 -0.4063 -0.1309
17448SOL     OW53784   6.573   6.364  11.987 -0.2522  0.4782 -0.1610
17448SOL    HW153785   6.598   6.410  12.067  0.0048  0.5438 -0.2790
17448SOL    HW253786   6.549   6.276  12.016  0.6951  0.2260 -0.1220
17449SOL     OW53787   6.725   7.140   1.274  0.2538 -0.1817 -0.0983
17449SOL    HW153788   6.696   7.149   1.365  0.7832 -0.0777  0.0624
17449SOL    HW253789   6.678   7.063   1.241 -1.5588  0.9858 -0.3844
17450SOL     OW53790   5.898   1.304  12.299  0.3415 -0.1628  0.4374
17450SOL    HW153791   5.879   1.210  12.307  0.1710 -0.0527  1.3406
17450SOL    HW253792   5.959   1.309  12.225 -1.3747 -0.7428 -1.0999
17451SOL     OW53793   5.900   0.629   1.338  0.0066  0.0317 -0.1121
17451SOL    HW153794   5.965   0.638   1.268  1.1570  0.1933  0.9478
17451SOL    HW253795   5.871   0.719   1.356 -2.6159 -0.1838 -2.4085
17452SOL     OW53796   6.706   2.717   3.067  0.0217  0.2467  0.0480
17452SOL    HW153797   6.669   2.804   3.057 -1.2417 -0.2151  0.4758
17452SOL    HW253798   6.778   2.729   3.130  0.2764  1.0753 -0.3897
17453SOL     OW53799   7.449   0.552   1.162 -0.0973 -0.6735 -0.2048
17453SOL    HW153800   7.404   0.490   1.105 -0.6787  1.9293 -2.8639
17453SOL    HW253801   7.532   0.511   1.183 -0.5890 -2.4675 -1.5422
17454SOL     OW53802   7.181   0.117  12.266 -0.0308 -0.5158  0.6202
17454SOL    HW153803   7.266   0.161  12.270  0.5730 -1.6433  0.6706
17454SOL    HW253804   7.121   0.176  12.311  0.6392  0.4771  0.2497
17455SOL     OW53805   6.026   1.910  12.011 -0.4122  0.3301 -0.0006
17455SOL    HW153806   5.997   1.819  11.997  0.2757  0.0347  0.4413
17455SOL    HW253807   5.949   1.954  12.048 -0.6741 -0.1403  0.0275
17456SOL     OW53808   5.691   2.512   0.726 -0.3072  0.2206 -0.6373
17456SOL    HW153809   5.746   2.590   0.732  2.5572 -1.7340  1.3482
17456SOL    HW253810   5.625   2.523   0.794  0.7516  0.5060  0.3803
17457SOL     OW53811   5.201   0.916   0.536  0.0857 -0.4210 -0.0469
17457SOL    HW153812   5.198   0.850   0.467 -0.6963  1.3906 -1.8443
17457SOL    HW253813   5.290   0.949   0.534 -0.2234  0.4005 -1.0035
17458SOL     OW53814   4.957   1.082   1.153  0.0984  0.1529 -0.3777
17458SOL    HW153815   4.871   1.045   1.170 -1.0137  2.7049  0.0572
17458SOL    HW253816   5.014   1.006   1.139 -2.1732 -1.6172 -0.6140
17459SOL     OW53817   6.257   6.350   1.851  0.4069 -0.4299  0.5010
17459SOL    HW153818   6.325   6.416   1.867 -0.2773  0.0801  1.4250
17459SOL    HW253819   6.189   6.369   1.916 -0.7974 -0.6789 -0.6216
17460SOL     OW53820   6.301   1.677   0.225  0.1363 -0.4467 -0.1295
17460SOL    HW153821   6.291   1.617   0.299 -1.4311 -1.2786 -0.9584
17460SOL    HW253822   6.311   1.620   0.149 -0.6163  0.3406 -0.8434
17461SOL     OW53823   5.273   1.418   0.225  0.3271 -0.2542 -0.0324
17461SOL    HW153824   5.238   1.506   0.211  1.3582  0.0562 -0.8189
17461SOL    HW253825   5.207   1.360   0.189 -0.0613  0.2338 -0.1175
17462SOL     OW53826   3.816   1.655   1.475  0.3665 -0.1480 -0.2990
17462SOL    HW153827   3.818   1.751   1.472  0.2684 -0.1228  0.3255
17462SOL    HW253828   3.758   1.634   1.549  0.2143 -0.6900 -0.5654
17463SOL     OW53829   7.178   0.586   0.746 -0.5069  0.0648  0.3888
17463SOL    HW153830   7.250   0.566   0.685 -0.0139  2.4175  0.1202
17463SOL    HW253831   7.130   0.503   0.754 -0.9292 -0.2647 -3.6084
17464SOL     OW53832   5.890   1.416   2.129 -0.4808  0.3294  0.0847
17464SOL    HW153833   5.850   1.412   2.216  2.6448 -0.1741  1.6339
17464SOL    HW253834   5.925   1.505   2.123 -1.7012  0.7495 -1.2200
17465SOL     OW53835   5.849   7.612   1.297 -0.0483 -0.1698 -0.0058
17465SOL    HW153836   5.820   7.524   1.271  0.6215 -0.5055  0.3665
17465SOL    HW253837   5.787   7.671   1.255 -0.6054 -0.8314 -0.1270
17466SOL     OW53838   6.776   2.029   3.463  0.3136 -0.2704  0.4159
17466SOL    HW153839   6.732   1.969   3.523  2.8569 -0.3903  2.3464
17466SOL    HW253840   6.869   2.020   3.484  1.2013  0.9486 -2.4666
17467SOL     OW53841   7.042   0.427  12.148  0.2464 -0.2902 -0.4272
17467SOL    HW153842   7.137   0.430  12.134  0.1987  1.6249 -0.5504
17467SOL    HW253843   7.014   0.350  12.099  1.6766 -0.6506 -0.7453
17468SOL     OW53844   6.168   0.366   0.914 -0.6850 -0.3169 -0.2579
17468SOL    HW153845   6.146   0.445   0.963  0.8473  0.6141 -0.9778
17468SOL    HW253846   6.243   0.329   0.961  0.6865  0.4886 -1.7017
17469SOL     OW53847   4.804   1.680   1.419  0.1602  0.6167  0.6929
17469SOL    HW153848   4.725   1.626   1.418 -0.0947  0.9210 -1.4137
17469SOL    HW253849   4.872   1.624   1.457 -0.2545 -0.9981 -0.8068
17470SOL     OW53850   6.271   0.874   0.547 -0.1952 -0.0613 -0.4109
17470SOL    HW153851   6.335   0.803   0.554 -0.7817 -0.7620 -1.7774
17470SOL    HW253852   6.295   0.935   0.617  0.5217 -1.4429  0.5964
17471SOL     OW53853   5.109   1.313   1.952 -0.0944 -0.4804 -0.1693
17471SOL    HW153854   5.196   1.282   1.973 -0.2030 -1.4526 -1.0777
17471SOL    HW253855   5.067   1.240   1.907 -1.0716  0.2775 -0.5422
17472SOL     OW53856   5.357   1.846  11.183 -0.2412 -0.1099  0.0809
17472SOL    HW153857   5.340   1.812  11.271 -0.9368  2.1557  0.9132
17472SOL    HW253858   5.379   1.938  11.197  0.9169 -0.0036 -2.0428
17473SOL     OW53859   5.416   1.356   1.487 -0.0783 -0.1495  0.2700
17473SOL    HW153860   5.503   1.357   1.449 -0.2020  0.7635 -0.0251
17473SOL    HW253861   5.366   1.297   1.430  0.0593  0.2222 -0.2500
17474SOL     OW53862   6.658   0.876   1.689 -0.1065 -1.0613 -0.3159
17474SOL    HW153863   6.584   0.831   1.731  1.2300 -3.2417 -0.1355
17474SOL    HW253864   6.714   0.904   1.761 -0.5424  0.2833 -0.4689
17475SOL     OW53865   7.056   0.768   0.543 -0.0818  0.2695 -0.0958
17475SOL    HW153866   7.126   0.772   0.478 -0.0191 -2.5355 -0.3216
17475SOL    HW253867   7.095   0.723   0.618 -1.4307 -0.8531 -0.0157
17476SOL     OW53868   6.811   2.052   1.271 -0.3338  0.1271 -0.2413
17476SOL    HW153869   6.793   1.978   1.330  0.3796 -0.5379 -0.8495
17476SOL    HW253870   6.788   2.020   1.184  1.7178 -0.0322 -0.7696
17477SOL     OW53871   5.020   0.991  11.238 -0.3057  0.3691  0.1719
17477SOL    HW153872   4.960   1.064  11.251  0.4293  0.9929  0.1588
17477SOL    HW253873   5.102   1.032  11.211  0.0727 -0.4757  0.0009
17478SOL     OW53874   4.163   2.126   0.474  0.2560  0.2144  0.3634
17478SOL    HW153875   4.169   2.221   0.477 -0.4891  0.2848 -0.1680
17478SOL    HW253876   4.223   2.100   0.404 -0.7705  0.4307 -0.6254
17479SOL     OW53877   5.291   1.442   2.311  0.1967 -0.3507  0.0999
17479SOL    HW153878   5.245   1.501   2.370  1.1481 -0.9981  1.5327
17479SOL    HW253879   5.340   1.500   2.252  1.9250  0.3362  2.1211
17480SOL     OW53880   7.776   7.764   0.281 -0.3924  0.1378  0.0459
17480SOL    HW153881   7.865   7.757   0.315  0.0336  3.4800 -0.1029
17480SOL    HW253882   7.785   7.814   0.200 -2.5302  2.5344  1.1364
17481SOL     OW53883   7.310   1.218   1.630 -0.1643  0.3880  0.2332
17481SOL    HW153884   7.350   1.291   1.583 -0.3810  0.6764  0.4861
17481SOL    HW253885   7.258   1.260   1.699 -0.1496 -0.0120  0.4928
17482SOL     OW53886   5.846   2.729   0.687  0.5203 -0.0816  0.1056
17482SOL    HW153887   5.873   2.752   0.598  2.0426 -1.7007  0.0763
17482SOL    HW253888   5.870   2.805   0.740  0.1786  0.6500 -0.7554
17483SOL     OW53889   5.367   1.447   1.011  0.0333 -0.1760 -0.4090
17483SOL    HW153890   5.354   1.398   0.930  0.6190 -1.6094  0.3232
17483SOL    HW253891   5.462   1.458   1.017 -0.0658  0.6866 -0.3442
17484SOL     OW53892   6.194   0.027   2.687 -0.3152  0.2803  0.0432
17484SOL    HW153893   6.146   0.108   2.703 -0.7010  0.5524 -2.1309
17484SOL    HW253894   6.281   0.042   2.724  0.0118  2.2192 -1.3632
17485SOL     OW53895   6.450   1.751   0.435  0.3369 -0.0616 -0.0762
17485SOL    HW153896   6.427   1.661   0.459 -0.8987  0.3470  0.3071
17485SOL    HW253897   6.387   1.775   0.367  1.2726  0.1979 -0.8804
17486SOL     OW53898   6.422   1.206   1.931  0.7689  0.5641  0.0651
17486SOL    HW153899   6.387   1.120   1.953 -1.5997  1.4808  0.1162
17486SOL    HW253900   6.389   1.264   1.999  2.0654  1.5949 -0.1439
17487SOL     OW53901   0.781   0.380   2.584  0.0721  0.6774  0.1620
17487SOL    HW153902   0.854   0.433   2.551 -1.2529  2.0366 -0.7498
17487SOL    HW253903   0.749   0.428   2.661  0.6213 -0.3405  1.0479
17488SOL     OW53904   6.000   7.657  11.372  0.2581  0.3062 -0.5495
17488SOL    HW153905   5.962   7.662  11.459  0.0993 -0.0036 -0.5971
17488SOL    HW253906   6.094   7.646  11.387  0.1659 -0.3017 -0.4073
17489SOL     OW53907   6.245   0.088   0.078  0.3794  0.4033  0.3124
17489SOL    HW153908   6.159   0.070   0.041  0.5970  1.9477 -1.0563
17489SOL    HW253909   6.247   0.038   0.159 -0.9898 -1.3184 -0.6494
17490SOL     OW53910   6.453   7.409   1.223 -0.0216 -0.1796  0.6542
17490SOL    HW153911   6.534   7.384   1.177 -0.5299  1.5467 -1.3762
17490SOL    HW253912   6.480   7.423   1.314  1.4343 -1.9500  0.5487
17491SOL     OW53913   6.121   0.704  12.261  0.1240  0.3621 -0.4478
17491SOL    HW153914   6.106   0.764  12.333 -0.7157  0.2681 -0.5314
17491SOL    HW253915   6.034   0.691  12.221  0.3458 -0.5898 -0.6693
17492SOL     OW53916   0.466   1.100  12.102 -0.1245  0.4302 -1.0616
17492SOL    HW153917   0.458   1.184  12.058  0.4419  1.7547  1.2349
17492SOL    HW253918   0.406   1.106  12.176  1.6037 -0.2909  0.4433
17493SOL     OW53919   4.669   0.627   2.447 -0.5686 -0.1488 -0.3130
17493SOL    HW153920   4.651   0.717   2.472  0.3241 -0.3561  1.2176
17493SOL    HW253921   4.708   0.588   2.525  1.3594 -1.1884 -1.7308
17494SOL     OW53922   0.321   7.824   0.892 -0.3986 -0.1232  0.4261
17494SOL    HW153923   0.301   7.861   0.978  0.9886  0.9389  0.3159
17494SOL    HW253924   0.237   7.825   0.846 -0.2892  4.2024 -0.0414
17495SOL     OW53925   1.230   1.611   0.480 -0.5691 -0.2106 -0.7216
17495SOL    HW153926   1.253   1.699   0.510 -0.7025 -0.6295  0.7160
17495SOL    HW253927   1.143   1.621   0.442 -1.8692 -0.1333  1.9751
17496SOL     OW53928   6.273   2.110   2.123  0.0579 -0.7393 -0.1428
17496SOL    HW153929   6.321   2.036   2.161 -1.2844 -1.0241  1.0695
17496SOL    HW253930   6.181   2.086   2.133 -0.4294  1.3501  0.8013
17497SOL     OW53931   6.297   1.769   1.658 -0.0800 -0.0034 -0.1005
17497SOL    HW153932   6.205   1.751   1.677  0.0709 -1.6975 -0.7697
17497SOL    HW253933   6.336   1.791   1.742 -1.0668  0.6308  0.2064
17498SOL     OW53934   0.293   0.546   1.294  0.0658 -0.4789  0.5375
17498SOL    HW153935   0.354   0.582   1.229 -1.1408  0.5197 -0.0834
17498SOL    HW253936   0.344   0.544   1.375  1.4617 -1.3330 -0.3286
17499SOL     OW53937   5.537   0.984  11.991  0.4549  0.6057  0.3921
17499SOL    HW153938   5.473   0.916  12.010 -1.3075  1.5816 -1.7007
17499SOL    HW253939   5.506   1.025  11.910  3.7627  1.0893 -0.7962
17500SOL     OW53940   6.855   1.293   0.831 -0.0666  0.2281 -0.3285
17500SOL    HW153941   6.921   1.362   0.818 -0.5257  0.8587  0.6001
17500SOL    HW253942   6.906   1.215   0.855  0.4197  0.3802 -0.8563
17501SOL     OW53943   7.282   0.970   2.017  0.2485 -0.4267 -0.4354
17501SOL    HW153944   7.312   1.055   1.984  0.2437 -0.2071  0.1100
17501SOL    HW253945   7.347   0.908   1.985  0.5567 -0.1377 -0.3865
17502SOL     OW53946   6.527   0.126   0.498  0.6628 -0.0696 -0.1311
17502SOL    HW153947   6.453   0.186   0.492  0.1662 -0.7041 -0.3919
17502SOL    HW253948   6.525   0.095   0.589  0.7559  0.0963 -0.0719
17503SOL     OW53949   6.961   1.160   0.222 -0.2009  0.5147  0.6883
17503SOL    HW153950   6.943   1.079   0.175  0.6804  1.8482 -2.1844
17503SOL    HW253951   6.998   1.132   0.305  0.2421 -2.0349 -0.2950
17504SOL     OW53952   6.273   7.889  11.981 -0.2782 -0.1645 -1.0872
17504SOL    HW153953   6.255   7.834  11.905 -0.8519  1.1008 -1.8907
17504SOL    HW253954   6.290   7.976  11.945  1.0975  0.1199  0.1130
17505SOL     OW53955   6.084   3.070   0.367  0.8300 -0.0570  0.3372
17505SOL    HW153956   6.060   3.064   0.460  0.5616 -2.5329  0.1821
17505SOL    HW253957   6.137   2.992   0.351  0.6514  0.1775 -1.6519
17506SOL     OW53958   0.714   7.984   2.241 -0.6589 -0.3603 -0.4662
17506SOL    HW153959   0.792   8.034   2.267 -1.1942 -0.5481  1.6418
17506SOL    HW253960   0.650   8.050   2.216 -0.8694 -0.0002  0.9115
17507SOL     OW53961   6.553   2.143   2.368 -0.6078 -0.4267  0.1081
17507SOL    HW153962   6.522   2.059   2.334  0.0774 -0.6166 -0.0736
17507SOL    HW253963   6.486   2.206   2.343 -0.0501 -0.5205 -1.7370
17508SOL     OW53964   6.549   2.439   0.851 -0.3130  0.1675 -0.1362
17508SOL    HW153965   6.507   2.523   0.832  1.0839  0.9587  0.1782
17508SOL    HW253966   6.577   2.407   0.765  1.4202  1.2724 -0.0162
17509SOL     OW53967   7.049   1.002   1.531  0.0225 -0.6495  0.2496
17509SOL    HW153968   6.972   0.949   1.509 -0.7017  0.9522 -1.3736
17509SOL    HW253969   7.065   1.054   1.452  1.2362  0.8880  1.4465
17510SOL     OW53970   6.603   7.292   1.015  0.0726 -0.2277 -0.4338
17510SOL    HW153971   6.553   7.368   0.985  0.5447  0.2241 -0.1070
17510SOL    HW253972   6.585   7.224   0.951 -2.1449 -0.5727  0.4651
17511SOL     OW53973   6.297   0.005   1.612 -0.3685 -0.1876  0.0197
17511SOL    HW153974   6.230  -0.062   1.598 -1.1615  0.3508  1.1380
17511SOL    HW253975   6.254   0.087   1.588 -0.3438  0.2356  1.3406
17512SOL     OW53976   7.214   7.232   0.982 -0.0070  0.2528 -0.3126
17512SOL    HW153977   7.170   7.216   0.899 -0.1253  0.3384 -0.2675
17512SOL    HW253978   7.211   7.147   1.027 -0.0966  0.2505 -0.3231
17513SOL     OW53979   6.656   0.437   1.552  0.2546 -0.7590  0.2285
17513SOL    HW153980   6.641   0.399   1.465  0.1933 -0.2470  0.0113
17513SOL    HW253981   6.603   0.517   1.553 -0.1550 -1.0285  0.9294
17514SOL     OW53982   4.960   2.108  11.418 -0.4443  0.7510  0.2070
17514SOL    HW153983   4.963   2.037  11.355  4.1732  0.3198  0.5378
17514SOL    HW253984   4.950   2.188  11.366 -2.1045  0.1343 -0.4684
17515SOL     OW53985   6.309   2.487   1.170 -0.0054 -0.2916  0.3520
17515SOL    HW153986   6.393   2.441   1.158 -0.4455 -1.1759  0.5398
17515SOL    HW253987   6.329   2.558   1.231  0.8779  0.3070 -0.5984
17516SOL     OW53988   5.879   0.769   0.379  0.1305  0.3961  0.5443
17516SOL    HW153989   5.846   0.797   0.293 -0.8554  0.4228  0.9153
17516SOL    HW253990   5.963   0.814   0.388 -0.8559  2.3434  0.6124
17517SOL     OW53991   6.388   7.709   0.803 -0.0760 -0.1849 -0.0485
17517SOL    HW153992   6.417   7.800   0.807 -1.6892  0.4326 -1.5060
17517SOL    HW253993   6.427   7.668   0.881  2.0651  1.3034 -0.2640
17518SOL     OW53994   7.613   0.522   1.502  0.6142  0.0404  0.0230
17518SOL    HW153995   7.640   0.536   1.593  1.5072  0.2835 -0.2642
17518SOL    HW253996   7.555   0.595   1.483 -1.5273 -1.2774  1.1085
17519SOL     OW53997   5.248   1.764   0.961  0.1385 -0.1635  0.0292
17519SOL    HW153998   5.290   1.683   0.989 -1.3827 -0.9334  0.1834
17519SOL    HW253999   5.260   1.824   1.034  1.8665  0.0067 -0.3546
17520SOL     OW54000   6.504   0.996  11.611 -0.3145 -0.4322 -0.8608
17520SOL    HW154001   6.544   1.082  11.604  0.4938 -0.8522 -1.5506
17520SOL    HW254002   6.489   0.969  11.521  1.4054 -1.9021 -0.7623
17521SOL     OW54003   6.042   7.802   1.101 -0.0546  0.4002 -0.5152
17521SOL    HW154004   6.112   7.860   1.131  0.7406 -0.8064  0.0278
17521SOL    HW254005   6.054   7.797   1.006  1.0347 -0.3415 -0.3476
17522SOL     OW54006   7.436   0.299   0.979  0.6275 -0.3173 -0.1533
17522SOL    HW154007   7.354   0.267   0.942  0.1722 -0.6490  1.0913
17522SOL    HW254008   7.501   0.232   0.957 -0.0014 -1.3944  1.1129
17523SOL     OW54009   6.399   3.384   9.702  0.0421 -0.5895  0.9081
17523SOL    HW154010   6.427   3.412   9.789  1.4445  0.6049  0.1128
17523SOL    HW254011   6.445   3.302   9.687  0.7469 -0.1794  0.8151
17524SOL     OW54012   5.915   6.984   3.682  0.0158  0.1072  0.4593
17524SOL    HW154013   5.966   6.957   3.606 -0.0302  1.5875 -0.1384
17524SOL    HW254014   5.824   6.962   3.659  0.0636  0.0525  0.3228
17525SOL     OW54015   6.323   0.073  10.819 -0.2848  0.7446  0.2851
17525SOL    HW154016   6.377   0.013  10.870 -0.6925  0.7618  0.7465
17525SOL    HW254017   6.330   0.042  10.729  1.1366  1.2270  0.2055
17526SOL     OW54018   0.828   0.399   1.717 -0.0359 -0.3295 -0.6297
17526SOL    HW154019   0.756   0.433   1.769  0.5954 -0.0297  0.0587
17526SOL    HW254020   0.861   0.324   1.767 -0.3026 -0.8873 -1.2766
17527SOL     OW54021   6.847   6.357   0.522  0.1195  0.2639 -0.2583
17527SOL    HW154022   6.814   6.367   0.433 -0.0959 -1.5985 -0.4438
17527SOL    HW254023   6.936   6.391   0.519  0.2642 -0.1568 -1.3174
17528SOL     OW54024   5.794   1.987  11.296 -0.4474  0.0900 -0.2712
17528SOL    HW154025   5.762   1.898  11.281 -1.3538  0.5782 -1.3590
17528SOL    HW254026   5.863   1.999  11.230  0.2132 -0.0522  0.3753
17529SOL     OW54027   5.637   1.567   1.638  0.2154 -0.3723 -0.3406
17529SOL    HW154028   5.666   1.505   1.570  0.3076 -1.5029  0.7052
17529SOL    HW254029   5.545   1.543   1.653  0.0951  0.1108 -0.3142
17530SOL     OW54030   6.854   7.507  12.061 -0.0063  0.4675 -0.1491
17530SOL    HW154031   6.764   7.487  12.088  0.4106 -0.5169  0.5912
17530SOL    HW254032   6.908   7.472  12.132  1.0383 -0.4792 -1.3658
17531SOL     OW54033   6.503   0.976   0.380 -0.0709  0.4390  0.6775
17531SOL    HW154034   6.554   0.983   0.461 -0.5352  1.0204  0.9274
17531SOL    HW254035   6.455   0.894   0.389 -2.1589  1.7210  2.2259
17532SOL     OW54036   6.933   0.362   1.139  0.2073  0.2715  0.4376
17532SOL    HW154037   6.959   0.385   1.228  1.0189  1.9870 -0.1918
17532SOL    HW254038   6.882   0.437   1.108  0.4475 -0.0191 -0.7352
17533SOL     OW54039   4.142   1.517   0.037  0.1491  0.0190  0.4366
17533SOL    HW154040   4.234   1.520   0.011  1.5131 -1.7463  4.1539
17533SOL    HW254041   4.117   1.608   0.051  1.2228  0.5389 -0.8595
17534SOL     OW54042   5.969   2.511   0.635 -0.5790  0.2211 -0.4573
17534SOL    HW154043   5.965   2.509   0.540 -1.1388 -0.0751 -0.4328
17534SOL    HW254044   5.927   2.593   0.660 -1.3916 -0.1990 -0.4268
17535SOL     OW54045   6.549   7.424   2.071  0.1335 -0.2788  0.1469
17535SOL    HW154046   6.645   7.418   2.065  0.2863  2.2621 -1.6978
17535SOL    HW254047   6.519   7.333   2.071  2.4830 -1.1420 -0.7616
17536SOL     OW54048   7.799   7.800   3.420 -0.1844 -0.3378  0.2392
17536SOL    HW154049   7.893   7.791   3.410  0.0928  2.7233 -1.1587
17536SOL    HW254050   7.761   7.727   3.372  1.4988 -0.0295 -1.6654
17537SOL     OW54051   5.153   0.784   3.101  0.3876  0.2913  0.3912
17537SOL    HW154052   5.126   0.875   3.086 -0.4195  0.1575  0.9914
17537SOL    HW254053   5.086   0.747   3.157  0.7243 -0.6814  0.1867
17538SOL     OW54054   6.385   0.165   1.059  0.1554 -0.3230  0.4999
17538SOL    HW154055   6.408   0.136   0.971 -1.1214  1.9265 -0.6734
17538SOL    HW254056   6.318   0.102   1.088  0.7309 -1.2020 -0.0227
17539SOL     OW54057   7.124   3.943   2.041 -0.3329  0.1802  0.0114
17539SOL    HW154058   7.200   4.002   2.045  0.7833 -1.1181 -1.2845
17539SOL    HW254059   7.154   3.862   2.081 -0.4957 -0.8866 -1.9531
17540SOL     OW54060   7.031   0.327   1.431  0.2366 -0.3195  0.0699
17540SOL    HW154061   7.010   0.376   1.511  1.4578 -0.0401  0.2400
17540SOL    HW254062   6.952   0.278   1.411 -0.5999  0.7570  0.6147
17541SOL     OW54063   7.271   7.463   2.874 -0.2415 -0.7940  0.4294
17541SOL    HW154064   7.205   7.434   2.811  0.5889 -1.9468  0.0516
17541SOL    HW254065   7.221   7.488   2.951 -1.2009 -0.3860 -0.2937
17542SOL     OW54066   5.801   0.496   2.604  0.0709 -0.3255  0.2121
17542SOL    HW154067   5.824   0.435   2.674 -1.2313 -1.5373 -0.3863
17542SOL    HW254068   5.875   0.492   2.543  0.0199 -1.2867  0.1972
17543SOL     OW54069   6.241   7.985   3.544  0.9173  0.0809 -0.2583
17543SOL    HW154070   6.215   8.076   3.557  1.3412  0.8035 -3.5746
17543SOL    HW254071   6.173   7.934   3.588  0.5569  1.9334  1.5093
17544SOL     OW54072   6.161   6.954   1.141  0.3198  0.2498  0.3725
17544SOL    HW154073   6.251   6.939   1.111 -0.0089  0.5986 -0.8524
17544SOL    HW254074   6.170   7.026   1.205  0.9833 -0.1961  0.8029
17545SOL     OW54075   5.156   1.335   4.578 -0.1418 -0.0294  0.0930
17545SOL    HW154076   5.079   1.388   4.555  0.1768 -0.2559 -1.6604
17545SOL    HW254077   5.192   1.377   4.656 -0.5209  1.6821 -0.6140
17546SOL     OW54078   5.354   7.964   2.215 -0.1555  0.3758  0.7248
17546SOL    HW154079   5.437   7.972   2.169 -0.4026  0.5934  0.3121
17546SOL    HW254080   5.371   8.000   2.302  0.4952 -0.6604  1.0395
17547SOL     OW54081   6.564   1.546   2.965  0.1938  0.1158  0.0734
17547SOL    HW154082   6.543   1.454   2.952  1.6549 -0.0274 -1.7869
17547SOL    HW254083   6.519   1.592   2.894  2.1768  0.3478 -1.1164
17548SOL     OW54084   6.923   0.283   3.401  0.1736 -0.2461 -0.4576
17548SOL    HW154085   6.954   0.299   3.312  0.0075 -2.0780 -0.8846
17548SOL    HW254086   6.844   0.336   3.408  0.5450  0.4260 -1.1722
17549SOL     OW54087   6.908   0.607   1.949  0.1073  0.3498 -0.3710
17549SOL    HW154088   6.986   0.615   2.003  0.3509 -0.1886 -0.6350
17549SOL    HW254089   6.887   0.513   1.951 -0.9657  0.5892  0.3135
17550SOL     OW54090   7.596   1.532   1.859  0.4151  0.1178 -0.3300
17550SOL    HW154091   7.616   1.540   1.766 -1.2314 -0.1509 -0.7454
17550SOL    HW254092   7.525   1.596   1.874  0.2256 -0.2870  0.5853
17551SOL     OW54093   7.247   3.822   3.200  0.2327 -0.0472 -0.5688
17551SOL    HW154094   7.199   3.898   3.168  0.1857  1.4604  2.6884
17551SOL    HW254095   7.336   3.835   3.169 -0.0450  0.7056 -1.0675
17552SOL     OW54096   6.703   1.678   3.156  0.7641  0.0247  0.4160
17552SOL    HW154097   6.666   1.613   3.097  0.9877  0.3636 -0.1070
17552SOL    HW254098   6.628   1.715   3.203  0.4196  0.6999 -0.6220
17553SOL     OW54099   5.526   2.634   3.267  0.3392 -0.2551 -0.2499
17553SOL    HW154100   5.449   2.669   3.314 -0.4163 -1.2686 -0.6975
17553SOL    HW254101   5.489   2.583   3.196  1.4453 -1.0149 -0.2955
17554SOL     OW54102   6.855   2.588   4.026 -0.2441  0.9104  0.6759
17554SOL    HW154103   6.818   2.641   4.097  0.7053  1.4826  0.7613
17554SOL    HW254104   6.825   2.499   4.044 -0.3288  1.1127  1.5749
17555SOL     OW54105   6.068   0.826   2.319  0.2840  0.4069 -0.3256
17555SOL    HW154106   6.091   0.919   2.311  1.5166  0.1378 -0.0580
17555SOL    HW254107   6.067   0.810   2.413 -0.0794  0.1866 -0.3670
17556SOL     OW54108   6.102   7.167   3.763  0.3344 -0.3174 -0.1618
17556SOL    HW154109   6.062   7.216   3.835 -0.6448 -1.1441 -0.1251
17556SOL    HW254110   6.034   7.105   3.735  0.7360 -0.0869 -1.7303
17557SOL     OW54111   6.220   1.085   1.472  0.4763  0.1360 -0.3042
17557SOL    HW154112   6.298   1.059   1.521  0.0794  0.3864  0.4777
17557SOL    HW254113   6.179   1.003   1.446  1.4111 -0.0047 -1.4132
17558SOL     OW54114   6.535   3.045   2.858 -0.0318 -0.2407 -0.1126
17558SOL    HW154115   6.461   3.060   2.915 -0.0680  0.4820 -0.3293
17558SOL    HW254116   6.505   2.981   2.794 -0.3120 -0.3034  0.0848
17559SOL     OW54117   3.435   1.885   2.254  0.0577 -0.0430 -0.4749
17559SOL    HW154118   3.361   1.854   2.201  0.3815  0.2301 -1.0992
17559SOL    HW254119   3.462   1.808   2.304 -1.5335  0.2157  0.8308
17560SOL     OW54120   6.409   1.799   1.069  0.0862 -0.0431  0.0167
17560SOL    HW154121   6.315   1.786   1.059  0.2477 -0.2548 -1.6237
17560SOL    HW254122   6.442   1.712   1.092 -0.0190 -0.2073 -0.4335
17561SOL     OW54123   6.347   0.610   0.266  0.4840 -0.4108  0.3876
17561SOL    HW154124   6.431   0.649   0.292  0.4587  0.4522 -0.7346
17561SOL    HW254125   6.370   0.533   0.214  0.5915 -0.2341  0.1703
17562SOL     OW54126   6.676   0.659   2.533  0.0030 -0.6898 -0.0850
17562SOL    HW154127   6.606   0.723   2.547 -0.8972 -1.4337 -1.0653
17562SOL    HW254128   6.735   0.702   2.470  0.1961 -0.2472  0.3895
17563SOL     OW54129   6.311   0.705   3.219  0.1389  0.1809 -0.3229
17563SOL    HW154130   6.316   0.790   3.263  0.2958  0.3147 -0.5945
17563SOL    HW254131   6.235   0.713   3.161  0.2748  0.2096 -0.4981
17564SOL     OW54132   5.776   2.402   3.706  0.1860 -0.3143 -0.0686
17564SOL    HW154133   5.774   2.457   3.627  0.3552 -1.1215 -0.6429
17564SOL    HW254134   5.720   2.448   3.768  0.1778  0.4194 -0.6029
17565SOL     OW54135   5.806   1.428   2.392 -0.3086  0.0778 -0.6263
17565SOL    HW154136   5.712   1.413   2.402  0.0373 -1.0364  1.5317
17565SOL    HW254137   5.824   1.504   2.448  0.6123 -2.0487  2.1526
17566SOL     OW54138   3.712   7.340   1.264  0.0028  0.2508 -0.2184
17566SOL    HW154139   3.635   7.337   1.322  0.8671  0.0891  0.9528
17566SOL    HW254140   3.693   7.275   1.196 -0.6263 -0.2340  0.4014
17567SOL     OW54141   6.677   1.007   3.664 -0.1353  0.0605 -0.4356
17567SOL    HW154142   6.744   1.075   3.672 -1.7794  1.7331 -0.0081
17567SOL    HW254143   6.718   0.939   3.611  1.0516  2.1406 -2.3720
17568SOL     OW54144   6.286   3.771   4.264 -0.5822 -0.6704 -0.0994
17568SOL    HW154145   6.280   3.796   4.356  0.8388 -0.2378 -0.1037
17568SOL    HW254146   6.289   3.854   4.216 -0.9480 -0.8907 -0.5178
17569SOL     OW54147   5.885   0.682   3.671  0.3846  0.0429  0.1490
17569SOL    HW154148   5.959   0.735   3.642 -1.1833  3.5107  1.9069
17569SOL    HW254149   5.811   0.715   3.620 -0.7976  0.1387  1.8545
17570SOL     OW54150   7.084   2.208   4.050 -0.4468 -0.2163 -0.5680
17570SOL    HW154151   7.142   2.203   4.126  1.1275 -2.6310 -1.8190
17570SOL    HW254152   7.088   2.300   4.023 -0.4037  0.5294  1.7055
17571SOL     OW54153   7.416   6.756   2.491  0.4629  0.2782 -0.2953
17571SOL    HW154154   7.472   6.688   2.529  0.4708 -0.6585 -1.8434
17571SOL    HW254155   7.471   6.834   2.486  1.4195 -0.4228 -1.0965
17572SOL     OW54156   7.985   6.762   2.659  0.0981 -0.2191  0.5351
17572SOL    HW154157   7.990   6.676   2.618 -1.4897  0.4799 -1.2460
17572SOL    HW254158   8.017   6.823   2.593  0.6105  0.6529  1.5449
17573SOL     OW54159   5.380   1.533   0.702 -0.4511  0.2774  0.3102
17573SOL    HW154160   5.421   1.463   0.753  1.7030 -0.0330 -1.7092
17573SOL    HW254161   5.443   1.605   0.705 -1.4618  1.1928  0.1680
17574SOL     OW54162   5.133   7.832   4.329 -0.3026 -0.0479  0.3375
17574SOL    HW154163   5.101   7.896   4.265  1.3365  0.0521 -0.4284
17574SOL    HW254164   5.054   7.795   4.367 -1.3005  1.5330 -0.1035
17575SOL     OW54165   0.267   1.185   4.055  0.3044  0.3203  0.1786
17575SOL    HW154166   0.221   1.160   3.975 -0.7607 -1.1530  1.2053
17575SOL    HW254167   0.341   1.238   4.024 -1.1352  1.4197 -1.6357
17576SOL     OW54168   6.817   1.640   4.083 -0.2174 -0.0140 -0.1146
17576SOL    HW154169   6.830   1.550   4.054 -1.8695 -0.1084 -0.6881
17576SOL    HW254170   6.759   1.678   4.017 -2.1323  0.5000  1.7482
17577SOL     OW54171   5.121   7.007   3.000  0.2397 -0.8498  0.1721
17577SOL    HW154172   5.194   6.954   2.969  0.9173 -0.2323  0.6739
17577SOL    HW254173   5.110   6.981   3.091  0.8041  0.0815  0.5283
17578SOL     OW54174   6.610   0.770  12.014  0.3344  0.1030 -0.6028
17578SOL    HW154175   6.666   0.825  12.069  1.2883 -1.3765 -0.0524
17578SOL    HW254176   6.529   0.760  12.064 -0.7778  2.7805 -1.6787
17579SOL     OW54177   5.399   0.059   2.516  0.0068 -0.0659 -0.1161
17579SOL    HW154178   5.414   0.128   2.580  1.3849 -0.9779  0.5801
17579SOL    HW254179   5.390  -0.021   2.567  1.0164 -0.7944 -1.0315
17580SOL     OW54180   7.312   2.336   3.888 -0.5511 -0.6151  0.3519
17580SOL    HW154181   7.230   2.383   3.906 -2.0007 -3.5205  2.0460
17580SOL    HW254182   7.286   2.262   3.834  1.6041  0.1988 -1.9869
17581SOL     OW54183   4.912   0.406   3.119 -0.1821  0.6907  0.3427
17581SOL    HW154184   4.979   0.337   3.120 -0.3766  0.4701  2.6159
17581SOL    HW254185   4.844   0.372   3.061  0.0111 -0.7699  0.9272
17582SOL     OW54186   0.640   1.165   4.151  0.5656 -0.5213 -0.6950
17582SOL    HW154187   0.710   1.165   4.086  0.5864 -0.2569 -0.6744
17582SOL    HW254188   0.648   1.250   4.194 -1.8116  0.9299 -2.8606
17583SOL     OW54189   0.173   0.983   2.665  0.5027 -0.0536  0.0542
17583SOL    HW154190   0.179   0.912   2.602 -1.8530  0.0530 -0.3791
17583SOL    HW254191   0.252   1.036   2.650  0.9506 -1.0995 -1.4464
17584SOL     OW54192   0.096   0.250   0.873  0.4594 -0.0382  0.3987
17584SOL    HW154193   0.083   0.320   0.937  0.1149 -0.3880  0.7163
17584SOL    HW254194   0.191   0.246   0.861  0.4826  3.6315 -3.1252
17585SOL     OW54195   6.347   1.074   2.910  0.1049 -1.1139  0.4753
17585SOL    HW154196   6.310   1.131   2.844  2.1517 -0.6613 -0.3615
17585SOL    HW254197   6.320   1.112   2.994 -0.0352  0.0485 -0.0848
17586SOL     OW54198   6.286   2.629   3.402 -0.3958  1.0072  0.1801
17586SOL    HW154199   6.378   2.620   3.375 -0.6192 -0.2404 -0.2500
17586SOL    HW254200   6.288   2.693   3.473  0.7562  1.3143 -0.1086
17587SOL     OW54201   6.416   1.561   2.267  0.3546 -0.1407  0.3942
17587SOL    HW154202   6.446   1.647   2.239  3.4885 -1.4392 -0.7763
17587SOL    HW254203   6.418   1.564   2.363  2.2186  0.6155  0.3709
17588SOL     OW54204   6.253   1.166   2.515 -0.6073 -0.3656  0.1501
17588SOL    HW154205   6.340   1.199   2.537 -0.5260  0.3803 -1.1788
17588SOL    HW254206   6.225   1.219   2.440 -2.4503 -0.1994  0.8891
17589SOL     OW54207   6.831   0.372   0.169 -0.1790 -0.2207  0.1322
17589SOL    HW154208   6.920   0.342   0.150  0.1628  0.2503  0.9204
17589SOL    HW254209   6.827   0.461   0.133 -1.0891 -1.0295 -1.9202
17590SOL     OW54210   7.616   7.755   2.113  0.2820 -0.3140 -0.5229
17590SOL    HW154211   7.638   7.801   2.032  1.3792 -1.3498 -0.8411
17590SOL    HW254212   7.656   7.807   2.182  0.3288 -0.0399 -0.7540
17591SOL     OW54213   6.098   2.402   4.928  0.1030 -0.0949  0.1921
17591SOL    HW154214   6.103   2.329   4.867 -0.9341  0.7263 -0.9362
17591SOL    HW254215   6.004   2.418   4.939  0.2857  1.6269 -0.3516
17592SOL     OW54216   7.582   1.699   2.250 -0.6600 -0.2543  0.1239
17592SOL    HW154217   7.642   1.625   2.236 -0.4925 -0.0030 -0.4737
17592SOL    HW254218   7.626   1.774   2.211  0.3087  0.7097  2.8354
17593SOL     OW54219   4.812   7.430   2.459  0.9186  0.7254  0.6819
17593SOL    HW154220   4.787   7.494   2.526  2.3718  2.6448 -0.4905
17593SOL    HW254221   4.907   7.440   2.451  0.6895  1.3864 -2.3811
17594SOL     OW54222   7.243   1.896   0.842  0.5913  0.2833 -0.2194
17594SOL    HW154223   7.205   1.865   0.760  0.6813  0.9497 -0.5180
17594SOL    HW254224   7.334   1.869   0.838  0.8374  1.1712 -0.7871
17595SOL     OW54225   5.339   2.136   1.565 -0.0111 -0.2384 -0.6862
17595SOL    HW154226   5.284   2.066   1.530  0.0653 -0.1129 -1.0704
17595SOL    HW254227   5.285   2.179   1.631  0.0534 -0.8571 -0.2184
17596SOL     OW54228   7.328   2.248   0.756 -0.8628  0.3739  0.0423
17596SOL    HW154229   7.345   2.260   0.662 -1.1047 -1.9144 -0.3680
17596SOL    HW254230   7.361   2.328   0.797 -0.4824  1.3106 -1.9598
17597SOL     OW54231   6.647   0.852   3.004  0.3401 -0.1925 -0.0763
17597SOL    HW154232   6.561   0.893   2.989 -0.3045 -1.5649 -0.2793
17597SOL    HW254233   6.671   0.878   3.093 -0.5314 -0.2230  0.1751
17598SOL     OW54234   6.252   0.004   0.579 -0.0051  0.5790 -0.1981
17598SOL    HW154235   6.306  -0.026   0.652 -0.1911  1.2593  0.2283
17598SOL    HW254236   6.246   0.098   0.591 -0.2544  0.6652 -0.9510
17599SOL     OW54237   6.676   7.945   2.694  0.6811  0.5745  0.4394
17599SOL    HW154238   6.730   8.007   2.645  0.3566 -0.1069 -0.8287
17599SOL    HW254239   6.714   7.859   2.674 -0.3425  0.1565  0.2073
17600SOL     OW54240   7.215   0.056   2.391  0.9019 -0.3659 -0.3025
17600SOL    HW154241   7.176   0.001   2.458  0.8476  0.9434  0.7987
17600SOL    HW254242   7.257  -0.005   2.331  1.4974 -1.5816  1.2625
17601SOL     OW54243   6.583   6.579   1.160 -0.7183  0.0926 -0.5212
17601SOL    HW154244   6.510   6.530   1.198 -0.1865 -1.4088 -1.3451
17601SOL    HW254245   6.558   6.671   1.170 -1.9274 -0.3332  0.7420
17602SOL     OW54246   6.447   7.537   3.749  0.0074 -0.8949  0.3725
17602SOL    HW154247   6.401   7.466   3.704 -0.8187 -1.2404  1.6957
17602SOL    HW254248   6.536   7.505   3.762  0.3916 -0.6133 -1.3527
17603SOL     OW54249   7.211   0.254   2.870 -0.3536  0.0484 -0.1852
17603SOL    HW154250   7.220   0.159   2.875 -0.3283 -0.0093 -1.0623
17603SOL    HW254251   7.284   0.288   2.922  0.4544 -0.4225 -0.9602
17604SOL     OW54252   7.544   0.839   2.070  0.3508  0.4970 -0.4231
17604SOL    HW154253   7.622   0.847   2.014 -0.2494  0.2950 -1.3085
17604SOL    HW254254   7.554   0.753   2.112  0.5147  0.3842 -0.6846
17605SOL     OW54255   5.949   0.269   4.078 -0.2744  0.5149 -0.0405
17605SOL    HW154256   5.902   0.249   4.159  0.1160 -0.9928 -0.1531
17605SOL    HW254257   5.928   0.360   4.060 -1.9239  0.3270  0.7278
17606SOL     OW54258   6.138   7.831   0.859  0.3509  0.3334 -0.5877
17606SOL    HW154259   6.209   7.791   0.808 -0.0120  0.2358 -1.0217
17606SOL    HW254260   6.147   7.925   0.844  0.1303  0.2927 -0.9899
17607SOL     OW54261   0.802   0.350   3.454 -0.4268  0.2089 -0.5156
17607SOL    HW154262   0.716   0.379   3.425  1.2389  2.0071 -4.6206
17607SOL    HW254263   0.833   0.420   3.511 -1.1534  0.1882 -0.0820
17608SOL     OW54264   6.397   0.481   0.735 -0.8903  0.0972 -0.0671
17608SOL    HW154265   6.409   0.426   0.657 -0.2138  0.8540 -0.5195
17608SOL    HW254266   6.309   0.460   0.766 -0.4336 -1.6524  0.1203
17609SOL     OW54267   5.119   1.264   0.925  0.0397  0.7480 -0.4025
17609SOL    HW154268   5.124   1.169   0.914 -1.6382  0.7806 -1.7603
17609SOL    HW254269   5.160   1.280   1.010  1.4336 -1.0421 -0.6877
17610SOL     OW54270   5.833   7.625   0.534  0.1661 -0.1170 -0.6859
17610SOL    HW154271   5.816   7.638   0.441 -1.4858  1.1321 -0.2542
17610SOL    HW254272   5.811   7.709   0.575 -0.3669 -1.0141  0.9838
17611SOL     OW54273   6.384   2.671   2.918  0.2002 -0.1257  0.4741
17611SOL    HW154274   6.364   2.754   2.962 -0.1739 -0.2452  0.5286
17611SOL    HW254275   6.310   2.614   2.938 -0.0688 -0.1261 -0.4658
17612SOL     OW54276   4.541   0.855   1.988 -0.2071 -0.0929  0.1085
17612SOL    HW154277   4.451   0.873   1.964 -0.2696 -0.0102  0.4010
17612SOL    HW254278   4.588   0.852   1.905 -0.6640 -1.1916 -0.1337
17613SOL     OW54279   7.024   0.336   0.843 -0.2701 -0.2724 -0.2539
17613SOL    HW154280   7.092   0.268   0.845  1.3139  1.0990 -2.4750
17613SOL    HW254281   6.991   0.340   0.932  1.2372 -2.3346  0.4617
17614SOL     OW54282   7.186   0.472   3.088  0.6451  0.4372  0.3708
17614SOL    HW154283   7.279   0.453   3.091  0.3174 -1.5480 -0.3336
17614SOL    HW254284   7.170   0.500   2.997  0.2903 -1.0084 -0.0382
17615SOL     OW54285   5.755   0.897   2.911 -0.1890 -0.5338 -0.4201
17615SOL    HW154286   5.832   0.931   2.957 -0.8543  0.1036  0.2574
17615SOL    HW254287   5.738   0.812   2.952  1.1536 -1.4938 -1.7450
17616SOL     OW54288   5.550   0.224   3.588  0.0896 -0.3414  0.0032
17616SOL    HW154289   5.601   0.148   3.614  1.3083  0.2801 -0.5098
17616SOL    HW254290   5.534   0.210   3.494 -1.8899 -1.1977  0.4140
17617SOL     OW54291   6.720   7.841   0.155  0.1710 -0.2119 -0.3493
17617SOL    HW154292   6.639   7.837   0.206  0.6100  0.1188  0.3842
17617SOL    HW254293   6.691   7.830   0.064 -0.7730  0.6210 -0.1717
17618SOL     OW54294   5.797   6.808   2.444 -0.0750  0.3323 -0.5395
17618SOL    HW154295   5.858   6.880   2.423 -0.2315  0.9143  0.9003
17618SOL    HW254296   5.752   6.838   2.523 -0.9652 -0.8737 -0.5787
17619SOL     OW54297   6.575   2.623   2.702 -0.4314 -0.2497 -0.2321
17619SOL    HW154298   6.650   2.682   2.701 -0.6491  0.2108  2.3238
17619SOL    HW254299   6.511   2.667   2.758 -1.5853 -1.7916 -0.2670
17620SOL     OW54300   7.289   1.096   2.582 -0.4451  0.0324 -0.0376
17620SOL    HW154301   7.289   1.010   2.540  1.5811 -0.9496  1.7558
17620SOL    HW254302   7.380   1.125   2.575 -0.4526  0.6593  1.9637
17621SOL     OW54303   6.798   1.607   1.240 -0.0715  0.1116  0.4766
17621SOL    HW154304   6.756   1.559   1.168  2.6604 -2.8758  0.6138
17621SOL    HW254305   6.880   1.640   1.202  0.7707 -0.3533  1.7989
17622SOL     OW54306   5.904   2.358   1.921 -0.0939  0.5720 -0.1102
17622SOL    HW154307   5.991   2.393   1.902  0.7875  0.0502  2.4948
17622SOL    HW254308   5.850   2.434   1.940 -0.0339  0.8478 -0.9819
17623SOL     OW54309   7.651   7.454   0.537  0.3213  1.0120 -0.3728
17623SOL    HW154310   7.678   7.395   0.467  1.1734  0.1282  0.6664
17623SOL    HW254311   7.571   7.495   0.504  1.3055  1.4803 -2.3210
17624SOL     OW54312   6.818   7.435   1.664 -0.6156  0.1034 -0.2088
17624SOL    HW154313   6.905   7.402   1.688 -0.1294  0.3353 -1.5639
17624SOL    HW254314   6.831   7.528   1.648 -1.4008  0.4114  0.8350
17625SOL     OW54315   6.040   2.086   5.014  0.0150  0.3439 -0.3842
17625SOL    HW154316   6.052   2.144   5.090 -0.3026 -2.2916  1.8315
17625SOL    HW254317   5.947   2.064   5.015  0.4963 -1.9399  0.2925
17626SOL     OW54318   4.530   1.043   2.339 -0.8189  0.5600 -0.5683
17626SOL    HW154319   4.582   1.106   2.289 -0.1396 -0.1426 -0.7750
17626SOL    HW254320   4.482   0.994   2.272 -0.4601  0.0984 -0.4931
17627SOL     OW54321   6.428   2.246   1.914  0.2223  0.5290  0.0937
17627SOL    HW154322   6.364   2.245   1.842  0.3008  1.7957 -0.0192
17627SOL    HW254323   6.390   2.188   1.980  0.7488 -1.6832 -1.4414
17628SOL     OW54324   7.442   1.356   3.907  0.1602 -0.2449 -0.0567
17628SOL    HW154325   7.405   1.271   3.883 -1.0913  0.4489 -0.6785
17628SOL    HW254326   7.373   1.399   3.959 -0.0674  1.1911 -1.4689
17629SOL     OW54327   7.071   1.243   2.945  0.0846 -0.3471  0.3520
17629SOL    HW154328   7.039   1.154   2.960 -1.0018 -0.3886 -1.8834
17629SOL    HW254329   7.062   1.286   3.030  1.7397 -2.6530  1.7938
17630SOL     OW54330   6.661   2.010   4.119 -0.2375 -0.2128  0.1932
17630SOL    HW154331   6.580   2.034   4.164 -1.1196 -0.3863 -1.2787
17630SOL    HW254332   6.633   1.958   4.044  1.1523  0.5870 -0.9245
17631SOL     OW54333   7.349   1.506   2.325  0.2370 -0.3807  0.0560
17631SOL    HW154334   7.407   1.430   2.336 -1.1503 -1.7103 -1.1844
17631SOL    HW254335   7.268   1.468   2.290 -1.5267  1.3453  2.0321
17632SOL     OW54336   6.689   7.900   2.964  0.2424 -0.4353 -0.1820
17632SOL    HW154337   6.662   7.914   2.874  0.4308 -0.4521 -0.2423
17632SOL    HW254338   6.656   7.813   2.986  1.0853 -0.8709 -0.5782
17633SOL     OW54339   6.668   1.450   1.034  0.6744 -0.2269 -0.5101
17633SOL    HW154340   6.746   1.409   0.998  0.5062  0.6801 -1.9689
17633SOL    HW254341   6.613   1.470   0.959  0.0120  1.1342  0.2856
17634SOL     OW54342   7.585   0.553   2.815 -0.8007  0.2689 -0.8087
17634SOL    HW154343   7.553   0.578   2.728 -2.5110  0.6415 -0.1216
17634SOL    HW254344   7.624   0.633   2.850  0.5537 -0.0710 -1.4839
17635SOL     OW54345   6.628   1.209   2.326 -0.2141 -0.2764  0.2308
17635SOL    HW154346   6.667   1.294   2.309 -0.4464 -0.3094 -0.5029
17635SOL    HW254347   6.591   1.217   2.414  0.8932 -0.0510  0.6931
17636SOL     OW54348   5.786   0.151   1.914 -0.1475  0.1231  0.0473
17636SOL    HW154349   5.873   0.135   1.949 -0.8639  1.3058  2.5374
17636SOL    HW254350   5.799   0.219   1.848  0.8530 -0.0068  0.0998
17637SOL     OW54351   5.687   2.937   1.483 -0.2713 -0.0002 -0.0116
17637SOL    HW154352   5.689   3.023   1.525  0.0472 -0.1067  0.1924
17637SOL    HW254353   5.598   2.929   1.449 -0.5122  0.1181  0.5782
17638SOL     OW54354   5.659   4.462   4.223 -0.0050  0.3327  0.4495
17638SOL    HW154355   5.720   4.510   4.166  0.4674 -1.3699 -0.5542
17638SOL    HW254356   5.704   4.458   4.307  0.8922 -0.1258 -0.0314
17639SOL     OW54357   0.176   7.590   2.482 -0.1131  0.1360  0.3480
17639SOL    HW154358   0.143   7.551   2.562  1.4005 -0.7270  0.5996
17639SOL    HW254359   0.163   7.684   2.493  0.0867  0.0276  1.6142
17640SOL     OW54360   5.868   1.278   1.910  0.3684 -0.2970 -0.0677
17640SOL    HW154361   5.877   1.321   1.995  0.4330 -1.5222  0.5676
17640SOL    HW254362   5.897   1.188   1.925  0.8476 -0.4148 -1.5069
17641SOL     OW54363   6.227   1.789   3.031  0.8428 -0.1023 -0.9641
17641SOL    HW154364   6.246   1.711   3.083  0.2668 -1.3455 -2.5420
17641SOL    HW254365   6.157   1.762   2.972  1.0939  1.4154 -2.0111
17642SOL     OW54366   6.940   2.039   4.291 -0.0388 -0.8083  0.1815
17642SOL    HW154367   6.926   1.946   4.310 -0.0592 -0.4826  2.0011
17642SOL    HW254368   6.958   2.078   4.377  0.7360  0.7437 -0.6461
17643SOL     OW54369   6.903   7.870   3.546 -0.2627  0.1622  0.3992
17643SOL    HW154370   6.867   7.850   3.460 -0.2777  0.3004  0.3742
17643SOL    HW254371   6.997   7.850   3.539 -0.4563 -0.9003  0.6761
17644SOL     OW54372   5.476   7.738   3.985 -0.2636  0.4814 -0.1309
17644SOL    HW154373   5.391   7.752   3.944 -0.2150  0.3560 -0.2750
17644SOL    HW254374   5.539   7.773   3.922 -0.3118  2.5088  0.8629
17645SOL     OW54375   6.978   0.324   3.155  0.4225 -0.1131  0.1319
17645SOL    HW154376   7.063   0.366   3.139  0.5089 -1.0115 -2.2497
17645SOL    HW254377   6.989   0.235   3.123 -0.9972 -0.6955  1.1697
17646SOL     OW54378   7.260   0.936   3.638 -0.7526  0.3174 -0.5374
17646SOL    HW154379   7.218   0.853   3.660 -2.3377  0.0072 -4.1327
17646SOL    HW254380   7.350   0.912   3.614 -0.5262  0.0019  0.5646
17647SOL     OW54381   5.797   2.333   2.309  0.1859  0.2446 -0.1044
17647SOL    HW154382   5.746   2.324   2.228  1.0497  0.2398 -0.6686
17647SOL    HW254383   5.789   2.249   2.353 -0.8511  0.4720  0.1610
17648SOL     OW54384   6.079   0.068   3.018 -0.6141  0.5040  0.3166
17648SOL    HW154385   6.008   0.091   3.078  0.1578  1.7470  0.7876
17648SOL    HW254386   6.079   0.136   2.951 -1.1268 -0.5811 -0.8438
17649SOL     OW54387   7.060   2.753   2.615  0.3759 -0.0563  0.5456
17649SOL    HW154388   7.150   2.749   2.583  0.1445 -1.6482 -0.0234
17649SOL    HW254389   7.041   2.846   2.623  1.7686  0.3213 -0.2185
17650SOL     OW54390   7.760   1.643   3.435  0.3383 -0.0747 -0.0223
17650SOL    HW154391   7.675   1.609   3.460  0.1518 -0.5175 -1.1860
17650SOL    HW254392   7.814   1.634   3.514 -1.1797  2.0491  1.3567
17651SOL     OW54393   6.097   7.527   0.288 -0.1068 -0.1865  0.2875
17651SOL    HW154394   6.175   7.550   0.237 -1.3089  0.2517 -1.4683
17651SOL    HW254395   6.122   7.450   0.338  1.7717  0.5856  0.6188
17652SOL     OW54396   7.341   0.070   3.043  0.5235  0.2567 -0.0647
17652SOL    HW154397   7.375   0.112   3.122  1.6471 -0.7849  0.0468
17652SOL    HW254398   7.395  -0.009   3.034 -0.7297 -0.5327 -0.9137
17653SOL     OW54399   7.228   7.168   2.588 -0.0264 -0.0987  0.4382
17653SOL    HW154400   7.138   7.180   2.618 -0.1986  0.9561 -0.4300
17653SOL    HW254401   7.239   7.073   2.582 -1.8239 -0.2708 -1.5371
17654SOL     OW54402   6.443   2.112   4.779  0.0723  0.6641  0.2278
17654SOL    HW154403   6.369   2.172   4.773 -0.9950 -0.6848 -1.4091
17654SOL    HW254404   6.406   2.032   4.816  0.7219  0.0335 -0.4315
17655SOL     OW54405   7.029   0.306   2.666  0.1265  0.4910 -0.3974
17655SOL    HW154406   7.082   0.298   2.745 -2.1937 -0.5130  1.1526
17655SOL    HW254407   7.054   0.391   2.629 -0.1966  2.0134  2.5806
17656SOL     OW54408   6.202   2.040   2.740 -0.1116  0.2507  0.7977
17656SOL    HW154409   6.275   2.081   2.692  1.5046 -1.6780  1.4615
17656SOL    HW254410   6.231   2.042   2.831 -1.0699 -0.2471  1.1183
17657SOL     OW54411   7.753   0.839   3.512 -0.5108  0.1466 -0.6207
17657SOL    HW154412   7.659   0.842   3.495 -0.7722  0.0778  0.6773
17657SOL    HW254413   7.771   0.747   3.531 -0.3848  0.3184  0.1229
17658SOL     OW54414   6.492   0.031   2.108 -0.0612 -0.2163 -0.2864
17658SOL    HW154415   6.575   0.006   2.068  0.2518 -1.8844  1.2965
17658SOL    HW254416   6.516   0.096   2.174  0.0380 -0.8781  0.3388
17659SOL     OW54417   5.792   1.395   3.459  0.1720 -0.1502  0.3322
17659SOL    HW154418   5.820   1.395   3.367 -1.9471 -1.0928 -0.4047
17659SOL    HW254419   5.744   1.312   3.468 -0.9239  0.6189  1.8575
17660SOL     OW54420   4.278   0.928   2.287 -0.1843  0.0035  0.1360
17660SOL    HW154421   4.290   0.976   2.369  0.4760 -1.5862  1.0114
17660SOL    HW254422   4.252   0.841   2.314 -0.0481 -0.5291 -1.3654
17661SOL     OW54423   5.760   0.688   2.429  0.2357 -0.4593  0.8801
17661SOL    HW154424   5.748   0.780   2.452 -1.5199 -0.6672  0.9195
17661SOL    HW254425   5.783   0.645   2.511  0.8504 -0.1099  0.8989
17662SOL     OW54426   7.456   0.190   4.250 -0.6645  0.1708  0.3853
17662SOL    HW154427   7.458   0.207   4.156  1.0267  1.3547  0.6020
17662SOL    HW254428   7.534   0.137   4.267 -0.7113  0.3467  1.1914
17663SOL     OW54429   6.245   0.261   2.476  0.2247 -0.6523 -0.4697
17663SOL    HW154430   6.311   0.324   2.446  1.1694 -1.3172  0.1767
17663SOL    HW254431   6.275   0.177   2.442  0.1047 -1.0761  0.4514
17664SOL     OW54432   5.036   1.259   1.563 -0.5403 -0.5973  0.4649
17664SOL    HW154433   5.024   1.349   1.595 -3.5578 -0.6098 -0.3710
17664SOL    HW254434   4.993   1.204   1.629  0.0587 -1.3128  0.2679
17665SOL     OW54435   5.543   0.971   1.472 -0.3179 -0.5960 -0.3358
17665SOL    HW154436   5.607   1.032   1.508 -1.7445  1.5938 -1.2488
17665SOL    HW254437   5.467   0.979   1.531 -0.7986 -0.8790 -0.9045
17666SOL     OW54438   6.616   1.263   3.897  0.0540 -0.2352  0.0156
17666SOL    HW154439   6.627   1.266   3.802  3.8611 -3.1199  0.1250
17666SOL    HW254440   6.689   1.315   3.932 -0.7139 -0.0114  1.3536
17667SOL     OW54441   5.953   7.706   4.380 -0.6169  0.4290  0.1111
17667SOL    HW154442   5.942   7.704   4.284  0.1099  3.3215 -0.1359
17667SOL    HW254443   6.041   7.672   4.394 -0.8146 -0.2358 -0.2281
17668SOL     OW54444   5.807   0.813   3.905  0.4660 -0.0941  0.1160
17668SOL    HW154445   5.848   0.850   3.983  1.6532  0.8624 -0.9355
17668SOL    HW254446   5.869   0.748   3.873  1.1133  1.1866 -1.3513
17669SOL     OW54447   7.076   0.664   3.207 -0.3108  0.1816  0.5397
17669SOL    HW154448   7.110   0.584   3.166 -0.6615  0.0757  0.4520
17669SOL    HW254449   7.011   0.697   3.145 -0.0353  0.6376  0.4931
17670SOL     OW54450   6.904   7.536   3.312 -0.1360 -0.0478 -0.2706
17670SOL    HW154451   6.825   7.577   3.277  0.1122 -1.6553 -3.0023
17670SOL    HW254452   6.877   7.447   3.333  0.8854 -0.6189 -1.2541
17671SOL     OW54453   5.426   0.699   0.739 -0.6280  0.4820  0.4222
17671SOL    HW154454   5.331   0.709   0.730 -0.4386  1.9748 -0.1958
17671SOL    HW254455   5.459   0.788   0.747  0.8233  0.0556 -0.3935
17672SOL     OW54456   0.988   1.689   4.957  0.1887  0.8127  0.3684
17672SOL    HW154457   1.074   1.654   4.934 -0.4014 -0.1250 -0.4715
17672SOL    HW254458   0.978   1.766   4.901 -0.2849 -0.1590 -0.9323
17673SOL     OW54459   7.147   0.692   3.742 -0.2444  0.0468 -0.0181
17673SOL    HW154460   7.112   0.676   3.654  1.1164  0.0160 -0.5868
17673SOL    HW254461   7.171   0.606   3.775 -1.3670 -0.0189  0.6816
17674SOL     OW54462   7.461   0.834   3.486  0.2404  0.0224 -0.8145
17674SOL    HW154463   7.428   0.782   3.413  2.8650  0.9784 -2.8600
17674SOL    HW254464   7.465   0.924   3.452 -0.1336  0.8290  1.1403
17675SOL     OW54465   5.779   0.345   1.671  0.8540 -0.1327 -0.0272
17675SOL    HW154466   5.873   0.359   1.660  0.5242  1.9667 -0.4927
17675SOL    HW254467   5.749   0.313   1.586  1.1891 -1.2526  0.2569
17676SOL     OW54468   5.723   1.679   1.352  0.5236 -0.7259 -0.0038
17676SOL    HW154469   5.631   1.707   1.347  0.6981 -0.2609 -1.0576
17676SOL    HW254470   5.718   1.584   1.362 -0.0740 -0.5851  1.1773
17677SOL     OW54471   6.666   1.368   3.620 -0.1875  0.3939  0.0767
17677SOL    HW154472   6.732   1.343   3.556  1.4844  0.7762  1.5897
17677SOL    HW254473   6.643   1.458   3.596  0.5715  0.6065  0.1284
17678SOL     OW54474   7.291   1.248   2.020 -0.1745  0.1964  0.0470
17678SOL    HW154475   7.237   1.272   2.095 -0.2627  0.3907 -0.0788
17678SOL    HW254476   7.369   1.303   2.028 -0.7387  1.1354 -0.6937
17679SOL     OW54477   6.021   2.267   2.781 -0.2428 -0.2368  0.3818
17679SOL    HW154478   6.087   2.199   2.765 -0.3055 -0.1983 -0.0501
17679SOL    HW254479   5.943   2.220   2.810 -0.4086 -0.3829 -0.2942
17680SOL     OW54480   5.905   3.248   3.529 -0.0084  0.0396 -0.0448
17680SOL    HW154481   5.816   3.244   3.563  0.0182  1.3093  0.2134
17680SOL    HW254482   5.919   3.162   3.489 -1.6826  0.1542 -0.9621
17681SOL     OW54483   6.386   0.559   1.294  0.5837 -0.0010 -0.1677
17681SOL    HW154484   6.299   0.558   1.255  0.7221 -3.1553 -0.6138
17681SOL    HW254485   6.428   0.636   1.256 -1.4298  0.6447 -1.2412
17682SOL     OW54486   7.635   3.444   2.410  0.2476 -0.0978 -0.3141
17682SOL    HW154487   7.611   3.431   2.502  0.9005  0.2270 -0.0940
17682SOL    HW254488   7.623   3.358   2.370  1.3351 -0.5967  0.3931
17683SOL     OW54489   6.795   0.288   2.836  0.1000  0.0978  0.1237
17683SOL    HW154490   6.866   0.288   2.772  0.3270  2.8060  0.2517
17683SOL    HW254491   6.716   0.300   2.784 -0.3147 -2.5826  0.0123
17684SOL     OW54492   0.351   1.184   2.516  0.2442  0.0283 -0.3940
17684SOL    HW154493   0.381   1.098   2.488 -1.3609 -0.0737 -1.9981
17684SOL    HW254494   0.425   1.242   2.497  1.3701 -0.9581  0.7660
17685SOL     OW54495   5.541   0.499   2.700  0.1721 -0.2390 -0.5408
17685SOL    HW154496   5.541   0.557   2.776  0.1620 -0.9166 -0.0090
17685SOL    HW254497   5.632   0.493   2.674  0.1594  0.0966 -0.6613
17686SOL     OW54498   5.996   1.866   2.637 -0.9211  1.0237 -0.0689
17686SOL    HW154499   6.018   1.906   2.553 -0.8378 -1.3916 -1.2909
17686SOL    HW254500   6.058   1.904   2.699 -0.1967  1.9888 -1.3386
17687SOL     OW54501   6.862   3.634   3.632 -0.2807 -0.0185 -0.0449
17687SOL    HW154502   6.854   3.580   3.553 -2.8429  0.1680  0.0242
17687SOL    HW254503   6.836   3.721   3.604  2.4017  0.9473  0.2024
17688SOL     OW54504   5.409   2.238   2.046  0.0795  0.0392 -0.1816
17688SOL    HW154505   5.348   2.166   2.032  0.1748  0.0939 -0.9045
17688SOL    HW254506   5.379   2.307   1.986 -0.7472  1.0761  1.3351
17689SOL     OW54507   6.319   3.026   4.033 -0.3010  0.2601 -0.5374
17689SOL    HW154508   6.234   3.026   3.988 -0.3366  0.3557 -0.4702
17689SOL    HW254509   6.351   3.115   4.022 -1.1226  0.8028  1.1767
17690SOL     OW54510   6.457   7.637   3.118  0.2779  0.2724  0.4493
17690SOL    HW154511   6.424   7.686   3.043 -0.8385 -0.3718  0.5008
17690SOL    HW254512   6.382   7.629   3.177  0.4525 -1.3681  0.5035
17691SOL     OW54513   6.021   0.761   0.707 -0.2565  0.2169 -0.2988
17691SOL    HW154514   5.995   0.853   0.708 -0.0183  0.2832 -0.2755
17691SOL    HW254515   6.096   0.757   0.766 -1.5439 -0.3635  1.4147
17692SOL     OW54516   7.345   0.864   1.507  0.4396 -0.4087 -0.4820
17692SOL    HW154517   7.306   0.817   1.434  1.1387 -0.2885 -0.9415
17692SOL    HW254518   7.437   0.837   1.507  0.6300  0.2128 -0.1531
17693SOL     OW54519   7.003   0.956   2.954  0.4543  0.7356 -0.1943
17693SOL    HW154520   6.953   0.881   2.986 -1.6573  1.8391 -0.7111
17693SOL    HW254521   7.083   0.956   3.006 -0.5792 -0.4654  1.4916
17694SOL     OW54522   7.779   1.141   2.127  0.1068 -0.0402  0.0943
17694SOL    HW154523   7.692   1.180   2.119 -1.0429 -1.8975  2.2212
17694SOL    HW254524   7.793   1.132   2.221  3.2044  1.3126 -0.1150
17695SOL     OW54525   5.763   3.100   4.347 -0.0974  0.0991 -0.0539
17695SOL    HW154526   5.691   3.036   4.353  0.7970 -0.8145  1.5960
17695SOL    HW254527   5.724   3.174   4.301 -1.7117 -0.8985 -0.4047
17696SOL     OW54528   7.778   1.472   2.199  0.2649  0.2141  0.5508
17696SOL    HW154529   7.853   1.450   2.143  0.8288  2.4701  0.2857
17696SOL    HW254530   7.815   1.480   2.287  0.5008  1.8300  0.3390
17697SOL     OW54531   7.309   2.734   2.521  0.1164  0.4961 -0.1578
17697SOL    HW154532   7.360   2.814   2.536 -0.4597  1.3550 -2.3807
17697SOL    HW254533   7.367   2.663   2.547  1.2293  1.5653  0.3915
17698SOL     OW54534   7.124   1.505   1.980  0.4166  0.1789 -0.2259
17698SOL    HW154535   7.108   1.430   2.037 -0.3159  0.8846  0.5334
17698SOL    HW254536   7.050   1.564   1.997  0.7887  0.9159 -1.0654
17699SOL     OW54537   7.023   0.906   2.086 -0.0106 -0.0558  0.1251
17699SOL    HW154538   7.014   1.000   2.102  1.6991  0.2546 -0.4681
17699SOL    HW254539   7.117   0.893   2.075 -0.0963 -2.0211  1.2083
17700SOL     OW54540   5.498   2.335   0.167 -0.0915 -0.0749  0.1730
17700SOL    HW154541   5.561   2.353   0.098  0.8635 -1.6172  0.5859
17700SOL    HW254542   5.455   2.419   0.183  1.8433  1.0232 -0.1237
17701SOL     OW54543   7.967   1.203   2.802  0.3732 -0.0608 -0.0144
17701SOL    HW154544   7.952   1.293   2.774 -1.1179 -0.4531 -0.5625
17701SOL    HW254545   7.891   1.154   2.770  1.7903 -1.7912 -0.9233
17702SOL     OW54546   7.014   3.677   2.553 -0.1997  0.5044 -0.6553
17702SOL    HW154547   7.004   3.682   2.648 -2.0064 -2.0864 -0.6188
17702SOL    HW254548   7.073   3.602   2.539 -0.2867  0.5955 -1.5843
17703SOL     OW54549   6.711   1.295   4.193  0.3875  0.4405  0.2066
17703SOL    HW154550   6.631   1.340   4.219 -0.1374  0.2839 -1.0727
17703SOL    HW254551   6.692   1.260   4.106  1.4019 -0.7196  0.4242
17704SOL     OW54552   6.312   0.485   3.634 -0.5601 -0.3124 -0.2961
17704SOL    HW154553   6.388   0.429   3.650 -1.0887 -0.8605  0.3750
17704SOL    HW254554   6.313   0.501   3.540  1.6775  1.5949 -0.0397
17705SOL     OW54555   4.664   0.569   0.664 -0.1400  0.5416 -0.2280
17705SOL    HW154556   4.660   0.663   0.679 -2.6835  0.5793 -0.7381
17705SOL    HW254557   4.654   0.559   0.569 -1.5236 -0.2730 -0.0190
17706SOL     OW54558   6.735   0.517   1.024  0.5919 -0.3571 -0.9942
17706SOL    HW154559   6.663   0.569   0.989 -1.2708 -2.0875  0.1008
17706SOL    HW254560   6.724   0.430   0.985 -0.0511 -1.6228  1.8256
17707SOL     OW54561   6.307   7.988   2.377  0.6062  0.3097  0.3716
17707SOL    HW154562   6.224   7.941   2.388  1.5210 -2.6050 -3.0457
17707SOL    HW254563   6.371   7.936   2.426  1.3231 -1.1995 -1.9865
17708SOL     OW54564   5.939   0.432   3.774  0.0726  0.4625 -0.4330
17708SOL    HW154565   5.849   0.399   3.765 -0.4822  1.6856  0.3125
17708SOL    HW254566   5.938   0.517   3.730  1.4098 -0.3555 -2.1318
17709SOL     OW54567   6.210   2.599   4.720 -0.5106  0.3612  0.0629
17709SOL    HW154568   6.253   2.684   4.707 -0.8594  1.2109  3.4937
17709SOL    HW254569   6.242   2.546   4.647  0.4381  3.1248 -1.7313
17710SOL     OW54570   6.762   0.500   3.037  0.1065  0.1700 -0.0734
17710SOL    HW154571   6.782   0.431   2.973  1.8101  0.4513  0.0994
17710SOL    HW254572   6.765   0.456   3.121 -1.6638 -0.0989 -0.1067
17711SOL     OW54573   5.506   0.812   2.752  0.1653 -0.2495  0.2165
17711SOL    HW154574   5.473   0.829   2.840 -1.5732 -2.5797  0.0980
17711SOL    HW254575   5.585   0.760   2.766 -1.5270 -2.9068  0.4723
17712SOL     OW54576   5.710   2.392   4.201 -0.2274 -0.0093  0.2170
17712SOL    HW154577   5.671   2.326   4.143 -0.5189  0.7247 -0.4323
17712SOL    HW254578   5.804   2.377   4.193 -0.2800 -0.1772 -0.1265
17713SOL     OW54579   6.663   0.457   3.421  0.6044 -0.0354  0.4301
17713SOL    HW154580   6.667   0.499   3.335  1.2231 -1.3413 -0.2045
17713SOL    HW254581   6.570   0.458   3.443  0.1137 -1.7319 -1.3303
17714SOL     OW54582   6.819   7.732   1.694 -0.3532  0.5217  0.3870
17714SOL    HW154583   6.901   7.770   1.726 -0.2044 -0.2930  0.9949
17714SOL    HW254584   6.759   7.736   1.769 -0.8324  0.9728 -0.0077
17715SOL     OW54585   6.897   0.849   1.844 -0.3178 -0.4223  0.1681
17715SOL    HW154586   6.934   0.893   1.920 -1.0799 -0.3098  0.4838
17715SOL    HW254587   6.886   0.758   1.871 -1.4241 -0.2044  0.5260
17716SOL     OW54588   7.755   0.278   3.937 -0.1701  0.0666  0.2061
17716SOL    HW154589   7.790   0.360   3.903  0.1075 -0.5917 -1.1694
17716SOL    HW254590   7.793   0.269   4.024 -0.1681  1.3611  0.3495
17717SOL     OW54591   1.111   1.749   3.748 -0.2760  0.0035 -0.2836
17717SOL    HW154592   1.076   1.680   3.804 -1.2140  1.4432  0.9877
17717SOL    HW254593   1.085   1.724   3.659 -1.3523 -0.8252  0.2536
17718SOL     OW54594   5.413   0.265  12.276  0.2091  0.5227 -0.2334
17718SOL    HW154595   5.505   0.241  12.278  0.1317  0.1983 -0.4916
17718SOL    HW254596   5.374   0.220  12.352  0.7637  2.8148  1.5438
17719SOL     OW54597   6.344   0.985   2.089 -0.2261  0.3864  0.0965
17719SOL    HW154598   6.323   0.934   2.168 -0.0502  1.4912  0.8793
17719SOL    HW254599   6.259   1.008   2.052 -0.3443  0.8132  0.6102
17720SOL     OW54600   5.980   7.908   2.580  0.6538 -0.3972  0.0780
17720SOL    HW154601   5.956   7.821   2.612  0.6931 -0.7168 -0.7252
17720SOL    HW254602   6.069   7.922   2.611  0.6450 -0.6449  0.2135
17721SOL     OW54603   7.504   2.438   2.854 -0.0020  0.9231 -0.7396
17721SOL    HW154604   7.415   2.449   2.890 -0.6697 -1.3610 -1.5178
17721SOL    HW254605   7.558   2.498   2.906 -2.0321  2.6320 -0.4549
17722SOL     OW54606   7.092   3.730   4.067 -0.8506 -0.1676 -0.1388
17722SOL    HW154607   7.050   3.806   4.026  0.6858 -0.9565 -3.4731
17722SOL    HW254608   7.136   3.766   4.144  0.5787  2.5950 -2.0722
17723SOL     OW54609   4.093   1.229   1.834 -0.7155 -0.1668 -0.3763
17723SOL    HW154610   4.043   1.181   1.900  1.3661  1.3026  2.5132
17723SOL    HW254611   4.185   1.208   1.855  0.0502  0.8681 -2.4632
17724SOL     OW54612   7.318   0.623   2.331 -0.1796  0.0112  0.1339
17724SOL    HW154613   7.260   0.561   2.287 -1.2129 -0.4565  2.0238
17724SOL    HW254614   7.265   0.702   2.341  0.3624  0.4325 -0.2842
17725SOL     OW54615   5.145   0.109   2.137  0.2836 -0.3349  0.1288
17725SOL    HW154616   5.143   0.097   2.042  1.4999  0.4534 -0.0115
17725SOL    HW254617   5.206   0.042   2.168  0.6227  0.0309  0.2502
17726SOL     OW54618   6.986   1.395   3.182 -0.2835  0.3083 -0.2377
17726SOL    HW154619   7.037   1.461   3.135 -1.9688 -0.2765 -3.1348
17726SOL    HW254620   7.051   1.344   3.230  1.1932  3.2316  1.1764
17727SOL     OW54621   5.437   0.470   3.973 -0.0745 -0.6847  0.2541
17727SOL    HW154622   5.473   0.450   3.887 -1.8540 -3.9145  0.1169
17727SOL    HW254623   5.344   0.450   3.965 -0.3890 -0.5425  2.7727
17728SOL     OW54624   6.395   0.710   2.350  0.1484 -0.0203  0.0561
17728SOL    HW154625   6.424   0.801   2.359 -2.2674  0.9262 -0.8572
17728SOL    HW254626   6.370   0.702   2.258 -1.2368 -1.1125  0.5035
17729SOL     OW54627   7.523   1.300   2.361 -0.0402  0.4546  0.1850
17729SOL    HW154628   7.540   1.286   2.455 -1.3034  1.2475  0.5500
17729SOL    HW254629   7.610   1.301   2.321  0.5182  0.0875  1.3450
17730SOL     OW54630   6.739   6.392   2.154 -0.1160 -0.3018 -0.0702
17730SOL    HW154631   6.795   6.318   2.177 -0.0379  0.2258  1.5764
17730SOL    HW254632   6.744   6.397   2.059  2.0307 -0.7368 -0.0346
17731SOL     OW54633   6.211   0.027   1.205  0.2704  0.1502  0.1296
17731SOL    HW154634   6.142   0.092   1.196 -1.3088 -1.4121  0.3297
17731SOL    HW254635   6.192  -0.016   1.289  1.4007 -0.4284  0.1098
17732SOL     OW54636   7.312   2.898   3.274 -0.1068  0.3398  0.0366
17732SOL    HW154637   7.341   2.985   3.246  2.9100  0.2101  2.2810
17732SOL    HW254638   7.294   2.908   3.368 -0.7806 -1.2330  0.1073
17733SOL     OW54639   6.484   7.137   2.016  0.0575 -0.0050 -0.5352
17733SOL    HW154640   6.549   7.089   2.067 -0.4462  1.9544  2.1730
17733SOL    HW254641   6.401   7.118   2.058 -0.6968  0.0846 -1.9284
17734SOL     OW54642   6.464   2.115   2.678 -0.0297  0.7630 -0.0824
17734SOL    HW154643   6.487   2.195   2.725  3.0077  0.3150 -0.5922
17734SOL    HW254644   6.478   2.136   2.586 -0.4045 -0.0052 -0.3295
17735SOL     OW54645   7.267   1.841   2.696 -0.1852 -0.0381  0.2728
17735SOL    HW154646   7.343   1.859   2.640 -1.1267  0.6999 -0.8095
17735SOL    HW254647   7.193   1.839   2.635 -0.8720 -2.2222  1.0987
17736SOL     OW54648   5.393   0.579   1.542  0.3573  0.3006 -0.1627
17736SOL    HW154649   5.444   0.560   1.464 -0.4614 -1.3798 -0.3274
17736SOL    HW254650   5.456   0.572   1.614  0.6279 -0.5786 -0.4688
17737SOL     OW54651   4.254   2.093   2.190  0.0062 -0.5751  0.0624
17737SOL    HW154652   4.267   2.027   2.258 -0.2091 -0.6725  0.0102
17737SOL    HW254653   4.267   2.046   2.108 -0.7100 -0.6897  0.0060
17738SOL     OW54654   3.463   1.621   4.790 -0.2654  0.1343 -0.2153
17738SOL    HW154655   3.407   1.636   4.866  0.5456  3.2783 -0.1237
17738SOL    HW254656   3.416   1.660   4.717 -0.6098 -2.0583 -1.2507
17739SOL     OW54657   6.613   2.149   3.297  0.1719  0.6503  0.2063
17739SOL    HW154658   6.687   2.111   3.345  0.5587  1.7195  0.4734
17739SOL    HW254659   6.637   2.138   3.204 -0.1267 -0.5246  0.2509
17740SOL     OW54660   5.450   1.754   4.938 -0.4447 -0.5697 -0.2457
17740SOL    HW154661   5.527   1.800   4.903 -1.1557 -0.1593 -1.3454
17740SOL    HW254662   5.469   1.661   4.922  0.5831 -0.6260  1.1200
17741SOL     OW54663   6.035   1.912   4.674  0.4149  0.0572  0.0182
17741SOL    HW154664   6.067   1.840   4.620  1.1623 -0.4008  1.0399
17741SOL    HW254665   6.000   1.869   4.752 -0.0505  0.7541  0.1996
17742SOL     OW54666   5.748   1.218   3.874  0.0660 -0.4703 -0.1443
17742SOL    HW154667   5.676   1.267   3.834 -0.2538 -1.3117 -0.6340
17742SOL    HW254668   5.762   1.261   3.958 -0.6209  0.0723 -0.2931
17743SOL     OW54669   5.356   7.972   5.364  0.0592  0.4135 -0.0143
17743SOL    HW154670   5.343   7.939   5.275 -2.9014 -1.5232  0.9961
17743SOL    HW254671   5.431   7.922   5.397  0.7011  0.5997 -1.1323
17744SOL     OW54672   6.314   1.384   4.857  0.7006  0.2194 -0.6017
17744SOL    HW154673   6.340   1.473   4.878  2.0370 -0.0525 -0.9952
17744SOL    HW254674   6.238   1.394   4.800 -0.1255  1.0495  0.6022
17745SOL     OW54675   6.111   2.820   5.260 -0.4552  0.1518  0.2536
17745SOL    HW154676   6.182   2.756   5.257 -1.6242 -1.1876 -1.1572
17745SOL    HW254677   6.077   2.815   5.349  0.2663 -0.2843  0.5089
17746SOL     OW54678   6.037   1.661   5.908 -0.3097  0.1432 -0.7637
17746SOL    HW154679   6.032   1.614   5.825  1.2552  2.6918 -2.4421
17746SOL    HW254680   5.971   1.729   5.901  0.7836  1.2528 -0.5530
17747SOL     OW54681   6.237   0.040   6.219 -0.2721 -0.4717 -0.0558
17747SOL    HW154682   6.211   0.104   6.285  0.5203  0.2267 -0.4063
17747SOL    HW254683   6.170   0.045   6.152  0.5681  1.1302 -0.8348
17748SOL     OW54684   6.474   1.204   4.946  0.5776  0.5359 -0.3079
17748SOL    HW154685   6.413   1.260   4.898  0.0322 -0.2510 -0.5614
17748SOL    HW254686   6.488   1.249   5.029  0.1554  1.0435 -0.5053
17749SOL     OW54687   6.733   1.128   4.424  0.2874 -0.5204  0.3944
17749SOL    HW154688   6.647   1.148   4.461 -0.3268 -1.6645 -0.3702
17749SOL    HW254689   6.738   1.182   4.345 -0.8958 -2.4065 -1.0453
17750SOL     OW54690   5.629   0.603   4.440  0.0090 -0.4427 -0.0026
17750SOL    HW154691   5.622   0.691   4.478 -0.3760 -0.4914  0.0436
17750SOL    HW254692   5.722   0.582   4.445 -0.1565 -0.9881  2.1832
17751SOL     OW54693   5.570   0.625   4.863  0.3151  0.2047  0.3463
17751SOL    HW154694   5.507   0.572   4.815  0.0960 -0.4334  1.3289
17751SOL    HW254695   5.654   0.604   4.823  0.2931 -1.2408  1.0072
17752SOL     OW54696   1.026   2.812   4.669  0.2408 -0.3721  0.0633
17752SOL    HW154697   1.067   2.727   4.683  0.8448 -0.6269 -2.7001
17752SOL    HW254698   0.954   2.795   4.609 -0.8953  0.8069  1.0321
17753SOL     OW54699   4.061   2.542   4.456  0.1243 -0.5760 -0.2349
17753SOL    HW154700   4.016   2.626   4.457 -0.4689 -0.8824 -0.7455
17753SOL    HW254701   4.026   2.497   4.380 -0.0148 -1.5250  0.3736
17754SOL     OW54702   7.118   2.229   4.953 -0.6049  0.5826  0.2298
17754SOL    HW154703   7.121   2.316   4.912  0.8045  1.0704  1.3102
17754SOL    HW254704   7.174   2.175   4.897  0.1768  0.8989  0.6889
17755SOL     OW54705   5.505   1.585   3.113 -0.2937 -0.4692  0.0754
17755SOL    HW154706   5.572   1.653   3.116  0.0326 -0.7116 -1.1926
17755SOL    HW254707   5.532   1.528   3.041 -1.5189 -0.9392 -0.0274
17756SOL     OW54708   6.354   2.829   2.666  0.0676  0.3112  0.7775
17756SOL    HW154709   6.385   2.806   2.578  2.4274  1.3903  1.2422
17756SOL    HW254710   6.291   2.761   2.688 -0.9432  0.2650 -1.9119
17757SOL     OW54711   4.323   0.949   4.341  0.1978  0.1624  0.1839
17757SOL    HW154712   4.286   0.870   4.301  1.9075 -1.7838  2.1266
17757SOL    HW254713   4.391   0.977   4.279  1.8863 -2.0008  0.8990
17758SOL     OW54714   4.546   0.991   3.504  0.2550 -0.7969  0.3912
17758SOL    HW154715   4.538   0.924   3.572 -1.3078  0.6655  1.7569
17758SOL    HW254716   4.456   1.015   3.483  0.7436 -0.4060 -1.4140
17759SOL     OW54717   6.236   6.467   3.473  0.0614  0.1511  0.6797
17759SOL    HW154718   6.218   6.402   3.541 -0.6434 -0.3592  0.0253
17759SOL    HW254719   6.195   6.547   3.505 -0.8980 -0.2670  0.5413
17760SOL     OW54720   7.039   0.055   3.142  0.0333  0.0606  0.6873
17760SOL    HW154721   6.995  -0.023   3.109 -0.2297  0.3003  0.4700
17760SOL    HW254722   7.127   0.050   3.104  0.0109 -0.1136  0.6541
17761SOL     OW54723   7.892   1.897   4.920 -0.6292 -0.1512  0.1005
17761SOL    HW154724   7.826   1.848   4.969 -0.6275 -1.6277 -1.3145
17761SOL    HW254725   7.972   1.845   4.928 -0.3439  0.1758 -0.5258
17762SOL     OW54726   5.371   1.684   4.566  0.3093 -0.0292 -0.4965
17762SOL    HW154727   5.332   1.644   4.644  0.1258 -0.2152 -0.6849
17762SOL    HW254728   5.329   1.770   4.559 -1.2367 -0.8401 -1.5992
17763SOL     OW54729   6.725   0.578   4.006 -0.1696  0.5571  0.1410
17763SOL    HW154730   6.806   0.532   4.027  0.2584  1.2543  0.0496
17763SOL    HW254731   6.709   0.557   3.914 -1.2791 -1.3388  0.7033
17764SOL     OW54732   7.200   0.936   4.285 -0.2614  0.0490  0.3101
17764SOL    HW154733   7.171   0.845   4.292 -0.6121  0.2034  0.9042
17764SOL    HW254734   7.182   0.960   4.194 -2.9685  0.4481  0.8642
17765SOL     OW54735   6.417   0.793   5.025  0.5959  0.3934  0.5481
17765SOL    HW154736   6.449   0.768   4.939 -0.7942 -0.2074  0.1728
17765SOL    HW254737   6.491   0.836   5.067  0.8917  2.0078 -1.4622
17766SOL     OW54738   4.291   1.855   4.581  0.1338  0.1427 -0.2907
17766SOL    HW154739   4.325   1.788   4.641  0.2687 -0.5753 -1.1370
17766SOL    HW254740   4.227   1.904   4.633  0.6519 -0.0921  0.5994
17767SOL     OW54741   4.443   0.554   5.969 -0.4472  0.6074 -0.1627
17767SOL    HW154742   4.443   0.470   6.016 -2.4291 -0.9475 -2.6596
17767SOL    HW254743   4.438   0.620   6.037  2.6218 -1.1670  1.9934
17768SOL     OW54744   4.453   7.649   4.937 -0.3671  0.1332  0.1399
17768SOL    HW154745   4.393   7.616   4.870  1.4629 -0.3510 -1.3328
17768SOL    HW254746   4.397   7.662   5.014 -1.7084 -4.4301  0.2585
17769SOL     OW54747   6.516   0.050   3.482  0.0729  0.1335  0.1116
17769SOL    HW154748   6.513   0.079   3.391  0.7525  0.1403  0.0822
17769SOL    HW254749   6.426   0.027   3.504 -0.6604  2.8366  0.3342
17770SOL     OW54750   6.347   1.914   5.507 -0.1891  0.2187  0.7169
17770SOL    HW154751   6.324   2.004   5.527  0.6920  0.8089 -0.7475
17770SOL    HW254752   6.414   1.921   5.439 -1.4623 -1.5495 -0.8480
17771SOL     OW54753   6.667   0.221   3.671 -0.3267  0.0470 -0.6871
17771SOL    HW154754   6.627   0.173   3.598  0.9838 -0.4935 -1.0866
17771SOL    HW254755   6.755   0.184   3.678 -0.7119 -0.6291  1.8138
17772SOL     OW54756   6.087   3.730   5.035 -0.0802 -0.1691 -0.4698
17772SOL    HW154757   6.041   3.651   5.006 -0.1196 -0.4745  0.3914
17772SOL    HW254758   6.096   3.719   5.130 -0.7019  1.1782 -0.2253
17773SOL     OW54759   7.208   1.829   3.464  0.0542 -0.1917  0.0543
17773SOL    HW154760   7.147   1.783   3.406 -0.8656  0.3816  0.5459
17773SOL    HW254761   7.283   1.770   3.470  0.2669 -0.1815 -1.8650
17774SOL     OW54762   6.250   1.544   2.827 -0.2349 -0.3390  0.1859
17774SOL    HW154763   6.231   1.453   2.851 -1.7287  0.0907  0.7595
17774SOL    HW254764   6.178   1.594   2.866 -0.0157  0.9746 -1.0325
17775SOL     OW54765   7.053   1.114   3.942 -0.2101 -0.0524  0.2332
17775SOL    HW154766   7.072   1.020   3.952 -1.4808 -0.2887  0.6653
17775SOL    HW254767   7.043   1.146   4.032  1.5718  0.8202  0.1485
17776SOL     OW54768   0.048   1.244   4.285 -0.2503  0.3056  0.2169
17776SOL    HW154769   0.068   1.183   4.356 -0.4966  1.2708  1.1372
17776SOL    HW254770  -0.027   1.206   4.240  1.8149 -1.9584 -1.5559
17777SOL     OW54771   6.340   2.370   5.042  0.1433  0.0230  0.3324
17777SOL    HW154772   6.266   2.389   4.986  0.5912  0.5587 -0.0940
17777SOL    HW254773   6.301   2.342   5.125 -0.5232 -1.8900 -0.5841
17778SOL     OW54774   7.483   0.274   5.319  0.2334 -0.4165  0.3128
17778SOL    HW154775   7.524   0.230   5.394 -0.2643 -0.6752  0.4369
17778SOL    HW254776   7.431   0.206   5.277 -1.8099  0.3770  1.4164
17779SOL     OW54777   5.824   0.695   5.721  0.0978 -0.0433  0.2744
17779SOL    HW154778   5.888   0.752   5.763  0.2888 -1.1462  1.5527
17779SOL    HW254779   5.777   0.752   5.660  0.2954  1.4629  1.4738
17780SOL     OW54780   5.261   1.967   5.283  0.7418 -0.4614  0.0568
17780SOL    HW154781   5.311   1.929   5.355 -1.6721 -0.1632  2.0434
17780SOL    HW254782   5.186   1.909   5.273 -0.9252  1.5427  0.4142
17781SOL     OW54783   6.355   2.017   3.020 -0.3506 -0.0087 -0.4468
17781SOL    HW154784   6.292   2.083   3.047 -0.5398  0.4501 -1.9206
17781SOL    HW254785   6.305   1.936   3.014 -0.6870  0.2403 -1.0659
17782SOL     OW54786   4.307   3.802   5.124  0.0652 -0.2598 -0.1057
17782SOL    HW154787   4.262   3.850   5.193  0.2065 -1.8972  1.1844
17782SOL    HW254788   4.237   3.768   5.068 -0.1179  0.0191 -0.0438
17783SOL     OW54789   5.919   0.172   3.226 -0.4627 -0.0156  0.2857
17783SOL    HW154790   5.926   0.247   3.285 -0.8452  0.8483 -0.7346
17783SOL    HW254791   5.886   0.102   3.281  0.1872  0.4696  1.3350
17784SOL     OW54792   7.218   0.593   6.079  0.0683 -0.2150 -0.0511
17784SOL    HW154793   7.178   0.678   6.097 -2.2486 -1.1372 -0.4841
17784SOL    HW254794   7.175   0.532   6.139  1.3532 -1.1743 -0.0569
17785SOL     OW54795   7.218   2.974   3.545 -0.4915 -0.2608  0.3076
17785SOL    HW154796   7.218   2.883   3.575 -1.1064 -0.1905  0.5330
17785SOL    HW254797   7.284   3.017   3.600 -0.6594 -0.4288  0.6438
17786SOL     OW54798   6.670   0.852   4.345 -0.4723  0.4723  0.2339
17786SOL    HW154799   6.692   0.945   4.351  1.2698  0.0820  0.4595
17786SOL    HW254800   6.702   0.825   4.258 -1.5535  0.2162 -0.0975
17787SOL     OW54801   7.115   1.990   4.781  0.0962  0.2753  0.6165
17787SOL    HW154802   7.204   1.991   4.745 -0.1230 -0.2693  0.0466
17787SOL    HW254803   7.072   2.065   4.740 -0.0829 -0.2048 -0.0928
17788SOL     OW54804   4.654   2.373   4.534  0.1831  0.2895  0.4402
17788SOL    HW154805   4.720   2.352   4.467 -1.2248 -0.6579 -0.7171
17788SOL    HW254806   4.571   2.374   4.486 -0.6182  1.9303  1.7706
17789SOL     OW54807   1.357   0.738   4.217  0.3937 -0.0884  0.6958
17789SOL    HW154808   1.265   0.757   4.200  0.9668  1.6272 -0.8024
17789SOL    HW254809   1.386   0.689   4.140  0.6119 -1.1416  1.4289
17790SOL     OW54810   7.099   0.171   2.182  0.4462  0.2784  0.3185
17790SOL    HW154811   7.140   0.141   2.264  0.2270  0.6866  0.5770
17790SOL    HW254812   7.007   0.145   2.191  0.7723 -1.3317 -0.5888
17791SOL     OW54813   0.350   0.487   5.605 -0.3302 -0.2363 -0.5028
17791SOL    HW154814   0.276   0.546   5.591 -0.8222  0.1415  2.7408
17791SOL    HW254815   0.311   0.410   5.647  0.9739 -0.3169  0.6446
17792SOL     OW54816   6.544   1.681   5.589 -0.0788  0.2043 -0.2127
17792SOL    HW154817   6.482   1.753   5.581 -0.3593  0.0066  0.1483
17792SOL    HW254818   6.630   1.722   5.581 -0.1847  0.7627  1.1588
17793SOL     OW54819   6.542   2.167   5.476  0.2298  0.3312  0.1368
17793SOL    HW154820   6.451   2.195   5.488 -0.0393 -0.7806  0.8942
17793SOL    HW254821   6.582   2.176   5.563  0.3020 -0.9612  0.2627
17794SOL     OW54822   5.580   0.620   5.111 -0.0503  0.6343 -0.2157
17794SOL    HW154823   5.562   0.632   5.018  0.1267  2.0175 -0.0923
17794SOL    HW254824   5.544   0.533   5.131 -2.3437  1.3241 -1.0297
17795SOL     OW54825   7.111   3.353   2.979  0.0074  0.3370 -0.0484
17795SOL    HW154826   7.162   3.276   3.005 -0.8261 -0.2238 -0.0598
17795SOL    HW254827   7.094   3.399   3.062 -2.9966 -1.6620  0.6093
17796SOL     OW54828   3.119   1.380   4.695  0.3243  0.2783  0.3178
17796SOL    HW154829   3.073   1.297   4.702 -1.4233  1.2205  0.6586
17796SOL    HW254830   3.182   1.380   4.767 -0.6551 -0.1734  1.1949
17797SOL     OW54831   7.061   0.234   4.471 -0.0582  0.2790  0.0263
17797SOL    HW154832   7.020   0.182   4.401  0.6366  0.1952 -0.3349
17797SOL    HW254833   7.089   0.315   4.428  1.6588 -0.3588 -0.1669
17798SOL     OW54834   5.402   0.158   4.392  0.2167  0.6466 -0.0506
17798SOL    HW154835   5.423   0.097   4.320  0.2639  0.7827 -0.1516
17798SOL    HW254836   5.447   0.239   4.368  1.6153  0.2154  0.9430
17799SOL     OW54837   7.098   0.911   4.709 -0.0892 -0.0249  0.6125
17799SOL    HW154838   7.159   0.968   4.756 -0.2508  0.2225  0.5282
17799SOL    HW254839   7.065   0.966   4.637 -0.1602 -0.2626  0.4618
17800SOL     OW54840   6.071   0.263   2.838 -0.5271 -0.0721 -0.4437
17800SOL    HW154841   6.008   0.331   2.860 -0.7203  0.0907 -1.4646
17800SOL    HW254842   6.156   0.307   2.836 -0.3412 -0.3006  0.9771
17801SOL     OW54843   6.424   1.150   4.529  0.1982 -0.9855  0.1309
17801SOL    HW154844   6.446   1.084   4.594 -1.4354 -0.9420  0.7513
17801SOL    HW254845   6.412   1.101   4.448  3.0275 -0.9579 -0.4080
17802SOL     OW54846   7.384   7.962   4.008 -0.5506  0.4251 -0.2143
17802SOL    HW154847   7.302   7.961   4.057 -1.8388  0.4785 -2.2525
17802SOL    HW254848   7.416   8.052   4.016 -0.8010  0.4672  0.3853
17803SOL     OW54849   5.007   0.909   5.786 -0.0872 -0.0913  0.7343
17803SOL    HW154850   5.098   0.924   5.761 -0.5004  0.2291 -0.6510
17803SOL    HW254851   4.985   0.985   5.840  0.0792  0.5321 -0.0446
17804SOL     OW54852   7.299   1.505   4.137 -0.5373  0.1566  0.3098
17804SOL    HW154853   7.240   1.575   4.164  0.6287  0.6399  1.7387
17804SOL    HW254854   7.385   1.531   4.171  0.1426 -1.4297 -0.0754
17805SOL     OW54855   6.315   1.477   3.945  0.3775 -0.3483  0.3442
17805SOL    HW154856   6.321   1.554   3.888  1.6281 -0.4750  0.2903
17805SOL    HW254857   6.361   1.501   4.024 -0.9625 -0.3447  1.1596
17806SOL     OW54858   7.305   1.938   4.019 -0.2326  0.4000  0.0609
17806SOL    HW154859   7.236   2.002   4.006 -1.5880 -1.2073 -1.0939
17806SOL    HW254860   7.345   1.928   3.932  0.8661  0.6624  0.5227
17807SOL     OW54861   6.595   7.968   3.908 -0.3722 -0.1720 -0.0473
17807SOL    HW154862   6.594   7.899   3.975 -1.3274  0.3193  0.4535
17807SOL    HW254863   6.568   7.924   3.828 -1.2309 -0.3335  0.3248
17808SOL     OW54864   6.940   2.504   4.909  0.4888 -0.2814  0.0445
17808SOL    HW154865   6.977   2.543   4.988  0.1072 -0.7091  0.4367
17808SOL    HW254866   6.961   2.566   4.840 -1.0457  1.2029  0.8213
17809SOL     OW54867   5.446   0.809   3.920 -0.3784  0.0845 -0.7389
17809SOL    HW154868   5.490   0.891   3.943  0.1603 -0.3261 -0.2888
17809SOL    HW254869   5.463   0.751   3.994 -2.2737  0.1255 -0.2257
17810SOL     OW54870   6.683   1.468   4.999 -0.1308  0.5699  0.3116
17810SOL    HW154871   6.654   1.514   5.077 -0.2205  2.5999 -0.8459
17810SOL    HW254872   6.769   1.505   4.980  0.0653 -0.1840 -0.3316
17811SOL     OW54873   5.348   0.710   5.251 -0.2649  0.1900 -0.0313
17811SOL    HW154874   5.416   0.740   5.192 -1.3998  2.9316 -0.1313
17811SOL    HW254875   5.268   0.711   5.199 -1.1491  1.8821  1.2162
17812SOL     OW54876   6.208   0.131   4.190 -0.3342  0.5129  0.1999
17812SOL    HW154877   6.182   0.043   4.164 -0.4586  0.2177  1.2693
17812SOL    HW254878   6.139   0.188   4.155  0.3776  0.3441 -1.5527
17813SOL     OW54879   4.979   0.903   4.254  0.0627  0.5102 -0.2201
17813SOL    HW154880   4.886   0.925   4.257 -0.1924 -0.5743  0.2368
17813SOL    HW254881   4.997   0.888   4.161 -0.2577  0.5536 -0.2898
17814SOL     OW54882   6.241   2.600   5.624 -0.1216 -0.2216  0.3285
17814SOL    HW154883   6.182   2.674   5.640  1.2544  0.5024  2.4388
17814SOL    HW254884   6.329   2.635   5.643  0.6687 -2.1148  0.3660
17815SOL     OW54885   6.411   7.920   4.532 -0.5080 -0.0379  0.0866
17815SOL    HW154886   6.437   8.010   4.554  0.0954 -0.2538  0.2648
17815SOL    HW254887   6.479   7.865   4.571 -1.4524 -0.6377  0.8973
17816SOL     OW54888   5.922   2.505   6.544 -0.0685 -0.3343  0.1119
17816SOL    HW154889   5.966   2.422   6.560 -0.6097 -0.4740  0.9463
17816SOL    HW254890   5.951   2.561   6.616  0.3562  0.2347 -0.4884
17817SOL     OW54891   4.806   7.957   3.961  0.1899 -1.0805 -0.1061
17817SOL    HW154892   4.752   7.943   3.883 -1.2404 -0.5807  0.7476
17817SOL    HW254893   4.743   7.959   4.033  1.2947  0.1601  0.8748
17818SOL     OW54894   0.476   0.479   3.711  0.0019  0.2253 -0.0766
17818SOL    HW154895   0.498   0.457   3.621  2.1191  0.0842  0.4206
17818SOL    HW254896   0.553   0.526   3.743 -1.6371  2.3291  0.9757
17819SOL     OW54897   5.713   6.924   5.866  0.3610 -0.7305 -0.3114
17819SOL    HW154898   5.754   6.908   5.951 -1.0506  0.1411  0.5642
17819SOL    HW254899   5.706   6.837   5.827 -0.2711 -1.3430  1.0941
17820SOL     OW54900   7.123   0.527   4.404 -0.3176 -0.2466  0.1177
17820SOL    HW154901   7.181   0.571   4.466 -0.2447 -2.4058  1.7160
17820SOL    HW254902   7.035   0.544   4.437 -0.3377 -0.4974  0.1993
17821SOL     OW54903   6.405   1.453   6.484  0.0535 -0.6025 -0.2141
17821SOL    HW154904   6.438   1.368   6.511  1.9461 -0.0913 -0.7675
17821SOL    HW254905   6.366   1.490   6.563  1.2200 -1.0832  0.6201
17822SOL     OW54906   0.361   0.338   5.256  0.1662  0.6681  0.1503
17822SOL    HW154907   0.355   0.274   5.185  1.0318  2.0800 -1.2687
17822SOL    HW254908   0.360   0.285   5.336  2.1649 -1.2515 -0.9653
17823SOL     OW54909   6.572   3.280   2.705  0.1740 -0.5102  0.0099
17823SOL    HW154910   6.578   3.191   2.739  2.0594 -0.1617  0.7196
17823SOL    HW254911   6.650   3.290   2.650 -0.5513  0.3806 -0.8933
17824SOL     OW54912   6.836   1.314   3.399 -0.3788 -0.4580  0.5090
17824SOL    HW154913   6.894   1.331   3.324 -1.2458 -0.3532 -0.1511
17824SOL    HW254914   6.824   1.219   3.399 -0.7731 -0.4128  0.2013
17825SOL     OW54915   6.538   7.771   4.081 -0.3373  0.4483 -0.3961
17825SOL    HW154916   6.517   7.844   4.139  1.0801  0.4443  0.1652
17825SOL    HW254917   6.485   7.698   4.114 -1.0202  0.9562 -0.3492
17826SOL     OW54918   5.911   1.105   4.743 -0.4708 -0.3933 -0.3222
17826SOL    HW154919   5.954   1.187   4.718 -1.8413 -0.2603 -2.4452
17826SOL    HW254920   5.818   1.123   4.737 -0.8355 -2.4731 -2.3655
17827SOL     OW54921   0.341   2.332   6.436 -0.4085 -0.0452  0.2195
17827SOL    HW154922   0.378   2.260   6.385 -0.5489 -1.2761  1.7808
17827SOL    HW254923   0.247   2.327   6.418 -0.3535  0.0864 -0.0990
17828SOL     OW54924   4.885   2.580   4.480 -0.0473  0.0193 -0.2854
17828SOL    HW154925   4.919   2.598   4.392 -0.1396  0.3674 -0.2530
17828SOL    HW254926   4.809   2.638   4.488 -1.0953 -1.2504 -0.6273
17829SOL     OW54927   7.331   0.854   5.564  0.2957 -0.5567  0.2305
17829SOL    HW154928   7.239   0.859   5.591  0.4835  1.8839  0.6751
17829SOL    HW254929   7.329   0.867   5.470  0.2310  0.8731  0.4085
17830SOL     OW54930   6.723   0.449   4.472  0.6500  0.2579  0.3688
17830SOL    HW154931   6.637   0.469   4.509  0.8421 -0.3585  1.1664
17830SOL    HW254932   6.765   0.535   4.463 -0.5402  0.7124 -1.3353
17831SOL     OW54933   7.083   0.840   3.957 -0.1676  1.1163  0.1083
17831SOL    HW154934   7.025   0.782   4.006  0.7357 -0.8229 -1.0018
17831SOL    HW254935   7.127   0.782   3.894 -0.5610  3.2841 -2.3432
17832SOL     OW54936   6.156   0.231   5.452  0.7689  0.3947  0.2707
17832SOL    HW154937   6.213   0.192   5.518  1.9993  1.0462 -0.3877
17832SOL    HW254938   6.076   0.177   5.455  1.4516 -0.6063  1.1153
17833SOL     OW54939   5.274   1.446   5.050 -0.3821 -0.0274  0.6636
17833SOL    HW154940   5.347   1.394   5.084 -0.9424 -0.1787  1.6924
17833SOL    HW254941   5.285   1.532   5.092  0.2886  0.5737 -0.6844
17834SOL     OW54942   5.911   1.549   4.052  0.0447  0.1730  0.1261
17834SOL    HW154943   5.962   1.474   4.022 -0.1786  0.1871 -0.2874
17834SOL    HW254944   5.824   1.513   4.069 -0.2383  0.4606 -0.6858
17835SOL     OW54945   6.358   1.806   4.094 -0.5301  0.2812  0.1343
17835SOL    HW154946   6.442   1.777   4.130 -0.4960 -0.0722 -0.2354
17835SOL    HW254947   6.297   1.735   4.115 -0.7862  0.6243  0.5791
17836SOL     OW54948   5.453   1.545   5.567 -0.0393 -0.2118  0.0570
17836SOL    HW154949   5.539   1.509   5.589  0.4518  0.3095 -0.9655
17836SOL    HW254950   5.399   1.469   5.548  0.3798 -0.5087  0.0416
17837SOL     OW54951   7.006   4.035   4.108  0.1097 -0.2542  0.7122
17837SOL    HW154952   7.044   4.073   4.187  0.9890  1.0393 -0.2985
17837SOL    HW254953   7.051   4.079   4.035 -1.5243 -0.5145 -0.5269
17838SOL     OW54954   6.394   1.158   4.068  0.1003 -0.1353 -0.1361
17838SOL    HW154955   6.417   1.205   4.149 -1.5500 -1.5173  1.2004
17838SOL    HW254956   6.438   1.208   3.999  2.1748  0.6940  1.6492
17839SOL     OW54957   0.289   1.341   2.798 -0.2566 -0.3044  0.0784
17839SOL    HW154958   0.274   1.358   2.705  3.0047 -1.0698 -0.7021
17839SOL    HW254959   0.261   1.422   2.841 -0.8485  0.4675 -1.6550
17840SOL     OW54960   7.216   2.347   5.538 -0.1263  0.1850 -0.0145
17840SOL    HW154961   7.147   2.281   5.534 -1.6029  1.4352  2.4914
17840SOL    HW254962   7.249   2.343   5.627 -0.0803  2.6280  0.1419
17841SOL     OW54963   0.551   0.096   4.538 -0.2322  0.5401  0.3638
17841SOL    HW154964   0.643   0.102   4.562  0.1541 -0.9539 -0.5869
17841SOL    HW254965   0.549   0.120   4.445 -0.9259  1.3110  0.5676
17842SOL     OW54966   5.636   2.207   3.998 -0.1563 -0.2536  0.0504
17842SOL    HW154967   5.693   2.138   3.963 -1.9958  0.6984 -5.9749
17842SOL    HW254968   5.549   2.166   4.003 -0.9588  1.0093 -2.0674
17843SOL     OW54969   4.725   0.442   6.486 -0.3664  0.5651  0.3723
17843SOL    HW154970   4.662   0.417   6.419 -1.5777  1.8116  1.0143
17843SOL    HW254971   4.783   0.505   6.442 -0.9125  1.0764  0.3827
17844SOL     OW54972   7.205   0.072   5.632 -0.4079  0.5766  0.0922
17844SOL    HW154973   7.251   0.152   5.609  1.2583 -0.1973  0.5351
17844SOL    HW254974   7.190   0.079   5.727  0.3371  0.0935  0.2520
17845SOL     OW54975   6.688   1.880   5.814 -0.1999  0.3905 -0.3598
17845SOL    HW154976   6.704   1.886   5.909 -0.4478 -1.8605 -0.1281
17845SOL    HW254977   6.595   1.903   5.804 -0.1374  0.7769 -0.0930
17846SOL     OW54978   5.121   0.515   6.456  0.4280 -0.2711 -0.6094
17846SOL    HW154979   5.164   0.477   6.379  0.7779 -1.7771  0.2979
17846SOL    HW254980   5.157   0.467   6.530 -0.7315  0.3930  0.4274
17847SOL     OW54981   5.328   1.142   4.178  0.3321 -0.4243  0.1632
17847SOL    HW154982   5.361   1.217   4.228  2.5561 -0.1663 -1.4855
17847SOL    HW254983   5.234   1.158   4.170  0.5398  1.5090  0.9723
17848SOL     OW54984   5.948   2.580   2.123  0.5383  0.5096 -0.0321
17848SOL    HW154985   5.915   2.565   2.211  2.3304  1.0714  0.7867
17848SOL    HW254986   5.870   2.594   2.070 -0.6042 -0.3665  1.3458
17849SOL     OW54987   4.340   1.263   6.079  0.3408  0.1880  0.2227
17849SOL    HW154988   4.308   1.350   6.055  0.4727  0.5345  1.2471
17849SOL    HW254989   4.338   1.263   6.175  1.0875 -0.6533  0.2485
17850SOL     OW54990   6.725   2.043   4.636  0.3835 -0.5465  0.1609
17850SOL    HW154991   6.664   2.028   4.564 -0.4905  1.8232  0.2953
17850SOL    HW254992   6.790   2.103   4.600  0.1259  0.3940  1.2176
17851SOL     OW54993   4.802   0.203   3.816  0.1247 -0.0112 -0.3147
17851SOL    HW154994   4.819   0.174   3.906  1.1776 -1.9618 -1.0868
17851SOL    HW254995   4.858   0.281   3.806 -0.6193  0.7184  0.9358
17852SOL     OW54996   7.142   0.557   2.841 -0.2261  0.1956  0.1321
17852SOL    HW154997   7.079   0.537   2.772  0.1554  1.6922 -0.6864
17852SOL    HW254998   7.192   0.632   2.808  1.0422 -0.0608  1.3600
17853SOL     OW54999   6.421   1.352   4.267  0.4100 -0.7960  0.1131
17853SOL    HW155000   6.363   1.428   4.272  1.3399 -0.0940  0.6372
17853SOL    HW255001   6.398   1.300   4.344  0.3043 -0.6513  0.1809
17854SOL     OW55002   6.603   1.968   5.287  0.7221  0.3145  0.1893
17854SOL    HW155003   6.611   2.048   5.339  2.0701  1.0994 -1.1461
17854SOL    HW255004   6.681   1.917   5.310  1.4087  0.7355 -1.1140
17855SOL     OW55005   7.776   1.460   5.756 -0.3293 -1.0045  0.4684
17855SOL    HW155006   7.785   1.407   5.677 -2.5146 -1.1431  0.2382
17855SOL    HW255007   7.815   1.408   5.826 -1.0430 -2.2483 -0.0297
17856SOL     OW55008   3.541   1.216   6.371 -0.2539  0.0206 -0.8335
17856SOL    HW155009   3.588   1.209   6.288  0.7968  1.6753 -0.4202
17856SOL    HW255010   3.579   1.147   6.426 -0.4520 -0.6065 -1.4591
17857SOL     OW55011   0.124   0.812   4.219  0.1964 -0.0224  0.2410
17857SOL    HW155012   0.139   0.817   4.125 -1.1170 -1.3701 -0.0632
17857SOL    HW255013   0.174   0.736   4.248 -0.9662 -0.8075  0.2633
17858SOL     OW55014   6.867   0.459   2.303 -0.3478 -0.8510 -0.0555
17858SOL    HW155015   6.815   0.493   2.376  0.8743 -0.1746  0.5224
17858SOL    HW255016   6.815   0.386   2.269 -1.3974 -0.5650  0.8643
17859SOL     OW55017   5.533   0.955   3.275 -0.2475  0.0017 -0.2542
17859SOL    HW155018   5.570   0.992   3.356 -1.8223 -0.3425  0.6654
17859SOL    HW255019   5.467   1.018   3.248 -1.6294 -1.1584  0.2775
17860SOL     OW55020   6.744   0.498   3.732  0.1399  0.5822 -0.0664
17860SOL    HW155021   6.695   0.420   3.706 -1.2716  1.5349 -0.3588
17860SOL    HW255022   6.835   0.477   3.710 -0.3182 -0.6651 -0.8900
17861SOL     OW55023   5.409   1.596   3.864 -0.3947  0.1844  0.3590
17861SOL    HW155024   5.347   1.615   3.793 -0.4738  0.4191  0.4887
17861SOL    HW255025   5.354   1.578   3.940 -0.3508  2.9529  1.1618
17862SOL     OW55026   6.311   0.474   4.561 -0.6170  0.0734 -0.1615
17862SOL    HW155027   6.348   0.414   4.626  0.0457 -0.1539 -0.7373
17862SOL    HW255028   6.224   0.439   4.543  0.5387 -2.0687 -2.1134
17863SOL     OW55029   5.886   6.461   6.754  0.4043  0.5827  0.2512
17863SOL    HW155030   5.855   6.524   6.819 -0.1109 -0.1373  0.7140
17863SOL    HW255031   5.810   6.404   6.737  0.6586  0.4952 -0.6611
17864SOL     OW55032   5.062   1.362   4.308 -0.0308  0.3693  0.3044
17864SOL    HW155033   5.152   1.395   4.312  0.6017 -0.7444 -2.3802
17864SOL    HW255034   5.015   1.427   4.256  0.0029 -0.4218 -0.7670
17865SOL     OW55035   5.639   1.667   4.543 -0.1067  0.0144 -0.3444
17865SOL    HW155036   5.548   1.682   4.566 -0.1330  0.1258 -0.5187
17865SOL    HW255037   5.687   1.739   4.583  0.0311 -0.5495  0.5473
17866SOL     OW55038   5.021   1.690   3.851  0.1920 -0.3505  0.0933
17866SOL    HW155039   4.988   1.672   3.939 -1.2785 -1.1084 -0.5746
17866SOL    HW255040   4.955   1.747   3.812  0.5970 -0.3944 -0.6740
17867SOL     OW55041   7.452   0.735   4.718  0.5774  0.3969  0.3084
17867SOL    HW155042   7.432   0.689   4.799 -0.2921 -0.2995 -0.2844
17867SOL    HW255043   7.547   0.745   4.718  0.8123 -1.5467  0.3799
17868SOL     OW55044   5.155   0.797   4.681 -0.5108 -0.1483 -0.4357
17868SOL    HW155045   5.219   0.738   4.719 -1.0635 -0.7016 -0.3542
17868SOL    HW255046   5.071   0.768   4.716 -0.7215  1.1817  0.2289
17869SOL     OW55047   6.311   0.756   6.810 -0.1705  0.2350 -0.3095
17869SOL    HW155048   6.225   0.719   6.832 -0.3051  0.4028 -0.5543
17869SOL    HW255049   6.323   0.736   6.717  0.4602 -0.5944 -0.0698
17870SOL     OW55050   5.455   1.661   5.200  0.3274  0.0033  0.3054
17870SOL    HW155051   5.465   1.696   5.112  0.3710 -1.0405 -0.1124
17870SOL    HW255052   5.373   1.700   5.231 -0.6714 -1.0733 -0.9065
17871SOL     OW55053   6.525   0.160   4.579  0.0672  0.0133 -0.0208
17871SOL    HW155054   6.616   0.133   4.589 -0.4271 -2.4614 -1.3393
17871SOL    HW255055   6.515   0.178   4.485 -0.7204  0.5918  0.1621
17872SOL     OW55056   7.311   0.603   4.037 -0.2650  0.3205  0.1618
17872SOL    HW155057   7.289   0.547   3.963 -0.9001  1.5672 -0.6342
17872SOL    HW255058   7.298   0.548   4.114  0.7931 -1.1233 -0.6554
17873SOL     OW55059   5.388   0.472   6.516 -0.7230 -0.0325  0.1211
17873SOL    HW155060   5.374   0.461   6.610  0.7699 -0.6101  0.3079
17873SOL    HW255061   5.437   0.554   6.509 -0.1151 -0.4074 -0.0691
17874SOL     OW55062   6.124   0.686   4.341 -0.4977 -0.1675 -0.2343
17874SOL    HW155063   6.112   0.679   4.246 -1.6409 -1.4369 -0.0315
17874SOL    HW255064   6.215   0.661   4.356 -0.4050 -0.2762 -0.9671
17875SOL     OW55065   5.361   2.612   3.900  0.3726  0.1843 -0.6217
17875SOL    HW155066   5.351   2.517   3.897  0.5539  0.0151  2.0883
17875SOL    HW255067   5.272   2.646   3.909  0.4653  0.0511  1.1533
17876SOL     OW55068   4.951   7.318   4.067 -0.0016 -0.5382 -0.1619
17876SOL    HW155069   4.978   7.318   4.158  0.1536  0.1746 -0.2055
17876SOL    HW255070   5.019   7.269   4.021  0.0309 -0.7097  0.0705
17877SOL     OW55071   6.695   2.377   3.828  0.2919  0.2241  0.0747
17877SOL    HW155072   6.784   2.391   3.797  0.0902 -1.3736 -1.3943
17877SOL    HW255073   6.701   2.304   3.889 -0.2743 -1.6663 -1.9964
17878SOL     OW55074   5.979   2.408   4.209  0.0323  0.0747 -0.1075
17878SOL    HW155075   6.050   2.468   4.231  0.2828  0.4708 -1.8105
17878SOL    HW255076   6.024   2.332   4.170 -0.3587 -0.6743  0.8543
17879SOL     OW55077   7.491   0.806   4.028  0.0393  0.4220 -0.5893
17879SOL    HW155078   7.461   0.724   4.068  0.0987  1.0544  0.7834
17879SOL    HW255079   7.416   0.864   4.032  0.7222  1.2461  0.7341
17880SOL     OW55080   6.553   2.726   3.379 -0.1234 -1.1237  0.4508
17880SOL    HW155081   6.513   2.797   3.329 -0.8809 -2.0416 -0.2797
17880SOL    HW255082   6.647   2.736   3.364 -0.1921 -0.1245  0.5923
17881SOL     OW55083   6.160   2.209   4.428  0.2157  0.2901  0.1855
17881SOL    HW155084   6.225   2.139   4.432  0.8714  0.8158 -0.8268
17881SOL    HW255085   6.085   2.170   4.384  0.7516  0.3362 -0.7995
17882SOL     OW55086   4.753   0.848   2.148 -0.1707 -0.1197 -0.0996
17882SOL    HW155087   4.767   0.932   2.191 -1.7221 -0.5341  1.2917
17882SOL    HW255088   4.664   0.853   2.114 -1.3483 -2.1155  2.3516
17883SOL     OW55089   6.324   2.265   6.590 -0.5799  0.2561  0.3037
17883SOL    HW155090   6.322   2.234   6.680 -1.9490 -0.8083 -0.0385
17883SOL    HW255091   6.337   2.360   6.596  0.2357  0.0746  1.5617
17884SOL     OW55092   0.596   0.325   4.747 -0.4986 -0.3539 -0.0348
17884SOL    HW155093   0.546   0.288   4.675 -0.6986  0.3740 -0.2810
17884SOL    HW255094   0.559   0.413   4.760  0.4934  0.0744 -0.0105
17885SOL     OW55095   7.461   0.224   3.984 -0.0926 -0.5325  0.6740
17885SOL    HW155096   7.402   0.284   3.937  1.0856  0.5356  0.4864
17885SOL    HW255097   7.548   0.247   3.952  0.5450 -1.2520  1.8286
17886SOL     OW55098   3.556   0.515   5.616 -0.7768  0.3386  0.1511
17886SOL    HW155099   3.649   0.523   5.639 -0.4745  0.1337 -0.9454
17886SOL    HW255100   3.516   0.595   5.649 -0.2625  0.3152  0.8628
17887SOL     OW55101   6.734   0.255   4.005  0.0828 -0.0306 -0.3755
17887SOL    HW155102   6.820   0.251   3.963  0.3548 -0.0724  0.1805
17887SOL    HW255103   6.753   0.265   4.098 -0.5177  0.5001 -0.3023
17888SOL     OW55104   5.285   1.604   5.867 -0.2715  0.5401  0.0029
17888SOL    HW155105   5.340   1.542   5.914 -1.4161  0.0530  0.7382
17888SOL    HW255106   5.341   1.679   5.852  0.9585 -0.4109 -0.3512
17889SOL     OW55107   5.963   2.514   4.635 -0.0592 -0.5689 -0.0279
17889SOL    HW155108   6.039   2.556   4.674 -0.2092 -0.1493 -0.1860
17889SOL    HW255109   5.954   2.554   4.548  0.0294 -1.2023 -0.3377
17890SOL     OW55110   7.398   1.307   5.527 -0.1811 -0.7768  0.3097
17890SOL    HW155111   7.389   1.301   5.622 -0.9212 -2.9592  0.1515
17890SOL    HW255112   7.467   1.245   5.505  1.0113  0.7671 -0.4855
17891SOL     OW55113   7.702   1.265   4.272  0.6131  0.5731 -0.4782
17891SOL    HW155114   7.631   1.202   4.256 -1.5456  2.8316 -0.3353
17891SOL    HW255115   7.744   1.276   4.186  0.4920 -0.4069 -0.6810
17892SOL     OW55116   5.857   7.987   3.432  0.0227 -0.4141 -0.0820
17892SOL    HW155117   5.855   7.966   3.525 -0.4234 -3.0587 -0.5974
17892SOL    HW255118   5.879   7.904   3.389 -0.0044  0.6722 -2.3506
17893SOL     OW55119   7.206   2.386   4.715  0.7275 -0.1673 -0.2599
17893SOL    HW155120   7.280   2.408   4.659  0.3069  1.3510 -0.2629
17893SOL    HW255121   7.134   2.370   4.654  0.8943 -1.0993 -0.2333
17894SOL     OW55122   5.284   0.509   5.528  0.0361 -0.0258  0.7234
17894SOL    HW155123   5.223   0.439   5.502 -0.7807  1.3001 -1.1740
17894SOL    HW255124   5.231   0.567   5.584  0.9561 -1.2929  3.0456
17895SOL     OW55125   6.566   2.428   3.610 -0.1462  0.2638 -0.0655
17895SOL    HW155126   6.633   2.477   3.561 -0.8259  0.7836 -0.4918
17895SOL    HW255127   6.606   2.413   3.696  0.0402  1.7010  0.1276
17896SOL     OW55128   7.068   2.828   2.961 -0.1163  0.3500 -0.1692
17896SOL    HW155129   6.997   2.819   3.024  0.8633 -0.5604  0.8460
17896SOL    HW255130   7.107   2.741   2.955  0.4376  0.6483 -1.2989
17897SOL     OW55131   5.504   7.646   5.121 -0.4916  0.7433  0.7550
17897SOL    HW155132   5.585   7.638   5.071 -1.2837  2.3502 -0.9271
17897SOL    HW255133   5.443   7.689   5.061 -3.1003 -1.6853  1.4257
17898SOL     OW55134   7.700   7.458   5.860 -0.0605 -0.1724 -0.4657
17898SOL    HW155135   7.717   7.427   5.949 -0.5244  0.3594 -0.1819
17898SOL    HW255136   7.614   7.423   5.838  0.7540 -1.7263 -1.3791
17899SOL     OW55137   0.482   0.935   3.073  0.2733 -0.0014 -0.1591
17899SOL    HW155138   0.451   1.005   3.016 -0.6082 -1.7331 -1.9372
17899SOL    HW255139   0.577   0.937   3.064  0.1464 -0.6504 -2.3402
17900SOL     OW55140   5.414   0.851   4.931 -0.7877 -0.4280  0.0474
17900SOL    HW155141   5.486   0.796   4.902  0.1555 -0.1371  1.6792
17900SOL    HW255142   5.409   0.922   4.867 -0.9140 -1.4836 -1.1368
17901SOL     OW55143   7.262   1.203   4.485  0.1640 -0.0318  0.0725
17901SOL    HW155144   7.231   1.166   4.402 -0.0356  0.1941  0.0433
17901SOL    HW255145   7.193   1.263   4.511 -1.5352 -2.7413  2.2745
17902SOL     OW55146   6.557   0.196   5.700 -0.4808 -0.1811 -0.0949
17902SOL    HW155147   6.462   0.187   5.701 -0.4662 -0.3321 -0.0663
17902SOL    HW255148   6.586   0.127   5.640 -0.6094  1.7872 -2.5538
17903SOL     OW55149   6.266   0.906   4.019 -0.3606 -0.2944 -0.0193
17903SOL    HW155150   6.314   0.981   4.055  1.8090 -1.0098 -1.2220
17903SOL    HW255151   6.278   0.914   3.924 -2.7376 -0.5099 -0.3967
17904SOL     OW55152   6.410   7.764   6.683 -0.2215  0.1012 -0.5005
17904SOL    HW155153   6.330   7.800   6.721  0.3013  1.6281 -0.7869
17904SOL    HW255154   6.472   7.760   6.756  0.0806  0.9292 -0.6929
17905SOL     OW55155   5.631   8.000   2.751 -0.1955 -0.2988  0.1320
17905SOL    HW155156   5.654   7.916   2.791  2.6989  1.2987  2.1295
17905SOL    HW255157   5.568   8.039   2.812 -1.5906 -0.9814 -0.8289
17906SOL     OW55158   7.147   1.393   5.034  0.7991 -0.6781 -0.1613
17906SOL    HW155159   7.210   1.362   4.969  0.7642  1.1106 -1.1033
17906SOL    HW255160   7.199   1.443   5.097  0.5392 -0.5091 -0.0754
17907SOL     OW55161   4.755   0.099   4.378 -0.2081  0.2455 -0.7829
17907SOL    HW155162   4.715   0.078   4.294 -1.6132  2.3114 -0.7061
17907SOL    HW255163   4.849   0.107   4.359 -0.3340 -0.6664 -1.8452
17908SOL     OW55164   7.477   3.494   4.181  0.3286 -0.4942 -0.2075
17908SOL    HW155165   7.438   3.408   4.196 -0.5610 -0.3763 -1.6301
17908SOL    HW255166   7.431   3.528   4.104  2.2742  0.2694 -1.1040
17909SOL     OW55167   1.164   1.186   3.194  0.3462 -0.5190 -0.6512
17909SOL    HW155168   1.238   1.247   3.195 -0.7287  0.8484 -0.7126
17909SOL    HW255169   1.098   1.228   3.249 -0.4269 -1.6567 -0.6736
17910SOL     OW55170   7.257   3.030   5.028 -0.0741 -0.2683  0.0047
17910SOL    HW155171   7.224   3.118   5.013  0.1510 -0.2719 -0.5534
17910SOL    HW255172   7.302   3.007   4.946  1.7052 -0.0850  0.8726
17911SOL     OW55173   7.500   7.835   6.257  0.4433 -0.1720 -0.3135
17911SOL    HW155174   7.432   7.888   6.299  0.7516 -0.5317  0.6882
17911SOL    HW255175   7.493   7.749   6.300  2.0997  0.0391  0.4751
17912SOL     OW55176   4.854   2.157   5.113  0.1666  0.3274 -0.8216
17912SOL    HW155177   4.804   2.211   5.174  0.4603 -0.5050  0.1974
17912SOL    HW255178   4.944   2.163   5.145 -0.0179 -2.0813  0.3950
17913SOL     OW55179   6.019   0.814   5.840 -0.3705  0.8528 -0.0423
17913SOL    HW155180   6.108   0.779   5.847 -0.8112 -0.4196 -0.5021
17913SOL    HW255181   6.031   0.908   5.823  0.8741  0.7016 -0.0870
17914SOL     OW55182   5.262   1.581   4.782  0.4742 -0.1564 -0.2033
17914SOL    HW155183   5.294   1.543   4.865 -1.0587 -2.1665 -0.4607
17914SOL    HW255184   5.201   1.649   4.809  0.6883 -0.1592  0.3047
17915SOL     OW55185   6.730   1.793   3.644  0.0467 -0.0645  0.1741
17915SOL    HW155186   6.825   1.783   3.642  0.0389 -0.0297 -0.9342
17915SOL    HW255187   6.699   1.741   3.569 -0.8411 -0.4045  0.7559
17916SOL     OW55188   7.403   1.976   4.283  0.2956 -0.3315  0.6672
17916SOL    HW155189   7.370   1.980   4.193 -0.2201 -0.9515  0.8264
17916SOL    HW255190   7.331   2.008   4.337  0.5494 -0.1093  0.8772
17917SOL     OW55191   6.598   0.687   4.801  0.2255  0.7489  0.2873
17917SOL    HW155192   6.674   0.742   4.783  1.7641 -1.0906  0.7330
17917SOL    HW255193   6.578   0.644   4.718  0.6769  0.0885  0.5082
17918SOL     OW55194   7.210   0.657   4.624 -0.2084 -0.0334 -0.2202
17918SOL    HW155195   7.301   0.666   4.652 -0.2052  1.4411 -0.6582
17918SOL    HW255196   7.169   0.738   4.651 -1.3260 -0.5420 -0.3502
17919SOL     OW55197   4.852   1.414   4.535 -0.0942  0.7291 -1.0659
17919SOL    HW155198   4.862   1.415   4.440 -0.8953  1.0621 -1.1555
17919SOL    HW255199   4.771   1.366   4.550 -0.5286  1.5774 -0.6138
17920SOL     OW55200   5.561   1.965   4.459  0.3213 -0.1661 -0.0607
17920SOL    HW155201   5.591   2.024   4.528  1.2024 -0.6583 -0.0119
17920SOL    HW255202   5.466   1.963   4.468  0.1481  2.0691 -0.7254
17921SOL     OW55203   7.110   2.496   4.002 -0.2495 -0.3883 -0.0478
17921SOL    HW155204   7.174   2.543   4.055  0.9217 -0.8771 -0.9645
17921SOL    HW255205   7.035   2.555   3.997  0.9541  1.1570 -0.6869
17922SOL     OW55206   7.221   0.424   3.482 -0.6023 -0.0007 -0.2465
17922SOL    HW155207   7.237   0.336   3.447  2.5732  0.9534 -1.5915
17922SOL    HW255208   7.259   0.422   3.570  0.5886  0.3000 -0.7333
17923SOL     OW55209   0.707   0.880   4.503  0.3658  0.3726  0.1924
17923SOL    HW155210   0.689   0.793   4.468  0.7831 -0.0334  0.9615
17923SOL    HW255211   0.663   0.940   4.442 -1.2040 -0.4451  0.4558
17924SOL     OW55212   5.760   1.988   6.603  0.7181 -0.0845 -0.5860
17924SOL    HW155213   5.729   1.917   6.548  0.0018  1.6673 -2.5699
17924SOL    HW255214   5.681   2.025   6.643  0.8709  0.6655 -0.9528
17925SOL     OW55215   7.727   3.892   3.258 -0.2511  0.0175 -0.1939
17925SOL    HW155216   7.816   3.861   3.274 -0.0465  0.2761 -0.7708
17925SOL    HW255217   7.693   3.917   3.344  0.6545  1.0090 -0.1006
17926SOL     OW55218   6.968   2.740   4.758 -0.0750 -0.2732  0.7013
17926SOL    HW155219   6.964   2.815   4.817 -0.5069 -0.8329  1.3980
17926SOL    HW255220   6.887   2.744   4.708 -1.6096 -1.9034  2.8144
17927SOL     OW55221   7.557   7.085   4.954  0.4554 -0.5947  0.1170
17927SOL    HW155222   7.585   7.139   4.880 -1.9132 -0.9428 -1.1550
17927SOL    HW255223   7.546   6.997   4.917 -2.8206 -0.3515  0.2186
17928SOL     OW55224   5.952   7.967   2.278 -0.4037 -0.1494 -0.0864
17928SOL    HW155225   5.886   7.959   2.209 -2.0185 -1.1072  1.5029
17928SOL    HW255226   5.981   7.877   2.294  1.6029  0.2719 -0.9624
17929SOL     OW55227   5.690   2.751   6.356 -0.3480  0.2843  0.0803
17929SOL    HW155228   5.684   2.772   6.449 -1.1857  2.2507 -0.3541
17929SOL    HW255229   5.756   2.811   6.322 -1.3020  0.8275 -0.8789
17930SOL     OW55230   4.985   7.649   6.036 -0.5747 -0.0974  0.1050
17930SOL    HW155231   5.068   7.668   6.081  0.1784  0.9505 -1.6047
17930SOL    HW255232   4.935   7.597   6.099  0.5808  0.8943  1.9448
17931SOL     OW55233   4.303   1.798   4.269  0.5951  0.1705  0.3499
17931SOL    HW155234   4.325   1.767   4.357  0.0129 -0.1039  0.4053
17931SOL    HW255235   4.364   1.751   4.212 -0.2902 -1.1345  0.4355
17932SOL     OW55236   6.247   0.604   5.275  0.5881 -0.2888 -0.0212
17932SOL    HW155237   6.270   0.666   5.344 -1.1578  3.3167 -2.3761
17932SOL    HW255238   6.195   0.537   5.319  1.6909  0.3719  2.5064
17933SOL     OW55239   5.859   7.137   5.340 -0.2697 -0.2448  0.1855
17933SOL    HW155240   5.816   7.089   5.411  0.9655  0.5602  1.5449
17933SOL    HW255241   5.850   7.229   5.364  0.4527  0.0289 -0.5241
17934SOL     OW55242   6.874   0.728   2.996  0.3118  0.3674 -0.3442
17934SOL    HW155243   6.792   0.777   2.997  0.5106  0.6965  0.8181
17934SOL    HW255244   6.848   0.636   3.007  0.0867  0.4297 -0.3540
17935SOL     OW55245   6.490   2.701   5.076  0.3273  0.1272  0.3863
17935SOL    HW155246   6.551   2.678   5.006  1.0103  0.1823  0.9493
17935SOL    HW255247   6.528   2.661   5.154  0.6468  1.7290  1.0901
17936SOL     OW55248   6.796   0.110   4.586  0.2064 -0.5100  0.1012
17936SOL    HW155249   6.819   0.019   4.604  0.5196 -0.8397 -1.7323
17936SOL    HW255250   6.879   0.152   4.565 -0.2554 -0.6467 -2.3000
17937SOL     OW55251   5.926   7.139   2.852  0.1137  0.5178  0.0532
17937SOL    HW155252   5.933   7.215   2.795  0.7292  0.0251 -0.5446
17937SOL    HW255253   5.967   7.068   2.803 -0.2373 -0.1506  0.6971
17938SOL     OW55254   0.575   0.918   4.739 -0.2398 -0.1407  0.2187
17938SOL    HW155255   0.621   0.999   4.717 -0.2683 -0.2415 -0.2203
17938SOL    HW255256   0.627   0.849   4.697 -0.0910 -0.3709  0.7759
17939SOL     OW55257   5.872   3.550   3.483 -0.2101  0.2285 -0.1500
17939SOL    HW155258   5.930   3.626   3.489  0.5627 -0.3263 -0.4296
17939SOL    HW255259   5.931   3.476   3.468 -1.1145 -0.0790 -2.5729
17940SOL     OW55260   5.558   2.343   5.084 -0.6070  0.1789 -0.0392
17940SOL    HW155261   5.474   2.384   5.066 -0.3428  1.7916  2.0056
17940SOL    HW255262   5.543   2.250   5.069 -2.2488  0.5958 -1.3485
17941SOL     OW55263   5.071   0.245   5.108 -0.1552  0.0671 -0.0746
17941SOL    HW155264   5.008   0.305   5.148 -0.4987  0.5896 -1.3812
17941SOL    HW255265   5.026   0.160   5.107 -1.7002  0.8096 -2.8040
17942SOL     OW55266   4.701   0.481   5.731 -0.1876 -0.4909  0.1465
17942SOL    HW155267   4.654   0.501   5.812  0.1802  1.5499 -0.0981
17942SOL    HW255268   4.781   0.532   5.736 -0.4129  0.1265 -1.7436
17943SOL     OW55269   5.530   0.527   5.663  0.1200 -0.1185 -0.3147
17943SOL    HW155270   5.609   0.500   5.617  0.4215  1.4992 -0.8006
17943SOL    HW255271   5.458   0.496   5.608  0.4620  0.6004 -1.1909
17944SOL     OW55272   4.686   0.426   6.874  0.2593  0.4246 -0.3253
17944SOL    HW155273   4.780   0.415   6.861  0.1875 -1.0349  0.1777
17944SOL    HW255274   4.670   0.391   6.962 -1.0651 -1.5119 -1.2556
17945SOL     OW55275   6.703   1.993   7.999 -0.0447 -0.2802 -0.1009
17945SOL    HW155276   6.633   1.951   8.049 -1.0940  0.0718 -1.2234
17945SOL    HW255277   6.689   2.087   8.013  1.6067 -0.2275  1.4888
17946SOL     OW55278   6.696   0.006   5.847 -0.2154  0.1615 -0.5928
17946SOL    HW155279   6.623   0.067   5.841 -0.4473  0.1643  1.4169
17946SOL    HW255280   6.749   0.023   5.770 -2.1013  0.4441 -1.8842
17947SOL     OW55281   6.716   3.427   5.393  0.6885 -0.0582  0.1273
17947SOL    HW155282   6.718   3.414   5.488  0.0232 -0.2406  0.1254
17947SOL    HW255283   6.711   3.522   5.381 -1.5443 -0.1027  0.3564
17948SOL     OW55284   6.550   1.241   5.751  0.2626 -0.2767 -0.2219
17948SOL    HW155285   6.608   1.206   5.820  1.3275  0.1602 -0.8699
17948SOL    HW255286   6.462   1.227   5.785  0.7494  1.3931  2.0114
17949SOL     OW55287   7.057   1.403   6.169 -0.1139 -0.4534 -0.4907
17949SOL    HW155288   7.112   1.478   6.144 -0.8602 -0.4273 -2.1780
17949SOL    HW255289   7.110   1.355   6.233  1.0410  0.6463 -0.5800
17950SOL     OW55290   6.217   7.604   4.459 -0.0922  0.4440  0.5593
17950SOL    HW155291   6.280   7.578   4.526  1.1855  0.2199 -0.6890
17950SOL    HW255292   6.165   7.525   4.443 -0.1172  0.3754  0.9687
17951SOL     OW55293   6.201   2.204   7.530 -0.3143  0.2986  0.6590
17951SOL    HW155294   6.166   2.291   7.513  0.7793  0.7349  0.5860
17951SOL    HW255295   6.133   2.160   7.581 -1.1918  0.9292  0.0541
17952SOL     OW55296   6.781   0.585   6.262  0.2080 -0.2429 -0.5829
17952SOL    HW155297   6.777   0.676   6.233  1.9355 -0.1894 -0.7478
17952SOL    HW255298   6.690   0.555   6.257 -0.3577  1.3775 -0.7771
17953SOL     OW55299   7.828   2.547   6.889  0.0872  0.3815  0.3290
17953SOL    HW155300   7.813   2.550   6.794 -1.1114 -1.5768  0.4062
17953SOL    HW255301   7.753   2.498   6.923  0.1464  1.6047  2.3976
17954SOL     OW55302   5.133   7.776   6.365  0.5634 -0.3522 -0.0496
17954SOL    HW155303   5.160   7.763   6.274  0.6873 -1.7073  0.1531
17954SOL    HW255304   5.186   7.713   6.415 -2.4579 -2.7377  0.4560
17955SOL     OW55305   7.481   7.808   5.012  0.0875  0.0612  0.4820
17955SOL    HW155306   7.476   7.807   4.916  0.2473  0.7812  0.4614
17955SOL    HW255307   7.438   7.726   5.038 -0.2668  0.0196 -0.1888
17956SOL     OW55308   5.897   0.487   5.895  0.4441  0.2103  0.3500
17956SOL    HW155309   5.972   0.523   5.943  0.1850  0.1461  0.8043
17956SOL    HW255310   5.855   0.564   5.856 -0.0068  0.3904  1.1747
17957SOL     OW55311   5.845   2.550   7.867  0.3135  0.2414 -0.3197
17957SOL    HW155312   5.924   2.603   7.876  0.2688  0.1763  0.4916
17957SOL    HW255313   5.805   2.550   7.954 -0.6990  0.4496 -0.7616
17958SOL     OW55314   5.216   1.350   5.395 -0.3988 -0.4914  0.4041
17958SOL    HW155315   5.142   1.377   5.340 -1.5112 -2.1996  0.9564
17958SOL    HW255316   5.293   1.362   5.340 -1.5849 -3.6170 -2.2570
17959SOL     OW55317   5.873   1.423   5.314  0.1698  0.2501  0.3162
17959SOL    HW155318   5.964   1.398   5.301 -0.0699 -0.7141  0.3782
17959SOL    HW255319   5.827   1.384   5.240 -0.5009 -1.1613  1.4162
17960SOL     OW55320   5.298   2.041   8.302 -0.0018  0.5520 -0.1955
17960SOL    HW155321   5.272   2.089   8.381  0.2697 -3.3286  2.5364
17960SOL    HW255322   5.245   1.961   8.304  3.3213 -1.8967 -1.2687
17961SOL     OW55323   6.045   1.088   5.768 -0.1393 -0.1479  0.3605
17961SOL    HW155324   5.966   1.063   5.721  0.4227 -0.9858 -0.1610
17961SOL    HW255325   6.026   1.176   5.801 -0.5581  0.4969 -1.4518
17962SOL     OW55326   7.911   3.657   7.290 -0.3209  0.3717  0.2626
17962SOL    HW155327   7.884   3.704   7.211 -0.9613  0.3983  0.4881
17962SOL    HW255328   7.981   3.599   7.261 -1.0109 -0.1237 -0.4842
17963SOL     OW55329   4.956   0.273   5.980  0.4211  0.2248  0.4701
17963SOL    HW155330   4.913   0.344   6.027 -1.0424 -0.3442  0.0429
17963SOL    HW255331   4.982   0.211   6.048  1.4832  1.0212  0.8216
17964SOL     OW55332   6.010   2.133   5.778 -0.0705  0.0575  0.0491
17964SOL    HW155333   5.990   2.153   5.870  0.2087 -0.8661  0.3202
17964SOL    HW255334   6.087   2.187   5.758 -1.3833  1.9054 -0.3160
17965SOL     OW55335   4.781   2.017   4.755  0.1007  0.1902  0.2406
17965SOL    HW155336   4.744   1.939   4.798  1.3210 -1.3705 -1.3924
17965SOL    HW255337   4.869   1.990   4.730  0.2483  1.8393 -1.1260
17966SOL     OW55338   7.411   1.234   5.113 -0.5690 -0.4997  0.3246
17966SOL    HW155339   7.447   1.317   5.144 -1.5940 -0.6836  2.1669
17966SOL    HW255340   7.485   1.190   5.070  0.1815  1.0180  0.0027
17967SOL     OW55341   6.593   2.295   5.022  0.6978 -0.0569  0.0485
17967SOL    HW155342   6.498   2.309   5.032  0.3873 -0.9624 -1.3284
17967SOL    HW255343   6.626   2.291   5.112 -0.0931  3.0487  0.5950
17968SOL     OW55344   5.402   0.823   7.182 -0.3937 -0.3952  0.4305
17968SOL    HW155345   5.464   0.769   7.232  0.8207 -0.5458 -1.1586
17968SOL    HW255346   5.329   0.764   7.164  0.0776 -0.9640  0.3193
17969SOL     OW55347   6.649   0.321   5.366 -0.2041  0.4807  0.5279
17969SOL    HW155348   6.719   0.386   5.371 -0.6679  0.9550  1.0773
17969SOL    HW255349   6.675   0.252   5.426  1.8201 -1.4333 -2.2578
17970SOL     OW55350   7.650   1.181   6.715 -1.0963  0.5703  0.4682
17970SOL    HW155351   7.635   1.266   6.757  0.0227  0.0834  1.9466
17970SOL    HW255352   7.740   1.186   6.682 -1.4171  0.3510 -0.4644
17971SOL     OW55353   6.016   1.591   5.094  0.5198  0.3398  0.5622
17971SOL    HW155354   5.973   1.506   5.089 -0.0425  0.6566 -0.1887
17971SOL    HW255355   5.949   1.650   5.128 -0.3736  1.2621 -2.4800
17972SOL     OW55356   4.274   0.698   5.807  0.1037  0.1454  0.4287
17972SOL    HW155357   4.339   0.634   5.835  0.2628 -0.3254 -0.9484
17972SOL    HW255358   4.325   0.776   5.784  0.0434  0.2651  0.6947
17973SOL     OW55359   5.962   0.350   6.899  0.8089  0.4553 -0.4256
17973SOL    HW155360   5.894   0.344   6.831  0.4800  0.7997 -0.1331
17973SOL    HW255361   5.915   0.333   6.981  0.8166  1.9157 -0.0828
17974SOL     OW55362   7.811   2.319   7.513  0.6855  0.4471  0.8153
17974SOL    HW155363   7.899   2.291   7.538  0.3656 -0.7180  0.7144
17974SOL    HW255364   7.826   2.393   7.454  1.5244  1.4775  2.2675
17975SOL     OW55365   6.533   0.912   5.408  0.1233  0.0750 -0.0411
17975SOL    HW155366   6.579   0.900   5.325 -1.1052  0.8074 -0.8508
17975SOL    HW255367   6.444   0.880   5.392  0.4185 -1.9247  1.6861
17976SOL     OW55368   6.509   1.178   6.427  0.4210 -0.1647 -0.1337
17976SOL    HW155369   6.474   1.118   6.492  0.9241  1.9758  2.2542
17976SOL    HW255370   6.437   1.190   6.365 -1.2241  0.0595  1.7300
17977SOL     OW55371   6.914   2.930   5.874  0.2210 -0.1949 -0.4810
17977SOL    HW155372   6.959   2.846   5.869 -1.0583 -0.9564  0.0707
17977SOL    HW255373   6.900   2.955   5.783  1.2587 -0.2095 -0.6528
17978SOL     OW55374   5.336   0.131   6.273 -0.7109 -0.1195  0.5424
17978SOL    HW155375   5.309   0.075   6.201  0.3845 -0.8313  0.6533
17978SOL    HW255376   5.324   0.078   6.351  0.3645 -0.2327  0.6455
17979SOL     OW55377   7.679   0.660   5.884  0.3259  0.4365 -0.1471
17979SOL    HW155378   7.620   0.715   5.832  1.1151  0.7278 -0.7531
17979SOL    HW255379   7.711   0.594   5.823 -0.8498 -0.9405  0.6384
17980SOL     OW55380   6.985   0.868   4.999 -0.1607  0.8626 -0.2587
17980SOL    HW155381   7.036   0.903   4.926  1.4640 -0.6376  0.0831
17980SOL    HW255382   6.988   0.773   4.987  0.1057  0.5764  1.7192
17981SOL     OW55383   6.510   4.771   7.157  0.1067  0.1040 -0.0949
17981SOL    HW155384   6.604   4.763   7.146 -0.1150 -1.4747 -1.3332
17981SOL    HW255385   6.484   4.691   7.204 -0.3566  1.7123  2.6190
17982SOL     OW55386   7.072   0.801   6.840  0.0544 -0.2936 -0.7226
17982SOL    HW155387   7.115   0.755   6.768  0.0934 -0.3203 -0.6829
17982SOL    HW255388   7.126   0.781   6.917  0.1132 -0.1204 -0.7184
17983SOL     OW55389   5.476   1.227   4.950  0.0553  0.1385 -0.1190
17983SOL    HW155390   5.542   1.158   4.953  1.6288  1.3387 -2.7484
17983SOL    HW255391   5.403   1.189   4.902 -1.1183 -1.0619  2.4390
17984SOL     OW55392   6.582   0.061   6.764  0.0427  0.4403  0.0676
17984SOL    HW155393   6.504   0.064   6.708  1.0795  3.4710 -1.3969
17984SOL    HW255394   6.644   0.006   6.716 -0.6315 -0.7416  0.5134
17985SOL     OW55395   6.367   0.008   5.334  0.5582 -0.5642 -0.6001
17985SOL    HW155396   6.320   0.080   5.291 -0.7285 -0.9324  0.1242
17985SOL    HW255397   6.459   0.024   5.314  0.2256  0.8109 -1.1571
17986SOL     OW55398   3.837   1.371   5.184  0.0327  0.6051 -0.1181
17986SOL    HW155399   3.760   1.340   5.137 -1.2889  1.1254  1.5850
17986SOL    HW255400   3.884   1.292   5.209 -0.4702  0.2324 -0.3440
17987SOL     OW55401   4.128   2.893   8.087 -0.5550  0.4759  0.0086
17987SOL    HW155402   4.084   2.937   8.160  0.9605  0.4608  0.9868
17987SOL    HW255403   4.201   2.951   8.066 -0.1622 -0.2132 -0.5623
17988SOL     OW55404   5.790   0.254   6.093 -0.2013 -0.4892 -0.2031
17988SOL    HW155405   5.795   0.316   6.019  1.0680 -0.0333  0.2376
17988SOL    HW255406   5.819   0.305   6.168  0.2271 -1.4484  0.2938
17989SOL     OW55407   6.544   1.187   8.064 -0.8536  0.1478  0.8908
17989SOL    HW155408   6.469   1.241   8.039 -1.5697 -1.1149  0.2304
17989SOL    HW255409   6.507   1.116   8.115 -0.3905 -1.4911 -0.9462
17990SOL     OW55410   7.011   0.013   6.031  0.1591  0.2666  0.1959
17990SOL    HW155411   6.990  -0.075   5.999  2.3548 -0.2688  0.1017
17990SOL    HW255412   6.995   0.009   6.125  1.8516 -0.7955  0.4742
17991SOL     OW55413   5.673   6.654   5.299 -0.5121 -0.1484 -0.2131
17991SOL    HW155414   5.739   6.590   5.271  0.7298  1.3275 -0.7818
17991SOL    HW255415   5.607   6.651   5.230 -0.1764 -0.4271 -0.5298
17992SOL     OW55416   7.758   1.824   5.482 -0.0317 -0.1686  0.2925
17992SOL    HW155417   7.827   1.759   5.494 -0.6993 -1.4201 -1.9858
17992SOL    HW255418   7.687   1.795   5.539  0.0436 -0.8855  0.0297
17993SOL     OW55419   5.280   0.694   6.210  0.0145 -0.2341  0.7180
17993SOL    HW155420   5.254   0.729   6.295  2.6000  2.8234  0.4343
17993SOL    HW255421   5.245   0.605   6.209 -0.8733 -0.1001  4.5968
17994SOL     OW55422   6.274   0.251   6.422  0.1151 -0.3485  0.3134
17994SOL    HW155423   6.181   0.253   6.444  0.1087  0.4707  0.2184
17994SOL    HW255424   6.314   0.201   6.494 -0.3981 -0.7640  0.3202
17995SOL     OW55425   7.898   1.745   7.606  0.2011  0.0300  0.3835
17995SOL    HW155426   7.936   1.816   7.553  0.5137  0.4055  1.0987
17995SOL    HW255427   7.964   1.727   7.673  1.9566 -3.6493 -2.0103
17996SOL     OW55428   4.347   2.493   4.473  0.2029 -0.1471 -0.2707
17996SOL    HW155429   4.360   2.582   4.506 -1.1798 -0.2478  0.6135
17996SOL    HW255430   4.257   2.492   4.441 -0.0023 -1.3720  0.2754
17997SOL     OW55431   7.283   0.347   5.532 -0.1495  0.9440 -0.2515
17997SOL    HW155432   7.312   0.307   5.450  1.1118 -0.2843  0.7300
17997SOL    HW255433   7.357   0.401   5.560 -0.6966  1.6174 -0.0894
17998SOL     OW55434   6.871   1.263   5.477  0.5446  0.5600 -0.9594
17998SOL    HW155435   6.818   1.319   5.535  2.3855  0.6130  0.7852
17998SOL    HW255436   6.849   1.174   5.504  0.8721  0.5671 -0.6635
17999SOL     OW55437   7.038   3.986   5.989 -0.0564  0.5247  0.5268
17999SOL    HW155438   6.984   3.920   5.947 -1.2803  1.3865  0.6655
17999SOL    HW255439   7.020   4.067   5.940  1.0741  0.8549  0.6211
18000SOL     OW55440   4.941   7.030   6.849 -0.7920  0.2327 -0.2519
18000SOL    HW155441   4.898   6.977   6.782  0.3986 -0.2839 -0.6367
18000SOL    HW255442   5.007   7.079   6.801  0.1450 -0.2231  0.5488
18001SOL     OW55443   7.947   7.478   5.758 -0.0673 -0.2620  0.1282
18001SOL    HW155444   7.854   7.457   5.751 -0.5921  1.9214 -0.3999
18001SOL    HW255445   7.971   7.449   5.846 -2.0929  1.8256  1.5155
18002SOL     OW55446   6.905   6.902   6.287 -0.7357 -0.2958  0.0731
18002SOL    HW155447   6.835   6.913   6.352 -0.5361 -0.2274  0.2796
18002SOL    HW255448   6.941   6.815   6.305  1.4937  0.9260  2.2435
18003SOL     OW55449   7.115   0.807   6.230 -0.6236 -0.4713  0.2244
18003SOL    HW155450   7.158   0.889   6.205 -0.9663 -0.9485 -2.0903
18003SOL    HW255451   7.046   0.835   6.292  0.1447  0.7960  0.5493
18004SOL     OW55452   7.784   2.225   6.634  0.0359 -0.0229  0.1900
18004SOL    HW155453   7.763   2.296   6.695  0.3482  0.0079  0.2646
18004SOL    HW255454   7.699   2.186   6.613 -0.0584 -0.1607  0.7972
18005SOL     OW55455   5.600   6.960   5.251 -0.6898  0.2417 -0.0382
18005SOL    HW155456   5.610   6.983   5.344 -0.0634  3.6304 -0.7940
18005SOL    HW255457   5.689   6.956   5.218 -0.9122 -0.9073 -0.5285
18006SOL     OW55458   7.925   0.088   7.110 -0.8808 -0.5882 -0.7242
18006SOL    HW155459   7.849   0.147   7.113  0.2788  0.9746 -1.0521
18006SOL    HW255460   7.979   0.115   7.184 -0.5763 -1.6118 -0.5604
18007SOL     OW55461   6.577   5.621   6.109 -0.0996 -0.5698  0.5617
18007SOL    HW155462   6.659   5.669   6.096  0.2600 -1.2764  0.1725
18007SOL    HW255463   6.604   5.536   6.143 -0.8209  0.0044  2.6901
18008SOL     OW55464   6.719   1.662   7.204 -0.9529 -0.0871 -0.3037
18008SOL    HW155465   6.699   1.709   7.285 -1.0515 -0.8242  0.1034
18008SOL    HW255466   6.797   1.611   7.224  1.3283  2.4923 -1.7599
18009SOL     OW55467   6.007   1.497   5.683 -0.0836 -0.1990 -0.1414
18009SOL    HW155468   5.940   1.441   5.722 -0.2941 -2.6382 -3.5761
18009SOL    HW255469   5.962   1.543   5.612  1.3208 -0.0437 -0.9823
18010SOL     OW55470   7.291   1.590   6.526 -0.3966 -0.2878  0.6801
18010SOL    HW155471   7.330   1.503   6.523  0.9524  0.2725  1.1666
18010SOL    HW255472   7.364   1.650   6.511 -1.3966  0.7579 -0.2759
18011SOL     OW55473   4.774   1.317   6.771  0.6611  0.4448  0.7438
18011SOL    HW155474   4.816   1.263   6.705  1.7490  1.2096  0.7921
18011SOL    HW255475   4.693   1.348   6.729 -0.2143 -1.5042  0.8552
18012SOL     OW55476   7.440   0.968   6.074 -0.2556  0.3892 -0.0935
18012SOL    HW155477   7.355   0.995   6.109 -0.7366 -0.0082 -0.9221
18012SOL    HW255478   7.440   0.873   6.080  0.0128  0.3687 -0.3642
18013SOL     OW55479   6.865   0.516   5.416  0.1875 -0.0073  0.5310
18013SOL    HW155480   6.929   0.582   5.387 -0.2281 -0.3176 -1.1919
18013SOL    HW255481   6.805   0.565   5.472  1.3065  0.5087  1.3430
18014SOL     OW55482   6.340   1.121   5.282  0.0284  0.2188  0.3757
18014SOL    HW155483   6.380   1.091   5.363  2.5872  0.6347 -0.6360
18014SOL    HW255484   6.403   1.184   5.246  0.0673 -1.4706 -2.9091
18015SOL     OW55485   5.464   1.420   5.282  0.4123  0.7644 -1.0648
18015SOL    HW155486   5.453   1.513   5.300  0.5982  0.4646  0.7674
18015SOL    HW255487   5.552   1.413   5.243 -0.2514  1.5081 -2.8012
18016SOL     OW55488   7.038   0.271   6.023 -0.2240 -0.4178 -0.1083
18016SOL    HW155489   7.009   0.180   6.018  0.9616 -0.7625 -2.1462
18016SOL    HW255490   7.032   0.303   5.933  1.1582  0.9231  0.2197
18017SOL     OW55491   5.962   0.718   6.252 -0.2712  0.0358  0.2580
18017SOL    HW155492   5.947   0.623   6.259 -2.5503  0.2203 -1.0012
18017SOL    HW255493   6.037   0.726   6.194  0.5243 -0.9828  1.1002
18018SOL     OW55494   7.727   1.200   8.539 -0.0398  0.3410  0.0360
18018SOL    HW155495   7.753   1.242   8.457  1.4047 -0.6050 -0.0387
18018SOL    HW255496   7.716   1.108   8.515 -1.9556  0.4461  0.4368
18019SOL     OW55497   6.533   0.390   6.157 -0.4562 -0.8629 -0.2055
18019SOL    HW155498   6.551   0.297   6.147  1.1375 -0.4627 -1.3384
18019SOL    HW255499   6.529   0.424   6.068  0.2092  0.3653  0.2064
18020SOL     OW55500   5.080   2.499   6.780 -0.3997  0.2958 -0.0478
18020SOL    HW155501   5.045   2.466   6.698 -1.9126 -1.3513  1.1744
18020SOL    HW255502   5.065   2.594   6.777 -2.1641  0.0292 -0.9175
18021SOL     OW55503   5.113   1.631   6.129 -0.4362 -0.6084 -0.0575
18021SOL    HW155504   5.153   1.563   6.074  1.1018 -0.4984  0.8942
18021SOL    HW255505   5.065   1.686   6.067  1.0858 -0.5997 -1.2873
18022SOL     OW55506   4.165   0.498   6.120 -0.0427 -0.0568 -0.4940
18022SOL    HW155507   4.212   0.507   6.037  0.8363  0.4076  0.0397
18022SOL    HW255508   4.075   0.521   6.098  0.4977  1.7692 -0.9884
18023SOL     OW55509   3.947   0.514   6.325  0.3886  0.0217 -0.4207
18023SOL    HW155510   3.907   0.567   6.394  1.1902  0.3571 -0.2069
18023SOL    HW255511   3.880   0.449   6.303  1.1482 -2.0139  2.7461
18024SOL     OW55512   5.777   0.467   5.563 -0.5005  0.0033  0.6878
18024SOL    HW155513   5.809   0.527   5.630 -0.3617  0.0305  0.5969
18024SOL    HW255514   5.855   0.440   5.515 -0.7762  1.1358 -0.4273
18025SOL     OW55515   6.903   0.016   6.660 -0.7309  0.2709  0.2699
18025SOL    HW155516   6.973   0.051   6.715 -1.3433  0.1831  1.1342
18025SOL    HW255517   6.944   0.002   6.575  0.9778 -2.0447  1.3710
18026SOL     OW55518   7.035   1.632   6.363  0.3328 -0.0430  0.6781
18026SOL    HW155519   7.114   1.633   6.309 -0.4796  0.9981 -0.5545
18026SOL    HW255520   6.974   1.577   6.314 -0.7445  1.6914 -0.0173
18027SOL     OW55521   6.541   1.980   5.007 -0.1013 -0.1555 -0.2230
18027SOL    HW155522   6.463   1.925   5.001  0.1857 -0.6495  0.3742
18027SOL    HW255523   6.552   1.996   5.101 -0.8294  1.9073 -0.4478
18028SOL     OW55524   5.759   1.483   6.038  0.1051  0.0862 -0.1937
18028SOL    HW155525   5.684   1.442   5.995 -0.1308  0.5727 -0.2611
18028SOL    HW255526   5.720   1.556   6.088  0.4308 -0.1789  0.4555
18029SOL     OW55527   0.503   0.642   5.904 -0.6463  0.0634 -0.2952
18029SOL    HW155528   0.429   0.605   5.953 -0.7269  0.9954  0.3161
18029SOL    HW255529   0.557   0.566   5.881 -1.6111 -0.5948 -0.4560
18030SOL     OW55530   6.435   7.853   4.869 -0.4606  0.2863 -0.0301
18030SOL    HW155531   6.470   7.803   4.943 -1.0671  0.9597  0.7303
18030SOL    HW255532   6.414   7.787   4.803 -3.0977 -0.7423  1.6655
18031SOL     OW55533   6.901   1.430   3.947  0.0089  0.2797 -0.1408
18031SOL    HW155534   6.953   1.350   3.942 -0.2518  0.1603 -1.0069
18031SOL    HW255535   6.911   1.472   3.862  0.6005  1.4761  0.4818
18032SOL     OW55536   6.100   2.633   8.285 -0.3188  0.4593  0.3510
18032SOL    HW155537   6.011   2.644   8.251  0.3605  0.4331 -1.5595
18032SOL    HW255538   6.157   2.669   8.216  1.2487 -1.3078  0.6305
18033SOL     OW55539   7.256   0.479   7.234 -0.4657  0.3233  0.1093
18033SOL    HW155540   7.339   0.498   7.277 -0.0271 -0.0394 -0.5550
18033SOL    HW255541   7.265   0.389   7.201 -1.3366  0.0703  0.5247
18034SOL     OW55542   6.713   1.380   6.750 -0.2911 -0.0443 -0.1777
18034SOL    HW155543   6.744   1.349   6.835  0.8505 -1.2826 -0.9957
18034SOL    HW255544   6.618   1.376   6.756 -0.2072 -1.4557  0.5963
18035SOL     OW55545   6.324   2.186   5.877  0.6136 -0.0912 -0.8340
18035SOL    HW155546   6.331   2.161   5.969  2.0903 -0.7865 -1.1098
18035SOL    HW255547   6.313   2.281   5.878  2.0906  0.0866  0.0192
18036SOL     OW55548   0.280   1.682   6.497  0.0225  0.0088 -0.4722
18036SOL    HW155549   0.229   1.734   6.560  1.7172 -1.6923  2.5426
18036SOL    HW255550   0.367   1.723   6.497  0.3650 -0.7031 -0.8291
18037SOL     OW55551   7.795   1.292   5.139  0.3637  0.3122 -0.4074
18037SOL    HW155552   7.733   1.366   5.140 -2.3892 -1.8212  1.6632
18037SOL    HW255553   7.860   1.315   5.205 -0.8627  0.6406  0.7318
18038SOL     OW55554   6.832   1.781   6.605 -0.4415  0.5126  1.0996
18038SOL    HW155555   6.781   1.750   6.530 -1.5027  1.2147  1.4871
18038SOL    HW255556   6.784   1.748   6.681 -0.2364  1.0666  1.4731
18039SOL     OW55557   4.557   7.570   5.480  0.0311  0.2790 -0.0114
18039SOL    HW155558   4.524   7.645   5.530 -0.5072  1.3737 -1.9123
18039SOL    HW255559   4.489   7.503   5.488 -0.7107  0.9729 -0.4353
18040SOL     OW55560   6.482   0.941   7.588 -0.1618  0.0651  0.6762
18040SOL    HW155561   6.457   0.951   7.679 -1.4432 -2.0108  0.6176
18040SOL    HW255562   6.496   1.030   7.556  1.3097  0.8022  3.1246
18041SOL     OW55563   5.784   1.367   7.768  0.2708 -0.0723 -0.3490
18041SOL    HW155564   5.816   1.288   7.811 -0.2280 -1.1226 -1.8231
18041SOL    HW255565   5.795   1.436   7.834 -0.6121 -1.5982  1.5238
18042SOL     OW55566   5.632   1.836   6.429 -0.3599 -0.3313 -0.1767
18042SOL    HW155567   5.666   1.808   6.344  1.5115 -1.1240  0.7599
18042SOL    HW255568   5.594   1.757   6.466  0.2970 -0.3960  0.3744
18043SOL     OW55569   7.058   0.284   5.359 -0.5462 -0.1203  0.0023
18043SOL    HW155570   7.111   0.274   5.439 -1.8063  0.2725  0.9103
18043SOL    HW255571   6.994   0.351   5.381 -0.9674 -0.0548 -1.3385
18044SOL     OW55572   7.486   1.346   5.803  0.3639 -0.3578 -0.1529
18044SOL    HW155573   7.434   1.420   5.834  1.0478 -0.7783  2.2418
18044SOL    HW255574   7.576   1.379   5.801  0.3599 -0.3816 -1.7313
18045SOL     OW55575   6.385   1.705   4.688  0.3096  0.4256  0.0765
18045SOL    HW155576   6.454   1.771   4.685  0.7736  0.0869  1.8856
18045SOL    HW255577   6.403   1.655   4.767 -1.0441 -0.7668 -0.3149
18046SOL     OW55578   6.082   1.805   4.348 -0.3686 -0.1120 -0.2255
18046SOL    HW155579   6.108   1.745   4.278  0.6139  0.4051 -0.3225
18046SOL    HW255580   6.064   1.748   4.422  1.3840 -0.5187 -0.0565
18047SOL     OW55581   4.946   3.334   8.049 -0.2371  0.2043  0.0661
18047SOL    HW155582   4.855   3.316   8.075 -1.0131  0.7001 -2.1590
18047SOL    HW255583   4.981   3.248   8.025 -0.6242  0.2173 -0.5625
18048SOL     OW55584   5.498   1.366   7.783 -0.0421  0.1898 -0.2073
18048SOL    HW155585   5.591   1.344   7.777  0.2207  1.3626 -0.6333
18048SOL    HW255586   5.492   1.456   7.751 -1.5033 -0.3035 -1.4770
18049SOL     OW55587   6.781   0.855   8.112  0.4231  0.8615 -0.0422
18049SOL    HW155588   6.745   0.908   8.041 -1.5685 -1.1750 -0.6954
18049SOL    HW255589   6.822   0.781   8.068  0.6447  0.4137  0.8927
18050SOL     OW55590   6.181   6.677   6.812 -0.0289 -0.5053  0.5015
18050SOL    HW155591   6.176   6.747   6.746  1.0942 -2.3370 -1.6811
18050SOL    HW255592   6.128   6.709   6.885  0.1450  2.4433 -0.5131
18051SOL     OW55593   6.609   2.305   7.906 -0.5146 -0.0214  0.1139
18051SOL    HW155594   6.614   2.390   7.863  0.4242 -0.1589 -0.0664
18051SOL    HW255595   6.575   2.246   7.839 -0.9469  0.1664  0.1688
18052SOL     OW55596   5.721   3.381   7.512  0.3353  0.3427  0.3349
18052SOL    HW155597   5.734   3.456   7.570 -0.5357 -0.0719  1.0977
18052SOL    HW255598   5.648   3.406   7.455  2.0303  1.2743 -1.5379
18053SOL     OW55599   0.690   2.225   6.181 -0.1860 -0.1842 -0.0476
18053SOL    HW155600   0.753   2.184   6.240  0.5542  1.9866  0.7621
18053SOL    HW255601   0.706   2.184   6.096  1.0936 -0.9247  0.5237
18054SOL     OW55602   4.871   0.221   6.596 -0.4091 -0.6059  0.6278
18054SOL    HW155603   4.843   0.313   6.590  0.4411 -0.3359  0.6021
18054SOL    HW255604   4.825   0.177   6.525 -2.3403 -0.6248  1.8170
18055SOL     OW55605   5.833   2.246   7.925  0.4144 -0.1638 -0.3556
18055SOL    HW155606   5.849   2.321   7.869  0.6724 -0.5820 -0.8551
18055SOL    HW255607   5.784   2.185   7.870 -1.2391  0.3034  0.5650
18056SOL     OW55608   6.317   1.548   7.303 -0.4420 -0.8743 -0.1082
18056SOL    HW155609   6.373   1.558   7.226 -0.8413 -0.5229 -0.3605
18056SOL    HW255610   6.274   1.633   7.311  0.7113 -0.3869  1.3982
18057SOL     OW55611   7.047   7.679   6.103 -0.0874 -0.3366  0.2696
18057SOL    HW155612   6.967   7.728   6.087 -0.4145 -1.0369 -0.2353
18057SOL    HW255613   7.039   7.650   6.194 -0.2151 -0.0703  0.3470
18058SOL     OW55614   0.803   2.071   6.917 -0.5077  0.1973  0.0604
18058SOL    HW155615   0.894   2.060   6.888  0.0648  1.8266  1.1130
18058SOL    HW255616   0.751   2.064   6.837  0.7729  1.8021 -0.9712
18059SOL     OW55617   6.437   1.953   5.816  0.5958 -0.1425  0.0860
18059SOL    HW155618   6.440   2.039   5.858 -1.5484  0.0114 -0.0120
18059SOL    HW255619   6.384   1.965   5.738 -0.1168 -1.6481  0.3039
18060SOL     OW55620   5.586   1.629   7.213 -0.0936  0.4776  0.1402
18060SOL    HW155621   5.643   1.565   7.169  0.8201  0.6037  1.1042
18060SOL    HW255622   5.646   1.688   7.258 -0.9858 -0.0469  2.1222
18061SOL     OW55623   0.735   0.416   6.226 -0.1414  0.0608  0.0598
18061SOL    HW155624   0.811   0.473   6.215  1.4257 -1.6541  1.3662
18061SOL    HW255625   0.715   0.385   6.138 -0.4453  1.8447 -0.5378
18062SOL     OW55626   6.451   1.083   7.235  0.2670  0.0779 -0.0295
18062SOL    HW155627   6.417   0.993   7.236 -1.0835  0.5015 -1.9795
18062SOL    HW255628   6.444   1.110   7.143 -1.1115  2.7791  0.7635
18063SOL     OW55629   6.883   7.839   4.667 -0.5763 -0.0448 -0.1646
18063SOL    HW155630   6.792   7.807   4.665 -0.6166  0.0836 -0.3966
18063SOL    HW255631   6.912   7.822   4.757 -0.8093 -0.1448 -0.1066
18064SOL     OW55632   0.822   0.085   4.159 -0.5973  0.4201  0.4509
18064SOL    HW155633   0.748   0.123   4.206 -0.8468 -0.3444  0.6897
18064SOL    HW255634   0.887   0.068   4.226 -0.4428  0.5261  0.3289
18065SOL     OW55635   7.632   3.521   8.016  0.2971 -0.1167  0.2259
18065SOL    HW155636   7.612   3.590   7.952  0.6794 -0.1640  0.0548
18065SOL    HW255637   7.726   3.527   8.030  0.1077  0.3746  1.3529
18066SOL     OW55638   4.958   2.635   4.183 -0.3606 -0.4048 -0.6608
18066SOL    HW155639   5.013   2.566   4.146  0.8200 -0.8238  1.7162
18066SOL    HW255640   4.883   2.639   4.124  0.9231 -1.6819 -2.4969
18067SOL     OW55641   6.017   1.061   6.133  0.1782 -0.4446  0.2100
18067SOL    HW155642   5.951   1.059   6.202 -0.0448 -1.9816 -0.0251
18067SOL    HW255643   5.996   1.141   6.083  0.1910  0.5485  1.7363
18068SOL     OW55644   7.289   7.586   5.983  0.0325  0.3187 -0.6616
18068SOL    HW155645   7.303   7.498   6.015  1.1840  0.0789 -1.7107
18068SOL    HW255646   7.203   7.611   6.014 -0.4970 -1.3527 -0.7344
18069SOL     OW55647   7.268   0.121   8.798 -0.0855 -0.0246  0.0040
18069SOL    HW155648   7.346   0.087   8.842  0.9711  2.1727 -0.0431
18069SOL    HW255649   7.288   0.111   8.704  0.3464  0.9471 -0.0121
18070SOL     OW55650   5.075   2.631   6.249  0.0385  0.2193 -0.4302
18070SOL    HW155651   5.169   2.618   6.258 -0.0745 -0.1665  0.2043
18070SOL    HW255652   5.036   2.545   6.261 -0.3974  0.3570 -0.7844
18071SOL     OW55653   4.684   1.421   6.106 -0.1144  0.1342 -0.0775
18071SOL    HW155654   4.688   1.335   6.150  1.7970 -0.0081 -0.4473
18071SOL    HW255655   4.737   1.410   6.027 -0.3631  1.4862 -0.4555
18072SOL     OW55656   6.471   1.553   7.090  0.3689 -0.1790 -0.5534
18072SOL    HW155657   6.543   1.616   7.090  1.1202 -1.0061  0.4438
18072SOL    HW255658   6.456   1.534   6.997 -0.6148  2.2464 -0.9815
18073SOL     OW55659   7.799   1.522   7.799 -0.1068 -0.0007 -0.6076
18073SOL    HW155660   7.867   1.519   7.866 -1.4590 -0.7031  0.7916
18073SOL    HW255661   7.829   1.590   7.738  2.0276 -0.5716 -0.2927
18074SOL     OW55662   4.885   6.989   5.372 -0.1855  0.0831 -0.4858
18074SOL    HW155663   4.831   6.963   5.447 -0.5992  0.9720 -0.4667
18074SOL    HW255664   4.918   7.076   5.396  0.7361 -0.1821 -0.7787
18075SOL     OW55665   4.241   0.431   5.325 -0.6804  0.2469 -0.5026
18075SOL    HW155666   4.154   0.395   5.308 -1.3853  0.5507  2.1329
18075SOL    HW255667   4.285   0.429   5.239 -2.6593 -1.4953 -1.5545
18076SOL     OW55668   7.652   1.891   6.127  0.3738  0.1546 -0.6390
18076SOL    HW155669   7.621   1.846   6.049 -0.5687  0.9068 -0.7198
18076SOL    HW255670   7.739   1.854   6.144  0.1094 -0.8269 -1.3720
18077SOL     OW55671   5.653   1.809   5.429 -0.1535  0.1409  0.1021
18077SOL    HW155672   5.642   1.876   5.497 -1.7266  0.9201 -0.8532
18077SOL    HW255673   5.566   1.771   5.419  0.2814 -0.6466 -0.7971
18078SOL     OW55674   7.287   0.044   5.960  0.0958  0.4542 -0.4532
18078SOL    HW155675   7.200   0.012   5.985  0.3953  0.6799  0.9930
18078SOL    HW255676   7.341  -0.035   5.955  0.1780  0.4612  0.2734
18079SOL     OW55677   6.549   2.947   8.048 -0.7974 -0.1090 -0.2364
18079SOL    HW155678   6.614   2.921   8.114 -1.8206  0.2478  0.9625
18079SOL    HW255679   6.465   2.929   8.090 -1.4956  1.2020 -1.0168
18080SOL     OW55680   3.839   0.667   7.754 -0.4007 -0.0069 -0.1075
18080SOL    HW155681   3.900   0.688   7.683  0.3319  0.4082  0.6219
18080SOL    HW255682   3.782   0.600   7.717  1.1802 -1.2138 -0.4897
18081SOL     OW55683   7.968   1.960   7.433 -0.4333 -0.8249 -0.5067
18081SOL    HW155684   7.874   1.967   7.450 -0.3561  1.7166 -0.6482
18081SOL    HW255685   7.973   1.946   7.338 -0.7004  0.1365 -0.6816
18082SOL     OW55686   6.274   0.269   5.740 -0.2035  0.4354 -0.2600
18082SOL    HW155687   6.185   0.246   5.765  0.4363 -1.3524  0.5699
18082SOL    HW255688   6.273   0.365   5.732 -1.7898  0.6053  1.3375
18083SOL     OW55689   5.250   0.150   6.803  0.0450 -0.5075  0.5774
18083SOL    HW155690   5.240   0.101   6.884  0.1049 -0.3966  0.6532
18083SOL    HW255691   5.185   0.113   6.744 -0.6999  0.0882  1.0060
18084SOL     OW55692   6.483   2.036   7.196  0.1395 -0.0367  0.0130
18084SOL    HW155693   6.465   2.108   7.136 -0.3828 -0.3478 -0.2087
18084SOL    HW255694   6.492   1.959   7.140 -0.1759 -0.2967  0.3158
18085SOL     OW55695   7.983   7.474   6.239  0.4724  0.5282  0.0045
18085SOL    HW155696   8.012   7.401   6.184 -0.2562 -0.7109  1.1922
18085SOL    HW255697   7.951   7.539   6.177 -0.3474 -0.8242 -1.0630
18086SOL     OW55698   7.450   1.936   7.613  0.3802  0.5837  0.3570
18086SOL    HW155699   7.503   1.862   7.643  1.2791  0.9611 -0.2242
18086SOL    HW255700   7.369   1.897   7.581 -0.0621  0.0657  2.0224
18087SOL     OW55701   5.562   0.681   6.463 -0.1157 -0.0958 -0.3916
18087SOL    HW155702   5.645   0.638   6.484 -0.7628  0.1113  3.1485
18087SOL    HW255703   5.564   0.690   6.367  1.8533 -4.2210 -0.9584
18088SOL     OW55704   5.370   1.171   8.273  0.0748 -0.0167  0.5310
18088SOL    HW155705   5.398   1.084   8.243  0.0320  0.4832 -1.0214
18088SOL    HW255706   5.362   1.161   8.368 -2.3176 -2.4048  0.2111
18089SOL     OW55707   0.251   0.863   7.756  0.3386 -0.0600 -0.1760
18089SOL    HW155708   0.294   0.869   7.670  1.8915  1.8371  0.6530
18089SOL    HW255709   0.301   0.795   7.802 -0.2576 -0.8142 -0.6188
18090SOL     OW55710   7.296   0.310   4.831 -0.0610  0.4599  0.0916
18090SOL    HW155711   7.281   0.231   4.779  1.1380 -0.6896  1.4037
18090SOL    HW255712   7.213   0.327   4.874 -0.3977  0.0666 -0.3888
18091SOL     OW55713   7.171   1.270   6.379  0.1211  0.8192 -0.6096
18091SOL    HW155714   7.085   1.249   6.415  0.8201  0.7074  1.0836
18091SOL    HW255715   7.229   1.273   6.455  1.8332 -0.1407 -1.8062
18092SOL     OW55716   7.719   1.901   7.278  0.2046 -0.0459  0.1322
18092SOL    HW155717   7.675   1.953   7.211  1.1269 -1.0434 -1.3082
18092SOL    HW255718   7.662   1.906   7.355 -0.7055  1.4206 -0.6101
18093SOL     OW55719   6.744   7.388   6.152 -0.2214 -0.4580  0.0436
18093SOL    HW155720   6.810   7.434   6.204 -1.0187 -0.5109  1.1200
18093SOL    HW255721   6.664   7.393   6.204 -1.0468 -0.5351 -1.1635
18094SOL     OW55722   6.669   0.002   7.054  0.2481  0.0202  0.1066
18094SOL    HW155723   6.679   0.005   7.149  1.8568  1.7521 -0.0534
18094SOL    HW255724   6.741   0.056   7.021 -2.0010  2.0226 -1.9485
18095SOL     OW55725   6.139   1.329   5.290  0.0015 -0.6995  0.0457
18095SOL    HW155726   6.197   1.257   5.266  0.8918  0.2490 -0.7426
18095SOL    HW255727   6.164   1.352   5.379 -0.5776 -1.6160  0.4637
18096SOL     OW55728   0.542   2.649   8.310 -0.3797 -0.0902  0.8101
18096SOL    HW155729   0.481   2.698   8.366 -0.0073  0.6200  0.6086
18096SOL    HW255730   0.554   2.566   8.355 -1.8886 -0.4533  0.6022
18097SOL     OW55731   7.288   0.871   5.277 -0.2633  0.1779 -0.0580
18097SOL    HW155732   7.372   0.840   5.243 -1.1754 -1.3984 -0.9681
18097SOL    HW255733   7.266   0.946   5.222 -0.2082 -0.3946 -0.8641
18098SOL     OW55734   5.555   1.320   5.942  0.3622 -0.1425  0.0746
18098SOL    HW155735   5.466   1.315   5.908  0.0470  0.5984  0.7551
18098SOL    HW255736   5.547   1.300   6.035  1.1664 -1.8026 -0.1667
18099SOL     OW55737   6.625   0.849   5.173 -0.2219  0.5072 -0.3912
18099SOL    HW155738   6.643   0.757   5.189 -1.7674  0.6791  3.3879
18099SOL    HW255739   6.711   0.891   5.176  0.3707 -0.6405 -0.6887
18100SOL     OW55740   4.909   7.503   5.114 -0.0297  0.0302  0.3194
18100SOL    HW155741   4.957   7.554   5.179 -1.2403 -0.2144  1.4560
18100SOL    HW255742   4.842   7.562   5.082 -0.2547 -0.2525  0.2631
18101SOL     OW55743   0.601   0.194   6.611  0.0200  0.3197 -0.7615
18101SOL    HW155744   0.552   0.263   6.656  0.2054  0.7204 -1.1739
18101SOL    HW255745   0.606   0.123   6.676 -2.0131 -0.1621 -1.0561
18102SOL     OW55746   6.864   2.442   6.459 -0.3131 -0.5101 -0.0620
18102SOL    HW155747   6.782   2.393   6.457 -0.6568  0.0501  0.1374
18102SOL    HW255748   6.838   2.531   6.484  0.5707 -0.7999  2.1194
18103SOL     OW55749   4.828   0.898   6.401 -0.5011  0.1554  0.2434
18103SOL    HW155750   4.850   0.986   6.370  2.0606 -0.4656  0.0854
18103SOL    HW255751   4.764   0.913   6.470 -1.4067  2.0118 -0.9007
18104SOL     OW55752   7.604   1.562   6.392  0.1245 -0.3906 -0.0130
18104SOL    HW155753   7.531   1.505   6.417 -0.7258  0.4505 -0.5313
18104SOL    HW255754   7.680   1.525   6.438 -0.6982 -1.0429  0.8577
18105SOL     OW55755   5.213   2.411   6.036 -0.0705 -0.2125  0.1361
18105SOL    HW155756   5.270   2.369   5.971 -1.0159 -2.3958  0.6417
18105SOL    HW255757   5.124   2.398   6.002 -0.4992 -0.2238  1.2202
18106SOL     OW55758   7.712   0.824   7.194 -0.4879 -0.3009 -0.2278
18106SOL    HW155759   7.637   0.872   7.158 -0.2066  0.4460  0.1656
18106SOL    HW255760   7.777   0.825   7.124 -0.0794  0.8321  0.1470
18107SOL     OW55761   6.300   0.536   8.445 -0.4488 -0.2034 -0.2171
18107SOL    HW155762   6.209   0.520   8.420 -1.2585  1.4362  1.4250
18107SOL    HW255763   6.344   0.453   8.430 -2.4472 -1.3540 -0.0643
18108SOL     OW55764   6.283   0.516   7.039 -0.2677 -0.3161 -0.3157
18108SOL    HW155765   6.308   0.484   6.952  1.3829 -0.9855  0.3470
18108SOL    HW255766   6.362   0.561   7.072 -0.8166 -0.1639  0.8646
18109SOL     OW55767   6.328   7.595   5.945 -0.7577 -0.0099  0.7752
18109SOL    HW155768   6.406   7.609   6.000 -0.2977 -0.1765  0.1729
18109SOL    HW255769   6.287   7.681   5.940  0.5552  0.5659 -0.6489
18110SOL     OW55770   7.127   1.739   4.832  0.0442  0.2872  0.3334
18110SOL    HW155771   7.105   1.828   4.804  3.4416  0.8803 -0.9427
18110SOL    HW255772   7.156   1.695   4.752 -0.4498 -1.6496  1.1515
18111SOL     OW55773   5.898   0.428   5.261 -0.8216 -0.4686  0.3138
18111SOL    HW155774   5.929   0.463   5.344 -2.0769  0.9125  0.2259
18111SOL    HW255775   5.923   0.494   5.196  1.0165 -1.9682 -0.6151
18112SOL     OW55776   5.753   2.210   5.651  0.3132 -0.2541 -0.9042
18112SOL    HW155777   5.832   2.177   5.694  0.3486 -0.8169 -1.3934
18112SOL    HW255778   5.776   2.300   5.625  0.0697  0.3659  0.8284
18113SOL     OW55779   6.715   1.132   5.953 -0.0563  0.8750 -0.3694
18113SOL    HW155780   6.754   1.204   6.002 -1.1349 -0.0572  2.0218
18113SOL    HW255781   6.670   1.079   6.019  1.5175 -2.5832 -1.8199
18114SOL     OW55782   7.850   1.944   6.657 -0.1240  0.1159 -0.7061
18114SOL    HW155783   7.824   1.927   6.567 -1.0298 -0.9793 -0.2594
18114SOL    HW255784   7.841   2.039   6.667 -2.9096 -0.0365 -0.9319
18115SOL     OW55785   0.032   0.476   7.351  0.1963  0.1373  0.0072
18115SOL    HW155786  -0.006   0.476   7.263 -0.0665  0.8456  0.1149
18115SOL    HW255787  -0.013   0.548   7.397  0.8091  0.2073  0.5095
18116SOL     OW55788   7.781   1.250   7.408  0.0489 -0.0608  0.3676
18116SOL    HW155789   7.711   1.215   7.463  1.7156 -0.2537  2.4905
18116SOL    HW255790   7.786   1.343   7.432  1.1589 -0.2690  1.0546
18117SOL     OW55791   4.497   1.679   8.248 -0.0573  0.0980  0.4870
18117SOL    HW155792   4.549   1.646   8.174 -0.4546 -0.5795  0.5017
18117SOL    HW255793   4.502   1.608   8.313  0.6751  0.8757  1.3029
18118SOL     OW55794   0.966   1.944   7.332 -0.0696  0.4640 -0.1978
18118SOL    HW155795   1.000   2.025   7.296  1.1830  0.1157  0.1524
18118SOL    HW255796   0.949   1.963   7.424  0.5031  0.2477 -0.0471
18119SOL     OW55797   6.215   1.340   5.546 -0.0477  0.2691 -0.1356
18119SOL    HW155798   6.294   1.392   5.562  0.0683  0.1119 -0.2001
18119SOL    HW255799   6.156   1.363   5.618  0.5527 -0.5989  0.6579
18120SOL     OW55800   7.998   0.502   4.418 -0.8014 -0.0197  0.2687
18120SOL    HW155801   8.039   0.480   4.502  0.8591  0.6470 -0.3174
18120SOL    HW255802   8.070   0.535   4.364 -2.0633  0.8355 -0.9802
18121SOL     OW55803   0.402   0.149   7.730  0.4325  0.6054  0.0537
18121SOL    HW155804   0.469   0.166   7.664 -1.8834  1.4820 -2.2565
18121SOL    HW255805   0.368   0.063   7.708  1.2331 -0.1549  1.6683
18122SOL     OW55806   0.196   1.118   5.982 -0.5444  1.0398 -0.0045
18122SOL    HW155807   0.117   1.154   6.023 -1.5896  1.1471 -1.9957
18122SOL    HW255808   0.246   1.195   5.954  0.1219  0.9657  0.9327
18123SOL     OW55809   6.532   2.599   6.380 -0.2330 -0.5243 -0.2056
18123SOL    HW155810   6.578   2.560   6.455  0.0318 -0.9286 -0.5695
18123SOL    HW255811   6.440   2.598   6.406 -0.3130 -1.9794 -0.4331
18124SOL     OW55812   5.802   2.120   7.445  0.0704  0.1288  0.0913
18124SOL    HW155813   5.738   2.182   7.480 -1.4530 -0.7763 -0.9561
18124SOL    HW255814   5.848   2.169   7.378 -1.8755 -0.0868 -1.5099
18125SOL     OW55815   7.130   7.902   6.468  0.0542  0.2757 -0.0571
18125SOL    HW155816   7.081   7.909   6.386 -0.2388 -0.1427  0.0783
18125SOL    HW255817   7.208   7.956   6.454  0.0599  0.1207 -0.6461
18126SOL     OW55818   6.029   2.189   4.665  0.2703  0.3033  0.6300
18126SOL    HW155819   6.030   2.093   4.666 -0.8593  0.2828  0.8479
18126SOL    HW255820   6.075   2.213   4.585  1.0465 -0.4026  0.8475
18127SOL     OW55821   6.339   2.057   7.913  0.7775  0.0864 -0.0453
18127SOL    HW155822   6.361   1.975   7.870  0.1345 -0.3427  0.4192
18127SOL    HW255823   6.398   2.122   7.874  1.3583 -0.6099 -0.3475
18128SOL     OW55824   4.921   0.749   7.382  0.0843  0.5115 -0.5547
18128SOL    HW155825   5.009   0.763   7.349  0.2213  2.8351  0.6497
18128SOL    HW255826   4.864   0.797   7.321 -0.1489  0.7258 -0.1707
18129SOL     OW55827   4.130   0.146   6.087 -0.5470  0.4007  0.2366
18129SOL    HW155828   4.154   0.195   6.165 -0.8157  0.1985  0.4488
18129SOL    HW255829   4.205   0.089   6.070 -0.1398  1.0392 -0.1397
18130SOL     OW55830   6.790   1.329   6.133 -0.8131  0.5520 -0.3554
18130SOL    HW155831   6.885   1.328   6.128 -0.8134 -0.3447 -0.4510
18130SOL    HW255832   6.771   1.321   6.227 -0.7802 -0.6268 -0.4328
18131SOL     OW55833   6.815   2.303   4.807 -0.2097 -0.7833 -0.5235
18131SOL    HW155834   6.865   2.365   4.861 -0.1467 -0.9573 -0.3836
18131SOL    HW255835   6.870   2.288   4.730  0.7317 -2.2657  0.3875
18132SOL     OW55836   6.071   1.958   6.353 -0.1242 -0.1657  0.2623
18132SOL    HW155837   6.099   1.988   6.439 -1.7308 -1.3052  1.2377
18132SOL    HW255838   6.135   1.891   6.329  0.6219  0.5130  0.3115
18133SOL     OW55839   3.697   1.996   6.488  0.7806  0.0555 -0.0020
18133SOL    HW155840   3.696   2.091   6.487  0.6487  0.0635 -1.5514
18133SOL    HW255841   3.608   1.970   6.512  0.9096  0.3108  0.7684
18134SOL     OW55842   6.748   0.847   6.033 -0.0822 -0.1791 -0.1914
18134SOL    HW155843   6.728   0.866   6.124  0.8837 -1.1942  0.2619
18134SOL    HW255844   6.663   0.841   5.990 -0.6579 -1.4843  1.0327
18135SOL     OW55845   6.729   0.407   5.648 -0.2430  0.3616  0.4165
18135SOL    HW155846   6.668   0.455   5.592  0.1564  0.9435  0.4772
18135SOL    HW255847   6.672   0.351   5.702 -0.6639  0.2569 -0.1278
18136SOL     OW55848   7.518   0.440   6.432  0.1542 -0.1298  0.2539
18136SOL    HW155849   7.472   0.366   6.472 -1.0445  0.4655  0.0280
18136SOL    HW255850   7.482   0.517   6.478 -0.5203  0.4923 -1.2556
18137SOL     OW55851   5.867   1.632   5.497 -0.1826 -0.2326 -0.2789
18137SOL    HW155852   5.855   1.564   5.431 -0.4020 -0.9834  0.5123
18137SOL    HW255853   5.829   1.711   5.458  2.3195  0.1220 -2.2710
18138SOL     OW55854   6.014   4.050   8.096  0.5915  0.2489 -0.0902
18138SOL    HW155855   6.071   3.984   8.135  0.1051 -1.9447 -2.7722
18138SOL    HW255856   6.073   4.118   8.065  1.5519 -0.8056 -0.6537
18139SOL     OW55857   5.868   1.601   6.942 -0.5080 -0.1533  0.0342
18139SOL    HW155858   5.803   1.561   7.000  0.6751  0.5476  1.9006
18139SOL    HW255859   5.885   1.687   6.979  0.7174  0.1080 -1.0319
18140SOL     OW55860   7.092   1.290   4.181 -0.3665 -0.5639  0.0741
18140SOL    HW155861   7.161   1.357   4.181 -0.8866  0.1858 -3.3660
18140SOL    HW255862   7.010   1.339   4.183 -0.7542 -1.1461 -0.8132
18141SOL     OW55863   0.818   2.108   5.655  0.1068 -0.0832  0.0110
18141SOL    HW155864   0.826   2.014   5.641  0.3434 -0.0517 -0.0669
18141SOL    HW255865   0.725   2.126   5.644  0.2077 -0.1434 -1.0001
18142SOL     OW55866   5.963   0.030   5.495 -0.0815 -0.4237 -0.4242
18142SOL    HW155867   5.903  -0.013   5.434 -0.7399  0.0417 -0.1092
18142SOL    HW255868   6.040  -0.027   5.496 -0.6015 -1.1500 -0.6589
18143SOL     OW55869   6.178   1.646   6.897  0.7601 -0.0751  0.4331
18143SOL    HW155870   6.101   1.592   6.915  1.5132 -1.2738  0.1280
18143SOL    HW255871   6.244   1.585   6.866  1.2844  1.1702 -1.0589
18144SOL     OW55872   6.263   0.445   7.568  0.1391  0.2234  0.2426
18144SOL    HW155873   6.335   0.447   7.506 -0.0497  2.8132  0.0092
18144SOL    HW255874   6.205   0.376   7.535  1.7222 -0.8613 -0.4033
18145SOL     OW55875   6.809   2.336   7.603 -0.3682 -0.0489 -0.3332
18145SOL    HW155876   6.855   2.417   7.583  0.4267 -0.4566 -0.1996
18145SOL    HW255877   6.867   2.290   7.665 -0.5502 -0.9551 -0.8212
18146SOL     OW55878   0.131   1.214   7.608 -0.0808 -0.5437 -0.3376
18146SOL    HW155879   0.141   1.307   7.630  0.1446  0.1101 -2.9035
18146SOL    HW255880   0.047   1.189   7.647  0.5582  0.2747  1.6783
18147SOL     OW55881   6.723   1.161   7.215  0.2502  0.5975  0.2655
18147SOL    HW155882   6.734   1.072   7.182 -1.0804  0.3616  0.4266
18147SOL    HW255883   6.635   1.163   7.252  0.1578  2.0592  0.0319
18148SOL     OW55884   5.886   1.862   7.918  0.7348  0.2685 -0.3291
18148SOL    HW155885   5.955   1.928   7.922 -0.8204  1.9337  2.2414
18148SOL    HW255886   5.879   1.829   8.008 -1.4309 -0.2186 -0.6099
18149SOL     OW55887   5.821   1.091   8.227  0.0092  0.1301  0.0460
18149SOL    HW155888   5.845   1.057   8.141 -2.0921 -1.2220 -0.0764
18149SOL    HW255889   5.747   1.150   8.210 -1.2364 -1.0975  1.0041
18150SOL     OW55890   5.800   0.976   9.502  0.2717  0.3818 -0.1957
18150SOL    HW155891   5.845   0.978   9.587  1.3943 -0.8047 -0.7260
18150SOL    HW255892   5.740   1.051   9.505  1.9737  1.7945  0.7409
18151SOL     OW55893   7.977   0.389   9.800  0.0928  0.0318 -0.3448
18151SOL    HW155894   7.953   0.402   9.708  0.7957  0.4539 -0.4792
18151SOL    HW255895   8.041   0.318   9.798 -0.5408 -0.5547 -0.0765
18152SOL     OW55896   4.525   0.371   8.477  0.4670 -0.0108 -0.1965
18152SOL    HW155897   4.514   0.321   8.558  0.7267 -0.6742 -0.5580
18152SOL    HW255898   4.571   0.311   8.418  0.6432  0.6047 -0.7001
18153SOL     OW55899   5.748   0.781  10.232 -0.0281  0.0039 -0.3051
18153SOL    HW155900   5.749   0.725  10.155  3.1028  1.2040 -1.2784
18153SOL    HW255901   5.833   0.767  10.273  0.0130  2.4935  0.5958
18154SOL     OW55902   7.421   0.149   9.755 -0.4491 -0.0753  0.5595
18154SOL    HW155903   7.343   0.123   9.803 -2.0000  2.1956 -0.5271
18154SOL    HW255904   7.469   0.067   9.741 -2.3064 -1.4652  1.7886
18155SOL     OW55905   4.431   2.707   9.060 -0.5791 -0.0747 -0.4966
18155SOL    HW155906   4.500   2.771   9.043 -1.2132  1.0265  0.8630
18155SOL    HW255907   4.350   2.759   9.060 -0.9887 -0.6360  1.8402
18156SOL     OW55908   0.290   0.510   7.318 -0.5626 -0.0761  0.6555
18156SOL    HW155909   0.329   0.597   7.305  0.5797 -0.2152  2.7444
18156SOL    HW255910   0.199   0.528   7.341 -1.0058  0.4038 -1.2760
18157SOL     OW55911   5.997   2.077   7.649  0.7937  0.6159  0.4413
18157SOL    HW155912   5.991   2.063   7.744  0.9440 -2.2524  0.1325
18157SOL    HW255913   5.907   2.094   7.621  0.1316 -1.8623  0.7792
18158SOL     OW55914   7.268   1.146   8.831 -0.3160 -0.2860  0.1066
18158SOL    HW155915   7.200   1.134   8.897  0.8754  0.5773  1.5893
18158SOL    HW255916   7.346   1.105   8.869  0.0339 -1.2341 -1.5274
18159SOL     OW55917   7.354   1.597   8.677  0.5132  0.3689 -0.4450
18159SOL    HW155918   7.336   1.646   8.757  1.7030  0.5539 -0.2656
18159SOL    HW255919   7.303   1.516   8.687  0.9307  0.2261  0.6781
18160SOL     OW55920   4.399   1.674   8.559 -0.1336  0.1196 -0.2120
18160SOL    HW155921   4.468   1.624   8.602 -0.3111  0.0054 -0.0617
18160SOL    HW255922   4.329   1.611   8.543 -0.0003  0.1182 -0.8252
18161SOL     OW55923   6.027   0.818   9.737 -0.1680  0.0539  0.2448
18161SOL    HW155924   5.947   0.838   9.785 -1.3670 -0.4549 -1.4187
18161SOL    HW255925   6.035   0.722   9.743  0.7740  0.1622  1.0351
18162SOL     OW55926   5.958   0.417   7.751  0.3386 -0.0918 -0.5957
18162SOL    HW155927   5.979   0.407   7.658  1.2389 -0.7790 -0.3361
18162SOL    HW255928   5.928   0.508   7.759  2.2526  0.6460 -1.2122
18163SOL     OW55929   6.770   0.383   7.076 -0.1488  0.3145 -0.0611
18163SOL    HW155930   6.834   0.452   7.062  0.4301 -0.0114  0.8731
18163SOL    HW255931   6.771   0.333   6.995 -0.9046  1.6441 -0.9240
18164SOL     OW55932   6.864   1.717  10.644  0.3026 -0.1520  0.0642
18164SOL    HW155933   6.896   1.807  10.648  1.7847 -0.6469 -0.1702
18164SOL    HW255934   6.871   1.686  10.735 -0.4223  0.0300  0.1877
18165SOL     OW55935   7.828   1.718   6.945  0.0005  0.1311 -0.2450
18165SOL    HW155936   7.865   1.802   6.972 -1.6430  1.0691 -0.7632
18165SOL    HW255937   7.903   1.658   6.944  1.5072  1.9141 -1.2774
18166SOL     OW55938   4.580   1.237   6.375  0.8069 -0.2613 -0.4108
18166SOL    HW155939   4.552   1.324   6.403  0.7759 -0.3543 -0.1452
18166SOL    HW255940   4.669   1.249   6.341  1.4419 -0.3893  1.1211
18167SOL     OW55941   7.175   7.753   8.401 -0.6797 -0.3490 -0.3394
18167SOL    HW155942   7.222   7.710   8.330  0.4652  0.8450 -0.3407
18167SOL    HW255943   7.180   7.847   8.381 -0.0950  0.0428  1.4297
18168SOL     OW55944   7.669   1.429   8.689  0.3047 -0.2294  0.7505
18168SOL    HW155945   7.754   1.429   8.732  1.2815  1.0039 -1.0254
18168SOL    HW255946   7.664   1.344   8.645  1.7326  0.5572 -1.0601
18169SOL     OW55947   6.208   0.588   8.031  0.2670  0.0775  0.3493
18169SOL    HW155948   6.200   0.501   7.992  1.9984  0.3584 -0.7369
18169SOL    HW255949   6.142   0.641   7.986  0.8055 -0.1156 -0.6830
18170SOL     OW55950   6.770   1.426   8.664  0.2641 -0.0653  0.3718
18170SOL    HW155951   6.839   1.393   8.606 -1.3752  0.6727 -2.1511
18170SOL    HW255952   6.805   1.509   8.698  0.1152  1.0865 -2.1097
18171SOL     OW55953   7.484   0.772   8.237  0.3824 -0.0039 -0.1596
18171SOL    HW155954   7.397   0.736   8.217 -0.0453  0.0715  1.4834
18171SOL    HW255955   7.521   0.712   8.302  0.7941  0.9906  0.5393
18172SOL     OW55956   7.750   1.030   6.931 -0.1127 -0.4282  0.3538
18172SOL    HW155957   7.699   1.060   6.855 -1.1898 -1.0748  0.8084
18172SOL    HW255958   7.734   1.096   6.998  2.0117  0.9416 -0.3974
18173SOL     OW55959   6.550   2.524   7.746  0.4687 -1.1892 -0.3114
18173SOL    HW155960   6.462   2.513   7.710  0.1226  0.8499 -0.1816
18173SOL    HW255961   6.560   2.618   7.758  2.0644 -1.4986  1.2373
18174SOL     OW55962   6.731   1.348   6.423 -0.3577  0.2550  0.3137
18174SOL    HW155963   6.708   1.439   6.439 -0.2272  0.5595 -1.1242
18174SOL    HW255964   6.647   1.301   6.427 -0.2759  0.2110  2.3036
18175SOL     OW55965   7.074   2.158   9.336 -0.0697 -0.2594 -0.1057
18175SOL    HW155966   7.047   2.227   9.275 -1.6399  0.3586  1.2246
18175SOL    HW255967   7.157   2.125   9.300  1.1633  2.8359 -0.4064
18176SOL     OW55968   5.977   1.165   9.807 -0.8807  0.2261  0.2514
18176SOL    HW155969   6.012   1.254   9.810 -1.3865  0.3935  1.4286
18176SOL    HW255970   5.919   1.165   9.730 -1.3330  1.0926  0.5830
18177SOL     OW55971   6.538   7.552   7.378  0.2461  0.4043 -1.1284
18177SOL    HW155972   6.444   7.568   7.372 -0.1526 -1.2266  0.1353
18177SOL    HW255973   6.568   7.557   7.287 -1.0200  1.0861 -1.5437
18178SOL     OW55974   5.282   1.381   9.240 -0.4904  0.4224  0.7185
18178SOL    HW155975   5.216   1.442   9.273 -1.1677  0.2413 -0.2775
18178SOL    HW255976   5.234   1.321   9.184 -0.1937 -2.1794  3.0103
18179SOL     OW55977   6.115   2.473   9.088  0.6493  0.4964  0.0552
18179SOL    HW155978   6.191   2.425   9.122  0.3287 -1.3512 -1.6037
18179SOL    HW255979   6.043   2.448   9.146  0.8045  0.1656  0.1110
18180SOL     OW55980   6.938   7.780   7.184 -0.0698  0.4636  0.0902
18180SOL    HW155981   6.999   7.839   7.138 -0.3252  1.8362  1.4476
18180SOL    HW255982   6.937   7.812   7.274  0.6309 -2.3437  1.1661
18181SOL     OW55983   0.076   2.393   6.829 -0.5418 -0.5109  0.5052
18181SOL    HW155984  -0.001   2.439   6.864  0.3684  0.3630  1.4679
18181SOL    HW255985   0.144   2.461   6.825 -0.0294 -1.0787 -1.0813
18182SOL     OW55986   5.155   0.777   7.958 -0.1254 -0.3462 -0.3899
18182SOL    HW155987   5.120   0.705   7.907 -0.7619 -1.1454  1.1178
18182SOL    HW255988   5.078   0.824   7.990  0.2397 -0.2642  0.3957
18183SOL     OW55989   6.242   0.804   8.211  0.0441 -0.1952  0.0008
18183SOL    HW155990   6.164   0.803   8.267  0.4028 -0.7672  0.5076
18183SOL    HW255991   6.258   0.712   8.190  1.5214 -0.2813  1.2788
18184SOL     OW55992   5.493   0.804   8.613 -0.2461 -0.2201 -0.0753
18184SOL    HW155993   5.534   0.787   8.528  0.6446  0.3758  0.2166
18184SOL    HW255994   5.566   0.798   8.675 -0.7653  0.0429  0.5614
18185SOL     OW55995   6.526   0.155   7.432 -0.4981  0.3220  0.1194
18185SOL    HW155996   6.576   0.223   7.388  1.0633 -1.8868 -1.7886
18185SOL    HW255997   6.463   0.126   7.366 -0.6430 -0.5737  0.6396
18186SOL     OW55998   6.469   2.401   9.056  0.0173 -0.4202  0.0096
18186SOL    HW155999   6.483   2.397   8.961  1.8124 -0.1989  0.2179
18186SOL    HW256000   6.453   2.310   9.082  0.2494 -0.5832 -0.4138
18187SOL     OW56001   7.594   1.841   9.125 -0.0645 -0.1034  0.2615
18187SOL    HW156002   7.523   1.897   9.156 -1.1628 -0.5655 -1.3121
18187SOL    HW256003   7.650   1.898   9.074  1.1807  0.4284  2.1021
18188SOL     OW56004   6.907   7.440   5.454  0.2408  0.0796 -0.5263
18188SOL    HW156005   7.002   7.444   5.456  0.2139  0.6610 -0.1596
18188SOL    HW256006   6.878   7.528   5.479 -0.3895 -0.5263  1.0662
18189SOL     OW56007   7.691   7.707  10.677  0.2161  0.4323 -0.9165
18189SOL    HW156008   7.627   7.740  10.614  1.2272 -0.1430 -2.2869
18189SOL    HW256009   7.655   7.731  10.762 -3.0622 -1.8586 -1.4300
18190SOL     OW56010   7.824   2.292   8.737  0.2942 -0.2502  0.1303
18190SOL    HW156011   7.884   2.279   8.663  1.1760 -0.8429  0.9298
18190SOL    HW256012   7.742   2.250   8.709 -0.4670  2.2263 -1.7636
18191SOL     OW56013   6.961   1.045   7.601 -0.1370  0.1311 -0.3153
18191SOL    HW156014   6.968   1.111   7.532  3.9170  0.7524  0.4345
18191SOL    HW256015   6.953   0.962   7.554 -1.5690  0.8239 -1.3724
18192SOL     OW56016   5.616   2.671   8.762 -0.3766  0.5528  0.0856
18192SOL    HW156017   5.707   2.692   8.782 -0.4258 -0.4065  1.4559
18192SOL    HW256018   5.578   2.647   8.847 -1.9740  1.1753 -0.4207
18193SOL     OW56019   5.470   0.884   9.686 -0.1613  0.1598 -0.0056
18193SOL    HW156020   5.491   0.937   9.609  0.7005 -1.2733 -0.8163
18193SOL    HW256021   5.382   0.850   9.669 -0.6268  1.1201  0.4161
18194SOL     OW56022   0.242   1.615   7.515 -0.1983 -0.4017  0.3848
18194SOL    HW156023   0.337   1.623   7.506  0.0843 -0.9410  2.4453
18194SOL    HW256024   0.207   1.663   7.440  1.6666  0.9140  0.2786
18195SOL     OW56025   4.860   2.096   8.541  0.4674 -0.0881 -0.1371
18195SOL    HW156026   4.885   2.003   8.534  3.0751  0.4854  0.5806
18195SOL    HW256027   4.895   2.136   8.462 -0.1320  0.4006 -0.1573
18196SOL     OW56028   0.238   0.776   8.336  0.2480 -0.4959 -0.1032
18196SOL    HW156029   0.306   0.784   8.403  0.9233  0.0000 -0.8366
18196SOL    HW256030   0.201   0.689   8.349  0.1052 -0.2597  1.1584
18197SOL     OW56031   6.543   0.793   7.259  0.0595 -0.3010 -0.0939
18197SOL    HW156032   6.633   0.784   7.288  0.4356  1.0197 -0.7580
18197SOL    HW256033   6.549   0.840   7.176 -1.1659 -1.3798 -0.8331
18198SOL     OW56034   5.651   0.871   8.386 -0.8726  0.1216  0.2412
18198SOL    HW156035   5.599   0.907   8.315 -1.2022 -0.3153  0.2553
18198SOL    HW256036   5.706   0.943   8.416  0.7871 -0.1998 -1.8389
18199SOL     OW56037   7.600   1.578   9.158  0.6575 -0.1871 -0.1546
18199SOL    HW156038   7.569   1.515   9.094  0.8444 -0.3669 -0.0687
18199SOL    HW256039   7.576   1.663   9.122 -0.9072 -0.3527  0.4175
18200SOL     OW56040   5.712   1.048   8.866 -0.0122  0.5104 -0.5453
18200SOL    HW156041   5.664   0.970   8.895 -0.1297 -0.4075 -2.9739
18200SOL    HW256042   5.686   1.117   8.927 -1.0411 -0.9953  0.7968
18201SOL     OW56043   0.715   1.666   5.986  0.1279 -0.2920  0.1036
18201SOL    HW156044   0.626   1.640   5.961 -0.0049 -0.7690  1.0334
18201SOL    HW256045   0.771   1.621   5.923 -0.3018  0.2495 -0.6733
18202SOL     OW56046   6.643   1.841   7.377 -0.0781  0.1141  0.6411
18202SOL    HW156047   6.681   1.928   7.391  0.0237  0.1472  0.1809
18202SOL    HW256048   6.552   1.858   7.352 -0.1477  0.0756  0.8744
18203SOL     OW56049   6.542   0.649   6.928 -0.1115  0.0161  0.1237
18203SOL    HW156050   6.454   0.667   6.895 -0.7643 -0.9463  1.2514
18203SOL    HW256051   6.579   0.735   6.947 -1.6710  0.3718  1.7621
18204SOL     OW56052   5.250   1.458   8.838  0.1438 -0.3035 -0.0192
18204SOL    HW156053   5.160   1.488   8.830  0.9536  2.7792  0.9211
18204SOL    HW256054   5.283   1.503   8.915  1.6815 -3.7257  1.5006
18205SOL     OW56055   5.185   2.191   8.767 -0.2681  0.0145  0.1784
18205SOL    HW156056   5.234   2.209   8.687  0.2640  0.2191  0.5390
18205SOL    HW256057   5.134   2.271   8.782 -1.6165 -0.6271 -0.8167
18206SOL     OW56058   7.035   1.069   7.850  0.4896 -0.1461  0.2706
18206SOL    HW156059   6.969   1.101   7.911 -0.6958 -0.8944 -0.5893
18206SOL    HW256060   6.994   1.077   7.764  0.7704 -2.3572 -0.1294
18207SOL     OW56061   6.487   0.921   8.209  0.3517  0.0391 -0.1060
18207SOL    HW156062   6.394   0.897   8.211  0.2477  0.3702 -0.6532
18207SOL    HW256063   6.534   0.838   8.202  0.0133 -0.0458 -1.7334
18208SOL     OW56064   6.286   0.663   6.537  0.4510  0.1834 -0.1516
18208SOL    HW156065   6.326   0.600   6.477 -0.6393  0.9143 -1.6923
18208SOL    HW256066   6.194   0.638   6.542  0.4933  0.2022  1.1667
18209SOL     OW56067   0.098   0.170  10.732 -0.4948 -0.2403 -0.2482
18209SOL    HW156068   0.143   0.212  10.659  0.8872  0.5207  0.9926
18209SOL    HW256069   0.079   0.081  10.700 -0.7376  0.3486 -1.8238
18210SOL     OW56070   5.923   2.352   9.269  0.4884  0.0062 -0.0393
18210SOL    HW156071   5.835   2.341   9.233  0.9606  1.0559 -1.5787
18210SOL    HW256072   5.935   2.275   9.324 -1.7616  0.3166  1.0232
18211SOL     OW56073   1.184   1.726   8.729  0.4735  0.5723 -0.0659
18211SOL    HW156074   1.211   1.701   8.640 -1.5122  1.3432 -0.9544
18211SOL    HW256075   1.260   1.772   8.765  1.0106  1.0547 -1.7312
18212SOL     OW56076   6.381   2.646   9.176  0.0026 -0.3583  0.2073
18212SOL    HW156077   6.434   2.711   9.129  0.7979 -0.5848  0.7706
18212SOL    HW256078   6.407   2.562   9.136 -0.6795 -0.3849 -0.2000
18213SOL     OW56079   0.435   2.446   7.833  0.1632  0.0767  0.2319
18213SOL    HW156080   0.345   2.469   7.810 -0.0459 -0.4462  0.5074
18213SOL    HW256081   0.454   2.367   7.783  0.2859 -0.1098  0.5643
18214SOL     OW56082   7.190   7.165   7.169  0.4563  0.2704 -0.2330
18214SOL    HW156083   7.243   7.092   7.136 -1.0189 -0.6780 -0.5713
18214SOL    HW256084   7.130   7.186   7.098 -0.6323  0.3050  0.6619
18215SOL     OW56085   5.981   0.156   6.422 -0.1804 -0.3289 -0.1146
18215SOL    HW156086   5.956   0.242   6.386 -0.4264 -0.0139  0.7903
18215SOL    HW256087   5.942   0.093   6.361 -1.2469  0.1902  0.0094
18216SOL     OW56088   6.521   0.836   5.862  0.0946  0.1188  0.3625
18216SOL    HW156089   6.444   0.793   5.823 -0.0572 -0.6793  1.4845
18216SOL    HW256090   6.538   0.911   5.805 -0.4429 -0.6854 -0.9082
18217SOL     OW56091   0.348   7.369   9.667  0.6133  0.0075  0.4595
18217SOL    HW156092   0.276   7.308   9.683  0.5346  0.3545  1.5260
18217SOL    HW256093   0.414   7.318   9.621 -0.6335 -0.1108 -1.3036
18218SOL     OW56094   5.673   0.381   7.948  0.5573 -0.3303  0.0103
18218SOL    HW156095   5.757   0.425   7.935  0.9715 -0.8950  0.6968
18218SOL    HW256096   5.680   0.300   7.897 -0.2430  0.4155 -1.3366
18219SOL     OW56097   6.686   0.415   9.746  0.3668  0.0580  0.2232
18219SOL    HW156098   6.689   0.459   9.831  0.9455 -0.0080  0.2377
18219SOL    HW256099   6.713   0.482   9.683  1.5424 -0.3467  0.2788
18220SOL     OW56100   7.701   1.221   9.081  0.2722  0.0586 -0.5443
18220SOL    HW156101   7.783   1.242   9.126  0.4976 -1.4828 -0.1875
18220SOL    HW256102   7.704   1.127   9.067 -0.3968  0.2987 -2.6717
18221SOL     OW56103   6.504   0.931   8.669  0.4011 -0.5327  0.1739
18221SOL    HW156104   6.547   0.926   8.754 -0.5770 -3.7735  0.6251
18221SOL    HW256105   6.410   0.928   8.690  0.1493 -1.5529 -0.9776
18222SOL     OW56106   4.198   1.335   9.710  0.7362  0.0593  0.3635
18222SOL    HW156107   4.131   1.268   9.700  1.2757 -0.2786 -1.3452
18222SOL    HW256108   4.270   1.291   9.755  0.4205  0.0000  0.8178
18223SOL     OW56109   6.182   1.759   7.154  0.3286  0.4672  0.0509
18223SOL    HW156110   6.112   1.820   7.131  2.7111  3.5202  0.1874
18223SOL    HW256111   6.206   1.718   7.072 -0.5730  0.5781 -0.2759
18224SOL     OW56112   6.162   1.213   7.752 -0.4462  0.2698  0.0663
18224SOL    HW156113   6.154   1.174   7.665 -2.8407  3.3056 -1.2964
18224SOL    HW256114   6.089   1.176   7.802  0.5238 -0.9532  0.6434
18225SOL     OW56115   6.256   0.699   7.661  0.1149 -0.0001 -0.4496
18225SOL    HW156116   6.200   0.729   7.733 -0.0260  0.4844 -0.7563
18225SOL    HW256117   6.225   0.611   7.641 -0.6085  0.3052 -0.6882
18226SOL     OW56118   7.025   0.485   9.108 -0.5937 -0.4139 -0.1651
18226SOL    HW156119   7.120   0.477   9.111 -0.5503  0.2136  0.3013
18226SOL    HW256120   6.994   0.397   9.085  0.0915 -0.6217 -0.3190
18227SOL     OW56121   6.931   1.999   7.877  0.2486  0.4464  0.0072
18227SOL    HW156122   6.936   1.905   7.859  0.7369  0.2729  1.0058
18227SOL    HW256123   6.856   2.009   7.935 -0.0097  0.7259 -0.3662
18228SOL     OW56124   5.379   0.350   7.203 -0.0997  0.2038  0.0863
18228SOL    HW156125   5.350   0.364   7.294  0.4970 -0.4398  0.3861
18228SOL    HW256126   5.355   0.431   7.158 -3.4060 -0.6371  0.0173
18229SOL     OW56127   7.181   1.370   8.717  0.1214  0.2762  0.6644
18229SOL    HW156128   7.229   1.291   8.742 -0.0182  0.0312  0.1780
18229SOL    HW256129   7.115   1.381   8.786 -0.4472 -0.5570  0.2820
18230SOL     OW56130   5.538   7.475   5.516 -0.5157  0.9686  0.3140
18230SOL    HW156131   5.527   7.562   5.553 -1.2180  0.4910  1.2725
18230SOL    HW256132   5.490   7.417   5.575 -0.0488 -0.0742 -0.2911
18231SOL     OW56133   5.678   1.125   8.615 -0.1468  0.0784  0.6213
18231SOL    HW156134   5.728   1.205   8.628 -0.5395  0.2363  1.2195
18231SOL    HW256135   5.698   1.072   8.692  0.5978 -0.6683 -0.0726
18232SOL     OW56136   7.280   2.483   8.839 -0.0478  0.1861  0.3142
18232SOL    HW156137   7.299   2.500   8.747  0.2041 -1.4082  0.0579
18232SOL    HW256138   7.360   2.444   8.874 -1.1706 -2.2432  0.3679
18233SOL     OW56139   7.293   0.688  10.490 -0.0284 -0.7787  0.4306
18233SOL    HW156140   7.246   0.607  10.508 -0.6270 -0.7094 -0.7967
18233SOL    HW256141   7.379   0.675  10.531 -0.3913 -1.7000  0.9254
18234SOL     OW56142   6.984   1.330   8.534  0.3805  0.2829 -0.3591
18234SOL    HW156143   7.064   1.351   8.582 -0.2411 -1.9927  1.8630
18234SOL    HW256144   7.011   1.266   8.468  0.5380  0.2786 -0.2908
18235SOL     OW56145   6.031   7.368   8.119 -0.0776 -0.4023 -0.0919
18235SOL    HW156146   5.966   7.317   8.166  1.5431 -0.1073  2.7053
18235SOL    HW256147   5.987   7.449   8.095 -0.9025 -0.4166  1.2936
18236SOL     OW56148   6.277   1.268  10.197 -0.2072  0.2115  0.1426
18236SOL    HW156149   6.312   1.180  10.208 -1.8863 -0.5478 -0.2687
18236SOL    HW256150   6.287   1.308  10.283  2.1557  0.2796 -0.0917
18237SOL     OW56151   5.177   0.686   8.375 -0.2453 -0.7763 -0.2839
18237SOL    HW156152   5.200   0.675   8.467 -0.3695  0.5812 -0.0661
18237SOL    HW256153   5.096   0.637   8.364 -0.2787 -0.8677  0.3555
18238SOL     OW56154   7.611   1.675   8.832 -0.0538 -0.0854  0.2928
18238SOL    HW156155   7.617   1.580   8.823  1.6514  0.0217 -0.1063
18238SOL    HW256156   7.701   1.703   8.850 -0.5040  1.4653  0.2920
18239SOL     OW56157   0.243   0.583   8.616  0.2221  0.1265 -0.6146
18239SOL    HW156158   0.198   0.560   8.535 -0.9943 -0.8820  0.2939
18239SOL    HW256159   0.176   0.571   8.684  1.7865 -1.2406  0.7837
18240SOL     OW56160   5.717   2.071   8.946 -0.2539  0.3503  0.2041
18240SOL    HW156161   5.659   2.139   8.981 -0.6631 -0.3607  0.9539
18240SOL    HW256162   5.661   2.019   8.888 -0.5555 -0.7205  1.4200
18241SOL     OW56163   5.618   7.688   7.359  0.2362  0.4157 -0.1714
18241SOL    HW156164   5.667   7.607   7.345 -0.8340 -0.2412 -0.1793
18241SOL    HW256165   5.527   7.664   7.347 -0.0520  1.8153 -1.0363
18242SOL     OW56166   6.947   1.575   7.334 -0.4202  0.3070  0.2922
18242SOL    HW156167   6.991   1.547   7.415  1.1505  1.8153  0.0098
18242SOL    HW256168   6.946   1.497   7.279  1.7880  0.1413  0.3995
18243SOL     OW56169   4.212   1.652   8.211  0.4193  0.4687  0.2179
18243SOL    HW156170   4.181   1.620   8.296  0.1885 -0.7482 -0.3098
18243SOL    HW256171   4.306   1.669   8.226  0.6369 -0.8111  0.4310
18244SOL     OW56172   6.287   1.897   8.562  0.0285  0.1416  0.2516
18244SOL    HW156173   6.374   1.912   8.600  0.2464 -1.7958  0.5990
18244SOL    HW256174   6.305   1.860   8.475 -0.4647  0.7122 -0.0981
18245SOL     OW56175   7.197   1.932   6.504 -0.5099  0.2551  0.0485
18245SOL    HW156176   7.224   2.022   6.523  0.4786  0.0746 -0.4580
18245SOL    HW256177   7.278   1.884   6.490 -1.0574 -0.3261 -1.4525
18246SOL     OW56178   6.701   1.297  10.667  0.1140  0.1704  0.3780
18246SOL    HW156179   6.684   1.204  10.655  1.3090  0.2287 -2.2284
18246SOL    HW256180   6.796   1.304  10.675  0.4136  1.3777 -2.8464
18247SOL     OW56181   7.372   0.220  11.457 -0.1627  0.2660  0.5755
18247SOL    HW156182   7.360   0.148  11.396  1.1495  0.9590 -0.5572
18247SOL    HW256183   7.350   0.183  11.542 -0.4282 -1.1967 -0.0969
18248SOL     OW56184   7.621   0.507   9.133 -0.0332 -0.2357 -0.2953
18248SOL    HW156185   7.651   0.531   9.046 -1.0928 -0.0012 -0.6004
18248SOL    HW256186   7.651   0.579   9.189  1.1989 -0.6901 -0.3376
18249SOL     OW56187   5.144   0.437   8.896  0.0058 -0.5767  0.3393
18249SOL    HW156188   5.072   0.430   8.834  1.5465  0.8604 -1.7695
18249SOL    HW256189   5.188   0.519   8.872  1.9481 -1.0679  1.9570
18250SOL     OW56190   6.286   1.150   8.580 -0.1833 -0.1931 -0.4928
18250SOL    HW156191   6.307   1.207   8.653 -1.1778 -0.6854  0.1985
18250SOL    HW256192   6.369   1.137   8.534  0.1001  1.5975 -0.5303
18251SOL     OW56193   6.567   7.123   8.456 -0.5030 -0.5335  0.2291
18251SOL    HW156194   6.476   7.101   8.438 -0.3436 -1.2760  0.3127
18251SOL    HW256195   6.576   7.115   8.551  0.0732 -2.1536  0.0579
18252SOL     OW56196   7.266   7.682   7.361 -0.3492 -0.2556 -0.2829
18252SOL    HW156197   7.202   7.673   7.431 -0.2017 -0.3791 -0.1618
18252SOL    HW256198   7.241   7.616   7.297  0.3132 -1.0688  0.2770
18253SOL     OW56199   6.849   7.561   7.026 -0.2392  0.0957 -0.0447
18253SOL    HW156200   6.872   7.642   7.072 -0.3856  0.7587 -1.1211
18253SOL    HW256201   6.927   7.540   6.974 -0.2102 -0.4456  0.2115
18254SOL     OW56202   4.829   7.427   8.055  0.4949 -0.3134 -0.0263
18254SOL    HW156203   4.870   7.430   7.969  1.2434 -0.6623  0.3031
18254SOL    HW256204   4.835   7.335   8.081 -2.3678 -0.8284 -0.8174
18255SOL     OW56205   3.307   1.463   8.443  0.2481 -0.1680  0.1118
18255SOL    HW156206   3.265   1.377   8.452 -1.8466  0.8643  0.8008
18255SOL    HW256207   3.321   1.492   8.534 -0.6283  0.9341 -0.0936
18256SOL     OW56208   3.491   7.719   8.977  0.4238 -0.0207  0.6182
18256SOL    HW156209   3.463   7.750   8.891 -0.2491 -0.8022  0.5431
18256SOL    HW256210   3.441   7.639   8.991  1.1889 -0.3856  1.3522
18257SOL     OW56211   5.574   6.603   8.234 -0.3694  0.1727 -0.2461
18257SOL    HW156212   5.596   6.510   8.228 -1.6541 -0.2555  1.0551
18257SOL    HW256213   5.481   6.608   8.211 -0.1748  1.2331 -0.8906
18258SOL     OW56214   6.165   7.627   8.245 -0.0254 -0.2272 -0.0712
18258SOL    HW156215   6.157   7.714   8.204  0.6926  0.5588  1.3897
18258SOL    HW256216   6.087   7.580   8.215 -2.0158  1.8989  1.3637
18259SOL     OW56217   0.321   0.650   7.938  0.2916  0.2622  0.1378
18259SOL    HW156218   0.320   0.721   8.002  0.4162  2.2585 -1.9347
18259SOL    HW256219   0.410   0.614   7.944  1.2689  2.3455 -0.8069
18260SOL     OW56220   5.083   1.426   8.105 -0.5163  0.1264 -0.3513
18260SOL    HW156221   5.150   1.462   8.163 -1.6497  1.0604  0.4255
18260SOL    HW256222   5.064   1.340   8.141 -1.0141  0.5882  0.5074
18261SOL     OW56223   5.906   0.794   8.981  0.4751 -0.3975 -0.1125
18261SOL    HW156224   5.898   0.810   9.075 -0.8032 -0.9584 -0.0957
18261SOL    HW256225   5.931   0.879   8.944  0.4647 -0.0411  0.6839
18262SOL     OW56226   0.874   2.520   7.813 -0.5699  0.3153  0.6292
18262SOL    HW156227   0.848   2.533   7.722  0.1323 -1.8233  0.0724
18262SOL    HW256228   0.864   2.607   7.853  0.0145  1.5443 -1.6918
18263SOL     OW56229   6.204   1.052   8.079  0.2620 -0.2332  0.3579
18263SOL    HW156230   6.119   1.033   8.039  1.0523 -1.4245 -0.8606
18263SOL    HW256231   6.226   0.971   8.126  0.1576  0.5289  1.7612
18264SOL     OW56232   7.578   0.304   6.755  0.4689  0.1359 -0.5244
18264SOL    HW156233   7.489   0.298   6.720  0.2724 -1.9053  0.1951
18264SOL    HW256234   7.625   0.231   6.715  1.8713  1.2244 -0.9486
18265SOL     OW56235   6.182   7.361   7.117  0.2573 -0.0125 -0.4682
18265SOL    HW156236   6.233   7.370   7.036 -0.2225  1.4882 -0.6372
18265SOL    HW256237   6.231   7.297   7.169  2.4471  1.4781 -0.5468
18266SOL     OW56238   7.203   0.756   7.600  0.5629  0.0662  0.0523
18266SOL    HW156239   7.123   0.748   7.652  0.5158 -0.2728 -0.0711
18266SOL    HW256240   7.267   0.792   7.661  1.1724 -2.4789  1.0615
18267SOL     OW56241   5.226   0.722   9.557 -0.1708  0.5077  0.1730
18267SOL    HW156242   5.263   0.644   9.598 -2.9844  0.1962  2.4344
18267SOL    HW256243   5.170   0.688   9.487  1.0491  0.7713 -0.9751
18268SOL     OW56244   7.101   1.410   7.794  0.7218 -0.4306 -0.8435
18268SOL    HW156245   7.103   1.316   7.812 -1.8015 -1.1242 -3.5888
18268SOL    HW256246   7.077   1.450   7.878 -1.4077 -2.5622 -0.3593
18269SOL     OW56247   7.572   0.146   9.455  0.3270 -0.1476  0.7748
18269SOL    HW156248   7.555   0.052   9.447  0.2627 -0.1232  0.6240
18269SOL    HW256249   7.595   0.174   9.366 -2.2970  0.5168  0.2326
18270SOL     OW56250   6.394   1.438   7.525 -0.0645 -0.1678  0.2416
18270SOL    HW156251   6.383   1.469   7.435 -0.1258  2.0725  0.9369
18270SOL    HW256252   6.386   1.343   7.520  3.2442 -0.4825 -2.6059
18271SOL     OW56253   4.693   1.531   6.927  0.0185 -0.2603  0.4371
18271SOL    HW156254   4.694   1.468   6.854 -0.8591  0.3292 -0.0879
18271SOL    HW256255   4.765   1.591   6.907 -0.2327 -0.0888  0.0530
18272SOL     OW56256   5.321   2.469   7.127 -0.3797  0.1724  0.0524
18272SOL    HW156257   5.334   2.378   7.153 -1.5713 -0.0034  0.0898
18272SOL    HW256258   5.374   2.519   7.189  0.5540 -0.5030 -0.1853
18273SOL     OW56259   7.008   2.536   7.550  0.0283  0.0705 -0.3527
18273SOL    HW156260   6.978   2.544   7.459  2.2316 -1.0931 -1.2607
18273SOL    HW256261   7.052   2.619   7.567  0.4602 -0.0750 -0.7185
18274SOL     OW56262   6.412   7.510   7.912  0.6002  0.2984  0.0402
18274SOL    HW156263   6.475   7.443   7.934 -0.9957 -0.5410  2.4571
18274SOL    HW256264   6.425   7.578   7.979  1.4479  1.9463 -1.7082
18275SOL     OW56265   4.860   1.958   9.842 -0.3029  0.6069 -0.5382
18275SOL    HW156266   4.859   1.862   9.840  0.1696  0.6040 -1.9297
18275SOL    HW256267   4.885   1.983   9.753  1.8617  1.9800  0.3640
18276SOL     OW56268   6.527   1.219   8.998  0.1717  0.0252  0.1842
18276SOL    HW156269   6.589   1.224   8.925 -0.2619  1.4409 -0.1226
18276SOL    HW256270   6.498   1.128   8.999  0.2003 -0.0306 -1.4244
18277SOL     OW56271   7.324   1.024  10.777  0.2928  0.1639 -0.5082
18277SOL    HW156272   7.311   1.112  10.814 -0.9717 -0.4091  0.4933
18277SOL    HW256273   7.277   1.027  10.693  0.1028  0.3950 -0.3954
18278SOL     OW56274   0.825   3.020   7.693  0.3744 -0.3664  0.7965
18278SOL    HW156275   0.791   3.045   7.607 -1.5259  0.3697  1.6911
18278SOL    HW256276   0.918   3.003   7.678  1.1684  3.8583 -0.6679
18279SOL     OW56277   6.257   6.821   9.745  0.2318 -0.9242 -0.3182
18279SOL    HW156278   6.283   6.886   9.811 -0.4201 -0.9411 -0.0417
18279SOL    HW256279   6.332   6.816   9.687 -0.0567  0.7978 -0.9011
18280SOL     OW56280   4.348   0.909   9.908  0.6106 -0.0429 -0.1825
18280SOL    HW156281   4.402   0.858   9.849  2.6030  0.7509  0.8585
18280SOL    HW256282   4.348   0.859   9.990  1.6748  1.0352  0.5078
18281SOL     OW56283   7.680   7.870   9.196  0.0040  0.7532 -0.0946
18281SOL    HW156284   7.642   7.945   9.150  1.3837  0.6955 -1.4490
18281SOL    HW256285   7.625   7.795   9.170 -0.7679  1.1171  0.4523
18282SOL     OW56286   5.339   1.742   7.230  0.5516  0.1686 -0.2137
18282SOL    HW156287   5.425   1.709   7.205 -0.0278  0.1832 -2.4387
18282SOL    HW256288   5.297   1.668   7.274  1.1955 -0.3153 -0.4010
18283SOL     OW56289   6.080   0.612   6.824 -0.4037 -0.9412  0.4220
18283SOL    HW156290   6.052   0.607   6.732  0.1243  1.1305  0.1036
18283SOL    HW256291   6.078   0.521   6.854  0.7794 -1.8755 -2.0434
18284SOL     OW56292   6.002   1.803   9.455 -0.4332  0.4001  0.1779
18284SOL    HW156293   5.990   1.723   9.403  0.0076  0.9671 -0.8220
18284SOL    HW256294   5.985   1.775   9.545 -3.1749 -0.1771 -0.4209
18285SOL     OW56295   5.669   1.791   7.804 -0.6855 -0.3102  0.5252
18285SOL    HW156296   5.611   1.795   7.881 -0.0965  0.0949  0.9574
18285SOL    HW256297   5.752   1.827   7.835 -0.6620  0.5913 -0.5188
18286SOL     OW56298   6.996   2.472   8.360 -0.0609 -0.5167  0.1427
18286SOL    HW156299   6.918   2.508   8.319 -0.2221 -1.6073 -0.5412
18286SOL    HW256300   6.974   2.380   8.378  0.2399 -0.2599  2.0837
18287SOL     OW56301   0.219   2.791   8.062 -0.3590  0.0082  0.2509
18287SOL    HW156302   0.124   2.791   8.070 -0.9110 -0.5662 -3.9043
18287SOL    HW256303   0.244   2.701   8.079 -0.2193  0.4639  2.9311
18288SOL     OW56304   6.623   2.305   6.422  0.3735 -0.1459  0.2032
18288SOL    HW156305   6.592   2.214   6.422 -1.2699  0.3828  0.8068
18288SOL    HW256306   6.582   2.345   6.498 -1.4441  1.9001 -1.6907
18289SOL     OW56307   7.448   2.247   8.101  0.7705  0.3715  0.0660
18289SOL    HW156308   7.396   2.184   8.151  1.0352 -0.1418 -0.2937
18289SOL    HW256309   7.523   2.196   8.070  1.0500  0.8981 -0.1271
18290SOL     OW56310   5.970   0.292   8.454  0.2297 -0.4758  0.3750
18290SOL    HW156311   5.980   0.342   8.373  0.5409 -0.0114  0.6916
18290SOL    HW256312   5.949   0.359   8.520 -0.9904 -0.9543  0.5002
18291SOL     OW56313   5.641   0.736   8.028 -0.1429  0.0720  0.1757
18291SOL    HW156314   5.642   0.826   7.994 -0.3120  0.1017  0.2513
18291SOL    HW256315   5.551   0.722   8.057 -0.1459 -0.1632  0.0545
18292SOL     OW56316   6.943   1.553   5.743  0.5525  0.1037  0.6716
18292SOL    HW156317   6.940   1.636   5.696  0.8550  0.6430  1.5821
18292SOL    HW256318   6.877   1.499   5.700 -0.6620  1.2973  0.9322
18293SOL     OW56319   5.851   1.360   8.669 -0.2016  0.4765 -0.9298
18293SOL    HW156320   5.774   1.395   8.714 -1.0797 -2.0732 -0.2227
18293SOL    HW256321   5.911   1.338   8.740  0.2804  0.5060 -1.3259
18294SOL     OW56322   0.004   1.722   8.658 -0.3402 -0.1011  0.3244
18294SOL    HW156323  -0.044   1.695   8.736  1.2227 -1.1578  0.9654
18294SOL    HW256324   0.010   1.643   8.604 -1.4478  0.6255 -0.9384
18295SOL     OW56325   5.910   1.581   8.528  0.0217  0.1443 -0.4843
18295SOL    HW156326   5.943   1.635   8.600  1.6320 -1.4728  0.0851
18295SOL    HW256327   5.886   1.498   8.570 -1.3217  0.0028 -1.4895
18296SOL     OW56328   6.997   2.452   8.025 -0.5771 -0.1130  0.0930
18296SOL    HW156329   7.037   2.472   8.109  0.5871 -0.8918 -0.2525
18296SOL    HW256330   6.975   2.359   8.031  1.3821 -0.7094 -1.1604
18297SOL     OW56331   5.956   1.282   8.912 -0.2410  0.2125  0.2415
18297SOL    HW156332   5.934   1.327   8.994  2.7991  0.7275  0.9174
18297SOL    HW256333   5.932   1.191   8.927  1.0313  0.1253  2.1235
18298SOL     OW56334   7.744   6.942   7.620  0.4842 -0.1799  0.4089
18298SOL    HW156335   7.833   6.961   7.649  0.4214  1.8378 -0.5104
18298SOL    HW256336   7.754   6.901   7.534  0.5379 -0.9967  0.7992
18299SOL     OW56337   7.247   2.183   7.606 -0.2704  0.3141  0.1893
18299SOL    HW156338   7.218   2.122   7.539 -2.1913  0.2483  1.0231
18299SOL    HW256339   7.342   2.170   7.611  0.3054  1.5541 -3.6771
18300SOL     OW56340   0.403   0.800   6.272  0.1083  0.0206 -0.0472
18300SOL    HW156341   0.496   0.811   6.250 -0.4745  1.4802 -2.1149
18300SOL    HW256342   0.393   0.705   6.284  1.7724 -0.2250 -0.2812
18301SOL     OW56343   6.539   1.161   9.575 -0.3721 -0.3922  0.1238
18301SOL    HW156344   6.628   1.127   9.583  0.3022  1.3858  0.7106
18301SOL    HW256345   6.516   1.149   9.483 -0.4436 -2.9030  0.3888
18302SOL     OW56346   6.242   0.892   7.407 -0.2936  0.1919  0.0257
18302SOL    HW156347   6.203   0.897   7.320  0.3744 -0.1521 -0.3079
18302SOL    HW256348   6.170   0.907   7.467 -1.5457 -2.9954 -0.4719
18303SOL     OW56349   6.823   0.693   7.559  0.4678  0.2861  0.2642
18303SOL    HW156350   6.813   0.607   7.600 -0.2530  0.8506  1.3195
18303SOL    HW256351   6.878   0.742   7.620  1.0418  0.5258 -0.4322
18304SOL     OW56352   6.930   1.447  10.269 -0.1945  0.2125  0.0981
18304SOL    HW156353   6.870   1.410  10.333  0.6424  0.4113  1.0324
18304SOL    HW256354   6.970   1.371  10.227 -1.8733  0.0610 -1.3379
18305SOL     OW56355   6.975   1.837  10.222 -0.2009  0.0739  0.3467
18305SOL    HW156356   6.884   1.814  10.202 -0.6108  0.9428  1.1798
18305SOL    HW256357   7.010   1.758  10.264 -1.0557  0.2897  1.5090
18306SOL     OW56358   5.525   0.294   8.171  0.1291 -0.3205  0.0775
18306SOL    HW156359   5.558   0.320   8.085 -1.3402  1.8773  0.0884
18306SOL    HW256360   5.459   0.361   8.192  0.4443 -0.7832  2.9045
18307SOL     OW56361   6.064   1.004   8.882  0.1785  0.7058 -0.2061
18307SOL    HW156362   6.138   0.944   8.891  0.4188  1.0567  0.1606
18307SOL    HW256363   6.055   1.017   8.787 -1.7523 -2.2364 -0.5572
18308SOL     OW56364   7.242   3.249   8.292  0.2245 -0.1895 -0.0172
18308SOL    HW156365   7.179   3.318   8.312 -1.2362 -0.3586 -3.4132
18308SOL    HW256366   7.321   3.295   8.266 -0.9671  0.3878 -2.9631
18309SOL     OW56367   7.087   0.788   9.142 -0.3768 -0.7189 -0.1060
18309SOL    HW156368   7.160   0.761   9.197 -0.7493 -1.7518 -0.0857
18309SOL    HW256369   7.104   0.745   9.058  0.5083  1.3276 -1.0322
18310SOL     OW56370   6.223   1.429   7.899 -0.3673 -0.0069  0.4887
18310SOL    HW156371   6.206   1.356   7.839  1.5949  0.1496 -0.3440
18310SOL    HW256372   6.306   1.465   7.869 -0.6128  1.7235  1.7444
18311SOL     OW56373   4.211   0.400   9.072 -0.4871 -0.0550 -0.3953
18311SOL    HW156374   4.166   0.471   9.026 -1.9754 -0.3873  0.5056
18311SOL    HW256375   4.274   0.366   9.008 -0.0159  1.8006 -0.9753
18312SOL     OW56376   6.240   7.707   7.017 -0.1868  0.0189  0.1276
18312SOL    HW156377   6.335   7.705   7.005 -0.0972  0.3373  0.7332
18312SOL    HW256378   6.213   7.790   6.979 -0.0867  0.3796  0.8193
18313SOL     OW56379   7.475   0.983   6.764 -0.1446  0.9578 -0.2718
18313SOL    HW156380   7.515   1.069   6.754 -2.0166  2.0449  0.9263
18313SOL    HW256381   7.381   1.000   6.770 -0.5740 -1.1627  0.0148
18314SOL     OW56382   7.727   1.992   7.555  0.3762 -0.5600 -0.2601
18314SOL    HW156383   7.731   2.087   7.565 -1.3814 -0.5469  0.6760
18314SOL    HW256384   7.636   1.969   7.572 -0.2068 -2.0232 -4.1163
18315SOL     OW56385   4.155   0.054   7.600 -0.1074 -0.1636 -0.1498
18315SOL    HW156386   4.145   0.140   7.641 -0.7893 -0.1246 -0.3842
18315SOL    HW256387   4.243   0.025   7.625 -0.8495 -0.6139  2.2378
18316SOL     OW56388   6.627   3.167   7.233 -0.0918  0.1161  0.6402
18316SOL    HW156389   6.719   3.157   7.207 -0.5195 -1.5937 -0.3440
18316SOL    HW256390   6.631   3.191   7.326  1.3384 -0.7854  0.8487
18317SOL     OW56391   6.794   7.860   8.880  0.7262  0.1661  0.1757
18317SOL    HW156392   6.739   7.846   8.957 -0.5474  1.0011 -0.5390
18317SOL    HW256393   6.783   7.781   8.828  1.7310 -0.4770  0.9077
18318SOL     OW56394   7.737   1.993   8.381 -0.7973  0.3408 -0.1528
18318SOL    HW156395   7.773   1.989   8.292 -0.9296 -2.6789 -0.1650
18318SOL    HW256396   7.812   2.015   8.436  0.7244 -3.4229 -0.4614
18319SOL     OW56397   6.215   6.305   9.493  0.7434  0.6837  0.2163
18319SOL    HW156398   6.178   6.383   9.450  1.1904  0.2337 -1.0396
18319SOL    HW256399   6.241   6.335   9.580  1.4544  2.1024 -0.4551
18320SOL     OW56400   6.409   1.448   8.338  0.2485  0.2454  0.0267
18320SOL    HW156401   6.502   1.429   8.337  0.5016  1.4120  0.3577
18320SOL    HW256402   6.374   1.399   8.263  1.5000  1.5838 -1.5139
18321SOL     OW56403   7.355   0.684   9.228 -0.4422  0.2655  0.1763
18321SOL    HW156404   7.443   0.697   9.265  0.8827  0.1813 -2.6609
18321SOL    HW256405   7.296   0.702   9.301  1.9126 -0.5647  2.4778
18322SOL     OW56406   7.802   7.780   8.582 -0.2298 -0.2789  0.2613
18322SOL    HW156407   7.895   7.796   8.571 -0.7546  2.3564 -1.0134
18322SOL    HW256408   7.771   7.754   8.495 -1.0421  1.1607  0.0894
18323SOL     OW56409   6.005   1.298   6.768 -0.6993 -0.1385  0.1707
18323SOL    HW156410   5.987   1.389   6.744  2.7292  0.7824  0.5673
18323SOL    HW256411   5.998   1.297   6.864  2.8421  0.7928  0.5650
18324SOL     OW56412   0.014   1.140   8.619  0.0154  0.2562 -0.6021
18324SOL    HW156413  -0.028   1.175   8.698  0.6648  0.7758 -0.4767
18324SOL    HW256414   0.099   1.184   8.616  0.4209 -0.5315 -1.0277
18325SOL     OW56415   7.625   0.090   8.342 -0.1289  0.2925 -0.0536
18325SOL    HW156416   7.551   0.151   8.347 -0.5220 -0.2456  0.9506
18325SOL    HW256417   7.638   0.060   8.432  2.0181  1.1760 -0.0153
18326SOL     OW56418   6.491   0.957   8.965 -0.4483 -0.0617 -0.2850
18326SOL    HW156419   6.534   0.937   9.048  3.5173 -1.3976 -2.4131
18326SOL    HW256420   6.422   0.891   8.957 -1.1450  0.2905  1.9929
18327SOL     OW56421   5.514   1.634   6.558 -0.1890 -0.0677 -0.3460
18327SOL    HW156422   5.500   1.635   6.652 -1.2807  1.0321 -0.4980
18327SOL    HW256423   5.562   1.553   6.542 -0.3269 -0.4625  1.0977
18328SOL     OW56424   5.507   0.375   9.357  0.0126  0.5416 -0.0838
18328SOL    HW156425   5.512   0.291   9.402  1.7598  0.4844 -0.3263
18328SOL    HW256426   5.588   0.381   9.308 -0.1086  2.3510 -0.1329
18329SOL     OW56427   6.679   0.311   9.360 -0.5035  0.3675 -0.6005
18329SOL    HW156428   6.761   0.360   9.368  0.2407 -0.7655 -1.0023
18329SOL    HW256429   6.694   0.253   9.285 -0.0487 -2.8681  1.7761
18330SOL     OW56430   0.255   1.999   7.462  0.1430  0.4240 -0.2627
18330SOL    HW156431   0.296   1.964   7.541 -1.9984  0.9975  1.2004
18330SOL    HW256432   0.164   1.970   7.467 -0.3028  1.3544 -2.0013
18331SOL     OW56433   0.077   1.697   7.810  0.0117 -0.3981  0.5033
18331SOL    HW156434   0.082   1.720   7.903 -0.6124  0.5334  0.3231
18331SOL    HW256435   0.152   1.741   7.770 -1.6155  2.1915  0.0247
18332SOL     OW56436   6.061   1.055  10.276 -0.4537 -0.4908  0.4691
18332SOL    HW156437   6.063   1.150  10.269  1.5116 -0.4896  0.4479
18332SOL    HW256438   6.063   1.024  10.185 -0.0816 -0.5398  0.4916
18333SOL     OW56439   5.714   2.233   8.511  0.1034  0.3855 -0.1122
18333SOL    HW156440   5.728   2.140   8.495 -1.0291 -0.0543  1.2321
18333SOL    HW256441   5.660   2.236   8.591 -0.5678  2.1583 -0.5786
18334SOL     OW56442   5.165   1.904   8.001 -0.0999 -0.2070 -0.0310
18334SOL    HW156443   5.253   1.936   7.983  0.5200 -1.8704 -0.1130
18334SOL    HW256444   5.110   1.944   7.932  0.3370  1.7066  0.6604
18335SOL     OW56445   5.729   7.861   8.433 -0.2333 -0.3425 -0.0508
18335SOL    HW156446   5.637   7.843   8.450 -0.2083 -0.7141 -0.2939
18335SOL    HW256447   5.734   7.956   8.424 -0.6212 -0.3352 -0.1973
18336SOL     OW56448   0.925   7.284   6.872 -0.0027 -0.0161 -0.2271
18336SOL    HW156449   0.845   7.333   6.893 -2.1243 -3.4133  0.3463
18336SOL    HW256450   0.984   7.303   6.945 -1.5704  0.0394  1.0852
18337SOL     OW56451   7.781   1.650   8.488 -0.0985 -0.1526  0.5296
18337SOL    HW156452   7.850   1.586   8.470 -0.3041 -0.2395  0.0559
18337SOL    HW256453   7.827   1.734   8.493 -0.0171 -0.1500 -0.2202
18338SOL     OW56454   7.287   1.743   8.015 -0.3950 -0.8180  0.1411
18338SOL    HW156455   7.235   1.663   8.006 -2.7777  0.6036  0.3356
18338SOL    HW256456   7.239   1.808   7.964  0.9101  0.7290  0.8143
18339SOL     OW56457   6.940   1.252   9.056 -0.2102 -0.2111  0.4332
18339SOL    HW156458   6.866   1.293   9.101 -1.0821 -0.5318 -0.6460
18339SOL    HW256459   6.928   1.158   9.071  0.3703 -0.2285  0.8201
18340SOL     OW56460   6.782   7.926   7.751  0.4027  0.2455  0.2232
18340SOL    HW156461   6.850   7.864   7.777  1.4488  1.4941  0.5491
18340SOL    HW256462   6.742   7.886   7.674 -0.9556 -2.2342  2.0698
18341SOL     OW56463   6.734   7.795   6.624  0.4813 -0.0863 -0.4441
18341SOL    HW156464   6.756   7.779   6.532 -1.9862  0.9380 -1.2784
18341SOL    HW256465   6.785   7.872   6.648  0.2723  0.3374 -1.3231
18342SOL     OW56466   6.577   2.207   8.536  0.0286 -0.5890 -0.3788
18342SOL    HW156467   6.554   2.298   8.517  0.5283 -0.2150  0.7113
18342SOL    HW256468   6.592   2.167   8.450 -1.6377 -0.0492 -0.9607
18343SOL     OW56469   6.321   7.640   7.698 -0.1764  0.4574  0.2032
18343SOL    HW156470   6.355   7.601   7.779 -0.0715 -0.4918 -0.2789
18343SOL    HW256471   6.382   7.711   7.678 -0.3418  0.8575  1.0806
18344SOL     OW56472   7.472   7.247   8.286  0.0417 -0.5745  0.3289
18344SOL    HW156473   7.522   7.266   8.208 -0.3912 -3.5821 -0.8297
18344SOL    HW256474   7.381   7.244   8.256 -0.1658 -1.3977  1.0034
18345SOL     OW56475   6.951   1.526   6.662 -0.5325  0.5164 -0.0814
18345SOL    HW156476   6.884   1.463   6.635  1.2303 -1.9552  0.9052
18345SOL    HW256477   6.919   1.559   6.746 -1.8501  1.6157 -0.9664
18346SOL     OW56478   7.531   1.834   8.500 -0.1607  0.0813 -0.2495
18346SOL    HW156479   7.593   1.891   8.454  0.4029 -0.6859 -0.4507
18346SOL    HW256480   7.469   1.806   8.432 -0.3092  0.2744 -0.1950
18347SOL     OW56481   6.342   3.019   8.389  0.5866  0.4234  0.2884
18347SOL    HW156482   6.346   2.955   8.460  2.9854  0.2616  0.0826
18347SOL    HW256483   6.432   3.049   8.378  0.6115 -0.5822 -3.6095
18348SOL     OW56484   6.264   1.169   9.935  0.1910 -0.1460  0.1157
18348SOL    HW156485   6.246   1.212  10.019  1.9875 -1.3650  1.1790
18348SOL    HW256486   6.319   1.232   9.888  1.3103 -0.4832  0.9295
18349SOL     OW56487   6.820   0.917  10.390 -0.3211 -0.2742  0.1349
18349SOL    HW156488   6.807   0.841  10.446 -2.2094  0.6911  1.1186
18349SOL    HW256489   6.745   0.915  10.329 -0.2198  0.6002 -0.0402
18350SOL     OW56490   4.025   1.039   8.813 -0.0705  0.1602  0.2589
18350SOL    HW156491   4.093   1.081   8.759 -0.6314  0.4347 -0.2500
18350SOL    HW256492   4.004   0.958   8.766 -0.3056  0.2194  0.2641
18351SOL     OW56493   6.445   0.585   9.879 -0.6228 -0.1128 -0.0878
18351SOL    HW156494   6.398   0.508   9.908 -0.9832 -0.3042 -1.1287
18351SOL    HW256495   6.536   0.570   9.907 -0.8905 -0.4196  0.6310
18352SOL     OW56496   6.425   1.211   9.314 -0.5057  0.4723  0.6319
18352SOL    HW156497   6.468   1.248   9.238 -0.6263  1.3487  0.9775
18352SOL    HW256498   6.394   1.287   9.364 -1.8275 -0.1147  0.7480
18353SOL     OW56499   6.367   0.259   8.373  0.1136  0.3963  0.0582
18353SOL    HW156500   6.333   0.250   8.284 -0.7192 -0.8922  0.4875
18353SOL    HW256501   6.434   0.192   8.381  0.1139  0.4363  0.4416
18354SOL     OW56502   7.031   7.933   9.074 -0.0509  0.8030  0.9370
18354SOL    HW156503   7.005   7.918   8.983  1.1776  1.3092  0.4762
18354SOL    HW256504   6.988   7.864   9.124  1.4226 -1.2039 -0.4052
18355SOL     OW56505   6.587   2.046   9.741 -0.7866  0.4590  0.2778
18355SOL    HW156506   6.549   1.984   9.803 -1.5464  3.1169  2.6510
18355SOL    HW256507   6.663   2.082   9.787 -0.6629  1.6555 -0.8084
18356SOL     OW56508   6.167   2.519  10.757  0.7399 -0.1169 -0.2890
18356SOL    HW156509   6.169   2.441  10.701 -1.0562 -0.0985 -0.4320
18356SOL    HW256510   6.083   2.560  10.739  1.3875  1.5486  0.2403
18357SOL     OW56511   5.497   2.701  11.865 -0.1463  0.1008 -0.7989
18357SOL    HW156512   5.472   2.734  11.952  0.1014  1.0402 -1.0735
18357SOL    HW256513   5.582   2.660  11.879 -1.1884 -1.9888 -0.1143
18358SOL     OW56514   5.876   1.203  10.780  0.3494  0.0214 -0.2720
18358SOL    HW156515   5.956   1.224  10.732 -0.2551  0.7837 -0.9881
18358SOL    HW256516   5.830   1.287  10.787 -0.2761 -0.3611  0.3439
18359SOL     OW56517   3.989   2.379  10.877 -0.6591 -0.4835  0.4374
18359SOL    HW156518   4.025   2.468  10.880 -0.6808 -0.4874  0.8414
18359SOL    HW256519   4.052   2.330  10.824  1.5014 -1.1698  3.3309
18360SOL     OW56520   5.726   1.706  11.768 -0.1433  0.5785  0.3957
18360SOL    HW156521   5.724   1.635  11.704  0.0054  0.9358 -0.0174
18360SOL    HW256522   5.645   1.755  11.752  0.2463  1.1041 -0.0406
18361SOL     OW56523   6.231   2.874  10.203  0.5600 -0.2445  0.2431
18361SOL    HW156524   6.145   2.833  10.213  0.7369 -0.5994  0.3470
18361SOL    HW256525   6.275   2.856  10.287  0.1477  1.3524  0.8355
18362SOL     OW56526   6.659   0.669   9.573 -0.4318  0.2287 -0.6604
18362SOL    HW156527   6.571   0.699   9.598 -0.3649 -0.0876 -0.0132
18362SOL    HW256528   6.644   0.607   9.502 -0.5738  1.7246 -1.9853
18363SOL     OW56529   5.969   2.747  10.226  0.2082  0.2450  0.0433
18363SOL    HW156530   5.968   2.744  10.130  1.7785  0.8692 -0.0214
18363SOL    HW256531   5.929   2.665  10.253 -1.7698  0.7578 -1.1098
18364SOL     OW56532   6.774   1.584  11.830  0.3097 -0.1817  0.7823
18364SOL    HW156533   6.719   1.510  11.856  1.5721 -1.8076 -0.9261
18364SOL    HW256534   6.713   1.647  11.791 -0.5771 -1.0104  0.8080
18365SOL     OW56535   6.602   2.332  10.718 -0.1261 -0.0180 -0.1944
18365SOL    HW156536   6.690   2.369  10.715  0.4642 -1.3000  0.6024
18365SOL    HW256537   6.615   2.238  10.709 -1.3291 -0.3206  0.9878
18366SOL     OW56538   6.744   1.766   9.451 -0.5552 -0.0890 -0.0778
18366SOL    HW156539   6.828   1.812   9.455 -0.1229 -0.8893  0.1923
18366SOL    HW256540   6.679   1.836   9.444 -0.0074  0.6264  1.6463
18367SOL     OW56541   5.935   3.728  10.096 -0.5632  0.2551 -0.1013
18367SOL    HW156542   5.967   3.755  10.010 -0.8397 -1.1142 -0.6580
18367SOL    HW256543   5.888   3.646  10.079  0.6343 -0.8387  1.5622
18368SOL     OW56544   6.473   1.545   7.757  0.0242 -0.2612  0.4496
18368SOL    HW156545   6.566   1.561   7.744 -0.2534  1.4036  0.2416
18368SOL    HW256546   6.442   1.510   7.673  0.6527 -1.9718  0.8925
18369SOL     OW56547   6.247   0.740  11.051 -0.0158 -0.5509 -0.2740
18369SOL    HW156548   6.303   0.695  10.988 -2.3108 -1.0873 -2.0769
18369SOL    HW256549   6.264   0.833  11.036 -0.8601 -0.6551 -2.0949
18370SOL     OW56550   5.533   0.750   9.170 -0.1669 -0.4732 -0.6087
18370SOL    HW156551   5.470   0.821   9.160  0.3244  0.0715  0.1391
18370SOL    HW256552   5.479   0.673   9.191 -0.7376 -0.4451 -1.8582
18371SOL     OW56553   7.022   2.064   7.379  0.7959 -0.1230  0.2050
18371SOL    HW156554   7.056   2.127   7.315 -0.9412 -0.2524 -0.9008
18371SOL    HW256555   6.930   2.086   7.389  0.5300 -1.4795  1.0378
18372SOL     OW56556   6.711   1.207   8.798 -0.1812  0.0844 -0.3032
18372SOL    HW156557   6.786   1.264   8.783 -0.3840  0.4198 -0.0556
18372SOL    HW256558   6.749   1.122   8.819  0.1233  0.1671 -0.5249
18373SOL     OW56559   7.200   1.669   9.231 -0.1411 -0.3321  0.2792
18373SOL    HW156560   7.271   1.731   9.216 -2.2430  1.6116 -3.1184
18373SOL    HW256561   7.228   1.589   9.185  0.5036 -0.1546  0.3546
18374SOL     OW56562   3.774   2.170  10.908  0.1651 -0.0298  0.1376
18374SOL    HW156563   3.799   2.144  10.819  1.0279  0.4846  0.2257
18374SOL    HW256564   3.682   2.196  10.900 -0.0806 -1.0190 -0.3817
18375SOL     OW56565   6.947   0.208  11.715 -0.1725  0.1137  0.8231
18375SOL    HW156566   6.987   0.121  11.712  1.4888  0.8665 -0.0787
18375SOL    HW256567   6.975   0.245  11.798  0.3158  0.3285  0.5628
18376SOL     OW56568   5.428   0.245   9.100 -0.1158 -0.0570  0.0400
18376SOL    HW156569   5.400   0.313   9.161 -1.1766 -1.4166  1.1169
18376SOL    HW256570   5.366   0.174   9.113  0.4683 -0.9265 -1.6563
18377SOL     OW56571   5.943   0.533   9.291  0.2017 -0.1283  0.6914
18377SOL    HW156572   5.887   0.486   9.353 -0.5596  0.4149  0.4318
18377SOL    HW256573   5.910   0.623   9.292  1.1072  0.2135  0.5660
18378SOL     OW56574   7.019   0.690   9.780  0.2905  0.6713 -0.0707
18378SOL    HW156575   7.007   0.767   9.723 -2.2067  0.7887  0.5035
18378SOL    HW256576   7.053   0.622   9.721  0.5522  1.6152 -1.0502
18379SOL     OW56577   6.695   2.029   0.627 -0.9370  0.0567  0.3145
18379SOL    HW156578   6.689   2.036   0.722  1.2191  0.6148  0.4597
18379SOL    HW256579   6.674   2.116   0.595  0.5356  0.5062  0.4711
18380SOL     OW56580   0.078   0.882  11.849 -0.1583  0.0655  0.4361
18380SOL    HW156581   0.089   0.787  11.843 -0.4531  0.0113  0.7444
18380SOL    HW256582   0.099   0.914  11.761 -2.1258 -0.4780 -0.2712
18381SOL     OW56583   6.755   2.105   9.933 -0.0832 -0.4255 -0.3257
18381SOL    HW156584   6.757   2.036   9.999  1.0689 -0.4137 -0.3144
18381SOL    HW256585   6.757   2.187   9.983  0.3577 -0.4140 -0.3515
18382SOL     OW56586   5.702   1.235  10.421  0.2610 -0.3007 -0.2932
18382SOL    HW156587   5.762   1.163  10.443  0.7817 -0.2135 -1.3559
18382SOL    HW256588   5.653   1.251  10.502  1.1077 -0.9210  0.3640
18383SOL     OW56589   0.210   1.891  11.815 -0.2739 -0.2019  0.0414
18383SOL    HW156590   0.114   1.894  11.809 -0.4434 -0.1970  2.1483
18383SOL    HW256591   0.228   1.841  11.894  1.4887 -0.2850 -0.3719
18384SOL     OW56592   7.821   0.346  10.017  0.1909  0.3569 -0.5523
18384SOL    HW156593   7.824   0.431  10.061 -0.1748  0.3022 -0.4178
18384SOL    HW256594   7.879   0.356   9.942 -0.9671  1.2087 -1.3730
18385SOL     OW56595   6.873   2.363  10.998  0.4424  0.3712 -0.0491
18385SOL    HW156596   6.929   2.425  10.950 -0.1923  0.1721 -1.0902
18385SOL    HW256597   6.889   2.383  11.090  2.9545 -0.3102 -0.2493
18386SOL     OW56598   5.648   2.171  11.806  0.2281  0.3831 -0.4207
18386SOL    HW156599   5.656   2.085  11.764  0.1083 -0.6696  1.6034
18386SOL    HW256600   5.653   2.233  11.733  0.0334 -1.3282 -1.9790
18387SOL     OW56601   7.791   2.030   9.989  0.2341 -0.2069  0.4927
18387SOL    HW156602   7.703   2.063  10.008 -0.1632  0.2780 -1.9269
18387SOL    HW256603   7.825   2.002  10.074 -0.8691  2.8675  2.0796
18388SOL     OW56604   6.628   7.796   9.075  0.1849 -0.1991  0.6696
18388SOL    HW156605   6.536   7.803   9.051 -0.3382  1.2044  2.8253
18388SOL    HW256606   6.627   7.751   9.160  1.2890  1.4912  1.6311
18389SOL     OW56607   6.176   2.321  10.149 -0.3153 -0.2201  0.1467
18389SOL    HW156608   6.219   2.390  10.098 -1.1651  1.4918  1.6533
18389SOL    HW256609   6.129   2.269  10.084 -2.7383  2.8572 -0.7718
18390SOL     OW56610   6.256   2.029  11.381 -0.6001  0.1254 -0.3462
18390SOL    HW156611   6.323   2.056  11.444 -0.0905 -0.1521 -0.7601
18390SOL    HW256612   6.234   1.940  11.405  0.6288 -0.4928 -1.4053
18391SOL     OW56613   7.156   7.703  10.502 -0.1483 -0.4188 -0.1918
18391SOL    HW156614   7.082   7.710  10.562  0.6014 -0.2449  0.7330
18391SOL    HW256615   7.230   7.741  10.550  0.0204  1.7947 -2.0263
18392SOL     OW56616   7.456   1.854   0.329  0.2940 -0.5722 -0.4223
18392SOL    HW156617   7.439   1.826   0.239 -1.4057 -1.7945  0.2129
18392SOL    HW256618   7.505   1.935   0.321  0.1831 -0.6689 -2.4462
18393SOL     OW56619   6.448   0.403   9.632  0.3971  0.5088 -0.4053
18393SOL    HW156620   6.436   0.496   9.613  1.6543  0.8696  0.4386
18393SOL    HW256621   6.535   0.397   9.670  0.7230 -1.1683 -1.3160
18394SOL     OW56622   7.480   2.225  11.258 -0.0099  0.1671 -0.4331
18394SOL    HW156623   7.531   2.163  11.310  0.8703  0.3998 -0.9871
18394SOL    HW256624   7.396   2.182  11.243 -0.4343  0.2580  1.4972
18395SOL     OW56625   5.926   3.005   9.053 -0.0304  0.1173  0.3571
18395SOL    HW156626   5.979   2.927   9.072  1.0977  1.1525  1.6676
18395SOL    HW256627   5.876   3.020   9.133  1.1536  1.7703  0.8388
18396SOL     OW56628   7.307   0.741  11.189 -0.0115 -0.0103  0.7609
18396SOL    HW156629   7.339   0.668  11.136 -1.9873 -1.2568  1.1747
18396SOL    HW256630   7.232   0.705  11.237 -1.0401  2.2754  1.0230
18397SOL     OW56631   7.426   1.442   9.916 -0.3328  0.1561 -0.2574
18397SOL    HW156632   7.508   1.491   9.913 -0.1224 -0.1022  0.7424
18397SOL    HW256633   7.361   1.508   9.941 -0.1035  0.0147  0.7725
18398SOL     OW56634   5.481   0.683  10.020  0.1043  0.1500 -0.6017
18398SOL    HW156635   5.472   0.735   9.940  1.7530  0.8412 -0.3892
18398SOL    HW256636   5.574   0.660  10.023 -0.3193 -1.6358  0.0585
18399SOL     OW56637   0.599   2.336   9.304 -0.4398  0.0508 -0.0984
18399SOL    HW156638   0.546   2.336   9.384 -1.2131  0.2140 -0.6083
18399SOL    HW256639   0.689   2.340   9.336 -0.7309 -0.1069  0.7730
18400SOL     OW56640   7.274   7.345  11.053  0.1429  0.1990  0.4556
18400SOL    HW156641   7.220   7.412  11.096 -0.4771 -0.8592  1.4103
18400SOL    HW256642   7.210   7.286  11.012  0.5119 -1.0857  1.6180
18401SOL     OW56643   6.256   1.483   8.550 -0.0576  0.1628  0.2575
18401SOL    HW156644   6.315   1.490   8.475  0.7109 -1.1693  0.7054
18401SOL    HW256645   6.216   1.397   8.541 -2.0602  1.0629 -0.0806
18402SOL     OW56646   4.429   0.732   9.732  0.3946 -0.0015  0.2863
18402SOL    HW156647   4.507   0.706   9.683  0.7063 -1.3248  1.4455
18402SOL    HW256648   4.365   0.663   9.714 -0.6082  1.1608 -0.7971
18403SOL     OW56649   7.798   1.798   9.353 -0.3103 -0.1238 -0.2001
18403SOL    HW156650   7.726   1.747   9.391  1.4558 -1.5593  1.3810
18403SOL    HW256651   7.783   1.793   9.259 -2.2972 -0.3428  0.0774
18404SOL     OW56652   6.375   2.229   9.714  0.1369 -0.0398 -0.4416
18404SOL    HW156653   6.375   2.214   9.809 -0.4306  0.8743 -0.2790
18404SOL    HW256654   6.452   2.183   9.682  0.8715  0.4383  0.5952
18405SOL     OW56655   6.894   0.990   9.141 -0.1490  0.2190 -0.4185
18405SOL    HW156656   6.810   0.945   9.134 -0.3853  0.4547  0.6887
18405SOL    HW256657   6.957   0.920   9.156 -0.6194  0.2198  2.1306
18406SOL     OW56658   6.461   2.929  11.706  0.3655 -0.0815 -0.1655
18406SOL    HW156659   6.547   2.966  11.726  0.8441 -0.7352 -0.8935
18406SOL    HW256660   6.423   2.990  11.643  0.1394  0.4036  0.4423
18407SOL     OW56661   7.182   0.952   9.829  0.1547 -0.1712 -0.3788
18407SOL    HW156662   7.105   0.940   9.774 -0.5927 -0.2614  0.6733
18407SOL    HW256663   7.225   0.866   9.830 -0.0832 -0.2905 -0.4459
18408SOL     OW56664   6.876   0.224  10.760 -0.1403 -0.2753 -0.1477
18408SOL    HW156665   6.943   0.209  10.827  0.0436 -1.4308 -0.5697
18408SOL    HW256666   6.796   0.186  10.797 -0.4592  0.5993  0.1125
18409SOL     OW56667   6.515   0.064  11.433  0.1097 -0.5027 -0.0480
18409SOL    HW156668   6.458   0.141  11.433  0.5679 -0.1561 -0.4752
18409SOL    HW256669   6.584   0.086  11.370  0.3382 -1.1932 -0.0403
18410SOL     OW56670   6.992   7.929  10.870  0.2048  0.6013  0.0750
18410SOL    HW156671   7.081   7.947  10.898  0.5123 -2.7121  1.6630
18410SOL    HW256672   6.941   7.928  10.951 -0.1369 -2.8430 -0.0476
18411SOL     OW56673   5.350   0.562   9.240  0.2986 -0.1478 -0.5581
18411SOL    HW156674   5.402   0.493   9.281  1.8291  1.0923 -0.2931
18411SOL    HW256675   5.265   0.557   9.282  1.0258 -0.5870  0.9180
18412SOL     OW56676   5.121   0.900  10.281  0.7761  0.4007 -0.0737
18412SOL    HW156677   5.041   0.953  10.284  0.0928 -0.4380 -1.7739
18412SOL    HW256678   5.188   0.955  10.321 -0.1460  2.1050 -0.7502
18413SOL     OW56679   7.642   1.031  11.865  0.5827  0.2339 -0.0501
18413SOL    HW156680   7.561   1.064  11.902 -0.1525 -0.3254 -1.1108
18413SOL    HW256681   7.666   1.095  11.798 -0.1758 -0.7105 -1.2481
18414SOL     OW56682   7.411   3.300   9.507 -0.5919  0.4291 -0.6792
18414SOL    HW156683   7.406   3.322   9.414 -0.5095 -1.1823 -1.0973
18414SOL    HW256684   7.485   3.351   9.540  0.9741 -0.8069 -2.0903
18415SOL     OW56685   6.464   0.119   9.395 -0.4244  0.1038  0.6460
18415SOL    HW156686   6.534   0.184   9.393 -1.7144  1.6226  1.8070
18415SOL    HW256687   6.440   0.107   9.303 -0.8060  2.0782  0.4331
18416SOL     OW56688   6.867   0.511   9.367 -0.7188  0.4534  0.0873
18416SOL    HW156689   6.917   0.527   9.287 -1.1766  1.5219  0.0003
18416SOL    HW256690   6.863   0.596   9.411 -3.3326  0.7093 -0.4441
18417SOL     OW56691   5.118   0.994   7.592  0.2951  0.2553  0.5448
18417SOL    HW156692   5.157   0.965   7.510 -0.3130  0.5896  0.1225
18417SOL    HW256693   5.191   1.030   7.642  1.2296 -2.6505  1.4348
18418SOL     OW56694   6.305   0.812   9.974 -0.7303  0.4517  0.0690
18418SOL    HW156695   6.243   0.747  10.006  0.0590  0.0854  0.9008
18418SOL    HW256696   6.383   0.762   9.951  0.0297  1.1155  1.0926
18419SOL     OW56697   5.469   0.807  10.274 -0.2387  0.8906 -0.1596
18419SOL    HW156698   5.564   0.793  10.274 -0.0805  1.8612  0.0462
18419SOL    HW256699   5.450   0.840  10.186 -0.7012 -1.1047 -0.8585
18420SOL     OW56700   6.327   7.533   9.743 -0.9415  0.1694  0.4599
18420SOL    HW156701   6.406   7.586   9.735 -0.4621 -0.5739  0.1142
18420SOL    HW256702   6.289   7.533   9.655  0.2187 -1.7709 -0.1144
18421SOL     OW56703   7.555   4.232  10.373 -0.2102  0.0911  0.4556
18421SOL    HW156704   7.602   4.216  10.455 -0.4583 -4.7596 -0.1074
18421SOL    HW256705   7.623   4.233  10.306 -0.3774 -1.6130  0.2144
18422SOL     OW56706   5.981   2.029   9.765 -0.6003  0.2498 -0.2076
18422SOL    HW156707   5.972   1.934   9.766 -1.6782  0.3507  1.1020
18422SOL    HW256708   5.891   2.062   9.769 -0.2012  1.3232  0.1874
18423SOL     OW56709   0.351   1.368   9.921  0.4877  0.4914 -0.1870
18423SOL    HW156710   0.393   1.451   9.946  2.6998 -1.0452  1.6350
18423SOL    HW256711   0.272   1.365   9.974  0.5886  1.2648  0.0315
18424SOL     OW56712   5.675   7.816   8.708 -0.6243  0.0744 -0.1713
18424SOL    HW156713   5.723   7.854   8.634 -0.4979  0.9854  0.3617
18424SOL    HW256714   5.640   7.892   8.755 -0.1451 -0.4465  1.0706
18425SOL     OW56715   5.350   1.959  12.148  0.1030  0.3537  0.6455
18425SOL    HW156716   5.384   2.002  12.069 -1.1391 -0.4965 -0.3955
18425SOL    HW256717   5.358   2.026  12.216 -0.1366  1.6308 -0.5182
18426SOL     OW56718   5.210   1.625  10.285 -0.4979 -0.1271 -0.2101
18426SOL    HW156719   5.133   1.618  10.228 -0.6637  2.1178 -0.3828
18426SOL    HW256720   5.176   1.664  10.366  0.1687 -0.8847  0.4530
18427SOL     OW56721   0.217   0.737   9.284 -0.2170  0.0571 -0.1457
18427SOL    HW156722   0.249   0.657   9.327  0.8113  0.6548  0.2278
18427SOL    HW256723   0.145   0.766   9.339 -0.3558 -0.4080 -0.0739
18428SOL     OW56724   6.808   1.383   9.430  0.0500 -0.3758  0.2354
18428SOL    HW156725   6.853   1.300   9.412 -1.4629 -1.8926  2.7994
18428SOL    HW256726   6.860   1.424   9.499  0.5447  0.6201 -0.7121
18429SOL     OW56727   7.176   7.590  10.854 -0.3768  0.0909  0.1162
18429SOL    HW156728   7.175   7.579  10.950 -1.7523  1.0215  0.2320
18429SOL    HW256729   7.240   7.659  10.839 -0.0970 -0.1123  0.3506
18430SOL     OW56730   4.582   0.301   9.458  0.0386  0.3350 -0.0005
18430SOL    HW156731   4.652   0.355   9.421  0.3076 -1.0668 -1.6805
18430SOL    HW256732   4.593   0.215   9.416  0.7324 -1.6914  3.8425
18431SOL     OW56733   7.149   2.296   9.872  0.6026 -0.4352 -0.4056
18431SOL    HW156734   7.056   2.282   9.852  0.3634  1.0060 -0.3794
18431SOL    HW256735   7.167   2.236   9.944 -1.0241  1.1553  1.4359
18432SOL     OW56736   7.797   1.299   8.308  0.5150  0.0097  0.1567
18432SOL    HW156737   7.745   1.267   8.235 -0.7557 -0.1476  1.0915
18432SOL    HW256738   7.886   1.303   8.275  0.0415 -0.5495 -1.2294
18433SOL     OW56739   6.711   1.213   9.913  0.6521  0.0856 -0.3646
18433SOL    HW156740   6.782   1.171   9.865  0.6717  0.7448 -0.9331
18433SOL    HW256741   6.748   1.297   9.941  0.6735 -0.3255  0.9091
18434SOL     OW56742   7.009   0.634   8.892 -0.0521 -0.4951  0.2032
18434SOL    HW156743   7.006   0.559   8.952  1.0372 -0.1634  0.6907
18434SOL    HW256744   6.918   0.663   8.886 -0.7288 -2.5660 -0.9224
18435SOL     OW56745   7.650   1.978  10.620 -0.5237  0.2087  0.1052
18435SOL    HW156746   7.612   2.063  10.598  1.1167  0.4420 -2.1545
18435SOL    HW256747   7.744   1.993  10.617 -0.2028 -1.7516 -0.7335
18436SOL     OW56748   5.794   1.614   9.528  0.0717  0.1960 -0.0257
18436SOL    HW156749   5.871   1.594   9.474  0.7649  3.2641 -0.3671
18436SOL    HW256750   5.739   1.669   9.472 -0.5505  1.1233  1.4341
18437SOL     OW56751   7.246   2.536  11.240  0.1314  1.0418 -0.2135
18437SOL    HW156752   7.179   2.593  11.279  1.4196  1.5502  1.3815
18437SOL    HW256753   7.324   2.551  11.294  1.2266 -0.3508 -1.3414
18438SOL     OW56754   4.728   1.411  10.114  0.1184 -0.2462  0.2407
18438SOL    HW156755   4.647   1.360  10.124 -0.2711  0.5391  1.3774
18438SOL    HW256756   4.698   1.495  10.080  0.5718 -0.2468 -0.1625
18439SOL     OW56757   7.405   0.861  10.318 -0.0023 -0.3921 -0.2213
18439SOL    HW156758   7.355   0.790  10.359  0.7847 -0.9383 -0.1981
18439SOL    HW256759   7.396   0.845  10.224  2.0436 -1.8821 -0.2207
18440SOL     OW56760   6.327   7.566   0.173  0.8188  0.6569  0.3305
18440SOL    HW156761   6.360   7.612   0.095  0.6298  0.0144 -0.1430
18440SOL    HW256762   6.377   7.602   0.246  1.3358  0.9378 -0.1547
18441SOL     OW56763   5.299   2.200  10.793  0.4332  0.0952  0.2448
18441SOL    HW156764   5.281   2.148  10.872 -1.8283  0.2147 -0.1315
18441SOL    HW256765   5.263   2.147  10.721 -1.8326  2.0309 -0.1623
18442SOL     OW56766   7.233   0.992  10.530  0.1811  0.0610 -0.1359
18442SOL    HW156767   7.153   1.020  10.485 -0.6004 -0.7283  0.7364
18442SOL    HW256768   7.277   0.935  10.466 -0.9208 -1.0497  0.0514
18443SOL     OW56769   6.110   1.291  10.692 -0.1700 -0.3480  0.2571
18443SOL    HW156770   6.070   1.367  10.650  3.2089  0.7071 -1.5050
18443SOL    HW256771   6.131   1.320  10.781 -1.8060 -0.4198  0.6936
18444SOL     OW56772   0.667   2.523  10.175  0.0288  0.0893  0.1198
18444SOL    HW156773   0.581   2.549  10.141 -0.5799 -2.1232 -0.1835
18444SOL    HW256774   0.647   2.483  10.260  0.7936 -0.2406  0.1472
18445SOL     OW56775   5.944   1.853  10.607  0.4009  0.8187  0.9193
18445SOL    HW156776   5.950   1.934  10.657 -2.1162  0.9321  1.1720
18445SOL    HW256777   5.906   1.879  10.523 -0.0545 -0.0212  0.8536
18446SOL     OW56778   5.326   2.508   9.719  0.3332  0.0310  0.0839
18446SOL    HW156779   5.346   2.422   9.683 -0.9021 -0.1630 -0.1838
18446SOL    HW256780   5.399   2.563   9.691  1.0274 -0.8701  0.0710
18447SOL     OW56781   5.405   7.751   9.998  0.1789  0.5256 -0.1325
18447SOL    HW156782   5.467   7.801   9.945 -0.6948  1.2108 -0.5222
18447SOL    HW256783   5.358   7.816  10.049 -0.3460  0.0253  0.0343
18448SOL     OW56784   6.018   0.737   8.660 -0.0881  0.3341  0.2293
18448SOL    HW156785   6.112   0.722   8.672  0.3179  2.9136  0.9090
18448SOL    HW256786   6.011   0.830   8.637 -2.3272 -0.3190 -2.2581
18449SOL     OW56787   0.133   0.940  11.577  1.0031  0.5556  0.2533
18449SOL    HW156788   0.226   0.960  11.567  1.0638 -0.3758 -1.3980
18449SOL    HW256789   0.109   0.895  11.496 -0.5943 -0.3518  1.1695
18450SOL     OW56790   6.623   4.039  10.114  0.5136  0.0317  0.2412
18450SOL    HW156791   6.570   4.114  10.085 -1.2449 -0.9234  0.8316
18450SOL    HW256792   6.655   4.000  10.033 -2.5620 -1.3406 -0.4757
18451SOL     OW56793   5.729   0.804  11.906 -0.5841 -0.1071  0.3124
18451SOL    HW156794   5.649   0.765  11.870 -0.1111  2.2911 -4.0374
18451SOL    HW256795   5.701   0.889  11.939 -0.2201 -0.4173  1.4519
18452SOL     OW56796   5.967   1.341  10.215  0.1851  0.0152  0.6486
18452SOL    HW156797   5.945   1.420  10.265  0.4733  0.9522 -0.6524
18452SOL    HW256798   6.035   1.369  10.154  2.3310 -1.9206  2.0053
18453SOL     OW56799   0.406   0.232   0.887 -0.5745 -0.3193  1.0648
18453SOL    HW156800   0.443   0.249   0.974  0.8719 -1.5324  0.7261
18453SOL    HW256801   0.427   0.309   0.836 -1.6656  0.5237  1.8403
18454SOL     OW56802   6.633   1.577  10.442 -0.4399 -0.0579 -0.2108
18454SOL    HW156803   6.697   1.601  10.509 -0.8462  2.2300 -0.5356
18454SOL    HW256804   6.644   1.483  10.430 -0.0965 -0.4948  2.7707
18455SOL     OW56805   5.500   7.877   9.576  0.2905  0.2835  0.1786
18455SOL    HW156806   5.414   7.836   9.577  0.3162  0.2093  1.4215
18455SOL    HW256807   5.557   7.814   9.532 -0.4970  0.8176 -1.6692
18456SOL     OW56808   5.134   1.600   9.926 -0.2260  0.1218 -0.3265
18456SOL    HW156809   5.127   1.507   9.905 -2.8272 -0.0012  0.7357
18456SOL    HW256810   5.064   1.616   9.990 -0.2355  2.9222 -0.9044
18457SOL     OW56811   7.789   2.238  11.101  0.1169 -0.3534 -0.1960
18457SOL    HW156812   7.786   2.316  11.155  0.3939 -1.3620  1.3358
18457SOL    HW256813   7.722   2.252  11.035 -0.2991  0.8804  0.4590
18458SOL     OW56814   0.162   0.143  10.062  0.6531  1.0053 -0.2681
18458SOL    HW156815   0.189   0.160  10.152  0.6513  2.5463 -0.5211
18458SOL    HW256816   0.121   0.056  10.065 -0.5920  1.5829  1.4959
18459SOL     OW56817   5.454   1.102   0.558  0.6993  0.4324  0.5910
18459SOL    HW156818   5.389   1.173   0.549 -0.7264 -0.9626 -1.0332
18459SOL    HW256819   5.524   1.126   0.497 -0.1642  0.0920 -0.5679
18460SOL     OW56820   4.615   3.009   9.689  0.2245 -0.0477  0.2222
18460SOL    HW156821   4.528   3.045   9.706  0.1543 -0.6561  1.2110
18460SOL    HW256822   4.632   3.031   9.597  0.0118  2.1082  0.6381
18461SOL     OW56823   3.766   0.871  10.169  0.2494 -0.3522  0.0815
18461SOL    HW156824   3.694   0.820  10.132  1.2010 -1.0333 -0.8953
18461SOL    HW256825   3.764   0.954  10.121  1.3300 -1.1409 -1.4500
18462SOL     OW56826   7.221   7.761  11.471 -0.0815  0.2618  0.1375
18462SOL    HW156827   7.197   7.724  11.556  0.4152 -0.1431  0.1041
18462SOL    HW256828   7.280   7.833  11.493  1.0006 -0.5988  0.0849
18463SOL     OW56829   5.962   1.963  11.032  0.4199 -0.2367 -0.4668
18463SOL    HW156830   5.893   1.955  10.966  0.2961  1.2057 -0.5475
18463SOL    HW256831   6.022   2.027  10.995  1.2009 -0.6207  0.1193
18464SOL     OW56832   6.391   0.689   9.605 -0.3180 -0.0085 -0.2678
18464SOL    HW156833   6.370   0.692   9.698  0.8635  0.4851 -0.0042
18464SOL    HW256834   6.306   0.697   9.561 -0.7409  1.6866  0.7550
18465SOL     OW56835   5.693   1.993   9.851 -0.2391 -0.0996 -0.0877
18465SOL    HW156836   5.670   1.977   9.759 -1.3845 -1.8495  0.4595
18465SOL    HW256837   5.724   1.909   9.883 -0.0096  0.4506  1.2018
18466SOL     OW56838   1.293   2.705  10.562 -0.3571  0.1440  0.3274
18466SOL    HW156839   1.288   2.798  10.587 -1.1194  0.6003 -1.3389
18466SOL    HW256840   1.386   2.687  10.557 -0.1956  0.8312  0.6921
18467SOL     OW56841   7.037   1.506  11.825 -0.0638 -0.1884  0.6844
18467SOL    HW156842   7.086   1.553  11.758 -1.6749 -0.2835 -0.6352
18467SOL    HW256843   6.945   1.523  11.803 -0.6495 -0.8361  2.4516
18468SOL     OW56844   4.881   1.682   9.828  0.1108  0.9753  0.1701
18468SOL    HW156845   4.823   1.625   9.877  1.7527 -2.3581 -1.4610
18468SOL    HW256846   4.969   1.661   9.859  0.7901  3.0395 -0.1561
18469SOL     OW56847   7.243   0.409  10.353  0.0969 -0.1372  0.1616
18469SOL    HW156848   7.299   0.449  10.286  1.0781 -0.4096  0.7831
18469SOL    HW256849   7.276   0.319  10.360  0.3700  0.0393  1.3661
18470SOL     OW56850   6.895   1.801  11.679 -0.3630  0.6690 -0.2729
18470SOL    HW156851   6.858   1.801  11.591 -1.4833  0.1830  0.1724
18470SOL    HW256852   6.950   1.723  11.682 -0.1211  0.8254 -0.6201
18471SOL     OW56853   5.341   0.327  10.184 -0.1109  0.6399 -0.2982
18471SOL    HW156854   5.380   0.356  10.102  1.3075  0.7599  0.3968
18471SOL    HW256855   5.337   0.406  10.238  0.8194  0.1986  0.4516
18472SOL     OW56856   5.497   0.701  12.453  0.5660 -0.7448 -0.1390
18472SOL    HW156857   5.478   0.781  12.501 -0.5439 -1.6402  0.9939
18472SOL    HW256858   5.576   0.720  12.403  1.2169  0.5343  1.3289
18473SOL     OW56859   7.630   1.298  11.321 -0.1292 -0.0352 -0.1839
18473SOL    HW156860   7.574   1.307  11.397 -1.0223 -0.0213 -0.8284
18473SOL    HW256861   7.571   1.277  11.249  0.6171  0.4887 -0.9860
18474SOL     OW56862   0.288   7.074  10.516 -0.3875  0.5967 -0.3197
18474SOL    HW156863   0.301   6.982  10.491 -0.0243  0.1370  1.4678
18474SOL    HW256864   0.227   7.071  10.590 -0.6019  1.8277 -0.4211
18475SOL     OW56865   5.888   1.120   9.252 -0.7293 -0.0564  0.1382
18475SOL    HW156866   5.981   1.105   9.265 -0.7326 -1.2042 -1.0270
18475SOL    HW256867   5.846   1.047   9.299 -1.0389  0.3783  0.5420
18476SOL     OW56868   6.128   2.196  10.896 -0.3352 -0.1634  0.0874
18476SOL    HW156869   6.174   2.240  10.825 -1.1552 -0.3863 -0.6083
18476SOL    HW256870   6.184   2.206  10.973 -0.1039  1.3445 -0.2565
18477SOL     OW56871   5.435   3.266  10.510 -0.3296  0.1623 -0.3371
18477SOL    HW156872   5.411   3.326  10.440 -0.6292  0.1218 -0.2688
18477SOL    HW256873   5.383   3.294  10.585 -0.2368  0.0157 -0.2166
18478SOL     OW56874   4.896   7.762  11.335  0.3487 -0.2617 -0.5979
18478SOL    HW156875   4.899   7.668  11.354 -1.7759 -0.1013  0.9420
18478SOL    HW256876   4.819   7.773  11.280  0.3132  0.6169 -0.3875
18479SOL     OW56877   5.717   0.850  10.634  0.2239  0.0657  0.0495
18479SOL    HW156878   5.630   0.827  10.602  0.2365 -1.7595  1.1858
18479SOL    HW256879   5.752   0.910  10.568 -1.1375 -0.6729 -1.4017
18480SOL     OW56880   6.497   7.047  11.397  0.0834  0.1812  0.1196
18480SOL    HW156881   6.561   7.081  11.460 -0.5023  2.9860 -0.6954
18480SOL    HW256882   6.425   7.016  11.451  1.1951 -1.0797  0.9513
18481SOL     OW56883   7.437   1.654  11.089  0.1284  0.2127 -0.0237
18481SOL    HW156884   7.447   1.589  11.020 -0.5454  0.3251 -0.2421
18481SOL    HW256885   7.358   1.627  11.137  0.8352 -0.1145  0.9926
18482SOL     OW56886   6.351   0.140   8.825 -0.2338  0.0836 -0.1665
18482SOL    HW156887   6.323   0.189   8.747 -0.3748  0.1827 -0.0556
18482SOL    HW256888   6.442   0.118   8.808  0.6654  2.6451  0.8904
18483SOL     OW56889   0.159   1.633   9.675  0.1592  0.1186 -0.0798
18483SOL    HW156890   0.209   1.575   9.618  1.2389  0.7907  0.1602
18483SOL    HW256891   0.221   1.661   9.742 -0.2299  1.7955 -0.3724
18484SOL     OW56892   6.853   2.125  12.272 -0.5368 -0.2166 -0.1620
18484SOL    HW156893   6.840   2.054  12.209  0.2091 -0.2698 -0.2717
18484SOL    HW256894   6.774   2.179  12.264 -0.5406 -0.3295 -1.0021
18485SOL     OW56895   7.710   0.946   9.066  0.4147  0.2493 -0.2787
18485SOL    HW156896   7.736   0.877   9.128 -1.0768  0.1951  0.3185
18485SOL    HW256897   7.720   0.905   8.980  0.2996 -0.4451  0.0275
18486SOL     OW56898   5.236   7.988   8.394  0.1216 -0.4048  0.1128
18486SOL    HW156899   5.154   8.035   8.405 -0.1861 -1.2823  2.0213
18486SOL    HW256900   5.303   8.056   8.395 -0.4443  0.1625  0.7599
18487SOL     OW56901   5.611   2.317   9.787  0.2542  0.2594  0.0668
18487SOL    HW156902   5.526   2.356   9.764  2.2743  4.0848 -1.7627
18487SOL    HW256903   5.642   2.277   9.707  0.4485 -0.6492  0.5839
18488SOL     OW56904   5.784   2.487  10.321  0.0049 -0.2594 -0.4463
18488SOL    HW156905   5.827   2.414  10.277 -0.3800 -0.5715 -0.3223
18488SOL    HW256906   5.696   2.490  10.282  0.5088  1.1352 -1.5621
18489SOL     OW56907   4.714   7.504   8.813  0.1228 -0.2183  0.9554
18489SOL    HW156908   4.627   7.544   8.814 -0.6453 -1.7676 -0.0879
18489SOL    HW256909   4.719   7.457   8.897  1.4764  2.7970  2.7153
18490SOL     OW56910   7.918   2.822  10.838 -0.3934 -0.0015 -0.4303
18490SOL    HW156911   8.006   2.856  10.822  0.0471  0.4402  2.4069
18490SOL    HW256912   7.861   2.899  10.831 -0.5599 -0.2136 -1.8397
18491SOL     OW56913   0.022   2.347  10.711  0.0758  0.6449 -0.1812
18491SOL    HW156914   0.113   2.348  10.741  0.1102 -0.6770 -0.1831
18491SOL    HW256915   0.017   2.417  10.646  1.0900  0.7443 -0.1647
18492SOL     OW56916   5.156   1.560  11.789  0.2105 -0.4648 -0.1244
18492SOL    HW156917   5.250   1.551  11.805  0.3891 -1.3055 -1.5039
18492SOL    HW256918   5.149   1.602  11.704 -0.6137 -2.4014 -1.0865
18493SOL     OW56919   7.448   1.211  11.104 -0.4553 -0.0762  0.0176
18493SOL    HW156920   7.413   1.251  11.025  0.8323 -0.0018 -0.5343
18493SOL    HW256921   7.446   1.117  11.087  1.0577 -0.0119 -0.6745
18494SOL     OW56922   6.944   2.469   9.402 -0.3775 -0.1160  0.1583
18494SOL    HW156923   7.021   2.467   9.460 -0.3674 -1.7677  0.1417
18494SOL    HW256924   6.919   2.561   9.398  1.8921  0.5408 -0.2247
18495SOL     OW56925   5.988   3.363   9.845 -0.3635  0.0917  0.1931
18495SOL    HW156926   6.047   3.318   9.905 -1.7467  0.5383  2.0147
18495SOL    HW256927   5.942   3.293   9.799  1.1513 -0.2561 -0.8396
18496SOL     OW56928   6.695   0.496   9.985  0.2546  0.4266  0.3694
18496SOL    HW156929   6.668   0.542  10.065 -1.8357 -0.3426  0.1732
18496SOL    HW256930   6.768   0.440  10.013  0.4256  1.1444  1.4248
18497SOL     OW56931   5.867   2.598  12.253  0.1571 -0.0576 -0.0043
18497SOL    HW156932   5.777   2.565  12.255  0.7820 -1.8461  1.0297
18497SOL    HW256933   5.909   2.547  12.184  0.7459 -0.3204  0.5386
18498SOL     OW56934   6.313   3.273  10.273 -0.1664 -0.1619 -0.1752
18498SOL    HW156935   6.355   3.199  10.316  0.8548 -0.3280 -1.4043
18498SOL    HW256936   6.380   3.308  10.213 -1.4688  0.1499 -1.5096
18499SOL     OW56937   7.106   0.286   0.064  0.0929  0.1998 -0.9825
18499SOL    HW156938   7.143   0.355   0.010  1.6736 -0.1525 -0.3919
18499SOL    HW256939   7.166   0.277   0.138 -0.7222 -0.9855 -0.4221
18500SOL     OW56940   0.446   1.346  11.991 -0.2698  0.1716  0.0471
18500SOL    HW156941   0.511   1.361  11.922 -1.1030 -0.3752 -0.8812
18500SOL    HW256942   0.368   1.393  11.961  0.0332  1.8982  1.7612
18501SOL     OW56943   5.528   0.350   8.558 -0.2175  0.3810 -0.1251
18501SOL    HW156944   5.540   0.364   8.652 -1.0376  1.8392 -0.2128
18501SOL    HW256945   5.601   0.397   8.517  0.0752 -0.1595 -0.2292
18502SOL     OW56946   6.840   2.260  10.518 -0.0276  0.6099 -0.5822
18502SOL    HW156947   6.771   2.208  10.478  0.4178  0.8736 -1.7202
18502SOL    HW256948   6.900   2.196  10.555 -0.3087  0.3563 -0.5600
18503SOL     OW56949   6.077   0.571   9.032 -0.6802 -0.3142  0.3125
18503SOL    HW156950   6.006   0.630   9.004  0.3531  1.1143  0.6095
18503SOL    HW256951   6.051   0.544   9.121 -1.3379 -0.6131  0.0405
18504SOL     OW56952   6.660   2.326   8.174 -0.3766  0.5463 -0.2784
18504SOL    HW156953   6.691   2.412   8.202  2.3774 -0.3500 -0.3083
18504SOL    HW256954   6.643   2.335   8.080  0.1079  0.9914 -0.3210
18505SOL     OW56955   7.227   1.975  12.060 -0.5030  0.3251 -0.5308
18505SOL    HW156956   7.204   2.003  11.971 -1.4437 -0.8222 -0.6577
18505SOL    HW256957   7.317   1.944  12.052 -0.2106  1.2085 -0.8476
18506SOL     OW56958   0.222   0.483  10.009  0.9948 -0.3411 -0.3259
18506SOL    HW156959   0.180   0.420   9.951 -0.8867 -0.2383  0.8455
18506SOL    HW256960   0.151   0.540  10.039  2.3521  1.2702  0.0094
18507SOL     OW56961   6.097   3.255   9.321  0.0296  0.3957 -0.1609
18507SOL    HW156962   6.046   3.288   9.247 -1.8924 -0.8705  0.5031
18507SOL    HW256963   6.037   3.197   9.367  2.3319 -1.8693  0.2442
18508SOL     OW56964   7.578   7.951  10.227 -0.3735 -0.1317 -0.6552
18508SOL    HW156965   7.487   7.980  10.215  0.0948  0.7832 -2.2711
18508SOL    HW256966   7.620   7.968  10.143  1.0271 -1.6148 -0.2924
18509SOL     OW56967   6.052   1.896  10.187  0.5395  0.8752  0.4399
18509SOL    HW156968   6.127   1.900  10.247  0.5343 -1.2899  0.6792
18509SOL    HW256969   5.976   1.893  10.245  0.5434 -1.4163  0.3913
18510SOL     OW56970   6.734   7.491   9.080 -0.5378  0.0426  0.4568
18510SOL    HW156971   6.787   7.527   9.151 -0.4791 -1.5270  1.2591
18510SOL    HW256972   6.646   7.484   9.117 -0.5755 -0.4930  0.2744
18511SOL     OW56973   6.034   1.894   8.372 -0.4445 -0.4904 -0.2264
18511SOL    HW156974   5.966   1.888   8.438  1.0779  0.7022  1.5488
18511SOL    HW256975   6.075   1.979   8.387  2.0260 -1.5322 -0.5963
18512SOL     OW56976   5.960   0.172  10.732 -0.0720 -0.5977  0.1645
18512SOL    HW156977   5.913   0.222  10.798 -0.8787 -0.5972 -0.4018
18512SOL    HW256978   5.969   0.085  10.769  2.3357  0.1901  1.6499
18513SOL     OW56979   6.806   1.297  11.027  0.8165 -0.4207 -0.9700
18513SOL    HW156980   6.727   1.275  10.977  0.8206 -1.3448 -0.5937
18513SOL    HW256981   6.866   1.225  11.009  0.7513 -0.8700  0.5013
18514SOL     OW56982   5.817   0.806   9.286  0.3745 -0.3656  0.1057
18514SOL    HW156983   5.729   0.789   9.251  0.4494  0.2190 -0.3934
18514SOL    HW256984   5.801   0.847   9.371  0.1828 -1.2466  0.5123
18515SOL     OW56985   5.954   2.405  11.030 -0.3040  0.4247  0.1518
18515SOL    HW156986   5.930   2.487  10.987  0.4380  0.1467 -0.8180
18515SOL    HW256987   5.992   2.351  10.960  0.9809 -0.0169  1.1466
18516SOL     OW56988   5.744   1.035  10.122  0.3085 -0.4272 -0.4685
18516SOL    HW156989   5.746   0.961  10.183  0.9512 -0.1690 -0.1569
18516SOL    HW256990   5.680   1.011  10.056  0.7661 -1.4223 -0.5687
18517SOL     OW56991   6.569   1.484   9.369 -0.0785  0.4687 -0.6138
18517SOL    HW156992   6.643   1.425   9.382 -2.2691 -2.1548  0.8327
18517SOL    HW256993   6.555   1.524   9.455 -1.7089 -0.8285 -0.2412
18518SOL     OW56994   6.970   1.483   9.634  0.0373  0.1340  0.2412
18518SOL    HW156995   6.942   1.535   9.709 -1.9648  0.2110 -0.4964
18518SOL    HW256996   7.000   1.547   9.569 -0.4272  0.2424  0.1271
18519SOL     OW56997   7.215   2.871   9.423  0.2643 -0.2048  0.4306
18519SOL    HW156998   7.240   2.782   9.450 -1.2298 -1.3526 -1.7064
18519SOL    HW256999   7.294   2.923   9.437  0.8973 -1.6057  2.6806
18520SOL     OW57000   0.385   0.992  11.860  0.4796  0.5597  0.0645
18520SOL    HW157001   0.326   1.060  11.829 -0.7282  0.0641  1.1372
18520SOL    HW257002   0.413   1.022  11.947  0.0687 -0.2033  0.4737
18521SOL     OW57003   6.617   2.850  10.559 -0.1294  0.3449 -1.2052
18521SOL    HW157004   6.605   2.784  10.490  1.0112  0.5088 -1.5748
18521SOL    HW257005   6.706   2.882  10.547  0.1030  0.3643  0.3681
18522SOL     OW57006   5.512   3.034  11.444 -0.2454  0.2732  0.1041
18522SOL    HW157007   5.458   2.970  11.489  0.7879 -0.3904  0.4355
18522SOL    HW257008   5.464   3.053  11.363 -2.0900  1.4308  1.3650
18523SOL     OW57009   0.518   1.655   9.946 -0.4998 -0.1283 -0.4949
18523SOL    HW157010   0.581   1.650  10.019 -2.5752  0.8414  1.4735
18523SOL    HW257011   0.573   1.665   9.868  1.8059  0.3696  1.0817
18524SOL     OW57012   6.070   0.976   8.549 -0.1509 -0.5266 -0.0064
18524SOL    HW157013   6.141   1.031   8.581 -1.4220  1.3091 -0.1994
18524SOL    HW257014   6.033   1.024   8.476 -4.2140  0.7871  2.5768
18525SOL     OW57015   5.299   0.466   8.217 -0.2707  0.2423  0.2176
18525SOL    HW157016   5.226   0.404   8.210 -1.3101  1.5333 -1.4388
18525SOL    HW257017   5.268   0.533   8.277 -0.2801  0.5494 -0.1231
18526SOL     OW57018   0.233   7.873  10.957 -0.1493 -0.2174  0.0569
18526SOL    HW157019   0.203   7.921  10.880  0.6361 -1.3347 -0.9711
18526SOL    HW257020   0.300   7.929  10.996  0.6515 -0.3813 -1.0445
18527SOL     OW57021   0.203   1.063   9.759  0.5254  0.0949  0.4543
18527SOL    HW157022   0.117   1.021   9.770 -0.4666  1.7471 -0.5966
18527SOL    HW257023   0.201   1.138   9.817  0.5177  1.1759 -0.8859
18528SOL     OW57024   6.185   2.067   9.176 -0.1164  0.0882 -0.0488
18528SOL    HW157025   6.225   2.029   9.098 -0.3241 -2.5938  1.0620
18528SOL    HW257026   6.221   2.156   9.179  2.4562 -0.7816 -1.4116
18529SOL     OW57027   5.584   3.416   9.651  0.2785 -0.3642  0.4656
18529SOL    HW157028   5.600   3.455   9.565 -1.5600  0.6991  0.5526
18529SOL    HW257029   5.619   3.480   9.713  2.2741 -1.4588  0.5716
18530SOL     OW57030   7.619   2.175   8.549  0.0921 -0.0618  0.0219
18530SOL    HW157031   7.652   2.110   8.488  0.6256 -1.7215  1.9762
18530SOL    HW257032   7.524   2.164   8.548  0.0826  0.0329 -0.5860
18531SOL     OW57033   7.381   1.074   9.665 -0.0055 -0.2981  0.1950
18531SOL    HW157034   7.323   1.033   9.730  0.6862  0.1435  1.1197
18531SOL    HW257035   7.368   1.022   9.585 -1.2522 -0.5391  0.5361
18532SOL     OW57036   0.109   2.549   8.789 -0.2528 -0.0091  0.3588
18532SOL    HW157037   0.064   2.519   8.710  0.7532  1.0334 -0.6473
18532SOL    HW257038   0.149   2.632   8.764 -0.4642  0.6948  2.1756
18533SOL     OW57039   5.841   0.149  10.442  0.1925 -0.7246 -0.7848
18533SOL    HW157040   5.890   0.092  10.501  3.5326  2.3620 -0.1881
18533SOL    HW257041   5.908   0.193  10.390 -1.9536  2.9210 -0.8500
18534SOL     OW57042   5.191   0.784   9.939  0.5536  0.0297 -0.3622
18534SOL    HW157043   5.207   0.703   9.890  0.2698 -0.2521 -0.0004
18534SOL    HW257044   5.190   0.756  10.031  2.9869  0.8172  0.0010
18535SOL     OW57045   6.592   1.950   8.576 -0.2941  0.7417  0.1724
18535SOL    HW157046   6.596   2.046   8.579 -0.4120  0.7554 -0.0819
18535SOL    HW257047   6.586   1.929   8.482  0.9372  0.4349  0.1493
18536SOL     OW57048   5.344   0.167   9.903 -0.1023  0.2542  0.4731
18536SOL    HW157049   5.252   0.155   9.880  0.2302  0.8893 -1.3335
18536SOL    HW257050   5.360   0.260   9.892  0.3187  0.5042  2.6923
18537SOL     OW57051   7.526   3.324  10.012  0.2494 -0.1913 -0.1986
18537SOL    HW157052   7.487   3.266   9.947 -1.3515 -0.5344  1.0041
18537SOL    HW257053   7.500   3.412   9.984 -1.2842 -0.4032  0.4761
18538SOL     OW57054   6.830   1.571  10.882  0.3270 -0.0917  0.0747
18538SOL    HW157055   6.832   1.475  10.887 -1.7695 -0.2887 -1.5621
18538SOL    HW257056   6.806   1.599  10.970  0.6007 -1.0674  0.4802
18539SOL     OW57057   7.920   3.031  10.622  0.0079  0.3494 -0.5853
18539SOL    HW157058   7.869   2.987  10.554  0.6599  1.0256 -1.5272
18539SOL    HW257059   8.009   2.995  10.613  0.4143  1.4180 -0.9836
18540SOL     OW57060   7.867   2.493   9.609  0.3642 -0.1506  0.2851
18540SOL    HW157061   7.882   2.582   9.642  0.4551  0.0303 -0.2350
18540SOL    HW257062   7.843   2.505   9.517  0.3269 -0.6629  0.2238
18541SOL     OW57063   6.182   2.088   9.565 -0.4286  0.0458 -0.4183
18541SOL    HW157064   6.236   2.158   9.602 -0.3839  0.0617 -0.5139
18541SOL    HW257065   6.119   2.068   9.635 -0.8048  0.5784 -0.5970
18542SOL     OW57066   7.133   3.009   9.202  0.0763 -0.1079 -0.0772
18542SOL    HW157067   7.135   2.943   9.134 -0.4734  0.3844 -0.5756
18542SOL    HW257068   7.200   2.980   9.265 -0.8802 -1.6918  0.2599
18543SOL     OW57069   6.729   0.428  10.656  0.2645  0.1991  0.1621
18543SOL    HW157070   6.664   0.358  10.658 -0.5916  0.9609  2.2661
18543SOL    HW257071   6.810   0.388  10.688 -0.0045 -0.0144  0.5764
18544SOL     OW57072   7.584   2.856  11.265  0.5289 -0.1421 -0.3741
18544SOL    HW157073   7.503   2.855  11.214  1.2196  0.8781 -1.5169
18544SOL    HW257074   7.652   2.883  11.204  1.7133 -0.7207  0.6298
18545SOL     OW57075   6.940   1.659   9.151  0.3014  0.1928 -0.3426
18545SOL    HW157076   6.948   1.588   9.087  1.2113  1.0831 -1.2579
18545SOL    HW257077   7.030   1.677   9.177  0.0134  0.5350  0.4190
18546SOL     OW57078   5.729   1.086  10.963 -0.0067 -0.3149 -1.0177
18546SOL    HW157079   5.719   1.165  11.015 -0.8881 -0.5613 -0.8000
18546SOL    HW257080   5.794   1.109  10.896  1.8574 -0.2832  0.7015
18547SOL     OW57081   6.368   2.460   9.987  0.0962  0.6226 -0.4774
18547SOL    HW157082   6.401   2.501  10.066  2.8564  0.1207 -1.2582
18547SOL    HW257083   6.340   2.533   9.932  0.2407  1.1253  0.1093
18548SOL     OW57084   7.610   1.378  11.998 -0.3663 -0.2356  0.4015
18548SOL    HW157085   7.576   1.456  11.955  0.9735 -0.2790 -0.8053
18548SOL    HW257086   7.547   1.309  11.976  0.3124 -0.2635 -1.5758
18549SOL     OW57087   5.610   0.293  11.083  0.5252  0.2248 -0.0858
18549SOL    HW157088   5.669   0.341  11.024  0.3536  0.4832 -0.0511
18549SOL    HW257089   5.655   0.294  11.167  0.6402  0.0990 -0.1442
18550SOL     OW57090   5.520   0.061  10.644  0.0433 -0.0947  0.1766
18550SOL    HW157091   5.492   0.031  10.730  0.7026 -1.9712 -0.2170
18550SOL    HW257092   5.545  -0.019  10.597  0.2232  0.9296 -1.5690
18551SOL     OW57093   7.637   1.767  10.851  0.1778 -0.1570 -0.0468
18551SOL    HW157094   7.637   1.803  10.940 -0.1631  1.7896 -0.7821
18551SOL    HW257095   7.646   1.844  10.794 -2.7885 -0.9476 -1.8365
18552SOL     OW57096   0.126   2.490  11.570 -0.3134 -0.4973  0.4170
18552SOL    HW157097   0.217   2.459  11.564 -1.0334 -2.8170  0.8141
18552SOL    HW257098   0.116   2.546  11.493  1.5903  0.2326  0.6436
18553SOL     OW57099   5.675   2.026  12.284 -0.1357  0.7383 -0.4974
18553SOL    HW157100   5.599   2.077  12.316  0.6808  1.7442 -0.0966
18553SOL    HW257101   5.647   1.994  12.199 -1.5273 -0.0801  0.2145
18554SOL     OW57102   7.911   0.995  11.332 -0.8953  0.3389 -0.1316
18554SOL    HW157103   7.985   0.935  11.326 -0.4990  0.8262 -0.2058
18554SOL    HW257104   7.895   1.022  11.241  0.2592  1.9252  0.0984
18555SOL     OW57105   6.362   1.688  10.342 -0.3127  0.4820 -0.3065
18555SOL    HW157106   6.432   1.649  10.395 -1.4936 -3.5362 -1.3743
18555SOL    HW257107   6.281   1.660  10.384 -1.2555 -1.0903 -2.9117
18556SOL     OW57108   4.912   2.523  12.086 -0.3640 -0.3628  0.1183
18556SOL    HW157109   4.939   2.538  12.176 -2.5234 -1.2105  0.9523
18556SOL    HW257110   4.841   2.460  12.091 -1.3476  0.4342 -2.0708
18557SOL     OW57111   0.208   1.377   0.558  0.2071  0.2041  0.0782
18557SOL    HW157112   0.150   1.314   0.601 -0.2244 -0.0400 -0.8392
18557SOL    HW257113   0.273   1.399   0.625  0.4909 -1.3590  0.3680
18558SOL     OW57114   7.141   1.358  12.017 -0.0361  0.1288 -0.1499
18558SOL    HW157115   7.101   1.396  11.939 -0.4398 -1.8835 -0.9847
18558SOL    HW257116   7.179   1.276  11.987  0.4489 -0.3491  1.6333
18559SOL     OW57117   6.382   2.234  10.319  0.0142  0.0442 -0.4471
18559SOL    HW157118   6.304   2.229  10.263 -0.6806  1.5807  0.3136
18559SOL    HW257119   6.420   2.319  10.300  1.4739 -0.6538 -0.7232
18560SOL     OW57120   6.145   1.389  12.182 -0.0698 -0.0792  0.1234
18560SOL    HW157121   6.182   1.468  12.221  0.2982 -0.0433 -0.2907
18560SOL    HW257122   6.175   1.318  12.239 -0.9919  0.1337  0.9112
18561SOL     OW57123   7.702   0.047  11.616 -0.1861 -0.2189 -0.4892
18561SOL    HW157124   7.646  -0.029  11.601  1.1309 -1.3051 -0.0640
18561SOL    HW257125   7.697   0.062  11.710  0.0114 -0.1319 -0.4939
18562SOL     OW57126   6.798   6.986  10.145 -0.2442 -0.4845  0.1705
18562SOL    HW157127   6.723   7.029  10.103  0.4094  0.0288 -0.4848
18562SOL    HW257128   6.853   7.058  10.175 -2.0779 -0.6430  4.7278
18563SOL     OW57129   0.317   1.247  10.745 -0.2355 -0.4261 -0.2047
18563SOL    HW157130   0.335   1.292  10.827 -1.3793  1.0085 -0.6888
18563SOL    HW257131   0.256   1.177  10.769 -2.1022  1.1670 -0.0324
18564SOL     OW57132   7.182   3.517  10.747  0.1036 -0.1099  0.0311
18564SOL    HW157133   7.261   3.499  10.695 -0.0208  2.0184 -0.9772
18564SOL    HW257134   7.134   3.434  10.746  2.2319 -1.4388  0.5773
18565SOL     OW57135   5.316   1.451  11.248 -0.0718  0.2242  0.3094
18565SOL    HW157136   5.290   1.383  11.310 -1.9113 -0.6656 -1.3186
18565SOL    HW257137   5.260   1.525  11.269 -1.1000 -0.2661 -0.5397
18566SOL     OW57138   7.283   1.167  11.622  0.1069 -0.0814 -0.1393
18566SOL    HW157139   7.371   1.193  11.595  0.3020 -0.4106  0.1738
18566SOL    HW257140   7.225   1.224  11.571  0.5193  1.7709  1.3713
18567SOL     OW57141   5.618   1.742  10.941  0.3347 -0.7599  0.0020
18567SOL    HW157142   5.677   1.689  10.887  1.3469  0.4568 -0.1412
18567SOL    HW257143   5.564   1.678  10.987 -0.3012 -1.8379 -2.1406
18568SOL     OW57144   6.182   0.963  11.754 -0.2239  0.1605  0.3440
18568SOL    HW157145   6.098   0.916  11.751  0.3814 -1.0220  1.2302
18568SOL    HW257146   6.157   1.056  11.748 -1.4767 -0.2246 -0.9227
18569SOL     OW57147   0.114   1.143   1.483  0.3915 -0.0493  0.6945
18569SOL    HW157148   0.121   1.199   1.561  0.9424  1.1383 -0.1679
18569SOL    HW257149   0.055   1.192   1.425  1.3437 -0.0652 -0.3144
18570SOL     OW57150   5.507   1.235  10.101  0.1512  0.4414  0.1290
18570SOL    HW157151   5.460   1.283  10.169 -0.4367  0.9379 -0.6106
18570SOL    HW257152   5.438   1.201  10.044  0.5388 -1.3498  0.6550
18571SOL     OW57153   6.242   1.495   0.416  0.5400 -0.1616  0.2653
18571SOL    HW157154   6.186   1.447   0.477  0.4011  0.5139  0.6809
18571SOL    HW257155   6.323   1.444   0.412 -0.2929 -1.4583 -0.7890
18572SOL     OW57156   0.008   1.562   0.564 -0.1866  0.3997  0.0979
18572SOL    HW157157   0.096   1.535   0.537 -0.1584  0.6413 -0.0575
18572SOL    HW257158   0.013   1.570   0.659  0.0355  0.6725  0.0669
18573SOL     OW57159   0.615   1.784  12.351  0.0445  0.2784 -0.0315
18573SOL    HW157160   0.663   1.859  12.385 -2.4522  2.3083 -0.6134
18573SOL    HW257161   0.546   1.768  12.416  0.3122 -1.3515 -0.0931
18574SOL     OW57162   5.338   0.578  10.317  0.7616 -0.0385 -0.1636
18574SOL    HW157163   5.386   0.651  10.278 -0.1177  1.0356  0.6841
18574SOL    HW257164   5.383   0.560  10.399  1.9064 -1.5135 -1.0776
18575SOL     OW57165   7.895   1.591  12.336  0.5757  0.4474  0.6630
18575SOL    HW157166   7.822   1.531  12.320  1.7935 -0.3735 -2.7325
18575SOL    HW257167   7.853   1.675  12.354 -1.2385 -0.2137 -0.2201
18576SOL     OW57168   5.899   1.141   0.404  0.4202  0.0264  0.3196
18576SOL    HW157169   5.916   1.149   0.310  1.2612 -1.6506  0.2940
18576SOL    HW257170   5.979   1.171   0.446 -0.5690  2.4894  0.6287
18577SOL     OW57171   6.625   1.036  10.659  0.5579 -0.4590 -0.0666
18577SOL    HW157172   6.578   1.036  10.742  0.0529 -1.2767 -0.3408
18577SOL    HW257173   6.579   0.971  10.605  0.3493  0.6435 -1.2821
18578SOL     OW57174   6.762   1.271  11.300 -0.0782 -0.2865 -0.0336
18578SOL    HW157175   6.754   1.176  11.286  0.2749 -0.2430 -0.5749
18578SOL    HW257176   6.776   1.307  11.212  0.9016  0.1576  0.2865
18579SOL     OW57177   4.780   0.581  12.230  0.0219  0.1952 -0.4892
18579SOL    HW157178   4.864   0.593  12.186  1.1584  1.4874  1.8365
18579SOL    HW257179   4.719   0.634  12.180  0.6944 -0.2438 -1.8450
18580SOL     OW57180   6.881   1.422  12.194  0.3024 -0.5434  0.2632
18580SOL    HW157181   6.903   1.404  12.102 -3.5552 -3.3008 -0.3427
18580SOL    HW257182   6.917   1.347  12.242  1.7784  0.5899  1.0025
18581SOL     OW57183   6.906   1.413   0.135  0.1857  0.0670 -0.5148
18581SOL    HW157184   6.925   1.327   0.173  0.4500 -0.1571 -1.1408
18581SOL    HW257185   6.828   1.443   0.181 -0.5771 -1.0034 -1.0743
18582SOL     OW57186   7.053   0.131  10.144 -0.1859  0.3724 -0.0726
18582SOL    HW157187   7.061   0.214  10.099 -1.2920  0.2951 -0.4380
18582SOL    HW257188   6.977   0.142  10.202 -0.5177 -0.4675 -0.3352
18583SOL     OW57189   6.707   1.773   0.073  0.2682 -0.4758 -0.0972
18583SOL    HW157190   6.665   1.859   0.077 -1.0859 -1.1405  0.9951
18583SOL    HW257191   6.757   1.775  -0.009  1.6161  1.9115  0.6707
18584SOL     OW57192   6.586   3.648  10.754 -0.1898  0.6476  0.0977
18584SOL    HW157193   6.497   3.655  10.790 -0.2562  0.0774  0.0460
18584SOL    HW257194   6.633   3.596  10.819  0.0003  0.6107 -0.0721
18585SOL     OW57195   6.582   0.933  11.031 -1.1271 -0.5812  0.2085
18585SOL    HW157196   6.516   0.958  10.966 -1.2472 -0.3777  0.4059
18585SOL    HW257197   6.665   0.937  10.984 -1.3963 -2.4642 -0.5210
18586SOL     OW57198   5.875   1.526  10.989 -0.1584  0.7806  0.3511
18586SOL    HW157199   5.875   1.575  10.907 -0.8876  1.2614  0.6286
18586SOL    HW257200   5.928   1.579  11.048 -0.7392  1.1231  0.5768
18587SOL     OW57201   6.903   0.382  11.266  0.0967 -0.4061  0.0596
18587SOL    HW157202   6.865   0.315  11.323  1.0450 -1.0359 -0.0267
18587SOL    HW257203   6.997   0.365  11.267  0.0846 -0.9766 -2.3501
18588SOL     OW57204   5.609   1.195   9.517 -1.0361  0.2092  0.0684
18588SOL    HW157205   5.560   1.230   9.592 -2.2946 -0.5596 -0.3597
18588SOL    HW257206   5.557   1.220   9.441 -1.2127 -1.3247 -0.3454
18589SOL     OW57207   7.516   1.767   0.847 -0.0908 -0.0173 -0.5851
18589SOL    HW157208   7.545   1.757   0.938 -2.8030  1.3910  0.5591
18589SOL    HW257209   7.460   1.692   0.831 -4.7368  2.6002  1.3061
18590SOL     OW57210   6.261   1.744  10.879 -0.0584 -0.8769 -0.5195
18590SOL    HW157211   6.280   1.764  10.787  1.6148  0.1225  0.0043
18590SOL    HW257212   6.343   1.759  10.924 -1.1671 -0.1436  1.3476
18591SOL     OW57213   7.096   7.590  11.660 -0.2098 -1.0713  0.4000
18591SOL    HW157214   7.010   7.620  11.632 -0.1823 -0.6883  0.7277
18591SOL    HW257215   7.085   7.568  11.752  0.1050 -0.7708  0.5118
18592SOL     OW57216   6.248   1.505   0.021  0.1800  0.9363  0.4648
18592SOL    HW157217   6.247   1.553  -0.061  0.2232 -2.1971 -1.5481
18592SOL    HW257218   6.165   1.459   0.024  1.2042 -1.0281  0.7872
18593SOL     OW57219   5.157   1.330   9.902 -0.5927 -0.2577  0.0233
18593SOL    HW157220   5.176   1.279   9.823 -0.8282 -2.0817  1.1000
18593SOL    HW257221   5.071   1.299   9.930  0.3348 -1.1072  2.0771
18594SOL     OW57222   5.635   0.290  10.599  0.1074 -0.3727  0.0470
18594SOL    HW157223   5.706   0.254  10.546  0.6230  1.3849 -0.5229
18594SOL    HW257224   5.590   0.213  10.634  0.8078 -1.5720 -1.5413
18595SOL     OW57225   6.350   0.579  11.280  0.2760 -0.0864  0.1259
18595SOL    HW157226   6.443   0.590  11.259  0.4883 -3.6843 -1.6515
18595SOL    HW257227   6.304   0.619  11.206  0.3196  1.7363  1.0285
18596SOL     OW57228   6.469   1.839  12.170 -0.7098  0.3704  0.2213
18596SOL    HW157229   6.434   1.922  12.202  0.8248  0.4364  1.8514
18596SOL    HW257230   6.422   1.772  12.220 -1.2619  0.2626 -0.4156
18597SOL     OW57231   5.246   0.524  10.723 -0.7000  0.3348  0.1783
18597SOL    HW157232   5.274   0.455  10.783 -2.4561 -1.5413 -1.0375
18597SOL    HW257233   5.313   0.526  10.655 -0.5806 -0.1079  0.2838
18598SOL     OW57234   6.053   0.883  11.349  0.1474  0.2375  0.2263
18598SOL    HW157235   5.990   0.811  11.356 -0.4083  0.8243  1.5865
18598SOL    HW257236   6.002   0.962  11.366  1.0343  0.8215  0.2447
18599SOL     OW57237   0.089   1.450  10.782  0.7400 -0.4231  0.0320
18599SOL    HW157238   0.156   1.466  10.849  0.7146  1.4307 -0.3299
18599SOL    HW257239   0.008   1.484  10.821 -0.1948 -3.2347  0.7246
18600SOL     OW57240   5.272   7.929  11.610 -0.1760 -0.5214 -0.2706
18600SOL    HW157241   5.205   7.916  11.543 -2.2516  0.8091  1.4540
18600SOL    HW257242   5.273   8.024  11.625 -0.4528 -0.8696  2.2228
18601SOL     OW57243   7.149   1.712  10.998  0.1152  0.3184 -0.0029
18601SOL    HW157244   7.170   1.745  10.910  0.1187 -0.9454 -0.5004
18601SOL    HW257245   7.117   1.623  10.983  0.2859  0.0199  1.2958
18602SOL     OW57246   7.961   2.252   0.037  0.2625 -0.7400 -0.0258
18602SOL    HW157247   7.897   2.317   0.068 -1.3036 -1.7206 -1.1005
18602SOL    HW257248   8.012   2.299  -0.028 -1.0760 -0.6328 -1.0368
18603SOL     OW57249   5.046   0.619   0.116  0.3799 -0.2191  0.2991
18603SOL    HW157250   5.123   0.655   0.071 -0.4650  1.7202  0.3232
18603SOL    HW257251   5.056   0.648   0.206  0.0598 -0.7280  0.5026
18604SOL     OW57252   7.768   2.696  11.623  0.2773  0.0272  0.4058
18604SOL    HW157253   7.694   2.635  11.633  0.8262 -0.6405  0.4585
18604SOL    HW257254   7.734   2.766  11.567 -0.5096 -0.0781  0.7407
18605SOL     OW57255   7.878   7.573  12.443  0.2440  0.0112 -0.6635
18605SOL    HW157256   7.814   7.563  12.372  0.3126 -1.4139 -0.5403
18605SOL    HW257257   7.870   7.665  12.469 -0.1752  0.4325 -2.1383
18606SOL     OW57258   5.826   7.970  12.164 -0.2322 -0.1209 -0.4070
18606SOL    HW157259   5.809   7.877  12.152  0.3602 -0.5089  1.5094
18606SOL    HW257260   5.905   7.986  12.113  0.6178 -1.0536  0.5836
18607SOL     OW57261   6.265   1.620   9.519 -0.1412 -0.5262  0.0486
18607SOL    HW157262   6.237   1.710   9.504 -0.4071 -0.8820 -1.8250
18607SOL    HW257263   6.316   1.624   9.600 -0.7057  1.1739  0.3601
18608SOL     OW57264   6.937   0.243  11.977 -0.5302  0.1853  0.0742
18608SOL    HW157265   6.913   0.155  12.008 -0.2311 -0.8675 -2.4252
18608SOL    HW257266   6.854   0.282  11.951 -0.5203  0.1566  0.0003
18609SOL     OW57267   6.038   0.557  11.062  0.0590  0.1438  0.0588
18609SOL    HW157268   6.007   0.556  11.152 -1.5154  2.3366 -0.3845
18609SOL    HW257269   6.086   0.640  11.054  0.2051 -0.0355 -1.1132
18610SOL     OW57270   0.728   1.425   0.309 -0.0724  0.1765 -0.0374
18610SOL    HW157271   0.678   1.414   0.229 -0.7788  1.4494  0.2027
18610SOL    HW257272   0.699   1.353   0.366  1.0993 -1.2877 -1.2018
18611SOL     OW57273   6.067   1.361  11.295 -0.2558 -0.5323  0.5630
18611SOL    HW157274   6.027   1.448  11.297  2.5435  0.8683  1.0205
18611SOL    HW257275   6.098   1.351  11.205  0.1317 -0.7010  0.7125
18612SOL     OW57276   7.522   2.538  10.529 -0.2248 -0.8088  0.0338
18612SOL    HW157277   7.576   2.480  10.476  0.4665  0.5363 -0.7924
18612SOL    HW257278   7.580   2.569  10.599  1.3163  3.2400 -2.7003
18613SOL     OW57279   6.328   0.277  11.584 -0.5617  0.0252  0.3047
18613SOL    HW157280   6.299   0.277  11.493 -1.4694 -0.2351  0.5868
18613SOL    HW257281   6.258   0.320  11.633 -0.7812 -1.1315  1.0777
18614SOL     OW57282   6.517   7.867  10.721  0.3459  0.4575  0.1451
18614SOL    HW157283   6.592   7.872  10.662 -0.7878  1.4400 -1.3000
18614SOL    HW257284   6.447   7.831  10.666  0.0917 -1.9057  1.8607
18615SOL     OW57285   5.537   2.422   1.091 -0.1988  0.6053  0.3883
18615SOL    HW157286   5.581   2.346   1.130 -1.1423 -0.8643 -1.2616
18615SOL    HW257287   5.589   2.497   1.120  0.8070 -0.6556  2.0391
18616SOL     OW57288   7.003   2.799  10.368  0.2126  0.1363 -0.6356
18616SOL    HW157289   6.927   2.742  10.357  0.8842 -1.0186  0.4571
18616SOL    HW257290   7.058   2.782  10.292  0.2430 -0.4381 -0.4916
18617SOL     OW57291   6.603   1.161  10.183 -0.1225  0.6368  0.1049
18617SOL    HW157292   6.603   1.210  10.100 -0.5844 -0.3136 -0.4772
18617SOL    HW257293   6.512   1.134  10.194 -0.1215  1.0188  1.0972
18618SOL     OW57294   6.606   0.677   0.320 -0.3566 -0.2226  0.2825
18618SOL    HW157295   6.608   0.584   0.343  0.2862  0.0335  1.2782
18618SOL    HW257296   6.667   0.685   0.246 -2.6366 -1.0912 -1.8444
18619SOL     OW57297   7.615   0.476  10.734 -0.2855  0.2979  0.3264
18619SOL    HW157298   7.660   0.391  10.726  1.5196  1.2167  0.2566
18619SOL    HW257299   7.662   0.533  10.673 -1.5509  1.3338  0.2967
18620SOL     OW57300   6.218   1.681  12.014 -0.3124 -0.0093  0.4305
18620SOL    HW157301   6.173   1.602  11.982  1.7319 -0.6334 -1.1623
18620SOL    HW257302   6.148   1.739  12.043 -2.0159 -1.5584 -0.4038
18621SOL     OW57303   6.629   1.308  12.015 -0.6194  0.1555  0.5922
18621SOL    HW157304   6.621   1.333  12.107 -2.7211 -0.5721  0.6494
18621SOL    HW257305   6.539   1.301  11.984  0.0439 -0.0541 -1.4103
18622SOL     OW57306   0.040   1.245  12.389  0.2899  0.3651  0.1722
18622SOL    HW157307   0.077   1.321  12.345 -0.6618 -0.2249 -1.7544
18622SOL    HW257308   0.040   1.176  12.323 -1.6282 -0.4415  0.9217
18623SOL     OW57309   6.988   7.644  11.134  0.4282  0.0621  0.4989
18623SOL    HW157310   6.950   7.577  11.077  0.7554  0.2879  0.0123
18623SOL    HW257311   6.917   7.707  11.148 -0.1370 -0.7806  1.6139
18624SOL     OW57312   6.801   1.945  12.066 -0.4715  0.0961 -0.8856
18624SOL    HW157313   6.766   1.966  11.980 -0.8232 -1.1352 -1.0684
18624SOL    HW257314   6.859   1.870  12.050 -0.8860 -0.4272  0.0074
18625SOL     OW57315   6.271   1.270  11.454 -0.6058 -0.2795  0.0567
18625SOL    HW157316   6.214   1.324  11.400  2.5217  0.2967 -3.0529
18625SOL    HW257317   6.265   1.183  11.414 -1.6216 -1.0073  1.7152
18626SOL     OW57318   6.246   0.636  11.823  0.0484  0.3323  0.2128
18626SOL    HW157319   6.274   0.585  11.899 -2.4543  0.5012  1.3398
18626SOL    HW257320   6.156   0.609  11.807 -0.1826  1.8429 -1.3972
18627SOL     OW57321   7.893   1.117   0.243  0.1992  0.1119 -0.5264
18627SOL    HW157322   7.979   1.099   0.280 -0.2483  0.0220  0.4927
18627SOL    HW257323   7.861   1.032   0.213 -0.3682 -0.2240  0.9448
18628SOL     OW57324   6.007   0.165  11.297 -0.0184 -0.2701 -0.1155
18628SOL    HW157325   6.084   0.130  11.342  0.3461 -0.3190 -0.7667
18628SOL    HW257326   5.951   0.089  11.283 -0.6580 -0.0827  1.2445
18629SOL     OW57327   6.409   6.838  11.776  0.4397 -0.0038  0.2380
18629SOL    HW157328   6.377   6.752  11.804  0.3227  0.5985  2.0409
18629SOL    HW257329   6.366   6.853  11.692 -0.6820 -1.0795  0.5932
18630SOL     OW57330   6.822   6.836  11.321  0.0255 -0.5007 -0.3286
18630SOL    HW157331   6.786   6.841  11.409  0.8470  0.0494 -0.0219
18630SOL    HW257332   6.916   6.822  11.333  0.1873 -0.1580 -1.1117
18631SOL     OW57333   6.993   1.249  12.364 -0.3228  0.1799 -0.2047
18631SOL    HW157334   6.968   1.176  12.421 -2.0280  0.0103 -1.0888
18631SOL    HW257335   7.016   1.320  12.424 -0.7073 -0.4280  0.6836
18632SOL     OW57336   7.994   1.805  11.590  0.0633  0.0600 -0.4450
18632SOL    HW157337   7.959   1.877  11.641  0.2505 -0.0017 -0.2289
18632SOL    HW257338   8.055   1.845  11.528  0.1943  0.0847 -0.3008
18633SOL     OW57339   7.285   0.560  12.455  0.3731  0.1827 -0.1327
18633SOL    HW157340   7.291   0.653  12.477 -1.4554  0.5279 -0.9125
18633SOL    HW257341   7.376   0.532  12.449  1.1245  2.6117 -2.5352
18634SOL     OW57342   7.007   0.536  10.319 -0.4231 -0.1182 -0.0994
18634SOL    HW157343   7.035   0.601  10.255 -2.3851  0.1637 -0.7561
18634SOL    HW257344   7.087   0.491  10.345  0.6891  1.1280 -1.2290
18635SOL     OW57345   0.278   1.623   0.732  0.1572  0.0727 -0.0702
18635SOL    HW157346   0.296   1.715   0.753  0.2627  0.2969 -1.0711
18635SOL    HW257347   0.184   1.612   0.750 -0.7031  1.3369 -3.0245
18636SOL     OW57348   4.890   0.731  11.898 -0.3388  0.0377 -0.0767
18636SOL    HW157349   4.939   0.677  11.959  0.7602  1.5690  0.4686
18636SOL    HW257350   4.948   0.739  11.822 -1.4683 -1.4109 -1.1331
18637SOL     OW57351   7.664   1.226  10.761 -0.1513 -0.6326  0.7932
18637SOL    HW157352   7.743   1.254  10.714 -0.9278  0.0125 -0.1718
18637SOL    HW257353   7.633   1.149  10.712 -0.6017 -0.3545  0.6348
18638SOL     OW57354   0.187   2.122   0.125 -0.1023 -0.0168 -1.2448
18638SOL    HW157355   0.116   2.180   0.096 -0.1965  0.6934  0.2860
18638SOL    HW257356   0.148   2.035   0.123 -0.8857  0.3093 -0.8898
18639SOL     OW57357   5.725   2.564  11.918 -0.1281 -0.3712 -0.5655
18639SOL    HW157358   5.732   2.513  11.998 -1.3091  0.9568  0.4450
18639SOL    HW257359   5.797   2.627  11.923  0.6879 -1.2103 -1.2997
18640SOL     OW57360   4.174   1.963  12.277  0.1080 -0.8503  0.2646
18640SOL    HW157361   4.247   2.012  12.239 -0.1067  0.6891  1.7166
18640SOL    HW257362   4.108   1.961  12.208 -0.6398  2.6617  0.6608
18641SOL     OW57363   6.019   0.563  11.701  0.0696  0.1720 -0.2515
18641SOL    HW157364   6.065   0.545  11.619  0.5435  0.6724 -0.0995
18641SOL    HW257365   6.000   0.477  11.737  0.7642 -0.0428 -0.3826
18642SOL     OW57366   3.639   0.759   0.237 -0.7326 -0.5082 -0.5552
18642SOL    HW157367   3.725   0.769   0.277 -1.8829  1.2184  1.6766
18642SOL    HW257368   3.618   0.846   0.203 -2.0941 -0.5662  0.0613
18643SOL     OW57369   7.533   1.277  11.586 -0.1821 -0.1076 -0.0785
18643SOL    HW157370   7.535   1.373  11.578  1.0341 -0.1881 -1.1184
18643SOL    HW257371   7.613   1.255  11.633  0.0398 -0.6743 -0.7104
18644SOL     OW57372   5.871   2.728   1.552 -0.1469 -0.4012 -0.2428
18644SOL    HW157373   5.805   2.666   1.584 -1.1619 -0.1395 -1.7232
18644SOL    HW257374   5.823   2.810   1.540  0.0493 -0.5971 -2.7999
18645SOL     OW57375   7.014   7.833   0.148  0.2966  0.1318  0.2789
18645SOL    HW157376   7.050   7.820   0.236  0.1028 -0.8883  0.2105
18645SOL    HW257377   6.927   7.872   0.163  0.5119  0.5371  0.5071
18646SOL     OW57378   6.952   1.723  12.024  0.3237  0.0909  0.2547
18646SOL    HW157379   7.014   1.722  11.952  0.4660 -0.0232  0.3788
18646SOL    HW257380   6.887   1.657  12.001 -0.1631  0.7230 -0.2331
18647SOL     OW57381   7.578   0.854   0.349  0.3594  0.4415 -0.3164
18647SOL    HW157382   7.619   0.779   0.307  1.8282  0.7538  0.4710
18647SOL    HW257383   7.547   0.909   0.277 -0.8205 -0.9149 -0.9051
18648SOL     OW57384   6.885   1.162  11.600  0.3029 -0.4514 -0.0579
18648SOL    HW157385   6.883   1.145  11.694  0.1426  0.3122  0.0857
18648SOL    HW257386   6.866   1.078  11.559  2.2328 -1.2265  0.5506
18649SOL     OW57387   7.397   1.039   0.717  0.0131  0.3314 -0.6615
18649SOL    HW157388   7.408   1.077   0.804 -3.6138  1.0184 -0.3388
18649SOL    HW257389   7.421   1.109   0.657  0.8936  0.4391 -0.1918
18650SOL     OW57390   5.651   1.026   0.383 -0.2622 -0.0960  0.5611
18650SOL    HW157391   5.726   1.085   0.375 -0.3397 -0.0902 -0.2288
18650SOL    HW257392   5.669   0.974   0.461  1.4420 -1.3006 -0.5589
18651SOL     OW57393   5.238   1.129  11.128  0.2325 -0.3313  0.5242
18651SOL    HW157394   5.224   1.217  11.095 -1.6108  0.3865  2.9107
18651SOL    HW257395   5.313   1.096  11.079 -0.9246  1.3583 -2.6237
18652SOL     OW57396   0.102   0.651  12.342 -0.0930  0.3458  0.0852
18652SOL    HW157397   0.104   0.567  12.388  0.2701  1.0648  1.4229
18652SOL    HW257398   0.013   0.684  12.355  0.2331  0.9025  0.9359
18653SOL     OW57399   7.043   0.801  10.894 -0.6084  0.0523 -0.5914
18653SOL    HW157400   7.017   0.713  10.920  1.3782 -0.6709 -0.8226
18653SOL    HW257401   7.138   0.796  10.883 -0.3433  2.3695 -0.0687
18654SOL     OW57402   6.275   7.846  10.052 -0.4572  0.2934 -0.2005
18654SOL    HW157403   6.248   7.927  10.008 -0.8529 -0.6429 -1.7481
18654SOL    HW257404   6.237   7.776   9.999 -0.2958 -0.9199  1.2214
18655SOL     OW57405   7.205   2.377  10.873  0.1560  0.0947  0.0188
18655SOL    HW157406   7.270   2.439  10.907 -0.1244  1.4014 -1.6791
18655SOL    HW257407   7.129   2.431  10.851 -1.1461 -1.2634  0.9787
18656SOL     OW57408   0.268   1.657   1.667  0.6745  0.1626  0.0754
18656SOL    HW157409   0.345   1.617   1.709  1.1315  0.9065 -0.0452
18656SOL    HW257410   0.195   1.603   1.696  1.1884 -0.3103  0.5257
18657SOL     OW57411   7.354   0.277   0.272 -0.2342  0.1953  0.0414
18657SOL    HW157412   7.318   0.204   0.323 -1.4980  1.4803  1.0620
18657SOL    HW257413   7.391   0.336   0.337  0.4980  0.6282 -0.7475
18658SOL     OW57414   6.395   6.627  10.110  0.1184 -0.3503  0.0731
18658SOL    HW157415   6.466   6.686  10.086  0.1884 -0.3525  0.2743
18658SOL    HW257416   6.321   6.655  10.055 -0.2357  0.7560  1.0575
18659SOL     OW57417   0.678   1.684  11.422 -0.3444 -0.0235 -0.5675
18659SOL    HW157418   0.651   1.593  11.412 -1.3203  0.0344  1.1837
18659SOL    HW257419   0.769   1.685  11.393 -0.4531 -1.4563 -1.0427
18660SOL     OW57420   4.754   1.800  12.200 -0.3009 -0.0510 -0.1748
18660SOL    HW157421   4.668   1.837  12.216  0.0005  0.2392  0.8927
18660SOL    HW257422   4.743   1.743  12.125 -1.3864  0.1053 -0.1422
18661SOL     OW57423   7.354   1.952   0.576  0.0632  0.5196 -0.5236
18661SOL    HW157424   7.309   2.033   0.551  0.6081  0.7005 -0.9370
18661SOL    HW257425   7.384   1.915   0.493 -0.5067 -0.3054 -0.3747
18662SOL     OW57426   5.452   1.312  12.063 -1.0836  0.5744  0.0880
18662SOL    HW157427   5.376   1.282  12.113 -0.5905 -0.0073  0.5085
18662SOL    HW257428   5.528   1.282  12.114 -0.5546 -0.4916 -1.2564
18663SOL     OW57429   1.404   1.434   0.349  0.4631 -0.7310 -0.1651
18663SOL    HW157430   1.329   1.469   0.399  1.0332 -0.0484  0.2391
18663SOL    HW257431   1.464   1.509   0.342  0.5557 -0.9245 -1.5711
18664SOL     OW57432   6.056   2.636  11.578  0.3822 -0.4375 -0.0278
18664SOL    HW157433   5.990   2.695  11.614  1.1332  0.9806 -0.8636
18664SOL    HW257434   6.135   2.657  11.628  0.4021 -1.5697  0.4392
18665SOL     OW57435   6.512   1.750  11.599 -0.0758 -0.1991 -0.0217
18665SOL    HW157436   6.518   1.845  11.595 -0.4333 -0.1392  0.6334
18665SOL    HW257437   6.590   1.718  11.554 -0.6214  0.3796 -1.4235
18666SOL     OW57438   5.394   0.366  12.029  0.2347  0.5116  0.0675
18666SOL    HW157439   5.303   0.392  12.041 -0.3426 -0.8645 -1.1182
18666SOL    HW257440   5.420   0.331  12.114 -0.1016  1.5544  0.6143
18667SOL     OW57441   6.562   0.231  10.667  0.9901  0.3708  0.0039
18667SOL    HW157442   6.547   0.168  10.737 -1.6083  1.4637  0.5374
18667SOL    HW257443   6.512   0.197  10.593  0.1011  1.4161  0.0965
18668SOL     OW57444   1.190   1.237   0.180 -0.4595 -0.2737  0.1423
18668SOL    HW157445   1.177   1.309   0.243 -2.2158 -1.3610  1.0957
18668SOL    HW257446   1.125   1.253   0.112  0.7525  0.3200 -0.9299
18669SOL     OW57447   7.485   0.365  11.790  0.0966  0.1806  0.1333
18669SOL    HW157448   7.576   0.369  11.760  0.4296 -0.2602  1.0391
18669SOL    HW257449   7.437   0.419  11.728  0.9618  0.3365 -0.4214
18670SOL     OW57450   7.940   0.202  12.486 -0.0231  0.1072  0.1784
18670SOL    HW157451   7.916   0.247  12.567 -0.4278 -1.3391  0.8916
18670SOL    HW257452   7.914   0.111  12.500 -1.1101  0.0125 -1.9955
18671SOL     OW57453   7.191   3.137  11.043 -0.5063  0.3944 -0.5046
18671SOL    HW157454   7.242   3.205  10.999 -0.8376  0.7978 -0.2800
18671SOL    HW257455   7.139   3.097  10.974 -0.3216  0.3828 -0.6376
18672SOL     OW57456   5.058   7.947  11.441 -0.5622 -0.2287 -0.2220
18672SOL    HW157457   5.026   7.868  11.398 -0.0833  0.8616 -2.7449
18672SOL    HW257458   4.980   7.988  11.478 -1.2253 -0.5476 -1.2370
18673SOL     OW57459   7.045   0.658   0.982 -0.1239 -0.2344  0.0612
18673SOL    HW157460   7.111   0.671   0.914 -2.9291  0.6324 -2.7485
18673SOL    HW257461   6.986   0.592   0.946 -1.3652 -0.2632  1.9852
18674SOL     OW57462   7.388   2.433  10.205 -0.3885  0.2901 -0.0672
18674SOL    HW157463   7.352   2.466  10.123  0.1906 -0.0383 -0.4592
18674SOL    HW257464   7.482   2.423  10.189 -0.4669 -1.1463  0.1551
18675SOL     OW57465   6.287   7.344  10.179  0.1929 -0.3691 -0.2669
18675SOL    HW157466   6.320   7.357  10.090  0.4258 -1.8290 -0.4177
18675SOL    HW257467   6.191   7.344  10.169  0.2186 -0.5646 -0.5250
18676SOL     OW57468   6.683   1.752  10.192 -0.0615 -0.1291  0.0085
18676SOL    HW157469   6.675   1.684  10.259  1.2569 -0.0359  0.2827
18676SOL    HW257470   6.665   1.834  10.239  0.8161 -0.0684  0.2592
18677SOL     OW57471   7.874   2.101   0.409 -0.1827  0.0723 -0.7868
18677SOL    HW157472   7.800   2.159   0.425 -0.0976 -0.5745  2.5819
18677SOL    HW257473   7.951   2.151   0.436 -0.0232 -1.1588  1.2621
18678SOL     OW57474   0.155   2.010  12.160 -0.0580  0.1590  0.2392
18678SOL    HW157475   0.217   2.074  12.196 -0.1790 -0.8743  2.5045
18678SOL    HW257476   0.204   1.927  12.160 -0.7255 -0.2397 -0.1123
18679SOL     OW57477   6.367   0.922  11.961  0.4944 -0.2380 -0.5875
18679SOL    HW157478   6.339   1.010  11.936 -1.2868 -0.8605 -0.9208
18679SOL    HW257479   6.411   0.933  12.045  0.8166  1.0328 -0.9077
18680SOL     OW57480   7.034   0.603  12.390  0.3541 -0.0945  0.2178
18680SOL    HW157481   7.000   0.554  12.315 -0.0915 -1.0439  1.0123
18680SOL    HW257482   7.122   0.568  12.402  0.7368  0.6527 -0.3645
18681SOL     OW57483   6.397   0.536  10.924 -0.2295  0.4260  0.3730
18681SOL    HW157484   6.375   0.446  10.947 -1.7059  0.6421 -0.0852
18681SOL    HW257485   6.457   0.565  10.993  3.4481 -2.0818 -1.4496
18682SOL     OW57486   0.335   1.894   0.750 -0.2573  0.6762 -0.0546
18682SOL    HW157487   0.283   1.890   0.670 -1.4879  0.5294  0.7326
18682SOL    HW257488   0.289   1.957   0.805  1.1884  1.6228  0.1387
18683SOL     OW57489   5.615   2.474  12.171  0.2707 -0.0427 -0.6258
18683SOL    HW157490   5.524   2.496  12.153  0.2819  0.3958 -0.1915
18683SOL    HW257491   5.613   2.428  12.255  0.4452 -0.0154 -0.6052
18684SOL     OW57492   0.133   7.542  12.444 -0.6043 -0.3772 -0.0547
18684SOL    HW157493   0.039   7.550  12.429 -0.2618  1.4402 -1.7435
18684SOL    HW257494   0.171   7.616  12.396  1.6294 -0.5719  1.2723
18685SOL     OW57495   7.543   2.507  12.072  0.5691 -0.4122  0.2396
18685SOL    HW157496   7.628   2.531  12.110  2.0648  0.6174 -3.3640
18685SOL    HW257497   7.551   2.414  12.052  1.7964  0.0768 -1.9342
18686SOL     OW57498   6.502   1.009  11.319  0.0197  0.5846  0.0987
18686SOL    HW157499   6.549   0.974  11.243 -0.0363  1.8723 -0.5547
18686SOL    HW257500   6.418   1.037  11.285 -0.2752  0.5475  0.7828
18687SOL     OW57501   6.556   1.289  10.910  0.1968 -0.1060 -0.1529
18687SOL    HW157502   6.588   1.289  10.820  0.3248 -1.6187 -0.1248
18687SOL    HW257503   6.503   1.210  10.918  0.9316 -0.5018  1.3453
18688SOL     OW57504   7.747   0.234  10.640 -0.8186  0.4437 -1.1652
18688SOL    HW157505   7.776   0.152  10.679 -0.1716  1.0967 -0.2303
18688SOL    HW257506   7.724   0.211  10.550 -0.8659 -0.7950 -0.8543
18689SOL     OW57507   0.726   1.514  11.953  0.4759 -0.1986  0.9846
18689SOL    HW157508   0.776   1.433  11.956 -0.5014 -0.8488  0.4255
18689SOL    HW257509   0.700   1.531  12.043 -0.5140 -1.3098  0.9336
18690SOL     OW57510   3.913   7.868  11.410  0.2945 -0.2323  0.2880
18690SOL    HW157511   3.965   7.904  11.483  2.3911 -0.8685 -0.8085
18690SOL    HW257512   3.954   7.905  11.332  1.2915 -3.3242 -0.7963
18691SOL     OW57513   7.738   2.435  10.721 -0.2686  0.3373  0.0463
18691SOL    HW157514   7.679   2.403  10.790 -0.3239  1.4988  0.5582
18691SOL    HW257515   7.808   2.370  10.718 -1.8318 -1.4065 -0.9842
18692SOL     OW57516   4.599   1.437  11.455  0.2683  0.5132 -0.2584
18692SOL    HW157517   4.546   1.515  11.471  0.6971  0.6121  0.7296
18692SOL    HW257518   4.647   1.423  11.537  0.5229 -0.5349 -0.5740
18693SOL     OW57519   4.699   1.513   0.904  0.3280  0.2835 -0.2338
18693SOL    HW157520   4.605   1.507   0.917 -0.0585  0.3476 -2.5751
18693SOL    HW257521   4.735   1.439   0.953 -0.8688  0.5406  1.0767
18694SOL     OW57522   5.264   3.817   2.443 -0.3785 -0.5647 -0.8581
18694SOL    HW157523   5.306   3.762   2.509 -3.0735 -0.9267  0.6980
18694SOL    HW257524   5.315   3.801   2.363  2.7096 -0.4838  0.9296
18695SOL     OW57525   7.463   2.835   1.781  0.2963  0.6718 -0.4925
18695SOL    HW157526   7.438   2.918   1.740  0.9276  0.3650 -1.5645
18695SOL    HW257527   7.485   2.857   1.871 -1.0802  1.3917 -0.3138
18696SOL     OW57528   7.381   2.545   1.831  0.5065 -0.3391  0.1802
18696SOL    HW157529   7.415   2.634   1.825 -1.9967  0.7263  0.3760
18696SOL    HW257530   7.405   2.505   1.748  1.3959  0.6225 -0.0532
18697SOL     OW57531   0.236   2.640   0.251 -0.5518  0.1760 -0.2287
18697SOL    HW157532   0.213   2.662   0.161 -0.7517 -1.5898 -0.6304
18697SOL    HW257533   0.170   2.577   0.278 -0.2391  0.3585  1.0279
18698SOL     OW57534   6.754   1.427   0.387 -0.1884  0.0960  0.4244
18698SOL    HW157535   6.845   1.411   0.415 -0.4182 -0.3372  0.9441
18698SOL    HW257536   6.750   1.521   0.371  0.7697 -0.0842 -1.1169
18699SOL     OW57537   4.843   0.281   1.853 -0.5320 -0.3561 -0.1571
18699SOL    HW157538   4.935   0.297   1.832 -0.2334 -1.2195  0.4013
18699SOL    HW257539   4.795   0.312   1.777  0.3616 -1.6089 -1.2878
18700SOL     OW57540   6.334   2.345   0.582 -0.1898  0.0467  0.7708
18700SOL    HW157541   6.312   2.390   0.664 -0.2055 -0.7655  1.2255
18700SOL    HW257542   6.428   2.329   0.588  0.1074  1.3313 -0.0682
18701SOL     OW57543   5.971   2.037   2.054  0.0470  0.7093 -0.3520
18701SOL    HW157544   5.990   1.964   1.996  1.3529  1.0712 -0.4078
18701SOL    HW257545   5.997   2.115   2.005  0.8061  1.0461  0.5584
18702SOL     OW57546   7.096   3.270  12.183 -0.1000 -0.7644  0.2723
18702SOL    HW157547   7.169   3.314  12.141 -0.9207  0.0612 -0.3430
18702SOL    HW257548   7.095   3.304  12.273  1.4902 -2.3298  0.9606
18703SOL     OW57549   0.445   2.551   0.763 -0.3765  0.1302  0.1418
18703SOL    HW157550   0.373   2.562   0.824  0.6611  0.1411  1.4223
18703SOL    HW257551   0.409   2.497   0.692 -1.2986 -0.8944  1.3503
18704SOL     OW57552   4.506   4.505   1.311  0.0906  0.2456  0.2576
18704SOL    HW157553   4.562   4.570   1.268  0.8093 -0.0442  0.7335
18704SOL    HW257554   4.525   4.423   1.266  0.6136  0.0022  0.8982
18705SOL     OW57555   5.455   2.792   1.623 -0.2860 -0.0581  0.2486
18705SOL    HW157556   5.469   2.884   1.649 -1.2260  0.1918 -0.1075
18705SOL    HW257557   5.544   2.755   1.620 -0.0130  0.2357  2.5642
18706SOL     OW57558   5.316   4.602  11.828  0.1161  0.5423 -0.0001
18706SOL    HW157559   5.321   4.562  11.742  0.9302 -0.0790  0.3208
18706SOL    HW257560   5.225   4.590  11.856 -0.3247  1.3240 -1.0221
18707SOL     OW57561   7.502   3.149  12.295 -0.4307  0.7249  0.1124
18707SOL    HW157562   7.570   3.082  12.300 -0.4842  0.5618 -0.9444
18707SOL    HW257563   7.419   3.101  12.297 -0.4869  0.8281  0.2647
18708SOL     OW57564   6.897   5.223  11.998  0.2205 -0.3728 -0.6669
18708SOL    HW157565   6.895   5.318  11.995  1.0720 -0.1992  1.8182
18708SOL    HW257566   6.807   5.198  12.020  0.0460 -0.1389 -1.1042
18709SOL     OW57567   3.594   2.559   2.135  0.2259  0.5148 -0.5676
18709SOL    HW157568   3.659   2.612   2.180 -0.0928  1.1229 -0.8083
18709SOL    HW257569   3.638   2.532   2.054 -0.8981  3.8826 -2.5112
18710SOL     OW57570   5.165   5.131   1.817  0.1639 -0.4213  0.5282
18710SOL    HW157571   5.187   5.209   1.868  0.8201  0.4644 -1.0666
18710SOL    HW257572   5.158   5.061   1.883 -0.6927  1.0005  2.0162
18711SOL     OW57573   5.904   2.897   0.110 -0.4459  0.3355 -0.2601
18711SOL    HW157574   5.823   2.936   0.144  0.2459  1.7117 -0.1110
18711SOL    HW257575   5.885   2.879   0.018 -0.8173  1.0031 -0.3265
18712SOL     OW57576   6.735   1.919   1.028 -0.4365 -0.6734 -0.0684
18712SOL    HW157577   6.643   1.940   1.015 -0.5572 -1.3765 -0.4342
18712SOL    HW257578   6.737   1.823   1.027  0.0808 -0.7129  1.4745
18713SOL     OW57579   4.762   2.087   1.156 -0.5693  0.5137 -0.2230
18713SOL    HW157580   4.780   2.178   1.132 -1.3872  0.6725 -0.2537
18713SOL    HW257581   4.682   2.065   1.109 -1.7224  0.5377  1.6337
18714SOL     OW57582   0.346   3.161  12.239 -0.1372 -0.8485 -0.3077
18714SOL    HW157583   0.271   3.137  12.184  0.4162 -2.7397 -0.3135
18714SOL    HW257584   0.321   3.131  12.327 -0.6258  1.3106  0.3644
18715SOL     OW57585   5.997   3.044   0.651 -0.4745  0.4297 -0.3091
18715SOL    HW157586   5.954   3.029   0.735 -0.7950 -0.5648 -0.6424
18715SOL    HW257587   6.082   2.999   0.660 -0.1530  1.0434 -0.2203
18716SOL     OW57588   7.443   2.723  12.329  0.3204  0.4199 -0.1010
18716SOL    HW157589   7.523   2.775  12.326  0.3109  0.5552  1.5825
18716SOL    HW257590   7.426   2.710  12.422 -1.2433 -0.1895 -0.4521
18717SOL     OW57591   7.161   2.781   1.932  0.1177 -0.2020 -0.0479
18717SOL    HW157592   7.236   2.831   1.966  0.1105  0.1110 -0.4868
18717SOL    HW257593   7.137   2.826   1.851 -1.4838  0.6180  0.8287
18718SOL     OW57594   5.826   3.904   1.423 -0.0005 -0.3950  0.4909
18718SOL    HW157595   5.913   3.904   1.384  0.7366 -1.1040  2.0128
18718SOL    HW257596   5.802   3.997   1.429  0.6169 -0.1964 -0.0246
18719SOL     OW57597   5.525   2.031   3.343 -0.1740  0.0021 -0.5660
18719SOL    HW157598   5.576   1.961   3.382 -1.1241 -1.1433 -1.3079
18719SOL    HW257599   5.437   2.019   3.379 -0.3651  0.7658 -0.7638
18720SOL     OW57600   0.055   1.144   0.611 -0.3383 -0.3756  0.0125
18720SOL    HW157601  -0.017   1.083   0.595  1.7219 -3.5056  1.6788
18720SOL    HW257602   0.073   1.135   0.704  1.8631  0.7628 -0.2483
18721SOL     OW57603   5.078   2.411   1.485  0.1746  0.2535 -0.2621
18721SOL    HW157604   4.992   2.371   1.503  0.1004  1.1183  1.3987
18721SOL    HW257605   5.140   2.359   1.536  0.6353 -0.1505 -1.1922
18722SOL     OW57606   7.675   2.267   0.725 -0.3547 -0.3666 -0.0126
18722SOL    HW157607   7.717   2.302   0.803  0.6434  0.6838 -0.9898
18722SOL    HW257608   7.609   2.332   0.702 -0.2344 -0.3794 -0.3916
18723SOL     OW57609   7.399   5.873   0.096  0.1621 -0.0827  0.1868
18723SOL    HW157610   7.319   5.874   0.044  0.2702  0.0810  0.0199
18723SOL    HW257611   7.388   5.800   0.157  0.0637 -0.3203 -0.1160
18724SOL     OW57612   4.379   3.026   1.159  0.1738 -0.3847  0.3584
18724SOL    HW157613   4.425   3.073   1.229 -0.8161 -0.5291  1.1455
18724SOL    HW257614   4.314   2.973   1.205  0.4595 -1.6143 -0.6002
18725SOL     OW57615   5.506   3.988   2.387 -0.0098 -0.0987  0.3392
18725SOL    HW157616   5.513   3.974   2.482 -0.3833  0.7594  0.5008
18725SOL    HW257617   5.518   3.900   2.349  1.4051 -0.2733  1.0979
18726SOL     OW57618   6.475   3.555   2.020  0.6868 -0.3867  0.2829
18726SOL    HW157619   6.406   3.551   2.086 -0.7712 -1.8740 -1.2369
18726SOL    HW257620   6.469   3.643   1.983 -0.2571 -0.4163  0.3429
18727SOL     OW57621   5.413   2.284   2.330 -0.4285  0.0553 -0.1804
18727SOL    HW157622   5.356   2.361   2.335  0.7631  0.9189  0.8337
18727SOL    HW257623   5.425   2.269   2.236  0.0496  1.7109 -0.4205
18728SOL     OW57624   6.779   2.493   1.592  0.1314  0.0149 -0.6617
18728SOL    HW157625   6.831   2.421   1.556 -0.4048  0.5979 -2.7306
18728SOL    HW257626   6.835   2.570   1.585  0.5065 -0.0646  1.0532
18729SOL     OW57627   0.575   2.326  12.403  0.2043 -0.0979 -0.9290
18729SOL    HW157628   0.601   2.387  12.333 -0.0203  1.0754 -0.0204
18729SOL    HW257629   0.654   2.273  12.419  0.4622  0.0744 -1.6063
18730SOL     OW57630   6.375   2.574   0.379 -0.0948  0.7480  0.3425
18730SOL    HW157631   6.329   2.545   0.300 -1.2430  1.2647  0.7990
18730SOL    HW257632   6.460   2.530   0.374 -0.8959 -0.8364 -0.1560
18731SOL     OW57633   7.083   2.128   2.968 -0.2281  0.0377 -0.4311
18731SOL    HW157634   7.142   2.142   3.042  1.2927 -2.4804 -1.0521
18731SOL    HW257635   7.117   2.186   2.900  0.6415 -0.2760 -0.2844
18732SOL     OW57636   5.991   2.304  12.360 -0.0807  0.0640 -0.0574
18732SOL    HW157637   6.057   2.253  12.407  0.4121 -0.5988 -1.4159
18732SOL    HW257638   6.025   2.394  12.363  0.5551 -0.1638 -0.1586
18733SOL     OW57639   7.390   0.828  11.935  0.2769 -0.1632 -0.0281
18733SOL    HW157640   7.385   0.923  11.934  1.6692 -0.0702 -0.8654
18733SOL    HW257641   7.309   0.800  11.978 -0.9027  1.3369 -1.1600
18734SOL     OW57642   4.923   2.503   0.569  0.3698  0.2919 -0.3678
18734SOL    HW157643   4.908   2.409   0.557  2.6716  0.0651 -2.2527
18734SOL    HW257644   4.860   2.529   0.635 -1.7337 -2.1634 -1.2300
18735SOL     OW57645   6.091   5.106   0.820  0.0835 -0.1192 -0.2275
18735SOL    HW157646   6.029   5.033   0.822 -1.8201  1.4235  0.2959
18735SOL    HW257647   6.111   5.117   0.727  0.0331 -0.9968 -0.3562
18736SOL     OW57648   6.343   3.019   0.737  0.4462 -0.0454 -0.2349
18736SOL    HW157649   6.277   2.967   0.783  1.4499 -1.1657  0.0085
18736SOL    HW257650   6.393   2.954   0.687  1.0367  0.8367 -0.8095
18737SOL     OW57651   6.191   1.618   0.973 -0.2185  0.3674  0.3279
18737SOL    HW157652   6.100   1.644   0.967 -0.7468 -0.5268  2.9849
18737SOL    HW257653   6.188   1.525   0.997  1.4436 -0.0478 -0.8468
18738SOL     OW57654   6.527   3.370   1.363  0.2594  0.4536 -0.1167
18738SOL    HW157655   6.593   3.305   1.386 -0.8340 -0.6784 -0.0798
18738SOL    HW257656   6.572   3.431   1.305  1.3137 -0.3367 -0.1456
18739SOL     OW57657   6.284   2.666   0.967 -0.0172  0.4491 -0.4702
18739SOL    HW157658   6.258   2.599   1.030 -0.5951  1.6068  0.5714
18739SOL    HW257659   6.361   2.707   1.006  0.7742 -0.0662 -1.4483
18740SOL     OW57660   6.191   4.666   0.698 -0.2920 -0.3517  0.6113
18740SOL    HW157661   6.284   4.655   0.679 -0.3424 -1.3226  0.9051
18740SOL    HW257662   6.188   4.724   0.774  0.0748 -0.4324  0.6852
18741SOL     OW57663   6.995   3.930   1.629 -0.3901  0.8218 -0.0541
18741SOL    HW157664   7.028   4.008   1.674  0.5470  1.4646 -1.7614
18741SOL    HW257665   6.922   3.962   1.576 -0.2652  0.4737 -0.4408
18742SOL     OW57666   7.192   3.851   3.473  0.2073 -0.2101 -0.0334
18742SOL    HW157667   7.202   3.940   3.506 -1.7865 -0.2721  0.8504
18742SOL    HW257668   7.202   3.860   3.378 -2.2874  1.4149 -0.2359
18743SOL     OW57669   6.373   3.305   3.513  0.3183 -0.0676 -0.1874
18743SOL    HW157670   6.434   3.307   3.439 -1.5145  2.1841 -1.7610
18743SOL    HW257671   6.394   3.384   3.563 -1.1720  0.6928 -0.7014
18744SOL     OW57672   5.170   2.564   0.322 -0.3168 -0.7611  0.2027
18744SOL    HW157673   5.240   2.583   0.259 -1.0401 -0.0188 -0.3955
18744SOL    HW257674   5.109   2.509   0.274  1.6130 -4.6803  1.8315
18745SOL     OW57675   7.143   3.183   1.616  0.4736 -0.1733  0.3359
18745SOL    HW157676   7.053   3.215   1.628  0.2443 -0.3243 -0.8632
18745SOL    HW257677   7.144   3.148   1.527  2.3561  2.0310 -0.6093
18746SOL     OW57678   5.496   3.872   3.815  0.8582  0.3084 -0.4037
18746SOL    HW157679   5.537   3.840   3.896  2.0159  0.1820 -1.0189
18746SOL    HW257680   5.431   3.935   3.844  0.2097 -0.8279  0.7110
18747SOL     OW57681   6.428   3.868   1.534 -0.6814  0.5047  0.2459
18747SOL    HW157682   6.365   3.796   1.536  0.5058 -0.5829 -0.2555
18747SOL    HW257683   6.508   3.831   1.571  0.3459  1.1583 -1.2251
18748SOL     OW57684   5.458   2.837   0.341 -0.0658  0.0155  0.3932
18748SOL    HW157685   5.529   2.864   0.399 -0.3939  1.7185  0.0577
18748SOL    HW257686   5.498   2.833   0.254 -0.1853  0.1860  0.3286
18749SOL     OW57687   0.504   4.133   0.405 -0.1661 -0.3283 -0.9101
18749SOL    HW157688   0.450   4.057   0.384  0.8220 -1.9533  1.9545
18749SOL    HW257689   0.442   4.199   0.437 -0.9173 -0.1813 -2.5446
18750SOL     OW57690   7.094   3.171   9.841  0.1643  0.4636  0.3539
18750SOL    HW157691   7.005   3.154   9.872  0.7355  2.1521  3.2970
18750SOL    HW257692   7.093   3.144   9.749 -2.8946 -1.0882  0.7214
18751SOL     OW57693   7.067   1.693   1.144  0.2098 -0.3931 -0.5959
18751SOL    HW157694   7.157   1.661   1.148  0.5078  0.1879 -2.0166
18751SOL    HW257695   7.074   1.787   1.161 -0.3296 -0.5791  0.7978
18752SOL     OW57696   5.759   4.651   1.044 -0.6625  0.2776 -0.0387
18752SOL    HW157697   5.677   4.602   1.035 -0.4080 -0.4008  1.0069
18752SOL    HW257698   5.735   4.727   1.098 -0.6097  0.0687  0.2843
18753SOL     OW57699   6.101   3.704   2.246 -0.0108  0.4257  0.2201
18753SOL    HW157700   6.191   3.737   2.241  0.3179 -0.3900  0.6603
18753SOL    HW257701   6.056   3.766   2.303  0.2167  0.9405 -0.1435
18754SOL     OW57702   5.840   2.122   0.962  0.5188 -0.3304  0.6175
18754SOL    HW157703   5.914   2.075   0.999  2.2502  0.4656 -1.5815
18754SOL    HW257704   5.859   2.127   0.868 -3.0397 -1.3117 -0.3217
18755SOL     OW57705   5.841   2.172   0.233  0.2926  0.0139  0.9944
18755SOL    HW157706   5.778   2.163   0.304 -1.1473  1.3281 -0.0523
18755SOL    HW257707   5.926   2.155   0.274 -0.6697 -1.2990  2.5576
18756SOL     OW57708   6.769   2.821   0.325  0.2638 -0.3925 -0.0731
18756SOL    HW157709   6.717   2.900   0.308 -1.7122 -1.5667  0.3000
18756SOL    HW257710   6.790   2.826   0.418 -0.3858 -0.6050  0.0862
18757SOL     OW57711   5.229   1.862   2.636  0.3690  0.0450  0.1057
18757SOL    HW157712   5.216   1.957   2.634 -0.0240 -0.0098 -0.3044
18757SOL    HW257713   5.296   1.848   2.703 -1.0539  0.4430  1.6925
18758SOL     OW57714   7.502   2.746   0.706  0.2691 -1.0138 -0.4907
18758SOL    HW157715   7.511   2.696   0.625  0.2260 -1.2327 -0.3630
18758SOL    HW257716   7.569   2.814   0.700  1.2011 -1.8635 -0.1080
18759SOL     OW57717   5.682   3.196   2.129  0.1263  0.4985 -0.3460
18759SOL    HW157718   5.741   3.226   2.060 -0.9998  1.3991 -0.9517
18759SOL    HW257719   5.596   3.229   2.103 -0.5824 -0.4315  0.7222
18760SOL     OW57720   6.320   1.730   0.744 -0.3411 -0.1651  0.0362
18760SOL    HW157721   6.319   1.668   0.818 -1.6628 -0.2827 -0.0569
18760SOL    HW257722   6.228   1.734   0.715  0.1826 -0.3279 -1.7682
18761SOL     OW57723   7.496   1.349   0.248  0.6923 -0.1825 -0.0619
18761SOL    HW157724   7.547   1.353   0.167 -0.4819  2.3566 -0.7659
18761SOL    HW257725   7.517   1.430   0.294 -0.6372 -0.3751  0.9415
18762SOL     OW57726   5.729   1.938   0.411  0.0840 -0.0697  0.1812
18762SOL    HW157727   5.778   1.856   0.415 -0.4498 -0.3850  0.2963
18762SOL    HW257728   5.715   1.963   0.502 -2.5271 -1.5388  0.2844
18763SOL     OW57729   1.855   1.418   1.511  0.0909  0.1308  0.2087
18763SOL    HW157730   1.777   1.449   1.557  0.2284  1.1095 -0.1882
18763SOL    HW257731   1.858   1.472   1.432  1.0180 -0.0833  0.0943
18764SOL     OW57732   6.605   2.658   2.122 -0.1097 -0.0953  0.6992
18764SOL    HW157733   6.691   2.637   2.158  0.5811 -2.2573 -1.8506
18764SOL    HW257734   6.623   2.728   2.059  0.3971 -2.2057 -1.6781
18765SOL     OW57735   1.635   4.976   1.285 -0.3367 -0.0063 -0.3204
18765SOL    HW157736   1.673   4.947   1.202  0.7484  0.2845  0.0509
18765SOL    HW257737   1.612   4.895   1.331  0.9612 -0.2535 -0.0594
18766SOL     OW57738   6.009   2.752   3.267  0.3816  0.0347 -0.6063
18766SOL    HW157739   6.104   2.758   3.274  0.3535 -0.2491  0.2106
18766SOL    HW257740   5.977   2.800   3.343 -0.0784 -1.1782 -0.0056
18767SOL     OW57741   6.247   3.487   0.333  0.0726  0.2972 -0.3352
18767SOL    HW157742   6.258   3.513   0.241 -0.9226 -2.2336 -1.2383
18767SOL    HW257743   6.157   3.509   0.354 -0.2718 -0.8092 -0.5881
18768SOL     OW57744   5.921   4.022   0.705  0.4584  0.2187 -0.1452
18768SOL    HW157745   5.937   3.942   0.755  0.0198 -0.9753 -1.8287
18768SOL    HW257746   5.915   3.993   0.614  2.4078  2.4353 -1.1074
18769SOL     OW57747   4.462   1.914   1.585 -0.1433  0.3473 -0.4001
18769SOL    HW157748   4.450   1.937   1.493 -2.2733 -0.2502 -0.3197
18769SOL    HW257749   4.448   1.996   1.633 -0.7022  0.3271 -0.5232
18770SOL     OW57750   5.667   2.199   1.177  0.6502 -0.1820  0.3045
18770SOL    HW157751   5.693   2.158   1.259  0.2800 -2.3015 -0.5802
18770SOL    HW257752   5.744   2.193   1.121 -0.0961 -1.8579 -0.6087
18771SOL     OW57753   7.047   2.687  11.337 -0.0715  0.1777 -0.5174
18771SOL    HW157754   6.995   2.754  11.292 -3.4291 -2.6315 -1.2265
18771SOL    HW257755   7.035   2.706  11.430  0.0676  1.2545 -0.7100
18772SOL     OW57756   6.398   0.797   1.758 -0.2840  0.2741  0.2130
18772SOL    HW157757   6.381   0.889   1.737 -0.5407  0.1634 -0.0683
18772SOL    HW257758   6.323   0.770   1.811 -0.9449 -0.1729 -0.9080
18773SOL     OW57759   7.257   3.432   0.162  0.1843 -0.1744 -0.8666
18773SOL    HW157760   7.253   3.460   0.253  1.3655  1.4774 -1.2723
18773SOL    HW257761   7.345   3.394   0.152  0.4527  0.5974 -1.5428
18774SOL     OW57762   6.166   2.970   0.041 -0.5500 -0.1347  0.0893
18774SOL    HW157763   6.158   3.060   0.010 -0.0786 -0.6799 -1.7466
18774SOL    HW257764   6.076   2.940   0.051 -0.7654 -0.1187 -1.4650
18775SOL     OW57765   5.673   3.827  10.366  0.1547  0.0035  0.5004
18775SOL    HW157766   5.611   3.756  10.383 -0.5214  0.6012  0.6271
18775SOL    HW257767   5.744   3.814  10.429  0.4967 -1.0732 -0.0946
18776SOL     OW57768   5.787   3.159   0.473  0.2242  0.0044  0.4823
18776SOL    HW157769   5.742   3.226   0.525  3.1025  2.5008  0.0378
18776SOL    HW257770   5.860   3.130   0.528 -0.5876 -2.4098  0.3998
18777SOL     OW57771   6.213   2.121  12.026 -0.5914  0.2955 -0.2975
18777SOL    HW157772   6.281   2.095  12.088 -1.4397 -0.6819  0.2453
18777SOL    HW257773   6.139   2.063  12.045 -0.9911  0.1995 -1.9914
18778SOL     OW57774   5.496   2.201   0.876  0.0705  0.1755 -0.2267
18778SOL    HW157775   5.472   2.249   0.955 -2.1098  0.7659 -1.1878
18778SOL    HW257776   5.591   2.213   0.868  0.0038  1.8517  1.1456
18779SOL     OW57777   6.457   3.107   2.299 -0.3078  0.2362  0.6479
18779SOL    HW157778   6.552   3.102   2.303 -0.2712  0.4720  0.1390
18779SOL    HW257779   6.439   3.177   2.236 -0.8175  0.0885  0.6226
18780SOL     OW57780   5.899   2.894   1.167  0.0353  0.5971 -0.0186
18780SOL    HW157781   5.806   2.888   1.188  0.2984 -2.1369  0.7542
18780SOL    HW257782   5.935   2.954   1.232 -0.8090 -0.1971  1.2198
18781SOL     OW57783   5.386   4.024   2.129  0.4695  0.0967  0.2044
18781SOL    HW157784   5.400   4.024   2.224  0.7004  0.2151  0.1708
18781SOL    HW257785   5.430   3.944   2.098 -1.6428 -1.2584  0.4864
18782SOL     OW57786   7.052   2.175   1.601 -0.1410  0.4602 -0.1017
18782SOL    HW157787   7.108   2.098   1.615 -0.2893  0.4406  0.4295
18782SOL    HW257788   6.984   2.167   1.669 -0.5175  0.7296 -0.4453
18783SOL     OW57789   5.406   2.953   2.014  0.0627 -0.5615  0.2348
18783SOL    HW157790   5.421   3.047   2.015  1.3730 -0.7205 -0.7860
18783SOL    HW257791   5.333   2.941   1.954  0.8098 -0.2765 -0.7579
18784SOL     OW57792   7.548   0.821   3.183 -0.3954 -0.5963 -0.1666
18784SOL    HW157793   7.606   0.765   3.131 -1.3358 -0.6557 -1.1834
18784SOL    HW257794   7.473   0.765   3.203 -1.0594  0.1163 -0.6529
18785SOL     OW57795   6.468   1.549   1.201  0.3880  0.0061  0.3688
18785SOL    HW157796   6.545   1.508   1.163  0.0390  0.2632 -0.6485
18785SOL    HW257797   6.426   1.479   1.252  0.8271 -0.3702  0.2168
18786SOL     OW57798   7.260   1.489   0.506 -0.4455  0.3576  0.8434
18786SOL    HW157799   7.260   1.579   0.540  1.8563  0.6265  0.3277
18786SOL    HW257800   7.298   1.497   0.419  2.3097 -1.3518  1.7555
18787SOL     OW57801   4.649   1.447   1.380  0.2129 -0.8368  0.3178
18787SOL    HW157802   4.583   1.415   1.318 -1.0760  0.5139  0.9259
18787SOL    HW257803   4.732   1.416   1.345 -0.6880 -2.0620 -0.8197
18788SOL     OW57804   6.767   2.559   1.077 -0.4305 -0.3194 -0.4356
18788SOL    HW157805   6.692   2.504   1.054  0.4201 -0.9955 -1.6347
18788SOL    HW257806   6.751   2.641   1.031 -1.0597  0.0241  0.3515
18789SOL     OW57807   4.913   3.714   1.533 -0.1418 -0.5936 -0.1852
18789SOL    HW157808   4.863   3.645   1.490 -0.0392 -0.9305  0.2294
18789SOL    HW257809   4.853   3.752   1.596  0.0064 -0.7508  0.0528
18790SOL     OW57810   7.035   1.826   0.642  0.3204  0.1546 -0.4002
18790SOL    HW157811   7.072   1.813   0.555 -1.3864 -0.1880 -1.1230
18790SOL    HW257812   7.032   1.922   0.652 -1.6306  0.3190 -1.7805
18791SOL     OW57813   5.624   2.019   0.654 -0.2260  0.0002  0.3964
18791SOL    HW157814   5.533   2.046   0.640 -0.2542  0.8816  2.0323
18791SOL    HW257815   5.670   2.100   0.676  0.9942 -0.4219 -0.4784
18792SOL     OW57816   5.972   2.928  10.867  0.5264 -0.1994 -0.1554
18792SOL    HW157817   5.911   2.996  10.895 -0.6884 -1.3522  0.1145
18792SOL    HW257818   5.918   2.863  10.822  1.7214 -0.7584 -0.8593
18793SOL     OW57819   6.057   1.002  10.889  0.6144 -0.1298 -0.1120
18793SOL    HW157820   6.011   1.086  10.898  0.0608 -0.5021  0.6716
18793SOL    HW257821   6.149   1.026  10.884  0.5861  0.4788  1.4936
18794SOL     OW57822   7.438   3.096   0.530  0.0115 -0.3389  0.4043
18794SOL    HW157823   7.439   3.174   0.474 -0.8512 -0.6823 -0.1013
18794SOL    HW257824   7.525   3.058   0.519  0.4894  0.6049  0.7519
18795SOL     OW57825   4.279   3.204   1.834 -0.4019 -0.2084 -0.6656
18795SOL    HW157826   4.303   3.263   1.763 -0.0313  2.0093  1.1862
18795SOL    HW257827   4.355   3.203   1.892 -0.8029 -1.7240 -0.0928
18796SOL     OW57828   6.030   1.749   1.591  0.2491 -0.3008 -0.2928
18796SOL    HW157829   6.065   1.791   1.512 -0.9904  1.7192  0.1604
18796SOL    HW257830   5.966   1.811   1.625 -2.1477 -2.8283  0.1535
18797SOL     OW57831   5.361   3.886   1.367  0.2900 -0.3774  0.8219
18797SOL    HW157832   5.389   3.947   1.435 -0.5758 -0.4508  1.2623
18797SOL    HW257833   5.331   3.809   1.415  2.2385 -1.5590  0.2458
18798SOL     OW57834   6.459   1.714   3.295  0.2692 -0.1429  0.0996
18798SOL    HW157835   6.434   1.806   3.301  0.0302 -0.0452 -1.9241
18798SOL    HW257836   6.380   1.669   3.265  0.6109 -0.9036  0.3091
18799SOL     OW57837   5.746   1.840   3.714 -0.0050  0.6078 -0.3923
18799SOL    HW157838   5.689   1.763   3.715  0.5071  0.2181  0.0363
18799SOL    HW257839   5.744   1.871   3.624  1.2096 -1.0291 -1.0481
18800SOL     OW57840   0.126   2.520   0.550  0.3522 -0.0878  0.0538
18800SOL    HW157841   0.148   2.427   0.548  1.3355  0.1442 -1.5077
18800SOL    HW257842   0.060   2.530   0.480  1.6106  0.6715 -1.0696
18801SOL     OW57843   6.633   0.899   2.021  0.3141  0.2599 -0.2766
18801SOL    HW157844   6.544   0.934   2.032  0.3950  0.3020  0.2560
18801SOL    HW257845   6.621   0.804   2.026  0.2960  0.2631 -0.2590
18802SOL     OW57846   6.721   0.916  12.436  0.0522 -0.0432 -0.3135
18802SOL    HW157847   6.684   0.828  12.428 -0.1164 -0.0459  0.4043
18802SOL    HW257848   6.652   0.968  12.478 -0.3739  0.7909 -1.9670
18803SOL     OW57849   5.605   2.823   1.174  0.0573  0.6426 -0.5702
18803SOL    HW157850   5.578   2.857   1.089  1.1834 -0.5870 -1.4430
18803SOL    HW257851   5.564   2.882   1.237 -0.7530  1.6065 -1.9533
18804SOL     OW57852   5.176   4.355   0.178  0.5217  0.4516  0.3898
18804SOL    HW157853   5.238   4.290   0.211 -2.3054 -2.1020  1.1439
18804SOL    HW257854   5.094   4.307   0.169 -1.1637  3.3707 -1.5184
18805SOL     OW57855   6.666   1.887   1.954  0.3810  0.0213 -0.4636
18805SOL    HW157856   6.608   1.843   2.017 -3.9229  0.4023 -3.7298
18805SOL    HW257857   6.701   1.816   1.901  0.5844 -0.0305 -0.2604
18806SOL     OW57858   5.901   2.630   2.434 -0.1805 -0.6008  0.2925
18806SOL    HW157859   5.918   2.651   2.526 -0.0236  2.1096 -0.2462
18806SOL    HW257860   5.987   2.607   2.399  0.3959  1.4483  0.2007
18807SOL     OW57861   6.155   1.881  12.328  0.1664  0.0917 -0.2289
18807SOL    HW157862   6.118   1.963  12.295 -0.3876 -0.6906 -1.6532
18807SOL    HW257863   6.145   1.887  12.423 -1.7546  0.8002 -0.4235
18808SOL     OW57864   6.958   2.634   0.764  0.3909 -0.1130  0.3771
18808SOL    HW157865   6.926   2.715   0.804 -0.1783  0.3351 -0.9170
18808SOL    HW257866   7.051   2.651   0.749  0.2043  0.4451 -0.2000
18809SOL     OW57867   6.821   3.083   2.314  0.1514  0.2982  0.1246
18809SOL    HW157868   6.908   3.109   2.345 -0.1813 -0.1967  1.5976
18809SOL    HW257869   6.837   3.033   2.234  1.1869  0.5798  0.1465
18810SOL     OW57870   5.702   3.132   2.386 -0.3339 -0.2056 -0.1221
18810SOL    HW157871   5.771   3.185   2.427  1.2453 -1.1149 -1.4720
18810SOL    HW257872   5.713   3.147   2.292 -0.9657 -1.6028 -0.4380
18811SOL     OW57873   4.952   1.589   1.157  0.1206  0.3823  0.5787
18811SOL    HW157874   5.012   1.516   1.171  0.8217  0.8808  0.2461
18811SOL    HW257875   4.959   1.642   1.236  0.0464  0.3890  0.5807
18812SOL     OW57876   0.031   2.550   0.811  0.4554 -0.6076  0.8077
18812SOL    HW157877   0.028   2.474   0.870 -0.6051 -1.4985 -0.3301
18812SOL    HW257878   0.046   2.512   0.724  4.4238  0.8268  0.6795
18813SOL     OW57879   7.497   2.915   0.164 -0.3894 -0.3423  0.3302
18813SOL    HW157880   7.527   3.003   0.187  0.3110 -0.7335  0.9514
18813SOL    HW257881   7.566   2.879   0.109 -1.5586  0.1773 -1.5698
18814SOL     OW57882   6.531   2.373   1.496  0.5815 -0.0728 -0.1863
18814SOL    HW157883   6.473   2.449   1.495 -0.8871 -1.1258 -0.0387
18814SOL    HW257884   6.611   2.403   1.539 -0.4854  1.0355  1.1086
18815SOL     OW57885   4.595   2.223   0.927  0.1461 -0.2021 -0.5156
18815SOL    HW157886   4.599   2.305   0.974  0.2747 -0.6703  0.3045
18815SOL    HW257887   4.603   2.248   0.834 -0.6941  0.7638 -0.3434
18816SOL     OW57888   6.990   3.136  12.481  0.5993 -0.4389 -0.1301
18816SOL    HW157889   7.015   3.228  12.491  1.6926 -0.8161  0.8529
18816SOL    HW257890   6.928   3.136  12.408  1.3232  0.9480 -0.7912
18817SOL     OW57891   6.442   3.326   0.098 -0.3888  0.3341 -0.2846
18817SOL    HW157892   6.504   3.322   0.172 -0.5159  0.8768 -0.1463
18817SOL    HW257893   6.494   3.359   0.025 -0.1859 -0.4965 -0.5253
18818SOL     OW57894   6.330   2.748   2.127 -0.2563  0.1039  0.1103
18818SOL    HW157895   6.389   2.736   2.201 -0.9922 -0.8689  0.5524
18818SOL    HW257896   6.262   2.807   2.159 -0.0315  0.4977 -0.1202
18819SOL     OW57897   6.151   3.991   1.774  0.9533  0.0423  0.6523
18819SOL    HW157898   6.196   4.047   1.711  0.6533 -0.7877 -0.3246
18819SOL    HW257899   6.089   4.049   1.818  0.9247  0.5648 -0.0608
18820SOL     OW57900   0.207   2.466  10.893  0.0684 -0.2962  0.9468
18820SOL    HW157901   0.169   2.419  10.968  0.6639  0.1905  1.5664
18820SOL    HW257902   0.293   2.426  10.881 -0.6322 -1.4384 -0.4924
18821SOL     OW57903   6.159   2.705   2.520 -0.4026  0.4727 -0.3216
18821SOL    HW157904   6.182   2.624   2.565  0.3081  1.3837  1.0164
18821SOL    HW257905   6.192   2.694   2.431  0.5675 -0.3104  0.1265
18822SOL     OW57906   5.726   2.580   1.207  0.2980 -0.1521 -0.0216
18822SOL    HW157907   5.703   2.673   1.195  0.8661 -0.2192 -2.0583
18822SOL    HW257908   5.782   2.580   1.285 -0.3029  1.0919  0.4564
18823SOL     OW57909   7.232   1.736   1.434 -0.9090  0.2725 -0.5444
18823SOL    HW157910   7.319   1.699   1.417 -0.8302  0.5776 -0.8279
18823SOL    HW257911   7.172   1.661   1.429 -0.3865 -0.4011  2.1924
18824SOL     OW57912   5.522   1.953   1.529  0.3059 -0.4821 -0.1442
18824SOL    HW157913   5.564   1.934   1.613 -0.0925 -0.3679  0.0839
18824SOL    HW257914   5.448   2.009   1.551  0.1014 -0.5838 -0.5559
18825SOL     OW57915   7.192   1.271   1.135  0.4466 -0.6702 -0.2723
18825SOL    HW157916   7.197   1.347   1.194 -1.4241 -0.6485 -0.0867
18825SOL    HW257917   7.222   1.305   1.050  0.5672  0.0107  0.0362
18826SOL     OW57918   6.092   3.235   1.113  0.9880  0.1506 -0.0035
18826SOL    HW157919   6.056   3.319   1.085 -0.1442 -0.8650 -1.7923
18826SOL    HW257920   6.176   3.228   1.067  0.8035  0.0582 -0.3320
18827SOL     OW57921   5.668   2.891   0.500 -0.8934  0.1680 -0.3043
18827SOL    HW157922   5.678   2.865   0.592  1.9114 -0.5007 -0.7123
18827SOL    HW257923   5.717   2.973   0.493 -0.4967 -0.1432 -1.3316
18828SOL     OW57924   5.506   4.309   3.429 -0.0186  0.2913  0.3861
18828SOL    HW157925   5.509   4.219   3.461  1.2542  0.9172  2.1980
18828SOL    HW257926   5.555   4.360   3.494 -1.0988  2.3875 -0.3291
18829SOL     OW57927   6.094   2.088   0.321 -0.4346  0.2559  0.0305
18829SOL    HW157928   6.062   2.055   0.405 -2.3255  2.1750  0.1422
18829SOL    HW257929   6.139   2.170   0.342  1.1524 -0.3898 -0.6224
18830SOL     OW57930   5.983   3.468   2.172  0.1169  0.4883 -0.4721
18830SOL    HW157931   6.015   3.554   2.201  0.9131 -0.0721  0.3558
18830SOL    HW257932   6.021   3.406   2.235 -0.7111 -0.4398 -0.8671
18831SOL     OW57933   6.487   2.154   1.340  0.0757 -0.6804  0.4135
18831SOL    HW157934   6.433   2.081   1.372 -1.7186 -0.0813 -1.0623
18831SOL    HW257935   6.478   2.221   1.408 -2.2885 -0.0561 -0.4043
18832SOL     OW57936   1.084   3.301  12.058  0.0434 -0.0673  0.1171
18832SOL    HW157937   1.046   3.236  12.117  0.4406 -0.0597  0.3867
18832SOL    HW257938   1.066   3.385  12.101  0.9156 -0.1018  0.5740
18833SOL     OW57939   7.616   2.730   1.553  0.1659  1.0191  0.2097
18833SOL    HW157940   7.562   2.734   1.632  1.5274 -1.3023  1.3863
18833SOL    HW257941   7.618   2.819   1.520 -1.7998  1.7491  1.8603
18834SOL     OW57942   7.007   2.762   0.160  0.0278 -0.7452  0.4315
18834SOL    HW157943   7.102   2.752   0.168 -0.0117 -0.1337  1.8187
18834SOL    HW257944   6.988   2.845   0.202 -1.2634 -1.3784  1.1412
18835SOL     OW57945   4.070   3.378   0.351 -0.1642 -0.1390  0.3809
18835SOL    HW157946   4.159   3.343   0.343  1.0557  2.8107 -0.2245
18835SOL    HW257947   4.016   3.318   0.299  1.8079 -0.9113 -0.8890
18836SOL     OW57948   7.341   5.028   3.011  0.4407  0.7464  0.2239
18836SOL    HW157949   7.415   5.000   2.958 -0.8036  0.2929 -1.3758
18836SOL    HW257950   7.264   5.001   2.960 -0.8156  1.7845  1.4916
18837SOL     OW57951   7.018   1.674  11.388  0.5123  0.6519 -0.5834
18837SOL    HW157952   7.041   1.587  11.356  1.7753  0.5549  0.5160
18837SOL    HW257953   7.029   1.732  11.313 -0.3089 -0.1175 -1.3160
18838SOL     OW57954   7.777   2.440   0.073  0.0698 -0.1207  0.4256
18838SOL    HW157955   7.684   2.462   0.072 -0.2910 -1.5627  0.2418
18838SOL    HW257956   7.818   2.506   0.016 -0.8755  0.3441  0.2665
18839SOL     OW57957   6.488   2.800   0.606  0.0686  0.0044 -0.2765
18839SOL    HW157958   6.562   2.750   0.571 -0.6353  0.4403 -2.5568
18839SOL    HW257959   6.418   2.735   0.615 -0.1091  0.1059 -0.8771
18840SOL     OW57960   4.950   2.806   1.027  0.0934 -0.0109  0.7630
18840SOL    HW157961   4.864   2.814   0.985 -0.3034  0.3046  1.5880
18840SOL    HW257962   5.008   2.859   0.974 -0.3358  0.1632  0.4602
18841SOL     OW57963   4.891   3.307   2.522 -0.4926 -0.4121  0.6029
18841SOL    HW157964   4.853   3.394   2.538 -1.6085 -1.1751  2.5675
18841SOL    HW257965   4.833   3.268   2.456 -0.7924 -0.1346  0.6949
18842SOL     OW57966   6.009   3.708   1.692 -0.1347  0.0351  0.4677
18842SOL    HW157967   6.016   3.734   1.783  0.2361 -1.1985  0.8087
18842SOL    HW257968   6.054   3.778   1.643  1.3468 -0.2454  1.3875
18843SOL     OW57969   6.946   2.956   0.572 -0.5032 -0.0704 -0.0637
18843SOL    HW157970   6.977   2.966   0.662 -1.3757 -1.5265  0.4245
18843SOL    HW257971   7.024   2.931   0.523  0.0256  0.9424  0.2170
18844SOL     OW57972   6.572   3.669   0.116 -0.3769  0.1560 -0.3344
18844SOL    HW157973   6.523   3.588   0.121  0.3151 -0.2326  0.3882
18844SOL    HW257974   6.544   3.710   0.034  0.8482 -1.8505 -1.8425
18845SOL     OW57975   7.666   1.438   1.589  0.0765 -0.1915 -0.3129
18845SOL    HW157976   7.590   1.380   1.578 -0.0051 -0.1443  0.0005
18845SOL    HW257977   7.733   1.402   1.531  0.0162 -0.5792 -0.1397
18846SOL     OW57978   6.668   3.779   0.371  0.3424  0.4547  0.2267
18846SOL    HW157979   6.634   3.725   0.443 -0.0592 -0.4032 -0.5834
18846SOL    HW257980   6.640   3.733   0.292  2.2918  0.4304 -0.4814
18847SOL     OW57981   5.186   2.679   0.697 -0.1414  0.3331  0.1292
18847SOL    HW157982   5.175   2.643   0.785  0.2725  0.0647  0.0746
18847SOL    HW257983   5.109   2.734   0.684 -0.3001  0.2259  0.5865
18848SOL     OW57984   5.534   2.318   1.626 -0.1846 -0.5112 -0.0690
18848SOL    HW157985   5.501   2.359   1.706  0.4744 -1.9875  1.0172
18848SOL    HW257986   5.465   2.258   1.600 -0.0013 -0.7278 -0.0572
18849SOL     OW57987   5.239   2.752  12.304 -0.5777  0.2057  0.4855
18849SOL    HW157988   5.155   2.796  12.294 -1.9463 -2.0131  1.4605
18849SOL    HW257989   5.298   2.821  12.335 -1.6416  2.1219 -1.4770
18850SOL     OW57990   0.633   3.636   0.136  1.0578 -0.2916  0.1467
18850SOL    HW157991   0.658   3.551   0.099  0.7790 -0.1739 -0.3359
18850SOL    HW257992   0.577   3.614   0.210  1.8614 -0.5379  0.6914
18851SOL     OW57993   5.210   2.859   1.428 -0.3447  0.1747  0.0048
18851SOL    HW157994   5.153   2.930   1.399  1.3666  1.8845  0.5677
18851SOL    HW257995   5.165   2.819   1.502 -1.6982  0.1471 -0.8124
18852SOL     OW57996   0.126   1.922   1.092  0.2693  0.0661  0.5420
18852SOL    HW157997   0.119   1.956   1.002 -0.0788 -1.8872 -0.2253
18852SOL    HW257998   0.214   1.886   1.097  0.4944  0.6949  1.1964
18853SOL     OW57999   6.048   3.434   1.577 -0.1825 -0.9408  0.2091
18853SOL    HW158000   6.025   3.527   1.585  1.6187 -0.4768  0.3884
18853SOL    HW258001   6.141   3.434   1.556  0.3843 -2.7671  2.4102
18854SOL     OW58002   5.682   1.821  12.079  0.0661  0.5213 -0.6251
18854SOL    HW158003   5.595   1.816  12.039 -0.1224 -1.4330 -0.0657
18854SOL    HW258004   5.732   1.751  12.038  0.7263  0.2856  0.5247
18855SOL     OW58005   4.956   4.228   0.841 -0.4708 -0.3133  1.2811
18855SOL    HW158006   5.040   4.237   0.885  0.0370 -0.6081  0.3961
18855SOL    HW258007   4.955   4.298   0.776 -1.2467  0.1695  1.7971
18856SOL     OW58008   0.363   2.841   1.444  0.0751  0.1881  0.4435
18856SOL    HW158009   0.426   2.894   1.396 -2.3951  2.1106 -0.9249
18856SOL    HW258010   0.343   2.892   1.523  0.9268 -0.8959  1.3923
18857SOL     OW58011   6.804   2.374   1.270 -0.2740 -0.1712 -0.4032
18857SOL    HW158012   6.751   2.310   1.222 -1.5097 -0.0287  0.7135
18857SOL    HW258013   6.807   2.450   1.213 -0.9864 -0.3107 -0.6385
18858SOL     OW58014   5.230   2.046   2.032 -0.1810  0.4935  0.9953
18858SOL    HW158015   5.206   2.052   2.124 -1.6718 -0.2861  0.6918
18858SOL    HW258016   5.204   1.957   2.006  1.4384  0.2262  0.1444
18859SOL     OW58017   5.124   3.321   1.963 -0.5006 -0.0356 -0.0946
18859SOL    HW158018   5.218   3.317   1.948 -0.6723 -1.0832 -1.0089
18859SOL    HW258019   5.092   3.233   1.943 -2.1075  1.0894 -3.2391
18860SOL     OW58020   7.610   2.481   1.407  0.0919 -0.0071  0.1404
18860SOL    HW158021   7.608   2.494   1.312 -1.7871  0.9359  0.2541
18860SOL    HW258022   7.592   2.568   1.443  1.7987 -0.1272  1.4242
18861SOL     OW58023   6.199   1.527   1.828  0.2586 -0.2272  0.8435
18861SOL    HW158024   6.250   1.492   1.902  1.2859  0.3686  0.4401
18861SOL    HW258025   6.240   1.611   1.808 -0.6992  0.1269  0.2875
18862SOL     OW58026   6.007   2.442  12.100  0.0973 -0.1615 -0.7295
18862SOL    HW158027   6.071   2.397  12.154  0.6867 -1.6275 -2.5305
18862SOL    HW258028   5.966   2.372  12.048  0.9389  1.2871 -3.5595
18863SOL     OW58029   4.599   3.065   1.333 -0.0078 -0.3737  0.2387
18863SOL    HW158030   4.635   3.015   1.406  1.2601 -1.6425 -1.1920
18863SOL    HW258031   4.623   3.156   1.352  1.9771 -0.9006  0.4928
18864SOL     OW58032   0.188   3.043   1.594  0.0500  0.2069  0.7149
18864SOL    HW158033   0.264   3.098   1.613  0.6141  1.2852 -3.6085
18864SOL    HW258034   0.130   3.099   1.542 -1.9368 -1.7084  0.7186
18865SOL     OW58035   6.405   0.535   1.892 -0.3102  0.2286  0.0419
18865SOL    HW158036   6.409   0.626   1.860  2.0082  0.6646  1.3872
18865SOL    HW258037   6.416   0.482   1.814  1.1615  1.1858 -0.4470
18866SOL     OW58038   6.213   3.075   2.573 -0.4282 -0.3385 -0.4481
18866SOL    HW158039   6.173   3.012   2.512 -1.1725 -1.4325  1.0944
18866SOL    HW258040   6.296   3.034   2.598  0.1587  0.3920 -1.1498
18867SOL     OW58041   5.236   3.471   2.390 -0.1414  0.1242  0.7210
18867SOL    HW158042   5.323   3.440   2.367  0.1704  1.3445  0.1958
18867SOL    HW258043   5.177   3.418   2.336  0.4185  0.7943 -0.6118
18868SOL     OW58044   7.820   2.528  12.201  0.0398  0.0935 -0.1938
18868SOL    HW158045   7.852   2.550  12.288 -0.2031 -0.7549  0.1227
18868SOL    HW258046   7.875   2.578  12.141  1.5934 -0.8832  0.3486
18869SOL     OW58047   6.805   0.788   2.290  0.5828 -0.1953  0.2249
18869SOL    HW158048   6.770   0.733   2.220  0.8803 -0.9902  0.6814
18869SOL    HW258049   6.888   0.821   2.255 -0.3640  1.3378 -0.6892
18870SOL     OW58050   7.074   0.549  11.087  0.0474  0.1903  0.0984
18870SOL    HW158051   7.079   0.539  11.182 -1.0883  2.0206  0.3977
18870SOL    HW258052   7.099   0.463  11.053  0.6474 -0.4605  2.0309
18871SOL     OW58053   0.138   2.661   1.684 -0.1571  0.5466  0.1881
18871SOL    HW158054   0.056   2.647   1.638  0.5684  0.4154 -1.1030
18871SOL    HW258055   0.206   2.641   1.620  0.8914  1.0763  1.0921
18872SOL     OW58056   6.081   2.092   1.781 -0.1487 -0.2288 -0.3031
18872SOL    HW158057   6.150   2.147   1.744 -0.0399  1.1816  1.7695
18872SOL    HW258058   6.007   2.102   1.721  0.2067  1.4313 -0.5303
18873SOL     OW58059   6.440   1.062   1.688 -0.5621  0.2215  0.2034
18873SOL    HW158060   6.531   1.061   1.659 -0.7811 -0.7099 -0.4920
18873SOL    HW258061   6.443   1.101   1.775  0.3843  1.0552 -0.1765
18874SOL     OW58062   7.349   4.424   1.641  0.0153 -0.3309 -0.1303
18874SOL    HW158063   7.432   4.442   1.685  0.3750 -1.4965 -0.2994
18874SOL    HW258064   7.283   4.433   1.710  0.4208 -0.6738  0.3124
18875SOL     OW58065   5.464   2.959   1.362  0.1095  0.1220 -0.1195
18875SOL    HW158066   5.378   2.927   1.391  0.8930  0.9794  3.7496
18875SOL    HW258067   5.455   3.054   1.362  0.7630  0.1910 -0.8832
18876SOL     OW58068   5.447   3.847   0.293  0.6225 -0.6425 -0.0657
18876SOL    HW158069   5.489   3.909   0.233  0.9503 -1.7288 -0.9758
18876SOL    HW258070   5.513   3.833   0.361  1.0765 -1.0226 -0.5751
18877SOL     OW58071   5.436   3.905  12.370 -0.2444 -0.2038 -0.3467
18877SOL    HW158072   5.441   3.945  12.457  0.9629  0.9721 -0.9189
18877SOL    HW258073   5.476   3.819  12.382 -0.6565 -0.3056  0.3902
18878SOL     OW58074   5.754   4.107   2.699  0.4182  0.4861  0.2922
18878SOL    HW158075   5.735   4.173   2.766 -0.3499 -0.4516  1.0246
18878SOL    HW258076   5.676   4.052   2.696  0.7461  0.0505 -0.8403
18879SOL     OW58077   4.775   2.958   1.526 -0.2324 -0.1302  0.6351
18879SOL    HW158078   4.783   3.002   1.611  0.2657  0.1165  0.4620
18879SOL    HW258079   4.845   2.995   1.473 -0.6385 -0.1711  0.0626
18880SOL     OW58080   4.703   4.185   2.143 -0.7642  1.0950 -0.1697
18880SOL    HW158081   4.674   4.234   2.219 -2.9003 -1.2704  0.6637
18880SOL    HW258082   4.728   4.099   2.177  0.8729  0.8287 -1.8333
18881SOL     OW58083   7.271   2.539   2.067  0.1524 -0.1482  0.3253
18881SOL    HW158084   7.307   2.508   1.983  0.4006 -0.6650  0.6195
18881SOL    HW258085   7.226   2.620   2.044  0.4150 -0.1591 -0.2743
18882SOL     OW58086   5.530   1.423   0.177  0.0346  0.3690 -0.8324
18882SOL    HW158087   5.543   1.349   0.118  0.9670 -0.6122  0.5274
18882SOL    HW258088   5.436   1.424   0.194  0.1838 -1.6094  0.4302
18883SOL     OW58089   6.419   2.602   1.906  0.2378  0.8894 -0.2702
18883SOL    HW158090   6.371   2.660   1.847  0.2251 -0.2595 -1.4366
18883SOL    HW258091   6.429   2.653   1.987  0.7747  2.7388 -1.4341
18884SOL     OW58092   6.192   3.688   1.340  0.7333 -0.6397  0.2616
18884SOL    HW158093   6.111   3.659   1.298  0.1414  0.3738  0.6537
18884SOL    HW258094   6.166   3.767   1.389  1.9838 -0.2417  0.3079
18885SOL     OW58095   7.109   2.294   1.242  0.0770 -0.2396  0.0924
18885SOL    HW158096   7.066   2.267   1.161  1.8241 -0.9237 -0.6568
18885SOL    HW258097   7.202   2.275   1.227  0.4444 -0.3302  2.2416
18886SOL     OW58098   6.049   1.766   0.669  0.1209 -0.1737 -0.3493
18886SOL    HW158099   6.019   1.754   0.759  0.1380 -1.1160 -0.4617
18886SOL    HW258100   6.000   1.702   0.618  2.4945 -1.9950 -0.4960
18887SOL     OW58101   6.106   2.507   1.877  0.1604 -0.2930  0.0916
18887SOL    HW158102   6.196   2.531   1.901 -0.9123  1.4115  2.9527
18887SOL    HW258103   6.053   2.536   1.951 -2.7658 -1.4594 -1.3763
18888SOL     OW58104   7.092   5.387   1.818 -0.2323 -0.1828  0.1163
18888SOL    HW158105   7.159   5.372   1.752  0.8997  1.3536  0.8382
18888SOL    HW258106   7.074   5.300   1.855  0.9149 -0.7122 -0.5183
18889SOL     OW58107   1.290   1.462   0.944 -0.1146 -0.2835  0.5398
18889SOL    HW158108   1.293   1.431   0.853 -2.0465  0.2243  0.2577
18889SOL    HW258109   1.314   1.555   0.938 -0.7413 -0.1235  0.4689
18890SOL     OW58110   7.000   2.087   1.037  0.5648  0.3330  0.3004
18890SOL    HW158111   7.032   2.052   1.120 -0.6432  2.3443  1.7193
18890SOL    HW258112   6.918   2.041   1.021  0.2577  0.6893  0.8163
18891SOL     OW58113   6.341   1.750   1.924 -0.6237 -0.6943 -0.7954
18891SOL    HW158114   6.393   1.787   1.996 -0.7025  0.7374 -1.4448
18891SOL    HW258115   6.251   1.751   1.956 -0.5342 -1.1010 -0.5138
18892SOL     OW58116   4.082   2.302   1.592 -0.3631  0.5142  0.1714
18892SOL    HW158117   4.150   2.255   1.544 -0.1363  0.3327  0.6662
18892SOL    HW258118   4.082   2.263   1.679  0.5251  2.0947  0.9202
18893SOL     OW58119   5.377   4.075   0.746 -0.0770 -0.2467 -0.1651
18893SOL    HW158120   5.462   4.034   0.726  0.7896  0.6954  1.3469
18893SOL    HW258121   5.366   4.061   0.840  0.1791  2.7098  0.4131
18894SOL     OW58122   5.814   1.697   0.391 -0.0770  0.1340  0.4233
18894SOL    HW158123   5.767   1.613   0.393 -0.5096  0.3517 -0.1452
18894SOL    HW258124   5.899   1.676   0.352 -0.6452  0.1611 -0.8737
18895SOL     OW58125   4.963   2.511   2.678  0.1404 -0.4825 -0.1183
18895SOL    HW158126   5.035   2.566   2.647 -0.1618 -0.7622 -1.3817
18895SOL    HW258127   4.896   2.519   2.610 -0.4090 -1.4308  0.2869
18896SOL     OW58128   5.084   3.286   3.774 -0.2299 -0.2331  0.1875
18896SOL    HW158129   5.079   3.381   3.785  0.1107  0.0439 -1.7493
18896SOL    HW258130   4.995   3.260   3.748 -0.2824 -0.4398  0.5575
18897SOL     OW58131   6.190   3.373   3.765  0.2148 -0.5113  0.3803
18897SOL    HW158132   6.167   3.284   3.739 -0.4902 -0.8455  2.0050
18897SOL    HW258133   6.106   3.420   3.766  0.3106 -0.3330  1.2624
18898SOL     OW58134   5.431   3.113   2.627 -0.0915  0.2161  0.2018
18898SOL    HW158135   5.432   3.208   2.639 -0.0717  0.1037  1.2247
18898SOL    HW258136   5.352   3.083   2.672  1.9570 -0.6324  3.6575
18899SOL     OW58137   5.329   1.485   1.694 -0.3021 -0.0535  0.6314
18899SOL    HW158138   5.241   1.450   1.713 -0.7911  1.3432  1.0862
18899SOL    HW258139   5.353   1.446   1.610 -1.3847 -0.4096  0.4693
18900SOL     OW58140   6.289   2.896   3.054  0.7877 -0.3352  0.1534
18900SOL    HW158141   6.288   2.979   3.006 -0.9885  0.1432  0.9444
18900SOL    HW258142   6.350   2.911   3.125  1.1620 -0.0245 -0.2262
18901SOL     OW58143   5.553   3.781   3.114  0.0814  0.4270  0.0301
18901SOL    HW158144   5.611   3.738   3.052  0.1204  0.6117 -0.0628
18901SOL    HW258145   5.465   3.769   3.077  0.1987  1.4582 -0.6203
18902SOL     OW58146   4.973   1.596   2.298  0.4574 -0.2075 -0.1989
18902SOL    HW158147   4.909   1.581   2.229 -0.2780 -2.3681  0.8484
18902SOL    HW258148   4.922   1.588   2.379  1.7332 -0.1740  0.6230
18903SOL     OW58149   5.675   3.063   3.537  0.6788 -0.5142  0.0740
18903SOL    HW158150   5.665   2.976   3.499  2.6720 -1.1535  0.8492
18903SOL    HW258151   5.636   3.056   3.624 -2.1367  0.3907 -1.0134
18904SOL     OW58152   7.696   2.333   4.225 -0.0372 -0.2599  0.5818
18904SOL    HW158153   7.747   2.282   4.163  0.0090 -1.4627  1.5833
18904SOL    HW258154   7.610   2.341   4.185  0.7035  1.2526 -0.8297
18905SOL     OW58155   5.624   2.111   4.704  0.3163  0.0253 -0.3087
18905SOL    HW158156   5.574   2.034   4.732  0.7655 -0.7055 -1.4221
18905SOL    HW258157   5.560   2.182   4.702 -0.2364 -0.4522  0.1796
18906SOL     OW58158   6.686   4.081   1.944 -0.0883 -0.6345 -0.3048
18906SOL    HW158159   6.740   4.148   1.986 -0.7182 -0.3959  0.1508
18906SOL    HW258160   6.743   4.005   1.936  0.7747  0.0985 -1.2519
18907SOL     OW58161   7.572   4.085   1.690 -0.7243 -0.7006  0.1707
18907SOL    HW158162   7.656   4.104   1.733 -1.0630  0.4182  0.3644
18907SOL    HW258163   7.516   4.053   1.761 -0.4410 -1.5726  0.0182
18908SOL     OW58164   6.324   3.040   5.364  0.1161 -0.1756  0.6566
18908SOL    HW158165   6.417   3.031   5.342 -0.1536  0.3913 -0.7877
18908SOL    HW258166   6.280   2.975   5.310 -0.5253  0.9603 -0.2214
18909SOL     OW58167   5.735   2.604   1.970 -0.1319 -0.0231  0.0556
18909SOL    HW158168   5.741   2.694   1.939  0.8744 -0.2415 -0.4147
18909SOL    HW258169   5.648   2.598   2.010 -0.2673  1.1059 -0.0472
18910SOL     OW58170   4.220   1.506   4.661 -0.5428  0.2052 -0.2215
18910SOL    HW158171   4.303   1.551   4.643 -1.3383  2.8470  1.9828
18910SOL    HW258172   4.159   1.541   4.596 -0.6689  0.7682  0.1926
18911SOL     OW58173   6.391   2.411   4.165 -0.3359 -0.2532 -0.2893
18911SOL    HW158174   6.430   2.488   4.124 -0.2933 -0.1463 -0.0499
18911SOL    HW258175   6.345   2.366   4.094  0.1924 -0.3620 -0.5704
18912SOL     OW58176   5.387   2.976   2.327 -0.3404  0.8296  0.0591
18912SOL    HW158177   5.396   2.972   2.232  1.7340 -0.5809  0.2737
18912SOL    HW258178   5.298   2.944   2.344 -0.4129  0.2457 -1.3324
18913SOL     OW58179   7.983   1.943   3.947  0.8448  0.1500 -0.6453
18913SOL    HW158180   7.921   1.879   3.912  1.3035 -0.0094 -1.1880
18913SOL    HW258181   7.953   2.027   3.912 -0.2978  0.3819  0.8077
18914SOL     OW58182   5.570   2.176   2.969  0.0209 -0.3544  0.0514
18914SOL    HW158183   5.530   2.122   3.037  0.7916  0.3511  1.1069
18914SOL    HW258184   5.595   2.257   3.014  1.9381 -0.4543 -0.6981
18915SOL     OW58185   6.234   3.872   1.002 -0.1357  0.1893  0.0117
18915SOL    HW158186   6.178   3.818   0.946  0.6832 -0.6105 -0.0639
18915SOL    HW258187   6.323   3.841   0.984  0.1970  0.3746  1.2472
18916SOL     OW58188   7.207   2.728   4.571 -0.3759  0.3565  0.3361
18916SOL    HW158189   7.145   2.746   4.500 -0.2054 -2.5212 -0.6744
18916SOL    HW258190   7.153   2.715   4.648 -0.8879 -0.1769 -0.1070
18917SOL     OW58191   0.226   2.510   3.283 -0.3354 -0.1369 -0.4293
18917SOL    HW158192   0.184   2.575   3.340  1.4859  1.2225 -0.5493
18917SOL    HW258193   0.316   2.505   3.315  0.4037 -0.2562 -2.4365
18918SOL     OW58194   6.297   1.100   3.194  0.4478 -0.5641 -0.1955
18918SOL    HW158195   6.381   1.141   3.215 -0.0990  0.3504  0.2639
18918SOL    HW258196   6.306   1.009   3.224  0.6759 -0.0312  1.4077
18919SOL     OW58197   4.119   4.075   2.637 -0.4461 -0.4648  0.6491
18919SOL    HW158198   4.186   4.072   2.706 -0.2236 -1.1637  0.4138
18919SOL    HW258199   4.078   3.988   2.641  0.6084 -1.0988 -1.1189
18920SOL     OW58200   7.470   2.579   4.619  0.0110 -0.0030  0.0418
18920SOL    HW158201   7.419   2.598   4.698  1.8898  0.3495  1.2574
18920SOL    HW258202   7.507   2.492   4.635  1.3549  0.5542  0.1372
18921SOL     OW58203   6.501   3.264   3.254 -0.2729 -0.1721 -0.2661
18921SOL    HW158204   6.585   3.301   3.228 -0.8572 -0.4833 -2.9080
18921SOL    HW258205   6.436   3.317   3.208 -1.3548 -1.7038 -0.5846
18922SOL     OW58206   6.851   4.727   4.542 -0.0375  0.3162 -0.2000
18922SOL    HW158207   6.841   4.759   4.452  0.6603 -1.8401 -1.1103
18922SOL    HW258208   6.765   4.740   4.582 -0.4219  1.1106 -1.2428
18923SOL     OW58209   6.404   2.310   3.435  0.0477  0.0198  0.2361
18923SOL    HW158210   6.453   2.353   3.505 -0.2216  1.5512 -0.4704
18923SOL    HW258211   6.470   2.274   3.377  0.3183  0.8851  0.0020
18924SOL     OW58212   7.235   3.978   4.842  0.3315 -0.2496 -0.3797
18924SOL    HW158213   7.265   3.900   4.794 -2.0806 -0.9716 -0.8642
18924SOL    HW258214   7.230   4.047   4.775 -1.6550 -0.8864 -0.9835
18925SOL     OW58215   5.286   1.523   4.107  0.2333  0.5140  0.4326
18925SOL    HW158216   5.233   1.601   4.127 -0.8295 -0.1736  0.3488
18925SOL    HW258217   5.305   1.484   4.192  0.3834  0.6045  0.4420
18926SOL     OW58218   5.676   1.745   2.214  0.2988  0.3275 -0.0217
18926SOL    HW158219   5.642   1.826   2.176  0.0466 -0.1849 -0.8909
18926SOL    HW258220   5.630   1.738   2.298  0.1469  0.9592 -0.0447
18927SOL     OW58221   6.605   5.010   3.337  0.3541 -0.1753 -0.0003
18927SOL    HW158222   6.549   5.086   3.318  1.2214  1.7113  3.7860
18927SOL    HW258223   6.545   4.945   3.375  0.0189 -0.2581 -0.6557
18928SOL     OW58224   5.794   1.999   2.374  0.7276 -0.4502 -0.1935
18928SOL    HW158225   5.700   2.000   2.388  0.6960  1.0011 -0.3301
18928SOL    HW258226   5.805   2.005   2.279  0.9621 -1.1299 -0.2147
18929SOL     OW58227   6.389   2.063   4.146 -0.2665  0.2306  0.1734
18929SOL    HW158228   6.399   1.977   4.106  0.6045  0.9408 -1.2273
18929SOL    HW258229   6.305   2.096   4.113 -0.1914  0.2583  0.0063
18930SOL     OW58230   5.333   1.140   1.998  0.0394  0.1469  0.0247
18930SOL    HW158231   5.424   1.166   2.015 -0.0058  0.5791 -0.3853
18930SOL    HW258232   5.310   1.084   2.073  0.3405  0.7673  0.5955
18931SOL     OW58233   7.904   2.200   3.541 -0.4252  0.0416 -0.1663
18931SOL    HW158234   7.867   2.179   3.627  0.0467 -0.7242 -0.1454
18931SOL    HW258235   7.994   2.168   3.545 -0.0363  1.0242 -0.5501
18932SOL     OW58236   4.737   3.159   4.850 -0.2221  0.3266 -0.1719
18932SOL    HW158237   4.710   3.217   4.922  0.7919  0.3891  0.1727
18932SOL    HW258238   4.759   3.219   4.778  0.1479  0.3395 -0.0500
18933SOL     OW58239   6.693   3.685   4.807  0.5890  0.1796 -0.5379
18933SOL    HW158240   6.701   3.705   4.714  0.3796  1.5357 -0.2908
18933SOL    HW258241   6.601   3.703   4.827  1.0474  1.7296  0.3117
18934SOL     OW58242   6.255   2.448   5.841  0.0040  0.0190  0.0682
18934SOL    HW158243   6.167   2.443   5.878 -0.0352 -0.5891 -0.0827
18934SOL    HW258244   6.247   2.507   5.766 -1.0456 -2.4925 -1.9606
18935SOL     OW58245   4.834   3.016   4.014 -0.2866 -0.8076  0.2848
18935SOL    HW158246   4.892   3.007   4.089  0.1739 -0.1206  0.0238
18935SOL    HW258247   4.828   2.928   3.977 -1.0975 -1.2979  1.5298
18936SOL     OW58248   6.854   0.800   2.685  0.1995 -0.0454 -0.5861
18936SOL    HW158249   6.861   0.777   2.777  0.3679  2.3141  0.0552
18936SOL    HW258250   6.789   0.739   2.650  0.4623 -1.2684  0.9625
18937SOL     OW58251   5.122   2.304   3.524  0.0442  0.4522 -0.4268
18937SOL    HW158252   5.214   2.298   3.552 -0.7235  0.4069  2.4274
18937SOL    HW258253   5.121   2.374   3.459  1.9951  1.0367  0.0966
18938SOL     OW58254   5.712   2.982   2.654 -0.2879 -0.3683 -0.1662
18938SOL    HW158255   5.690   3.037   2.729 -0.1873  0.0155 -0.4113
18938SOL    HW258256   5.806   2.995   2.642 -0.3395 -0.2656 -0.4821
18939SOL     OW58257   7.000   2.408   4.322 -0.1387 -0.1646  0.2419
18939SOL    HW158258   6.999   2.344   4.393  1.2460  1.4380  1.8211
18939SOL    HW258259   7.083   2.391   4.276 -1.6881 -2.1689 -2.0693
18940SOL     OW58260   7.070   4.122   4.352  0.2107  0.8076 -0.5309
18940SOL    HW158261   7.159   4.151   4.371 -0.1564  0.6826  1.6309
18940SOL    HW258262   7.022   4.137   4.433 -0.9894 -2.0834 -0.5733
18941SOL     OW58263   5.679   1.421   4.170  0.0634 -0.0194  0.3888
18941SOL    HW158264   5.753   1.375   4.210 -1.5950 -0.7886  2.7827
18941SOL    HW258265   5.615   1.428   4.241 -1.8028  1.4159 -1.3599
18942SOL     OW58266   5.265   4.609   3.431  0.3353  0.0094 -0.4125
18942SOL    HW158267   5.256   4.514   3.439 -1.5468  0.1843  0.0401
18942SOL    HW258268   5.180   4.639   3.398  1.0393  1.5037 -0.9730
18943SOL     OW58269   5.688   3.386   3.124  0.0674 -0.2522  0.1200
18943SOL    HW158270   5.615   3.351   3.073  0.0122  0.2587 -0.1512
18943SOL    HW258271   5.654   3.466   3.164  0.0073 -0.8089  1.2232
18944SOL     OW58272   6.034   5.003   3.747 -0.4502 -0.4648  0.1908
18944SOL    HW158273   6.037   5.062   3.671 -0.5242 -1.4120 -0.5594
18944SOL    HW258274   5.967   5.040   3.803 -1.6553 -0.7133 -1.0300
18945SOL     OW58275   7.385   3.605   2.951 -1.0892 -0.2605 -0.8618
18945SOL    HW158276   7.438   3.667   3.001 -0.3315  0.5983 -2.6401
18945SOL    HW258277   7.426   3.520   2.966 -1.3103 -0.1410  0.5130
18946SOL     OW58278   5.671   3.213   1.561 -0.0078  0.1499 -0.3308
18946SOL    HW158279   5.665   3.264   1.642  0.1240 -0.2469 -0.0741
18946SOL    HW258280   5.733   3.262   1.508  0.4836  0.0047  0.1043
18947SOL     OW58281   7.600   3.591   3.267  0.3561  0.4705  0.1437
18947SOL    HW158282   7.593   3.671   3.215  0.1512  1.1817  1.2160
18947SOL    HW258283   7.689   3.592   3.302 -0.7043  2.2865  3.2182
18948SOL     OW58284   4.760   1.704   4.593  0.4482  0.5125  0.5211
18948SOL    HW158285   4.800   1.619   4.576 -2.2776 -0.7897 -0.0028
18948SOL    HW258286   4.735   1.700   4.686 -1.4685 -0.1584  0.0210
18949SOL     OW58287   6.650   3.361   1.954  0.1147  0.5631 -0.5978
18949SOL    HW158288   6.735   3.396   1.979  0.4838 -0.0442 -0.9660
18949SOL    HW258289   6.586   3.426   1.985  0.6260  0.4683  0.6989
18950SOL     OW58290   5.521   3.088   3.799  0.3257  0.2879 -0.4070
18950SOL    HW158291   5.497   3.167   3.848 -0.6356 -0.3400  0.1634
18950SOL    HW258292   5.510   3.016   3.862  0.5058 -0.3830 -1.1223
18951SOL     OW58293   4.835   3.786   1.098  0.1958 -0.1120 -0.0204
18951SOL    HW158294   4.739   3.782   1.101  0.0565  0.5380 -2.2263
18951SOL    HW258295   4.854   3.852   1.031  2.1735 -1.1156 -0.5009
18952SOL     OW58296   5.644   3.305   3.390  1.1013 -0.4364 -0.5919
18952SOL    HW158297   5.661   3.308   3.296 -3.1169  1.1161 -1.5352
18952SOL    HW258298   5.645   3.212   3.412  2.4517 -0.8054 -2.0259
18953SOL     OW58299   6.853   2.818   3.276 -0.5058  0.3339 -0.3510
18953SOL    HW158300   6.821   2.904   3.303  0.1775  0.7443 -0.8251
18953SOL    HW258301   6.935   2.806   3.323 -1.8107 -1.1792  1.6775
18954SOL     OW58302   4.981   4.031   1.835 -0.5258 -0.1840  0.0751
18954SOL    HW158303   4.920   3.970   1.876 -1.1419  0.0087 -0.5346
18954SOL    HW258304   5.065   4.013   1.878 -0.6677 -1.5310 -0.1490
18955SOL     OW58305   4.658   2.707   5.004 -0.1482  0.1134 -0.0733
18955SOL    HW158306   4.636   2.730   4.914 -1.1735  0.2639  0.1957
18955SOL    HW258307   4.673   2.791   5.047 -0.2465  0.0765  0.0328
18956SOL     OW58308   5.601   1.752   0.753 -0.2737 -1.2152  0.0099
18956SOL    HW158309   5.592   1.815   0.681 -1.2962 -3.1165 -1.5946
18956SOL    HW258310   5.627   1.806   0.828  0.9394  0.8395 -1.7688
18957SOL     OW58311   7.463   3.528   5.617 -0.0664 -0.2701  0.0111
18957SOL    HW158312   7.458   3.572   5.702  3.7322 -2.5683  1.7128
18957SOL    HW258313   7.376   3.493   5.603 -1.6046  2.5817  1.4530
18958SOL     OW58314   6.956   3.103   3.136 -0.4519 -0.1114 -0.4697
18958SOL    HW158315   7.029   3.155   3.172 -0.5798  0.4823 -1.0337
18958SOL    HW258316   6.885   3.115   3.198 -0.7275  1.0477 -0.9829
18959SOL     OW58317   7.747   3.313   4.297 -0.5217 -0.2197 -0.3803
18959SOL    HW158318   7.783   3.338   4.212  0.6155 -1.1897 -0.2137
18959SOL    HW258319   7.666   3.268   4.275 -1.3212  1.3456 -0.8080
18960SOL     OW58320   7.300   3.447   1.994 -0.2362  0.6054 -0.6949
18960SOL    HW158321   7.348   3.371   1.962 -1.8237 -0.5993 -0.3769
18960SOL    HW258322   7.328   3.519   1.938 -1.7185 -1.0568 -3.8969
18961SOL     OW58323   6.289   2.793   3.630  0.4098 -0.3304  0.3709
18961SOL    HW158324   6.355   2.863   3.624  0.3329  0.0702  2.9614
18961SOL    HW258325   6.211   2.837   3.663 -0.0334 -1.4265  0.8250
18962SOL     OW58326   6.641   4.242   3.735  0.0155 -0.6200 -0.4825
18962SOL    HW158327   6.663   4.211   3.648  1.4523  0.2509 -0.4618
18962SOL    HW258328   6.711   4.209   3.791  0.2073  0.5061 -0.0285
18963SOL     OW58329   6.072   2.948   4.781 -0.3389  0.1821  0.7004
18963SOL    HW158330   6.161   2.973   4.760 -0.5705  0.9278  0.5888
18963SOL    HW258331   6.028   2.940   4.697 -0.2848 -0.5477  0.7373
18964SOL     OW58332   5.558   1.466   2.876 -0.2834  0.4334 -0.0099
18964SOL    HW158333   5.486   1.527   2.861 -1.0081 -0.6847 -1.2421
18964SOL    HW258334   5.521   1.380   2.857  1.4028 -0.1583 -0.7965
18965SOL     OW58335   6.936   2.318   2.305  0.5263 -0.5755  0.2975
18965SOL    HW158336   6.868   2.288   2.245  1.0911 -2.4575  0.5327
18965SOL    HW258337   6.898   2.309   2.392  0.9115 -1.2026  0.4058
18966SOL     OW58338   7.986   3.317   5.433 -0.2492  0.1035 -0.5644
18966SOL    HW158339   7.914   3.377   5.447  0.3234  0.5129  0.7358
18966SOL    HW258340   7.965   3.240   5.485  1.0689  0.9414  1.3103
18967SOL     OW58341   3.521   1.561   3.852 -0.0454 -0.4660 -0.8964
18967SOL    HW158342   3.593   1.602   3.805  1.4002 -0.5902  1.1099
18967SOL    HW258343   3.447   1.620   3.838  1.3663  1.6239 -0.0536
18968SOL     OW58344   7.371   3.560   2.225 -0.3547 -0.1728 -0.0172
18968SOL    HW158345   7.305   3.516   2.171 -1.5600 -0.0726  1.3283
18968SOL    HW258346   7.371   3.650   2.194 -0.1889 -0.3694 -0.6145
18969SOL     OW58347   6.658   3.175   3.700  0.3670 -0.0164 -0.7907
18969SOL    HW158348   6.685   3.250   3.647  1.2353  0.4467  0.2645
18969SOL    HW258349   6.737   3.121   3.706  0.3648  0.0848  0.2652
18970SOL     OW58350   7.370   3.670   3.559  0.2927  0.1074 -0.5144
18970SOL    HW158351   7.326   3.753   3.541  0.2871 -0.1789 -1.9647
18970SOL    HW258352   7.351   3.616   3.482  0.3857 -1.2052  0.3583
18971SOL     OW58353   6.358   2.377   2.170  0.2649  0.2755  0.3551
18971SOL    HW158354   6.388   2.381   2.261  0.2689  1.5097  0.3106
18971SOL    HW258355   6.327   2.287   2.159  0.0185  0.1881  1.6482
18972SOL     OW58356   5.953   2.591   3.871  0.3499  0.6330 -0.1535
18972SOL    HW158357   5.866   2.556   3.851  1.1107 -1.2397 -0.4016
18972SOL    HW258358   5.936   2.677   3.911 -1.6483 -0.0775  0.6481
18973SOL     OW58359   6.167   0.851   2.820  0.5978 -0.6331 -0.7815
18973SOL    HW158360   6.113   0.789   2.868  0.7933 -0.4204 -0.2799
18973SOL    HW258361   6.242   0.868   2.877  0.4193  0.2567 -0.7871
18974SOL     OW58362   7.015   3.026   4.848 -0.0307  0.6033  0.8782
18974SOL    HW158363   6.991   3.109   4.807  0.4399  0.3563  0.0816
18974SOL    HW258364   7.086   3.047   4.908  2.0284  0.3936 -1.3405
18975SOL     OW58365   5.903   1.694   2.103 -0.8928  0.0931  0.5327
18975SOL    HW158366   5.824   1.700   2.156 -1.3829 -1.4814  0.0344
18975SOL    HW258367   5.957   1.769   2.131 -2.0823  0.5720  1.6321
18976SOL     OW58368   6.210   1.943   3.849 -0.2826  0.8626  0.1879
18976SOL    HW158369   6.235   1.949   3.757  1.6245  1.7523  0.7306
18976SOL    HW258370   6.269   1.878   3.887  0.0353  1.6560  1.1103
18977SOL     OW58371   6.071   3.306   4.035 -0.2134  0.2116 -0.1666
18977SOL    HW158372   6.074   3.397   4.008  0.0997 -0.0091 -0.9105
18977SOL    HW258373   6.136   3.299   4.105 -1.5648  0.9548  1.1968
18978SOL     OW58374   6.634   2.571   2.453  0.8154  0.3133 -0.9009
18978SOL    HW158375   6.681   2.654   2.450  0.7887  0.3684 -0.1379
18978SOL    HW258376   6.595   2.569   2.541  1.3680 -0.8037 -0.6560
18979SOL     OW58377   6.656   2.119   1.783 -0.5850 -0.7447  0.0124
18979SOL    HW158378   6.566   2.149   1.767  0.2333  1.4779 -0.7783
18979SOL    HW258379   6.648   2.062   1.859 -2.0854  3.4039  3.4134
18980SOL     OW58380   7.753   2.706   3.551 -0.1425 -0.0384  0.0497
18980SOL    HW158381   7.774   2.729   3.642 -0.3212  0.5106 -0.0457
18980SOL    HW258382   7.833   2.666   3.517  0.9925  2.4897 -0.4727
18981SOL     OW58383   6.436   0.285   4.348 -0.1242 -0.3113 -0.2099
18981SOL    HW158384   6.474   0.349   4.288 -0.9906  0.9345  0.5248
18981SOL    HW258385   6.350   0.265   4.311 -0.2504 -0.3056  0.0741
18982SOL     OW58386   4.089   1.574   1.224 -0.8345 -0.1818 -0.2631
18982SOL    HW158387   4.080   1.548   1.316 -1.9768 -1.4099 -0.6834
18982SOL    HW258388   4.055   1.499   1.175  1.9573 -0.5833 -1.8052
18983SOL     OW58389   0.284   4.185   0.847  0.1506  0.3417 -0.4303
18983SOL    HW158390   0.280   4.145   0.934  1.6086 -0.6235 -0.7649
18983SOL    HW258391   0.208   4.243   0.844 -0.5343 -0.4056  1.0809
18984SOL     OW58392   5.259   4.024   3.945 -0.7782  0.0135  1.2259
18984SOL    HW158393   5.175   4.071   3.944 -0.6363  0.5925 -3.4006
18984SOL    HW258394   5.324   4.093   3.955 -0.7394  0.3324 -0.8783
18985SOL     OW58395   5.496   2.745   3.649 -0.3539  0.4280  0.2439
18985SOL    HW158396   5.421   2.800   3.625 -0.5791  0.2770  0.6084
18985SOL    HW258397   5.467   2.696   3.725  0.6647  1.5716  1.4254
18986SOL     OW58398   5.144   3.043   3.138  0.2554  0.2767  0.4295
18986SOL    HW158399   5.202   3.042   3.214  1.5270 -0.3143 -0.5069
18986SOL    HW258400   5.138   3.136   3.114  1.0292  0.3287  0.4038
18987SOL     OW58401   7.033   3.800   2.835 -0.1381  0.0427 -0.1188
18987SOL    HW158402   7.124   3.830   2.836  0.1332 -0.4455  3.4918
18987SOL    HW258403   7.039   3.705   2.823  0.0552 -0.2450  1.8807
18988SOL     OW58404   6.866   3.914   3.505 -0.1766  0.1266  0.0785
18988SOL    HW158405   6.865   3.973   3.580 -0.5303  2.1979 -1.4514
18988SOL    HW258406   6.901   3.967   3.433  2.6453 -2.5008 -0.7374
18989SOL     OW58407   6.671   3.011   4.125 -0.2082 -0.6023 -0.1049
18989SOL    HW158408   6.702   3.100   4.110  5.4141 -1.7740  1.9273
18989SOL    HW258409   6.704   2.961   4.051 -0.6171 -1.4827  0.2878
18990SOL     OW58410   7.048   3.339   4.042  0.0309  0.1875  0.7329
18990SOL    HW158411   7.003   3.408   3.993 -0.1657  0.6541  1.5524
18990SOL    HW258412   7.132   3.378   4.066  1.0027 -0.7596 -0.9847
18991SOL     OW58413   6.509   2.429   3.055  0.1237 -0.3373  0.8827
18991SOL    HW158414   6.552   2.514   3.060  1.6994 -0.8696 -1.8859
18991SOL    HW258415   6.544   2.380   3.129  1.2316  0.5447  0.9623
18992SOL     OW58416   6.153   3.408   4.368 -0.7924  0.1711 -0.3065
18992SOL    HW158417   6.247   3.424   4.371 -0.8986  0.6638  0.9629
18992SOL    HW258418   6.116   3.488   4.331 -1.1016  2.1517  3.7673
18993SOL     OW58419   6.111   1.250   3.720 -0.0702 -0.1103 -0.0286
18993SOL    HW158420   6.121   1.157   3.742 -0.0630 -0.3431 -1.0094
18993SOL    HW258421   6.190   1.273   3.672  0.0065  0.4580  0.3498
18994SOL     OW58422   5.588   1.665   2.646  0.6618  0.1908  0.1239
18994SOL    HW158423   5.500   1.638   2.674  0.1270  0.7395 -0.9519
18994SOL    HW258424   5.576   1.694   2.556  2.0590 -0.2138 -0.2114
18995SOL     OW58425   5.508   3.088   3.150  0.0515 -0.4676  0.1943
18995SOL    HW158426   5.446   3.144   3.197  1.5520  0.1133  1.5503
18995SOL    HW258427   5.530   3.019   3.212  1.0269 -0.4703 -0.1435
18996SOL     OW58428   5.694   4.163   2.263 -0.3386  0.1522  0.8288
18996SOL    HW158429   5.778   4.130   2.295 -0.5797 -1.2896  0.0747
18996SOL    HW258430   5.628   4.111   2.310 -0.8897  1.9171  2.1296
18997SOL     OW58431   6.419   2.979   3.322 -0.5213  0.0437  0.0266
18997SOL    HW158432   6.425   3.070   3.294 -0.6891  0.2821  0.7449
18997SOL    HW258433   6.420   2.983   3.418  0.2651 -0.7582  0.0705
18998SOL     OW58434   5.855   3.010   4.067 -0.5297 -0.1000  0.2485
18998SOL    HW158435   5.924   2.948   4.089 -0.8758 -0.3198  0.7036
18998SOL    HW258436   5.816   3.034   4.150 -3.2767 -2.5739 -0.1864
18999SOL     OW58437   6.800   2.689   3.785  0.1120 -0.0471  0.6445
18999SOL    HW158438   6.783   2.603   3.745  0.5659  0.1998 -0.1033
18999SOL    HW258439   6.798   2.672   3.879  1.2971 -1.1086  0.5018
19000SOL     OW58440   7.996   4.668   2.945  0.2784 -0.2294 -0.4711
19000SOL    HW158441   8.000   4.757   2.981  0.9302 -0.2085 -0.5925
19000SOL    HW258442   7.908   4.637   2.969  0.0210  0.4650 -0.4825
19001SOL     OW58443   5.815   3.172   4.663  1.2121 -0.0718 -0.2701
19001SOL    HW158444   5.859   3.089   4.642  0.0367 -0.8447  0.2621
19001SOL    HW258445   5.722   3.150   4.669  0.8728  1.2940 -0.1250
19002SOL     OW58446   7.001   1.890   4.017 -0.1230 -0.4054 -0.0673
19002SOL    HW158447   7.015   1.842   3.935 -0.5067 -1.6563  0.5696
19002SOL    HW258448   7.053   1.843   4.081  0.3653  0.7084  0.3784
19003SOL     OW58449   5.279   3.531   3.244 -0.9749  0.0790 -0.2895
19003SOL    HW158450   5.254   3.601   3.183 -1.1067 -0.2513 -0.6198
19003SOL    HW258451   5.210   3.531   3.310 -0.3116  1.1072  0.4320
19004SOL     OW58452   6.166   3.150   4.408 -0.1575 -0.3541 -0.0163
19004SOL    HW158453   6.158   3.241   4.380  1.9211  0.6620  2.2592
19004SOL    HW258454   6.080   3.129   4.444 -0.1306  1.4858  1.2966
19005SOL     OW58455   6.043   2.272   3.427  0.4339 -0.5638 -0.0396
19005SOL    HW158456   6.008   2.188   3.456  1.4454 -1.0474 -0.1640
19005SOL    HW258457   5.974   2.310   3.373 -0.1635 -1.1623  0.2971
19006SOL     OW58458   5.623   1.411   3.715 -0.2255 -0.2921  0.1123
19006SOL    HW158459   5.560   1.453   3.774 -0.4688 -1.7435  0.9683
19006SOL    HW258460   5.618   1.461   3.634 -2.9830 -0.7178 -0.0734
19007SOL     OW58461   5.196   4.320   3.692 -0.5433 -0.0063  0.1891
19007SOL    HW158462   5.199   4.406   3.734 -2.8497  0.0483  0.4081
19007SOL    HW258463   5.133   4.270   3.745  0.5837 -1.7851 -0.0628
19008SOL     OW58464   5.501   2.718   2.550  0.0554  1.1596 -0.1608
19008SOL    HW158465   5.408   2.729   2.528  0.7757  2.9610 -2.7211
19008SOL    HW258466   5.528   2.641   2.500 -0.1792  0.0656  1.3027
19009SOL     OW58467   6.883   3.531   3.868 -0.0712 -0.2023 -0.5725
19009SOL    HW158468   6.879   3.585   3.788 -0.6600 -0.5694 -0.7989
19009SOL    HW258469   6.809   3.471   3.860 -0.4128  0.0561  0.4739
19010SOL     OW58470   6.946   1.042   2.697 -0.0843  0.2066 -0.1940
19010SOL    HW158471   6.931   0.950   2.677  1.1968  0.1947 -1.1765
19010SOL    HW258472   7.000   1.041   2.776 -1.1328  0.1661  0.5484
19011SOL     OW58473   0.166   1.770   4.105 -0.4091 -0.0872 -0.1921
19011SOL    HW158474   0.090   1.824   4.084 -0.0333  0.9286  1.0199
19011SOL    HW258475   0.203   1.809   4.183  2.2120  0.3164 -1.5279
19012SOL     OW58476   7.529   3.047   3.131  0.0569  0.5842 -0.7829
19012SOL    HW158477   7.551   2.963   3.172 -1.4644 -0.3066 -1.7070
19012SOL    HW258478   7.598   3.061   3.066 -1.8721 -2.2499 -3.7683
19013SOL     OW58479   5.030   1.916   4.741 -0.5781 -0.1534 -0.1787
19013SOL    HW158480   5.049   1.841   4.798  2.2498  0.5890  0.0322
19013SOL    HW258481   5.091   1.905   4.667 -2.1340  0.4552 -1.6164
19014SOL     OW58482   5.661   3.451   3.742 -0.3926  0.1681  0.1852
19014SOL    HW158483   5.567   3.470   3.747 -0.3632  0.1365  1.0463
19014SOL    HW258484   5.675   3.384   3.810 -0.0254 -1.0020 -1.0009
19015SOL     OW58485   4.625   2.826   3.028 -0.2376 -0.2261 -0.7604
19015SOL    HW158486   4.705   2.878   3.021  0.5762 -1.3896 -0.3658
19015SOL    HW258487   4.600   2.832   3.120 -0.8955  0.5265 -0.9755
19016SOL     OW58488   5.873   1.183   3.084  0.4561  0.0764  0.3220
19016SOL    HW158489   5.863   1.261   3.138  0.1052 -0.7679  1.5024
19016SOL    HW258490   5.881   1.217   2.994 -0.9637  1.4100  0.6584
19017SOL     OW58491   7.962   3.144   1.445 -0.2517  0.2452 -0.6285
19017SOL    HW158492   7.872   3.112   1.436 -0.3965  0.9356 -1.9523
19017SOL    HW258493   7.953   3.227   1.491 -0.3171  0.4008 -0.9189
19018SOL     OW58494   5.222   2.476   2.408  0.6683  0.1668  0.0832
19018SOL    HW158495   5.133   2.441   2.403  0.3854  1.0010 -1.1959
19018SOL    HW258496   5.210   2.566   2.439  1.2147 -0.1580  1.3180
19019SOL     OW58497   3.922   2.214   1.844  0.3506 -0.1738 -0.0635
19019SOL    HW158498   3.886   2.170   1.921  2.3055 -1.0393  0.4170
19019SOL    HW258499   3.953   2.143   1.788 -0.1521  0.4830 -1.2156
19020SOL     OW58500   6.454   3.135   4.246 -0.3930  0.1296  0.4944
19020SOL    HW158501   6.538   3.095   4.224 -0.3453  1.0053 -1.0582
19020SOL    HW258502   6.389   3.078   4.205 -0.5410 -0.3782  1.4313
19021SOL     OW58503   6.422   4.122   3.344 -0.2839 -0.3846 -0.6733
19021SOL    HW158504   6.400   4.030   3.359 -0.2169 -0.5946 -1.7606
19021SOL    HW258505   6.346   4.170   3.377 -0.3802 -0.8384 -0.2216
19022SOL     OW58506   7.667   4.776   3.276 -0.1782  0.9082 -1.0881
19022SOL    HW158507   7.592   4.732   3.237 -0.3425 -0.0793  0.2743
19022SOL    HW258508   7.723   4.705   3.309 -0.1628  1.6655  0.6289
19023SOL     OW58509   6.123   3.371   3.414 -0.2320 -0.0480 -0.2934
19023SOL    HW158510   6.065   3.320   3.471 -0.5137  1.5786  0.9606
19023SOL    HW258511   6.211   3.338   3.434 -0.3837  0.0989  0.6727
19024SOL     OW58512   5.213   4.212   2.038  0.7313 -0.3387 -0.2956
19024SOL    HW158513   5.268   4.136   2.055  0.1473 -0.5612  0.7381
19024SOL    HW258514   5.224   4.267   2.116  0.7975  0.4206 -0.8310
19025SOL     OW58515   5.975   3.420   3.141  0.0414  0.0057 -0.2317
19025SOL    HW158516   5.882   3.401   3.154  0.0687 -0.9232 -1.2387
19025SOL    HW258517   6.015   3.397   3.225 -0.5140 -0.5252 -0.1000
19026SOL     OW58518   5.052   2.674   3.686 -0.2485  0.4077  0.2445
19026SOL    HW158519   5.001   2.689   3.605 -1.0342 -0.7942  0.4920
19026SOL    HW258520   5.062   2.762   3.723 -0.6530  0.8806 -0.7022
19027SOL     OW58521   5.790   2.895   3.779 -0.1783  0.4484 -0.3482
19027SOL    HW158522   5.712   2.846   3.755  0.6614 -2.7822  2.5390
19027SOL    HW258523   5.760   2.959   3.843 -0.5477 -0.7911  0.7662
19028SOL     OW58524   7.172   2.114   3.481  0.1099 -0.6439  0.0965
19028SOL    HW158525   7.105   2.110   3.413 -0.1790  0.1614  0.3132
19028SOL    HW258526   7.223   2.034   3.471 -0.1555 -0.7038 -0.8336
19029SOL     OW58527   7.567   1.728   4.308  0.1820  0.4013  0.1383
19029SOL    HW158528   7.518   1.809   4.321  2.0676  1.3761  1.7606
19029SOL    HW258529   7.590   1.700   4.397  0.4187 -1.3880 -0.4484
19030SOL     OW58530   6.446   3.575   4.618 -0.2526  0.2670 -0.0212
19030SOL    HW158531   6.444   3.626   4.699 -2.8163 -1.1871  0.9598
19030SOL    HW258532   6.380   3.617   4.562  0.2145  0.1759 -0.6478
19031SOL     OW58533   6.509   3.536   3.532 -0.1118  0.1435  0.1708
19031SOL    HW158534   6.479   3.589   3.458  0.2096  0.6216  0.3728
19031SOL    HW258535   6.517   3.599   3.604 -3.6958 -0.8267  1.6187
19032SOL     OW58536   5.486   2.858   3.951  0.0883  0.0405 -0.1503
19032SOL    HW158537   5.471   2.885   4.042 -2.7182  0.1744 -0.5698
19032SOL    HW258538   5.451   2.769   3.947 -4.6251  1.6650 -2.0759
19033SOL     OW58539   5.251   2.023   3.061  0.2876 -0.2507  0.4432
19033SOL    HW158540   5.252   2.118   3.056 -1.0880 -0.2964 -1.8307
19033SOL    HW258541   5.175   2.002   3.114 -0.4073 -0.0791 -0.4624
19034SOL     OW58542   5.332   3.230   4.546 -0.2424 -0.1067 -0.6550
19034SOL    HW158543   5.273   3.155   4.556  0.4112 -0.8044 -1.7788
19034SOL    HW258544   5.419   3.195   4.566  0.1609  0.1615 -1.8429
19035SOL     OW58545   5.500   3.478   4.317 -0.0941 -0.0962  0.7660
19035SOL    HW158546   5.505   3.505   4.409  0.4770 -0.3691  0.8198
19035SOL    HW258547   5.587   3.498   4.282 -0.8412  1.7045 -0.1957
19036SOL     OW58548   4.738   2.794   2.350  0.0534 -0.2870  0.1755
19036SOL    HW158549   4.815   2.827   2.397  0.3619 -1.1777  0.3130
19036SOL    HW258550   4.669   2.857   2.370  1.2694  1.7856 -1.7274
19037SOL     OW58551   6.791   3.660   2.035 -0.4712 -0.4272  0.2989
19037SOL    HW158552   6.755   3.624   1.954  0.9609 -1.5066  0.0941
19037SOL    HW258553   6.826   3.745   2.010 -1.5973  0.0127  0.1928
19038SOL     OW58554   6.449   4.634   4.063  0.3794  0.2702 -0.0723
19038SOL    HW158555   6.411   4.678   3.987 -0.0331 -1.7343 -1.1021
19038SOL    HW258556   6.488   4.554   4.028 -0.0910 -0.8780  1.8529
19039SOL     OW58557   4.900   2.207   3.079 -0.0158  0.5714  0.2009
19039SOL    HW158558   4.918   2.205   2.985  0.7485 -0.7898  0.3534
19039SOL    HW258559   4.826   2.267   3.088 -2.5244 -1.9674 -1.7045
19040SOL     OW58560   6.310   2.899   4.398 -0.1499 -0.3774 -0.8906
19040SOL    HW158561   6.239   2.963   4.407 -0.6116 -0.8814 -0.8516
19040SOL    HW258562   6.310   2.875   4.306 -0.4621 -0.8504 -0.7743
19041SOL     OW58563   6.005   2.998   2.398 -0.1756  0.4547 -0.3929
19041SOL    HW158564   6.016   2.958   2.312 -1.2056 -1.5674  0.3200
19041SOL    HW258565   5.919   2.967   2.427  0.3068  0.7555  1.5098
19042SOL     OW58566   5.418   3.504   3.632 -0.0121  0.4820  0.1466
19042SOL    HW158567   5.362   3.529   3.706 -1.3006 -1.9903  0.1188
19042SOL    HW258568   5.364   3.443   3.581  1.7859  0.0964 -1.4101
19043SOL     OW58569   7.249   3.305   2.373 -0.5206 -0.0498 -0.1192
19043SOL    HW158570   7.258   3.243   2.300 -0.7154  0.2421 -0.3904
19043SOL    HW258571   7.335   3.347   2.378 -0.7669  0.5463 -0.7394
19044SOL     OW58572   5.008   4.203   3.872  0.2833 -0.0015  0.6970
19044SOL    HW158573   4.960   4.207   3.954  1.0137  1.8551  1.0844
19044SOL    HW258574   4.940   4.195   3.805 -0.3417 -1.0692  1.4365
19045SOL     OW58575   4.930   2.916   2.562  0.6645 -0.1806  0.5283
19045SOL    HW158576   4.946   2.994   2.508 -0.1277 -0.4549 -0.1298
19045SOL    HW258577   5.016   2.877   2.574  1.0800  0.8216  0.9072
19046SOL     OW58578   6.226   1.355   7.148  0.7269 -0.2663 -0.9310
19046SOL    HW158579   6.289   1.344   7.077  0.4355 -0.5315 -1.1535
19046SOL    HW258580   6.261   1.427   7.201  1.2308 -0.4418 -1.0264
19047SOL     OW58581   7.055   3.031   2.730  0.1130 -0.2273 -0.8653
19047SOL    HW158582   7.139   3.060   2.766  0.6973 -1.4315 -1.2028
19047SOL    HW258583   7.002   3.008   2.806  0.1459  0.3726 -0.6571
19048SOL     OW58584   5.783   2.199   1.713  0.3601 -0.1878  0.0947
19048SOL    HW158585   5.718   2.259   1.678 -0.3884 -1.2988 -0.4950
19048SOL    HW258586   5.832   2.251   1.777  0.9667  1.5471 -1.6940
19049SOL     OW58587   6.761   3.391   3.112 -0.6933  0.0524  0.2409
19049SOL    HW158588   6.846   3.353   3.088  0.4690  0.5110  3.1231
19049SOL    HW258589   6.751   3.467   3.056  1.1977  0.4009  0.3145
19050SOL     OW58590   6.335   2.841   4.654  0.2238 -0.7764 -0.5584
19050SOL    HW158591   6.392   2.904   4.699 -1.1839  0.2734 -0.1940
19050SOL    HW258592   6.330   2.873   4.564 -1.6269  0.5072 -0.0468
19051SOL     OW58593   4.505   2.955   2.515  0.0481  0.0247  0.2729
19051SOL    HW158594   4.424   3.007   2.517 -0.2035 -0.1617 -2.1768
19051SOL    HW258595   4.480   2.871   2.554 -1.0752 -0.1593 -0.7668
19052SOL     OW58596   7.647   4.846   1.854  0.1370  0.3165 -0.4903
19052SOL    HW158597   7.681   4.930   1.825 -1.2741  1.0257 -0.1751
19052SOL    HW258598   7.718   4.806   1.903  0.3916  1.9190  0.4988
19053SOL     OW58599   5.687   3.386   2.803  0.3855 -0.7686  0.0492
19053SOL    HW158600   5.597   3.384   2.770  0.1064  0.5704  0.6623
19053SOL    HW258601   5.693   3.469   2.850  1.4373 -1.6131  1.4663
19054SOL     OW58602   6.661   2.616   4.872  0.1404  0.3540 -0.5535
19054SOL    HW158603   6.612   2.548   4.826  1.0455 -0.7213  0.0101
19054SOL    HW258604   6.744   2.573   4.896  0.3691  1.3926  0.5807
19055SOL     OW58605   6.760   3.676   3.121 -0.1762 -0.4114 -0.2141
19055SOL    HW158606   6.713   3.696   3.202 -0.4391 -2.0288  0.0671
19055SOL    HW258607   6.799   3.759   3.094 -1.4101  0.5025  0.7103
19056SOL     OW58608   6.558   0.756   3.461  0.1740 -0.2789  0.5925
19056SOL    HW158609   6.622   0.761   3.532  0.0329 -0.6787  0.7542
19056SOL    HW258610   6.489   0.698   3.495  1.2361 -2.4274 -0.7264
19057SOL     OW58611   5.801   2.623   3.140  0.3038 -0.2252 -0.2350
19057SOL    HW158612   5.715   2.636   3.180  0.7561  1.6423  0.2583
19057SOL    HW258613   5.863   2.649   3.208  1.3524 -2.6611 -0.1666
19058SOL     OW58614   7.650   1.911   5.258 -0.4659 -0.0339  0.2929
19058SOL    HW158615   7.644   1.842   5.191 -0.2942  0.9392 -0.7546
19058SOL    HW258616   7.709   1.875   5.324  1.2061 -0.1621 -1.1889
19059SOL     OW58617   6.212   2.228   3.652  0.1182  0.1241 -0.0962
19059SOL    HW158618   6.258   2.147   3.676 -0.7465 -0.8908 -1.6744
19059SOL    HW258619   6.128   2.222   3.698  0.7821  1.1082  1.3348
19060SOL     OW58620   5.006   2.929   3.745  0.7593  0.2078  0.2923
19060SOL    HW158621   4.979   3.020   3.732  2.1795  0.6381  0.1081
19060SOL    HW258622   4.933   2.888   3.791 -0.0309  1.3571  0.1109
19061SOL     OW58623   7.630   2.656   4.338 -0.3406 -0.0681  0.9696
19061SOL    HW158624   7.695   2.726   4.333 -0.2500 -0.1510  0.9827
19061SOL    HW258625   7.682   2.576   4.343 -0.4445 -0.2387 -0.3337
19062SOL     OW58626   6.143   1.318   3.202  0.3144 -0.2759  0.2223
19062SOL    HW158627   6.112   1.311   3.293 -0.2399  0.2738  0.0830
19062SOL    HW258628   6.199   1.242   3.190  2.0652  0.7139  1.6708
19063SOL     OW58629   7.647   1.549   4.622 -0.5330  0.0996 -0.0942
19063SOL    HW158630   7.623   1.469   4.575  1.6196 -0.2943 -0.6043
19063SOL    HW258631   7.570   1.568   4.677 -2.4347 -0.4165 -2.3895
19064SOL     OW58632   5.443   3.553   2.048 -0.0851  0.2418 -0.7968
19064SOL    HW158633   5.451   3.458   2.044 -1.0419  0.1461 -0.7588
19064SOL    HW258634   5.496   3.585   1.975 -0.5828 -0.3782 -1.4376
19065SOL     OW58635   6.354   3.822   1.872  0.0716  0.1043  0.0599
19065SOL    HW158636   6.297   3.891   1.840  0.2711 -0.0474 -0.6338
19065SOL    HW258637   6.333   3.746   1.818 -0.3327 -0.4599  0.9815
19066SOL     OW58638   6.026   2.532   3.602 -0.1048 -0.0324 -0.2305
19066SOL    HW158639   6.004   2.624   3.610 -1.5838 -0.5282  2.4753
19066SOL    HW258640   6.001   2.493   3.686  1.6649 -2.6740 -0.7731
19067SOL     OW58641   6.451   4.068   3.087 -0.3168 -0.0280 -0.3670
19067SOL    HW158642   6.455   4.096   3.178 -0.7879 -0.0530 -0.3341
19067SOL    HW258643   6.496   4.138   3.038  1.0111 -0.6013 -0.0002
19068SOL     OW58644   6.600   2.970   5.305  0.2752 -0.1916 -0.3754
19068SOL    HW158645   6.617   2.890   5.354  4.2795  0.8698  0.3549
19068SOL    HW258646   6.562   2.941   5.222 -0.3075 -2.6035  0.6714
19069SOL     OW58647   6.936   3.096   3.781  0.0583  0.2343 -0.3304
19069SOL    HW158648   6.882   3.162   3.825 -0.6503 -0.6423  0.1563
19069SOL    HW258649   7.026   3.124   3.797 -0.1498 -0.2216  2.0240
19070SOL     OW58650   4.938   3.489   3.918  0.2608 -0.3873 -0.2321
19070SOL    HW158651   4.885   3.565   3.942  0.8360 -0.5992  1.8496
19070SOL    HW258652   4.882   3.413   3.937  0.6026 -0.5561  0.0974
19071SOL     OW58653   5.947   2.960   3.442 -0.3612  0.5287  0.1712
19071SOL    HW158654   6.009   2.955   3.515  0.8947 -3.6128 -0.8997
19071SOL    HW258655   5.863   2.934   3.480  0.3452 -1.9163  0.2345
19072SOL     OW58656   5.951   2.513   2.896 -0.1609 -0.1138  0.3170
19072SOL    HW158657   5.972   2.424   2.866  0.6230  0.7300 -1.8270
19072SOL    HW258658   6.034   2.549   2.927 -0.9863 -1.0579  4.1653
19073SOL     OW58659   6.830   5.197   3.874 -0.6140 -0.0696 -0.1643
19073SOL    HW158660   6.779   5.203   3.793 -0.7306 -0.3472 -0.1127
19073SOL    HW258661   6.829   5.286   3.909 -1.7677 -0.2300  0.2575
19074SOL     OW58662   1.236   5.606   3.281  0.1937  0.1461 -0.0645
19074SOL    HW158663   1.220   5.695   3.313  0.3482 -0.0686  0.6249
19074SOL    HW258664   1.267   5.619   3.191  0.1033  0.7847 -0.0124
19075SOL     OW58665   6.233   3.769   2.900  0.5828 -0.1899  0.1834
19075SOL    HW158666   6.282   3.774   2.982 -0.2634  1.0008  0.6490
19075SOL    HW258667   6.160   3.710   2.919  0.0811  0.5112  0.4701
19076SOL     OW58668   5.504   3.993   3.476 -0.1904  0.2646  0.4974
19076SOL    HW158669   5.429   3.963   3.423 -1.1971  0.0572  1.9593
19076SOL    HW258670   5.467   4.004   3.563  0.5588  4.0531  0.4819
19077SOL     OW58671   6.790   2.531   3.499  1.1555 -0.2162  0.2757
19077SOL    HW158672   6.829   2.604   3.452 -0.9874  1.4414  0.8793
19077SOL    HW258673   6.834   2.454   3.465  1.9748  1.1625 -2.0443
19078SOL     OW58674   5.982   3.914   2.375 -0.2335  0.5477 -0.0655
19078SOL    HW158675   6.044   3.911   2.448  1.6829  1.8764 -1.5562
19078SOL    HW258676   5.927   3.990   2.393  0.1309  0.7786  0.0699
19079SOL     OW58677   0.131   3.508   2.221 -0.0234  0.3488  0.2127
19079SOL    HW158678   0.065   3.505   2.151  0.0988 -0.6498  0.1178
19079SOL    HW258679   0.199   3.447   2.192  0.9848  1.4085  0.2792
19080SOL     OW58680   6.307   2.428   4.513 -0.2061 -0.1174  0.0034
19080SOL    HW158681   6.382   2.404   4.458  1.3859 -1.8317  2.6620
19080SOL    HW258682   6.243   2.358   4.498 -0.0023 -0.2867 -0.0802
19081SOL     OW58683   5.900   2.336   3.178  0.2360 -0.4231  0.0438
19081SOL    HW158684   5.858   2.415   3.142  0.4096 -0.3195  0.0687
19081SOL    HW258685   5.901   2.275   3.104  0.1804 -0.3724  0.0003
19082SOL     OW58686   6.521   3.747   3.739 -0.6652  0.3950 -0.0920
19082SOL    HW158687   6.446   3.766   3.794 -0.5165 -0.1365  0.3054
19082SOL    HW258688   6.597   3.777   3.790 -0.4297 -1.1587  0.5333
19083SOL     OW58689   5.675   2.217   2.084  0.8073 -0.6008 -0.0413
19083SOL    HW158690   5.721   2.223   2.000  0.4615  1.2950 -0.1412
19083SOL    HW258691   5.583   2.235   2.062  0.7488  0.1618  0.7491
19084SOL     OW58692   5.044   4.300   2.999 -0.0380 -0.1755  0.2703
19084SOL    HW158693   5.088   4.341   3.074  1.3511 -1.2209  0.0695
19084SOL    HW258694   5.009   4.218   3.033  0.1260 -0.3977 -0.0828
19085SOL     OW58695   6.165   2.190   3.088  0.0727  0.0567 -0.1157
19085SOL    HW158696   6.096   2.124   3.082  1.7994 -1.8860  0.1793
19085SOL    HW258697   6.135   2.250   3.156 -1.0092 -1.1361  0.5139
19086SOL     OW58698   6.318   2.525   3.682 -0.0321  0.0741 -0.0316
19086SOL    HW158699   6.408   2.506   3.658 -0.6072 -2.6828 -0.3112
19086SOL    HW258700   6.306   2.617   3.658  2.3672  0.2237 -0.9281
19087SOL     OW58701   0.153   4.097   4.135  0.2347 -0.0245 -0.0156
19087SOL    HW158702   0.140   4.191   4.152 -1.3183 -0.2889  0.4355
19087SOL    HW258703   0.147   4.057   4.221 -2.2044 -0.8216 -0.4767
19088SOL     OW58704   0.145   2.534   5.176  0.3160 -0.0004 -0.1808
19088SOL    HW158705   0.156   2.611   5.120  1.0896 -1.1073 -1.5991
19088SOL    HW258706   0.202   2.552   5.251  0.2924  0.9088 -0.3623
19089SOL     OW58707   4.483   2.413   3.563  0.2886  0.4895 -0.7170
19089SOL    HW158708   4.470   2.463   3.643  0.6059 -1.1072  0.3838
19089SOL    HW258709   4.396   2.379   3.542  0.8222 -2.7360  1.5429
19090SOL     OW58710   4.457   2.704   2.646 -0.3804  0.2198  0.1598
19090SOL    HW158711   4.493   2.633   2.594  2.1571  0.5578  1.2982
19090SOL    HW258712   4.411   2.661   2.718 -1.8649 -0.2203 -1.0008
19091SOL     OW58713   5.491   1.758   2.425  0.6634 -0.2220 -0.3654
19091SOL    HW158714   5.474   1.852   2.414  0.0376 -0.2286  0.3980
19091SOL    HW258715   5.404   1.718   2.421  0.5698 -0.4416  2.0263
19092SOL     OW58716   6.070   2.235   2.300  0.5087 -0.1473  0.4270
19092SOL    HW158717   6.121   2.312   2.326 -0.8709  0.1158  2.5830
19092SOL    HW258718   5.998   2.271   2.248  0.5765 -0.1335  0.3418
19093SOL     OW58719   6.307   1.622   3.686  0.2054  0.6237  0.3512
19093SOL    HW158720   6.339   1.602   3.599  0.0186  0.5651  0.2950
19093SOL    HW258721   6.228   1.675   3.671  0.3611  0.9015  0.4879
19094SOL     OW58722   7.286   3.920   2.437  0.0625 -0.1122 -0.2990
19094SOL    HW158723   7.240   3.995   2.474  0.4110 -0.1043  0.1310
19094SOL    HW258724   7.260   3.846   2.492  1.0893  0.0164  0.3852
19095SOL     OW58725   4.549   2.959   3.574  0.0571  0.2685 -0.0930
19095SOL    HW158726   4.572   2.958   3.667 -2.2521 -0.0705  0.5216
19095SOL    HW258727   4.454   2.955   3.573 -0.0948  2.2729 -2.4475
19096SOL     OW58728   5.559   3.974   5.888 -0.5945 -0.2513  0.1823
19096SOL    HW158729   5.494   3.956   5.820  0.0654 -3.6880  0.2822
19096SOL    HW258730   5.518   3.943   5.969  0.3190 -0.3702  0.6084
19097SOL     OW58731   5.277   3.287   5.445  0.0216  0.4698  0.7188
19097SOL    HW158732   5.216   3.360   5.437 -0.9215 -0.3516  0.1437
19097SOL    HW258733   5.278   3.266   5.538 -1.4385 -0.1925  0.6149
19098SOL     OW58734   7.634   3.833   4.959 -0.3859 -0.2810 -0.3989
19098SOL    HW158735   7.690   3.789   5.023  1.2539  0.1542 -1.4515
19098SOL    HW258736   7.692   3.898   4.918 -1.2169 -0.8907 -2.6732
19099SOL     OW58737   4.897   2.364   7.241  0.4738 -0.5491  0.3360
19099SOL    HW158738   4.930   2.389   7.155  0.2499  0.7770  0.6229
19099SOL    HW258739   4.900   2.268   7.240  0.1031 -0.5786 -1.2934
19100SOL     OW58740   7.017   3.008   5.263  0.3702 -0.5916  0.0988
19100SOL    HW158741   7.074   3.025   5.338  2.6225 -0.1530 -1.5941
19100SOL    HW258742   6.966   3.088   5.252  1.4313  0.0940  0.0312
19101SOL     OW58743   4.902   2.860   5.253 -0.0667 -0.2261 -0.1048
19101SOL    HW158744   4.952   2.915   5.313  0.0703 -1.4804  0.9807
19101SOL    HW258745   4.827   2.914   5.228  0.9793  1.0785 -0.4775
19102SOL     OW58746   6.024   2.216   5.284 -0.4051  0.2031 -0.3781
19102SOL    HW158747   6.067   2.298   5.262 -1.9325  0.4396 -2.9573
19102SOL    HW258748   5.935   2.241   5.308 -0.4169 -0.5881  0.4410
19103SOL     OW58749   4.399   2.684   4.218  0.3988  0.0575  0.3093
19103SOL    HW158750   4.305   2.692   4.199  0.6081  0.6452 -0.5556
19103SOL    HW258751   4.431   2.623   4.152  0.8691  0.9560 -0.3204
19104SOL     OW58752   5.127   1.950   6.208  0.0815  0.0793 -0.0450
19104SOL    HW158753   5.118   1.858   6.181  0.7742 -0.4654  1.4248
19104SOL    HW258754   5.129   1.946   6.304 -2.1945  1.8741  0.1670
19105SOL     OW58755   5.031   2.841   4.973 -0.0090  0.1794  0.6581
19105SOL    HW158756   5.016   2.928   4.936 -2.3885  0.3079  1.7789
19105SOL    HW258757   5.057   2.858   5.064  0.5692 -0.2749  0.5839
19106SOL     OW58758   7.880   4.789   3.988  0.1631  0.2429  0.0432
19106SOL    HW158759   7.927   4.857   4.035  1.3080 -0.2677 -0.3104
19106SOL    HW258760   7.931   4.776   3.908 -0.6920 -0.2094 -0.4480
19107SOL     OW58761   4.679   2.753   4.538  0.3238  0.1561  0.0974
19107SOL    HW158762   4.601   2.792   4.498 -0.0238 -0.9132 -0.2844
19107SOL    HW258763   4.672   2.777   4.630  0.6075  1.7839 -0.2602
19108SOL     OW58764   6.791   2.093   3.854 -0.4463 -0.6292  0.6018
19108SOL    HW158765   6.864   2.074   3.795  0.9297  0.9234  1.6784
19108SOL    HW258766   6.713   2.080   3.801  0.6145 -2.0513 -0.7019
19109SOL     OW58767   6.065   3.295   2.913 -0.3617  0.6804  0.0888
19109SOL    HW158768   6.026   3.339   2.988 -0.7270  0.2336  0.1636
19109SOL    HW258769   6.079   3.365   2.849 -0.6929  0.9484  0.3082
19110SOL     OW58770   6.720   2.529   5.720 -0.0301  0.1064  0.4557
19110SOL    HW158771   6.670   2.562   5.795  1.3208 -1.2697  2.0298
19110SOL    HW258772   6.729   2.605   5.662 -0.5816  1.3783  1.9626
19111SOL     OW58773   5.956   2.963   4.523 -0.5588  0.3692  0.2580
19111SOL    HW158774   5.968   2.870   4.502 -0.4313  0.2065  1.0146
19111SOL    HW258775   5.892   2.994   4.459  0.9714  0.2893 -1.3920
19112SOL     OW58776   4.849   2.769   3.885  0.7622 -0.0011  0.1378
19112SOL    HW158777   4.924   2.715   3.859  0.6652 -1.4597  2.5861
19112SOL    HW258778   4.782   2.705   3.910 -0.4589  1.2847  0.2437
19113SOL     OW58779   5.411   4.483   5.748  0.1083 -0.0282  0.1888
19113SOL    HW158780   5.420   4.388   5.754  0.4969 -0.0286 -0.3026
19113SOL    HW258781   5.369   4.508   5.830  0.8466 -0.5147  0.7315
19114SOL     OW58782   5.782   2.674   4.195 -0.0822 -0.1295 -0.0494
19114SOL    HW158783   5.700   2.720   4.217 -0.3159  0.3104 -1.7064
19114SOL    HW258784   5.754   2.588   4.166  0.0048  0.1160 -0.8840
19115SOL     OW58785   5.653   2.487   6.557  0.3986  0.5980 -0.0316
19115SOL    HW158786   5.643   2.438   6.475  0.9118 -0.2730  0.4070
19115SOL    HW258787   5.733   2.538   6.546  0.7809  0.0428  0.1327
19116SOL     OW58788   6.838   1.248   4.682 -0.2776  0.4273 -0.2823
19116SOL    HW158789   6.767   1.235   4.745  1.5892 -1.2895  1.6240
19116SOL    HW258790   6.834   1.170   4.627  1.0364 -0.4808  0.8510
19117SOL     OW58791   1.107   4.064   3.422 -0.1021 -0.3377 -0.0507
19117SOL    HW158792   1.029   4.100   3.379  1.4877  0.4221 -2.4241
19117SOL    HW258793   1.141   4.137   3.474 -0.7019 -0.5619  0.6911
19118SOL     OW58794   0.263   1.194   4.846  0.3573 -0.8222  0.4374
19118SOL    HW158795   0.231   1.284   4.837 -0.3075 -1.0310  0.6297
19118SOL    HW258796   0.232   1.167   4.933 -0.5208 -1.6582 -0.1199
19119SOL     OW58797   5.389   3.843   4.210 -0.1448 -0.1034 -0.3988
19119SOL    HW158798   5.376   3.771   4.272  1.0681 -0.8277 -0.9425
19119SOL    HW258799   5.305   3.849   4.163 -0.6786 -0.3179  0.4980
19120SOL     OW58800   6.552   2.814   6.633  0.0668 -0.0143 -0.1167
19120SOL    HW158801   6.480   2.750   6.633 -0.9621  1.0785 -0.8448
19120SOL    HW258802   6.577   2.822   6.725  1.4428 -2.7081 -0.1332
19121SOL     OW58803   6.379   3.317   3.954  0.1194 -0.0048 -0.4312
19121SOL    HW158804   6.397   3.389   4.014  0.8401 -0.8551  0.4117
19121SOL    HW258805   6.338   3.358   3.878 -2.7124  0.8961  1.4526
19122SOL     OW58806   7.637   2.852   5.308  0.6580  0.0051  0.9673
19122SOL    HW158807   7.632   2.862   5.403 -2.3253  1.8004  0.7295
19122SOL    HW258808   7.549   2.873   5.276  1.5312 -0.5600 -2.2215
19123SOL     OW58809   5.670   1.865   4.833 -0.2077  0.0560  0.0878
19123SOL    HW158810   5.717   1.931   4.780 -0.8014  0.6322  0.2564
19123SOL    HW258811   5.727   1.848   4.907  0.0209  0.2753 -0.0365
19124SOL     OW58812   6.568   3.995   5.830  0.2375 -0.1445  0.2957
19124SOL    HW158813   6.506   3.986   5.757 -0.6496  0.0007  1.0028
19124SOL    HW258814   6.562   4.088   5.855 -0.4922 -0.4701  1.4036
19125SOL     OW58815   5.843   2.636   5.201  0.1331  0.1084 -0.6326
19125SOL    HW158816   5.868   2.543   5.205 -0.8689 -0.1693 -0.3903
19125SOL    HW258817   5.874   2.673   5.283 -1.8070 -0.6680  0.5280
19126SOL     OW58818   5.762   3.848   5.774 -0.2899  0.2894  0.2338
19126SOL    HW158819   5.709   3.905   5.830 -0.0293  1.0261 -0.2606
19126SOL    HW258820   5.852   3.863   5.803 -0.2731 -0.3990  0.5676
19127SOL     OW58821   5.561   2.236   6.055  0.5298 -0.2044  0.8318
19127SOL    HW158822   5.526   2.207   6.139 -0.4896  1.1037  0.8934
19127SOL    HW258823   5.625   2.169   6.031  1.4954 -0.1775  3.0608
19128SOL     OW58824   6.822   3.068   5.027 -0.0393 -0.1223 -0.4756
19128SOL    HW158825   6.812   3.033   5.116 -2.3351  0.7125 -0.3299
19128SOL    HW258826   6.883   3.008   4.985 -0.0749 -1.4364  1.2118
19129SOL     OW58827   0.239   4.139   5.884 -0.3210 -0.2687  0.3314
19129SOL    HW158828   0.172   4.208   5.887  0.5228  0.5759 -0.0613
19129SOL    HW258829   0.271   4.133   5.974  0.1319  0.3709  0.2106
19130SOL     OW58830   6.674   0.914   3.268 -0.3550  0.3301 -0.4970
19130SOL    HW158831   6.738   0.954   3.328  0.4708 -0.4200 -0.8621
19130SOL    HW258832   6.622   0.857   3.325  0.8301 -0.8593 -0.5769
19131SOL     OW58833   5.346   2.641   6.082  0.2638 -0.1593 -0.9226
19131SOL    HW158834   5.298   2.563   6.056 -0.9140 -0.3496  1.5436
19131SOL    HW258835   5.347   2.697   6.004 -2.6556 -0.7916 -1.5106
19132SOL     OW58836   7.489   4.511   4.185 -0.4786  0.0781  0.3042
19132SOL    HW158837   7.396   4.513   4.204 -0.4979 -0.5464  0.2946
19132SOL    HW258838   7.518   4.602   4.193 -1.0853  0.2702  0.3044
19133SOL     OW58839   5.890   4.173   5.656  0.1070 -0.0313  0.2060
19133SOL    HW158840   5.807   4.124   5.661 -1.0937  1.9592  1.0230
19133SOL    HW258841   5.873   4.243   5.593  0.7618  1.0568  1.1847
19134SOL     OW58842   0.159   3.003   5.342 -0.8343  0.2455 -0.0583
19134SOL    HW158843   0.096   3.051   5.396 -0.0616  0.1721  0.9368
19134SOL    HW258844   0.105   2.957   5.278 -1.7592  0.5628  0.4687
19135SOL     OW58845   6.665   3.152   5.749 -0.0397  0.1465 -0.0879
19135SOL    HW158846   6.623   3.067   5.742  0.4246 -0.1106  0.1917
19135SOL    HW258847   6.758   3.134   5.743  0.0639  0.6357 -0.0460
19136SOL     OW58848   6.147   1.625   4.163  0.0180  0.3434  0.3592
19136SOL    HW158849   6.066   1.617   4.113 -0.2976  0.5637  0.8262
19136SOL    HW258850   6.146   1.549   4.221  0.7268 -0.2971 -0.4432
19137SOL     OW58851   4.667   1.297   5.139 -0.0010  0.9756  0.1236
19137SOL    HW158852   4.709   1.336   5.215  0.1304 -0.9698  1.1081
19137SOL    HW258853   4.586   1.258   5.173  0.4491 -0.6187 -0.5204
19138SOL     OW58854   4.936   2.168   6.182  0.5072  0.2453 -0.3396
19138SOL    HW158855   5.002   2.105   6.155  1.3520  0.6191  0.7857
19138SOL    HW258856   4.854   2.118   6.183  1.0861 -0.7189  0.0775
19139SOL     OW58857   5.520   3.086   5.650 -0.2955  1.3404 -0.1582
19139SOL    HW158858   5.564   3.003   5.671 -2.3275  0.1819 -0.2286
19139SOL    HW258859   5.591   3.148   5.635  1.2952 -0.5614 -0.8117
19140SOL     OW58860   5.283   2.377   3.815  0.1873 -0.1941  0.4897
19140SOL    HW158861   5.339   2.343   3.746  0.1829 -1.0809  0.9057
19140SOL    HW258862   5.223   2.304   3.835  0.2023  0.0419  1.4326
19141SOL     OW58863   5.818   3.600   7.105  0.4092  0.3867  0.0185
19141SOL    HW158864   5.782   3.655   7.174 -0.2307 -0.9587  0.8180
19141SOL    HW258865   5.766   3.621   7.028  0.2260  0.9372  0.2873
19142SOL     OW58866   7.196   3.433   5.580 -0.1275 -0.5188  0.1788
19142SOL    HW158867   7.168   3.454   5.491  0.7916 -0.5823 -0.1343
19142SOL    HW258868   7.114   3.422   5.629 -0.6677  1.7898 -0.0956
19143SOL     OW58869   4.003   1.876   4.473  0.4330 -0.7089  0.0636
19143SOL    HW158870   4.089   1.872   4.431  0.6109 -0.3437  0.3902
19143SOL    HW258871   4.020   1.917   4.557 -0.3252  1.0402 -0.5879
19144SOL     OW58872   5.861   4.177   4.534 -0.2397 -0.4807  0.5156
19144SOL    HW158873   5.775   4.149   4.501 -0.1516  0.9988 -1.0656
19144SOL    HW258874   5.864   4.271   4.516  2.5595 -0.8440 -1.4745
19145SOL     OW58875   6.154   4.551   4.596 -0.6142 -0.6795  0.2334
19145SOL    HW158876   6.063   4.537   4.569 -0.9175  1.1718  0.1632
19145SOL    HW258877   6.147   4.598   4.679  0.2513  0.3782 -0.2766
19146SOL     OW58878   7.268   2.463   5.284  0.6210  0.1606 -0.2544
19146SOL    HW158879   7.218   2.420   5.354 -0.5828 -0.1987 -1.3086
19146SOL    HW258880   7.291   2.548   5.322  3.6516 -1.5155  2.1333
19147SOL     OW58881   4.951   2.778   6.832  0.5781  0.0685  0.1535
19147SOL    HW158882   4.919   2.724   6.905  1.1312 -2.1998 -1.1982
19147SOL    HW258883   4.942   2.868   6.864 -0.7414 -0.7608  2.3818
19148SOL     OW58884   6.369   1.991   3.310  0.3211  0.3201 -0.4521
19148SOL    HW158885   6.393   2.075   3.348  2.3324  0.4569 -1.9202
19148SOL    HW258886   6.337   2.012   3.222  0.6824 -0.4352 -0.7723
19149SOL     OW58887   0.252   0.873   4.597 -0.3040  0.2934 -0.5397
19149SOL    HW158888   0.277   0.890   4.687  1.4470  0.4348 -0.9997
19149SOL    HW258889   0.324   0.910   4.545 -1.0878 -0.1076 -1.9706
19150SOL     OW58890   3.853   2.032   5.496 -0.4471 -0.3912 -0.2950
19150SOL    HW158891   3.780   1.995   5.545 -1.6217  2.0678 -0.0065
19150SOL    HW258892   3.922   2.044   5.562 -0.5772 -0.7260 -0.0961
19151SOL     OW58893   6.913   4.025   4.707 -0.2277  0.1055 -0.0260
19151SOL    HW158894   6.954   4.048   4.790 -0.4217 -1.5921  0.5742
19151SOL    HW258895   6.828   4.069   4.708 -0.8735 -1.0907  1.3875
19152SOL     OW58896   3.924   2.447   4.248  0.4404  0.0963 -0.1647
19152SOL    HW158897   3.931   2.358   4.214 -0.9908 -0.6730  1.4008
19152SOL    HW258898   3.833   2.454   4.278  0.0021  2.6907 -1.8147
19153SOL     OW58899   7.510   2.382   6.132 -0.1349  0.1384  0.2746
19153SOL    HW158900   7.422   2.347   6.147 -1.0223  1.3379 -1.7153
19153SOL    HW258901   7.501   2.477   6.145  0.4351  0.4771 -1.4248
19154SOL     OW58902   7.088   5.022   3.813 -0.1200 -0.1691  0.3191
19154SOL    HW158903   7.020   5.089   3.811  0.6646  0.6498  0.1871
19154SOL    HW258904   7.066   4.967   3.888 -1.4522 -0.4965 -0.2821
19155SOL     OW58905   4.706   4.643   6.161  0.5567  0.0610 -0.1174
19155SOL    HW158906   4.723   4.643   6.255  4.6027 -3.3209 -0.5284
19155SOL    HW258907   4.671   4.555   6.144  1.2544  0.0937 -1.8864
19156SOL     OW58908   6.629   3.409   4.756 -0.0156 -0.3661  0.3424
19156SOL    HW158909   6.659   3.349   4.824  0.7159 -0.8310 -0.3785
19156SOL    HW258910   6.621   3.494   4.801 -1.6409 -1.0793  1.5148
19157SOL     OW58911   6.262   0.479   2.782 -0.1669  0.6597  0.2077
19157SOL    HW158912   6.232   0.522   2.702  1.8661  1.1718 -0.3493
19157SOL    HW258913   6.315   0.546   2.826 -0.6708  0.1547  1.6442
19158SOL     OW58914   7.628   2.064   5.614  0.0990  0.3025  0.1448
19158SOL    HW158915   7.687   2.003   5.568 -0.2669 -2.6420  3.1676
19158SOL    HW258916   7.556   2.078   5.553  0.2323 -2.3312 -0.7482
19159SOL     OW58917   6.736   1.189   2.657 -0.1842 -0.2855 -0.2863
19159SOL    HW158918   6.792   1.267   2.660 -0.4901 -0.0314 -1.0371
19159SOL    HW258919   6.797   1.116   2.650  0.0721 -0.0498 -0.5420
19160SOL     OW58920   6.086   2.541   6.310  0.2739 -0.2961 -0.3509
19160SOL    HW158921   6.028   2.553   6.386  1.7513  0.2629  0.7304
19160SOL    HW258922   6.026   2.525   6.237 -1.1735 -1.4435  1.0186
19161SOL     OW58923   5.125   3.048   4.636 -0.3940  0.2398 -0.2052
19161SOL    HW158924   5.097   3.069   4.725  1.2553 -0.0344  0.4221
19161SOL    HW258925   5.054   2.996   4.599 -1.4982  1.1223  0.6171
19162SOL     OW58926   7.964   1.271   4.932  0.2779  0.1554  1.1576
19162SOL    HW158927   7.960   1.187   4.886 -0.0463  0.6162  0.3168
19162SOL    HW258928   7.905   1.261   5.006 -0.8030  0.0560  0.3206
19163SOL     OW58929   7.985   3.532   4.551 -0.1712 -0.6775 -0.3954
19163SOL    HW158930   7.990   3.566   4.640 -1.0561 -1.6167  0.0203
19163SOL    HW258931   8.068   3.486   4.538 -0.3297 -1.1284  0.1849
19164SOL     OW58932   6.643   2.563   4.450 -0.1780  0.2150  0.0623
19164SOL    HW158933   6.616   2.572   4.541 -1.0678 -1.5765  0.0446
19164SOL    HW258934   6.718   2.503   4.453 -1.5241 -1.6127 -0.4532
19165SOL     OW58935   6.955   2.436   3.780 -0.0721 -0.2819  0.7129
19165SOL    HW158936   7.014   2.424   3.706  0.0084 -2.6234  1.0861
19165SOL    HW258937   7.005   2.490   3.841  0.2828  0.7547 -0.4491
19166SOL     OW58938   4.631   2.868   3.318  0.1772  0.0407 -0.5967
19166SOL    HW158939   4.597   2.892   3.405 -0.3145 -1.6734 -0.2808
19166SOL    HW258940   4.726   2.863   3.331  0.4940  3.1611 -1.0579
19167SOL     OW58941   5.053   1.155   4.136 -0.2180  0.3477  0.3222
19167SOL    HW158942   5.039   1.074   4.184  0.2299 -0.5883 -1.0845
19167SOL    HW258943   5.013   1.222   4.191 -2.5169 -1.0791  0.5002
19168SOL     OW58944   0.574   2.640   4.256  0.5354 -0.3347 -0.2609
19168SOL    HW158945   0.565   2.720   4.204 -0.1683  0.5394  1.1319
19168SOL    HW258946   0.492   2.635   4.305  1.1080 -1.2082  0.6390
19169SOL     OW58947   6.041   4.493   5.367 -0.6401  0.4337 -0.2821
19169SOL    HW158948   6.036   4.467   5.275  1.0985 -0.2909 -0.2109
19169SOL    HW258949   6.099   4.429   5.407 -1.4366  0.6799  1.3710
19170SOL     OW58950   5.256   3.413   4.264 -0.1648 -0.2804  0.3380
19170SOL    HW158951   5.347   3.441   4.258  0.3775 -2.1470 -2.0123
19170SOL    HW258952   5.212   3.460   4.193 -0.2743 -1.7155 -0.5908
19171SOL     OW58953   6.584   4.079   4.645 -0.0645  0.4232 -0.0040
19171SOL    HW158954   6.607   4.150   4.705  0.0245  0.7337 -0.3975
19171SOL    HW258955   6.489   4.078   4.645 -0.0660  0.5673 -0.0273
19172SOL     OW58956   6.584   2.407   4.681 -0.2115 -0.0003 -0.6115
19172SOL    HW158957   6.521   2.345   4.646  0.1339 -0.4439 -0.4643
19172SOL    HW258958   6.631   2.358   4.748 -1.6607  1.1650  1.3495
19173SOL     OW58959   4.475   1.601   4.716 -0.3471 -0.3081 -0.2357
19173SOL    HW158960   4.547   1.539   4.705 -0.1683 -0.2561  0.5799
19173SOL    HW258961   4.469   1.615   4.811 -1.8893 -0.8428 -0.2186
19174SOL     OW58962   5.708   3.102   6.264  0.0656  0.4183  0.0170
19174SOL    HW158963   5.618   3.106   6.233  0.2345  0.0605 -0.5386
19174SOL    HW258964   5.759   3.141   6.193  0.4181 -0.0381  0.0139
19175SOL     OW58965   6.328   1.420   5.894  0.3765 -0.1534 -0.2198
19175SOL    HW158966   6.327   1.352   5.827 -0.6354  0.0453 -0.4262
19175SOL    HW258967   6.359   1.498   5.848 -2.3323  0.5388 -1.0840
19176SOL     OW58968   5.434   0.649   3.494 -0.1486 -0.6622 -0.0369
19176SOL    HW158969   5.368   0.703   3.538 -0.2926  2.3582 -3.5305
19176SOL    HW258970   5.513   0.662   3.546 -0.7793  1.0243  0.5771
19177SOL     OW58971   0.150   3.015   5.913  0.0078 -0.1013 -0.4946
19177SOL    HW158972   0.208   2.939   5.927 -0.2497 -0.5567 -1.7225
19177SOL    HW258973   0.197   3.068   5.848  0.7658  1.4657  1.2383
19178SOL     OW58974   5.838   1.300   4.379  0.3359  0.2384  0.1903
19178SOL    HW158975   5.903   1.245   4.334 -0.1381 -1.3740  1.3795
19178SOL    HW258976   5.887   1.339   4.451  0.9400  2.3241 -1.2614
19179SOL     OW58977   7.370   3.025   4.000  0.2222  0.0308 -0.4517
19179SOL    HW158978   7.437   2.956   4.001  0.3008  0.0858  1.2763
19179SOL    HW258979   7.288   2.978   4.017  0.4343  0.4239  2.1226
19180SOL     OW58980   5.751   3.370   4.434  0.5209 -0.4918 -0.2951
19180SOL    HW158981   5.791   3.436   4.491  0.1988 -0.5128 -0.0389
19180SOL    HW258982   5.753   3.289   4.486 -1.7958 -0.0479  0.6166
19181SOL     OW58983   7.569   3.595   4.828 -0.1571 -0.3589  0.1927
19181SOL    HW158984   7.599   3.604   4.737 -0.3882 -3.0642 -0.2151
19181SOL    HW258985   7.604   3.672   4.872 -1.6172  2.0895 -2.5548
19182SOL     OW58986   7.836   0.907   4.281 -0.3112  0.2593 -0.0310
19182SOL    HW158987   7.806   0.824   4.317 -0.0084  1.0174  2.1704
19182SOL    HW258988   7.924   0.918   4.316 -0.6294  1.8315  0.3715
19183SOL     OW58989   5.656   0.981   4.173 -0.7525  0.2684 -0.3931
19183SOL    HW158990   5.648   0.973   4.268 -0.4775 -2.6692 -0.5263
19183SOL    HW258991   5.749   0.964   4.156 -0.8629  0.4684 -1.2007
19184SOL     OW58992   0.283   2.155   5.539  0.5988 -0.6843 -0.2128
19184SOL    HW158993   0.264   2.247   5.523  2.1991  0.6615  4.1599
19184SOL    HW258994   0.324   2.124   5.458 -1.4697  1.8530 -2.4321
19185SOL     OW58995   7.898   4.274   4.648 -0.2472  0.4094  0.1903
19185SOL    HW158996   7.945   4.262   4.731  1.2068  0.5077 -0.5857
19185SOL    HW258997   7.966   4.267   4.581 -1.5463 -0.8060 -1.0826
19186SOL     OW58998   4.533   1.738   4.404  0.0473  0.2980 -0.2529
19186SOL    HW158999   4.512   1.647   4.383  1.3896 -0.1768  0.3466
19186SOL    HW259000   4.600   1.732   4.472 -0.1665  1.7465  0.1178
19187SOL     OW59001   7.521   1.424   6.770 -0.1076 -0.2300  0.2376
19187SOL    HW159002   7.460   1.444   6.841  0.9199 -0.4333  1.2030
19187SOL    HW259003   7.565   1.507   6.753 -0.3312 -0.1887 -0.1636
19188SOL     OW59004   4.873   2.517   5.556 -0.9461 -0.0139  0.1884
19188SOL    HW159005   4.865   2.607   5.588  1.0133 -0.4288  2.1059
19188SOL    HW259006   4.966   2.505   5.539 -0.9850 -1.9959  1.0492
19189SOL     OW59007   5.311   2.648   5.338 -0.0323 -0.1039  0.0426
19189SOL    HW159008   5.379   2.712   5.317  0.0455  0.2608  1.2943
19189SOL    HW259009   5.242   2.662   5.274  0.6264  0.2287 -0.6008
19190SOL     OW59010   5.564   3.130   4.760  0.3127 -0.4135  0.2592
19190SOL    HW159011   5.537   3.220   4.775  3.4268  0.6928 -0.0566
19190SOL    HW259012   5.541   3.084   4.841  3.1191  1.8951  2.6111
19191SOL     OW59013   6.307   1.975   4.399 -0.0348  0.3752  0.1539
19191SOL    HW159014   6.242   1.905   4.397  0.8618 -0.4834 -0.1812
19191SOL    HW259015   6.311   2.007   4.309  1.1186 -0.6722 -0.1977
19192SOL     OW59016   6.116   2.476   5.203  0.2392  0.8005  0.5694
19192SOL    HW159017   6.164   2.518   5.274  1.1336  1.1836 -0.2394
19192SOL    HW259018   6.133   2.532   5.127 -2.0713  1.3706  0.3863
19193SOL     OW59019   4.403   2.603   5.071  0.5400 -0.1318 -0.4170
19193SOL    HW159020   4.343   2.671   5.042  0.6855 -0.6706 -2.1080
19193SOL    HW259021   4.490   2.638   5.054  0.7579  0.4672  1.6166
19194SOL     OW59022   5.634   2.271   3.278  0.0920  0.1446  0.4628
19194SOL    HW159023   5.598   2.187   3.308 -1.0707  0.2181 -0.6190
19194SOL    HW259024   5.724   2.252   3.254  0.3054 -0.4455  1.6900
19195SOL     OW59025   5.974   2.044   4.322 -0.3306  0.3470 -0.3845
19195SOL    HW159026   6.031   1.970   4.346  1.4244  1.1955 -1.6780
19195SOL    HW259027   5.941   2.022   4.235 -1.4099  0.2132  0.0454
19196SOL     OW59028   6.567   2.553   5.313  0.0188  0.5518 -0.1342
19196SOL    HW159029   6.603   2.466   5.330 -1.3227 -0.4121 -1.9074
19196SOL    HW259030   6.610   2.609   5.377 -0.2007 -1.6603  2.1024
19197SOL     OW59031   0.044   3.332   6.394  0.3319  0.2806  0.7359
19197SOL    HW159032   0.029   3.258   6.453  0.0415 -0.8466 -0.6889
19197SOL    HW259033   0.139   3.334   6.381  0.3266  0.0546  0.6569
19198SOL     OW59034   0.262   3.980   3.901  0.1589 -0.5738  0.1343
19198SOL    HW159035   0.208   4.017   3.831 -0.9827 -3.6867 -0.7762
19198SOL    HW259036   0.229   4.023   3.981  1.8308  3.4286 -1.0739
19199SOL     OW59037   5.451   3.043   6.158  0.5155 -0.5442  0.2417
19199SOL    HW159038   5.419   3.025   6.070  1.2796  0.7882 -0.3361
19199SOL    HW259039   5.382   3.011   6.216 -0.7991  0.1635 -0.8912
19200SOL     OW59040   4.479   0.291   5.692 -0.0936 -0.0733  0.5407
19200SOL    HW159041   4.542   0.343   5.643  1.4320 -3.1755 -1.1241
19200SOL    HW259042   4.510   0.294   5.782  2.1206 -0.9399 -0.1167
19201SOL     OW59043   7.138   2.682   5.998 -0.1872  0.3365  0.0032
19201SOL    HW159044   7.079   2.683   5.922  0.1486 -1.2371 -0.3057
19201SOL    HW259045   7.174   2.593   6.000  1.7148  1.0673  0.5518
19202SOL     OW59046   5.155   1.866   6.458  0.3904 -0.4475 -0.1222
19202SOL    HW159047   5.155   1.778   6.496  0.3051  0.3057  1.7428
19202SOL    HW259048   5.235   1.906   6.491  0.2508  0.2967 -0.6747
19203SOL     OW59049   5.881   1.880   5.830  0.2115  0.1533  0.5960
19203SOL    HW159050   5.955   1.934   5.803  0.1227  0.1327  0.3070
19203SOL    HW259051   5.809   1.909   5.774  0.1829 -0.3115  0.3850
19204SOL     OW59052   5.237   2.281   6.320 -0.2906 -0.3502  0.3637
19204SOL    HW159053   5.212   2.324   6.238 -2.5728  0.7306  1.5347
19204SOL    HW259054   5.163   2.224   6.342  0.1121 -0.3624  1.8373
19205SOL     OW59055   5.152   2.206   4.663  0.5837  0.1234 -0.1209
19205SOL    HW159056   5.085   2.175   4.725  1.1175  1.6182  1.2523
19205SOL    HW259057   5.170   2.129   4.608  0.7720 -1.5897  2.1782
19206SOL     OW59058   0.076   1.079   4.517  0.0921  0.2959 -0.3599
19206SOL    HW159059   0.128   1.012   4.473 -0.3363 -0.6756  0.5771
19206SOL    HW259060   0.076   1.053   4.609 -0.9649  0.9962 -0.1417
19207SOL     OW59061   5.585   1.294   5.601  0.0017  0.3453  0.4308
19207SOL    HW159062   5.601   1.210   5.558 -0.2472  0.0118  0.9839
19207SOL    HW259063   5.631   1.287   5.685 -1.2837  0.1657  1.1443
19208SOL     OW59064   4.458   3.323   3.505  0.0943 -0.1121 -0.8844
19208SOL    HW159065   4.412   3.407   3.500  0.2388 -0.0212 -0.6864
19208SOL    HW259066   4.397   3.260   3.466 -0.2448 -0.0114 -0.5217
19209SOL     OW59067   5.614   2.831   5.678  0.1994 -0.0543 -0.1007
19209SOL    HW159068   5.597   2.772   5.605 -2.0057 -0.9447  1.0562
19209SOL    HW259069   5.610   2.776   5.755  0.2285  1.2627  0.8791
19210SOL     OW59070   5.351   3.465   6.403 -0.3199 -0.0463  0.5015
19210SOL    HW159071   5.266   3.459   6.360  0.5145 -0.5439 -1.1814
19210SOL    HW259072   5.332   3.497   6.491 -2.3304 -1.1370  0.5169
19211SOL     OW59073   4.619   2.048   4.461  0.0067  0.2018 -1.1192
19211SOL    HW159074   4.642   2.068   4.551 -0.0131  1.0886 -1.2974
19211SOL    HW259075   4.544   1.989   4.467  0.7344 -0.6722 -0.5555
19212SOL     OW59076   7.179   3.293   4.949  0.2419  0.2454  0.4923
19212SOL    HW159077   7.253   3.274   4.892 -0.8586  0.4573 -1.0591
19212SOL    HW259078   7.103   3.296   4.891 -0.8071  1.3346  1.8278
19213SOL     OW59079   6.847   2.994   5.611 -0.2794  0.2373 -0.1412
19213SOL    HW159080   6.790   2.922   5.584  0.6066 -0.6905  0.3622
19213SOL    HW259081   6.929   2.978   5.564  0.7703 -0.5413  1.8551
19214SOL     OW59082   0.577   4.163   4.619 -0.4906 -0.2264 -0.2933
19214SOL    HW159083   0.587   4.207   4.704  1.8071 -1.6936  0.2756
19214SOL    HW259084   0.533   4.081   4.639  0.9243 -1.0223 -0.3137
19215SOL     OW59085   5.300   2.386   6.871 -0.1153  0.2746  0.1968
19215SOL    HW159086   5.233   2.424   6.815  1.1212  1.7043 -0.3989
19215SOL    HW259087   5.297   2.440   6.951  0.7675  0.8212 -0.1224
19216SOL     OW59088   4.977   1.550   5.395  0.1407  0.1257  0.4905
19216SOL    HW159089   4.931   1.467   5.381  0.6909 -0.1829  0.4565
19216SOL    HW259090   5.007   1.546   5.486  1.2735 -0.2909  0.1167
19217SOL     OW59091   6.107   3.357   5.638  0.3226 -0.5636  0.2547
19217SOL    HW159092   6.033   3.357   5.699  0.1385 -1.7581  0.0486
19217SOL    HW259093   6.071   3.396   5.558  0.1446 -0.3983  0.4124
19218SOL     OW59094   5.849   2.813   5.000 -0.0518 -0.0824  0.0043
19218SOL    HW159095   5.800   2.780   4.924  1.2378 -1.1707 -0.3923
19218SOL    HW259096   5.838   2.745   5.067 -0.4528  0.4612  0.4989
19219SOL     OW59097   4.490   1.889   3.613  0.1623  0.2812  0.9860
19219SOL    HW159098   4.476   1.817   3.674  2.2237 -1.3617 -0.3286
19219SOL    HW259099   4.526   1.847   3.535 -0.6507  2.5115 -0.6763
19220SOL     OW59100   4.322   2.888   5.100 -0.6266  0.0888  0.1109
19220SOL    HW159101   4.308   2.879   5.194  0.3575 -0.3366  0.2286
19220SOL    HW259102   4.372   2.969   5.091 -0.7300  0.1355 -0.0521
19221SOL     OW59103   5.762   2.300   5.245 -0.5738  0.2495  0.2019
19221SOL    HW159104   5.686   2.337   5.199 -1.1408  1.7949  2.1956
19221SOL    HW259105   5.765   2.349   5.328 -1.4146 -4.1876  3.1981
19222SOL     OW59106   7.410   3.236   5.368 -0.0966 -0.3007  0.1595
19222SOL    HW159107   7.364   3.302   5.315 -0.2306 -0.3372  0.2278
19222SOL    HW259108   7.503   3.252   5.351 -0.1526 -1.3319 -1.3494
19223SOL     OW59109   4.809   3.498   5.243  0.3066  0.7878  0.1759
19223SOL    HW159110   4.792   3.502   5.337  1.6763 -0.5156  0.5074
19223SOL    HW259111   4.813   3.590   5.215  0.0020  1.1837  1.3997
19224SOL     OW59112   5.302   4.240   5.158  0.7952  0.4594  1.1863
19224SOL    HW159113   5.311   4.317   5.103 -1.2859  1.2171  1.7975
19224SOL    HW259114   5.390   4.203   5.163  1.5521  1.9277 -0.3388
19225SOL     OW59115   6.650   1.694   6.798 -0.0244  0.1664 -0.1925
19225SOL    HW159116   6.614   1.608   6.775 -0.8928 -0.0116  1.6594
19225SOL    HW259117   6.577   1.741   6.837  0.2667  2.0377 -1.7424
19226SOL     OW59118   6.570   3.142   4.995  0.1142  0.1354 -0.0432
19226SOL    HW159119   6.665   3.152   5.002  0.1693 -0.8970  1.1670
19226SOL    HW259120   6.534   3.213   5.047  0.1918  0.9149 -1.0304
19227SOL     OW59121   4.658   3.057   3.805  0.0782  0.1898 -0.7169
19227SOL    HW159122   4.711   3.041   3.883 -0.0112 -3.2843 -1.2288
19227SOL    HW259123   4.590   3.117   3.835 -0.5385 -1.7728  2.2334
19228SOL     OW59124   4.635   0.912   4.774  0.3062  0.0904 -0.1376
19228SOL    HW159125   4.587   0.911   4.691  0.8933  1.5784 -0.5471
19228SOL    HW259126   4.722   0.946   4.750  1.0118 -0.9739  0.8434
19229SOL     OW59127   6.448   3.579   5.853 -0.4375 -0.2647 -0.2996
19229SOL    HW159128   6.490   3.618   5.777 -0.0376 -0.2926 -0.0975
19229SOL    HW259129   6.433   3.653   5.913 -0.0245 -0.3585 -0.0750
19230SOL     OW59130   4.712   3.040   5.580  0.1379 -0.0929  0.3341
19230SOL    HW159131   4.727   3.091   5.500  0.0649 -0.9062 -0.2146
19230SOL    HW259132   4.618   3.042   5.593  0.1274 -0.1434  0.2692
19231SOL     OW59133   6.961   3.285   4.788 -0.0030 -0.7196  0.1639
19231SOL    HW159134   6.944   3.331   4.706  0.2699 -0.8267  0.0479
19231SOL    HW259135   6.891   3.316   4.847  0.6130  0.4287  0.3272
19232SOL     OW59136   4.298   1.606   6.238  0.1527 -0.2023  0.2723
19232SOL    HW159137   4.275   1.574   6.150 -0.4774 -0.6060  0.5779
19232SOL    HW259138   4.338   1.692   6.222 -0.9453  0.2207 -0.3477
19233SOL     OW59139   5.130   2.808   4.284 -0.1583  0.0766 -0.2102
19233SOL    HW159140   5.055   2.752   4.263 -1.1470  1.1027  0.4946
19233SOL    HW259141   5.099   2.897   4.267 -0.2305  0.8101  3.0819
19234SOL     OW59142   4.432   2.996   5.345  0.3053  0.3494  0.0086
19234SOL    HW159143   4.505   3.002   5.284  1.0208  0.2106  0.8299
19234SOL    HW259144   4.462   3.043   5.423 -0.9464  1.3179 -0.0656
19235SOL     OW59145   5.035   3.293   4.533  0.6409  0.2817 -0.3719
19235SOL    HW159146   5.053   3.202   4.553 -0.9683 -0.7454 -3.0026
19235SOL    HW259147   4.960   3.316   4.589 -0.0667 -0.6130 -0.9154
19236SOL     OW59148   5.068   2.452   4.642  0.4063  0.3114 -0.7396
19236SOL    HW159149   4.996   2.481   4.586 -1.7481  0.5388  1.9194
19236SOL    HW259150   5.092   2.367   4.607 -2.0898 -0.3748 -1.0157
19237SOL     OW59151   5.988   3.798   5.998 -0.4629  0.3212 -0.0405
19237SOL    HW159152   6.036   3.808   5.916  0.0482  0.8969  0.3212
19237SOL    HW259153   6.056   3.784   6.064 -0.8916 -0.5444  0.2314
19238SOL     OW59154   7.793   0.693   4.496  0.0220 -0.4415  0.2290
19238SOL    HW159155   7.872   0.671   4.545  0.3157 -0.5079 -0.2649
19238SOL    HW259156   7.770   0.781   4.526  0.6426 -0.1681 -0.0682
19239SOL     OW59157   5.218   2.782   4.651 -0.7903  0.3053 -0.4680
19239SOL    HW159158   5.149   2.723   4.679 -0.6179  0.0615 -0.5606
19239SOL    HW259159   5.174   2.866   4.638 -1.0489  0.1754 -0.4286
19240SOL     OW59160   6.918   3.190   4.351 -0.3460  0.6260 -0.5206
19240SOL    HW159161   6.928   3.265   4.410  0.3817  0.1431 -0.0083
19240SOL    HW259162   6.938   3.114   4.406  0.0618  0.1437 -1.3277
19241SOL     OW59163   5.608   2.944   7.608 -0.8218  0.3957 -0.8563
19241SOL    HW159164   5.666   2.931   7.683 -0.8414 -0.0194 -0.9136
19241SOL    HW259165   5.520   2.954   7.647 -0.7343  0.9005 -0.7783
19242SOL     OW59166   5.429   3.216   6.428  0.2068 -0.0153  0.0787
19242SOL    HW159167   5.430   3.178   6.340 -0.3521 -0.1312  0.1210
19242SOL    HW259168   5.388   3.301   6.417 -0.9875 -0.5326  0.4230
19243SOL     OW59169   6.349   1.941   3.590 -0.1370  0.1884  0.0333
19243SOL    HW159170   6.271   1.897   3.558 -0.9290  0.3139  1.6565
19243SOL    HW259171   6.396   1.968   3.511 -2.4907  1.4660 -1.0277
19244SOL     OW59172   6.670   3.838   4.559  0.3473 -0.2698 -0.0283
19244SOL    HW159173   6.619   3.819   4.480  2.8229 -1.3264 -1.4626
19244SOL    HW259174   6.618   3.905   4.605 -2.4544 -1.4735 -1.1826
19245SOL     OW59175   4.988   3.310   5.255 -0.2980 -0.3295  0.7951
19245SOL    HW159176   5.050   3.376   5.287  0.3976 -0.3206 -0.5237
19245SOL    HW259177   4.913   3.361   5.223  0.0556 -0.1908  0.1732
19246SOL     OW59178   7.754   2.642   5.604  1.0785  0.7434  0.0622
19246SOL    HW159179   7.677   2.687   5.636  0.8349 -0.6673  1.5745
19246SOL    HW259180   7.723   2.594   5.526 -0.2907 -1.7434  1.9846
19247SOL     OW59181   7.005   4.559   4.742  0.1497 -0.3867  0.0948
19247SOL    HW159182   7.092   4.593   4.766  0.1361 -0.8138  0.7817
19247SOL    HW259183   6.973   4.620   4.676  2.0310 -1.6367 -2.1255
19248SOL     OW59184   5.869   4.866   3.417  0.4999  0.0496  0.5145
19248SOL    HW159185   5.809   4.849   3.490  0.6194 -1.1723  0.3461
19248SOL    HW259186   5.903   4.954   3.435 -0.2531  0.1894  1.3740
19249SOL     OW59187   5.491   2.598   5.547 -0.1292 -0.8851 -1.0777
19249SOL    HW159188   5.439   2.624   5.471 -0.0835  1.7125 -0.3228
19249SOL    HW259189   5.575   2.570   5.512 -0.4907 -0.7893 -2.0306
19250SOL     OW59190   7.948   0.891   3.842 -0.2925  0.6545 -0.0923
19250SOL    HW159191   7.871   0.915   3.894  0.3451  2.4512  0.1220
19250SOL    HW259192   7.999   0.972   3.838  1.7447 -0.5610  0.0459
19251SOL     OW59193   4.686   1.787   4.876 -0.1393  0.4766  0.8092
19251SOL    HW159194   4.683   1.818   4.966 -0.8665  0.0828  0.9262
19251SOL    HW259195   4.615   1.724   4.869 -0.3424  0.7855 -0.1479
19252SOL     OW59196   5.947   3.521   3.851  0.1357  1.6671  0.5597
19252SOL    HW159197   5.940   3.616   3.862  0.2479  2.0566 -2.1527
19252SOL    HW259198   5.890   3.501   3.777 -0.1675 -0.4727  1.2993
19253SOL     OW59199   6.959   2.729   5.353 -0.8758  0.3540 -0.7406
19253SOL    HW159200   6.871   2.743   5.388 -1.1576 -0.0946 -1.2595
19253SOL    HW259201   6.980   2.811   5.308 -0.6115  0.8420  0.2307
19254SOL     OW59202   5.113   2.200   5.181 -0.2745 -0.1376  0.2354
19254SOL    HW159203   5.181   2.268   5.181 -0.0632 -0.3441  0.8656
19254SOL    HW259204   5.162   2.118   5.175 -0.2679 -0.4461  3.2727
19255SOL     OW59205   0.273   4.495   3.903 -0.2171 -0.2309 -0.7644
19255SOL    HW159206   0.185   4.514   3.937  0.5129  3.7371 -0.6230
19255SOL    HW259207   0.285   4.558   3.832  2.7264 -0.1948 -0.3578
19256SOL     OW59208   6.769   4.282   6.634 -0.0422  0.5386  0.2560
19256SOL    HW159209   6.830   4.316   6.700  0.4531  1.0751 -0.4589
19256SOL    HW259210   6.816   4.209   6.594  0.1868  1.0248 -0.3747
19257SOL     OW59211   5.968   1.819   6.598  0.1622 -0.6355  0.4160
19257SOL    HW159212   6.046   1.859   6.638  0.2906 -0.4328 -0.0351
19257SOL    HW259213   5.898   1.882   6.616  0.5781  0.3802 -1.2609
19258SOL     OW59214   7.587   1.684   5.644 -0.3438 -0.3027  0.2761
19258SOL    HW159215   7.543   1.712   5.724 -0.1983  0.7821 -0.0193
19258SOL    HW259216   7.659   1.628   5.675  0.0573  0.5596  0.9432
19259SOL     OW59217   6.126   4.241   4.612 -0.3319 -0.2658 -0.1502
19259SOL    HW159218   6.117   4.333   4.639  1.2233  0.9917 -3.4480
19259SOL    HW259219   6.038   4.216   4.584 -0.6758  0.3221  0.3565
19260SOL     OW59220   7.089   2.239   5.208  0.0184  0.0396 -0.3573
19260SOL    HW159221   7.006   2.281   5.231  0.2109 -0.3528  1.1695
19260SOL    HW259222   7.093   2.244   5.113  0.0125  3.4517 -0.2939
19261SOL     OW59223   5.734   3.519   4.176 -0.7779  0.2438  0.0890
19261SOL    HW159224   5.811   3.540   4.124 -0.9585  0.1300 -0.2232
19261SOL    HW259225   5.770   3.477   4.255 -0.5063  0.4274  0.0641
19262SOL     OW59226   4.710   2.074   5.563 -0.0018  0.0631 -0.3382
19262SOL    HW159227   4.658   2.017   5.619 -0.2902 -0.3053 -0.9670
19262SOL    HW259228   4.733   2.019   5.488  0.6731  0.4420 -0.4176
19263SOL     OW59229   5.773   0.870   6.053 -0.7894 -0.3190  0.3699
19263SOL    HW159230   5.867   0.852   6.057 -0.6216 -0.0706 -1.6140
19263SOL    HW259231   5.734   0.805   6.111  0.4421 -1.9331 -0.5181
19264SOL     OW59232   6.005   1.198   4.192  0.3164 -0.2622  0.4078
19264SOL    HW159233   6.085   1.179   4.241  0.1969  0.7636  1.0423
19264SOL    HW259234   6.036   1.246   4.115  0.3308  0.0970  0.6317
19265SOL     OW59235   7.429   1.606   4.848  0.1768 -0.1817 -0.0309
19265SOL    HW159236   7.494   1.614   4.918  0.2109 -0.1488 -0.0670
19265SOL    HW259237   7.361   1.670   4.871 -0.6597 -1.3543  0.9005
19266SOL     OW59238   4.182   2.477   3.908  0.6169  0.0832 -0.3581
19266SOL    HW159239   4.147   2.537   3.973  0.6753  0.5345 -0.7367
19266SOL    HW259240   4.106   2.444   3.861  0.4422 -1.3577  0.8652
19267SOL     OW59241   6.888   2.160   6.588  0.2748  0.5103  0.2458
19267SOL    HW159242   6.978   2.142   6.563 -0.0544  0.5156 -0.9867
19267SOL    HW259243   6.851   2.074   6.608 -0.0307  0.2506 -1.3126
19268SOL     OW59244   6.022   2.511   5.927  0.3561  0.7713  0.0890
19268SOL    HW159245   5.944   2.524   5.872  0.7152 -0.3382 -0.7152
19268SOL    HW259246   5.989   2.513   6.016 -1.0263 -1.9481 -0.2596
19269SOL     OW59247   7.222   3.063   4.327  0.1961  0.0380  0.3585
19269SOL    HW159248   7.161   3.135   4.309  1.9262  1.0105 -2.1739
19269SOL    HW259249   7.179   2.985   4.292  0.5430  0.8008 -1.9320
19270SOL     OW59250   7.222   2.855   5.729  0.3151 -0.0403 -0.2410
19270SOL    HW159251   7.178   2.781   5.689  0.3824 -0.3112  0.1806
19270SOL    HW259252   7.313   2.847   5.702  0.7746 -1.3135  1.4765
19271SOL     OW59253   1.241   2.919   5.774  0.1258  0.9378 -0.1235
19271SOL    HW159254   1.224   2.922   5.868 -1.2258  3.3640 -0.3369
19271SOL    HW259255   1.154   2.916   5.734  0.6742 -0.0295 -1.3035
19272SOL     OW59256   5.272   2.261   5.557  0.1037 -0.4979  0.3703
19272SOL    HW159257   5.266   2.176   5.601 -0.0820 -0.7966 -0.2163
19272SOL    HW259258   5.364   2.272   5.536  0.1162 -0.5896  0.3779
19273SOL     OW59259   0.186   3.328   6.055  0.0870  0.1954  0.3744
19273SOL    HW159260   0.228   3.278   5.986 -0.7110 -0.2262  0.1820
19273SOL    HW259261   0.108   3.277   6.079 -1.4779  1.9132 -0.7096
19274SOL     OW59262   6.919   2.471   5.282  0.0946  0.5684 -0.2032
19274SOL    HW159263   6.928   2.500   5.191  0.1121  0.6270 -0.1826
19274SOL    HW259264   6.925   2.551   5.334  2.2151  0.3152  0.0022
19275SOL     OW59265   6.417   3.029   3.579  0.0693 -0.3349 -0.0930
19275SOL    HW159266   6.383   3.109   3.538  1.0376 -0.3750 -0.9908
19275SOL    HW259267   6.492   3.059   3.630  0.8958 -0.7737 -1.0370
19276SOL     OW59268   0.182   2.959   7.153 -0.5347 -0.7098  0.0742
19276SOL    HW159269   0.089   2.941   7.167 -0.0352 -2.3553  1.7110
19276SOL    HW259270   0.227   2.902   7.215  1.4837  2.4148  1.7509
19277SOL     OW59271   7.622   3.041   4.887  0.2372 -0.0750  0.1559
19277SOL    HW159272   7.679   3.102   4.841 -0.2288  0.3289  0.0986
19277SOL    HW259273   7.592   2.981   4.819  0.2102  0.0105  0.0920
19278SOL     OW59274   4.748   2.458   3.986  0.3910 -0.9447 -0.6125
19278SOL    HW159275   4.778   2.459   3.895 -0.1322  0.1340 -0.7869
19278SOL    HW259276   4.657   2.428   3.980  0.1251 -0.1684 -0.5278
19279SOL     OW59277   7.689   2.535   5.939  0.5274 -0.6755 -0.0446
19279SOL    HW159278   7.641   2.466   5.984  1.1012 -1.6159 -0.8384
19279SOL    HW259279   7.693   2.506   5.848  2.6665 -0.6786  0.0091
19280SOL     OW59280   5.650   1.166   3.543 -0.1593 -0.5335 -0.0786
19280SOL    HW159281   5.606   1.229   3.601  1.4510  0.2877  0.3181
19280SOL    HW259282   5.707   1.117   3.602  0.3188 -0.7857 -0.7506
19281SOL     OW59283   6.747   2.726   4.238  0.2620  0.2283 -0.4514
19281SOL    HW159284   6.704   2.811   4.222  0.8729  0.6752  0.2189
19281SOL    HW259285   6.712   2.697   4.322 -2.4023 -1.7766 -2.1051
19282SOL     OW59286   6.425   3.741   4.852  0.0342 -0.0405  0.3273
19282SOL    HW159287   6.346   3.795   4.854  0.7764  1.0693  0.7155
19282SOL    HW259288   6.399   3.659   4.895 -1.3545 -0.3808 -1.0440
19283SOL     OW59289   3.752   2.449   5.764 -0.4122 -0.4002  0.2402
19283SOL    HW159290   3.713   2.461   5.677 -2.1424  0.7538  1.0990
19283SOL    HW259291   3.691   2.390   5.809  0.7398 -1.3964  0.5263
19284SOL     OW59292   2.747   2.937   5.301 -0.0763  0.4047  0.6243
19284SOL    HW159293   2.708   2.904   5.382  1.1442 -1.6955  0.4652
19284SOL    HW259294   2.745   2.861   5.241  3.4644  0.2918  0.4051
19285SOL     OW59295   4.791   3.185   6.332 -0.1837  0.0321 -0.6102
19285SOL    HW159296   4.750   3.263   6.295 -1.6325 -0.8739 -0.9871
19285SOL    HW259297   4.723   3.144   6.384  1.0438 -0.1415  0.9520
19286SOL     OW59298   6.790   3.178   5.306  0.1193 -1.0870  0.2137
19286SOL    HW159299   6.717   3.119   5.324 -0.2340 -1.0157 -0.9164
19286SOL    HW259300   6.761   3.263   5.338  0.4652 -1.4072  1.4672
19287SOL     OW59301   5.207   2.027   4.208 -0.0889 -0.0485 -0.6143
19287SOL    HW159302   5.112   2.036   4.215 -0.2559 -1.6174 -0.4013
19287SOL    HW259303   5.234   1.990   4.292  0.4820 -1.1180 -1.2503
19288SOL     OW59304   7.427   3.938   4.148  0.3848  0.0842 -0.0528
19288SOL    HW159305   7.493   3.871   4.167  0.3366  0.2606  0.8048
19288SOL    HW259306   7.416   3.936   4.053  0.4543 -1.0548 -0.0461
19289SOL     OW59307   3.929   2.196   4.157  0.1650 -0.3057  0.0375
19289SOL    HW159308   4.006   2.191   4.100  0.9384 -0.4364  1.0728
19289SOL    HW259309   3.903   2.105   4.169 -0.3675 -0.2426 -0.5794
19290SOL     OW59310   6.771   3.340   4.982 -0.0764  0.3915  0.1581
19290SOL    HW159311   6.777   3.256   5.027 -0.9202 -0.7313 -1.7080
19290SOL    HW259312   6.825   3.400   5.034  2.0144 -1.7144  0.5553
19291SOL     OW59313   0.126   1.598   4.650  0.1095 -0.7092 -0.0007
19291SOL    HW159314   0.198   1.601   4.588  0.5322  0.8929  0.5270
19291SOL    HW259315   0.167   1.608   4.736 -0.6528 -0.8420  0.3907
19292SOL     OW59316   5.891   2.459   6.139  0.4468  0.0021 -0.2732
19292SOL    HW159317   5.806   2.455   6.096  0.2483  0.9351  0.0127
19292SOL    HW259318   5.871   2.462   6.232  0.7819  0.3848 -0.2109
19293SOL     OW59319   6.442   3.387   4.330  0.1962  0.0193  0.2063
19293SOL    HW159320   6.472   3.443   4.258 -0.9052 -0.1526 -0.4180
19293SOL    HW259321   6.421   3.304   4.287  0.2491 -0.3299  0.8563
19294SOL     OW59322   6.095   2.406   5.508  0.2485 -0.4328 -0.6499
19294SOL    HW159323   6.136   2.476   5.559 -0.3219 -0.1287 -0.6008
19294SOL    HW259324   6.002   2.427   5.509  0.0718 -1.1846 -0.6493
19295SOL     OW59325   6.579   2.066   4.415 -0.0387  0.1883 -0.8111
19295SOL    HW159326   6.496   2.018   4.405  0.6633 -0.8372 -2.0807
19295SOL    HW259327   6.561   2.154   4.382 -0.8413  0.2218 -0.2939
19296SOL     OW59328   5.837   3.540   4.610  0.2883  0.1274  0.7140
19296SOL    HW159329   5.781   3.548   4.687 -2.8905  0.6581 -1.4729
19296SOL    HW259330   5.874   3.628   4.598  0.1613  0.2414  1.1582
19297SOL     OW59331   0.217   0.721   5.307 -0.1820 -0.3778 -0.6046
19297SOL    HW159332   0.174   0.696   5.226  1.5065 -2.5265 -0.9314
19297SOL    HW259333   0.280   0.788   5.281 -2.7414  2.4016 -0.2020
19298SOL     OW59334   5.977   2.658   4.407 -0.1450 -0.2185  0.2116
19298SOL    HW159335   5.901   2.631   4.356 -1.4148 -1.4583  2.5802
19298SOL    HW259336   6.052   2.628   4.356 -1.3498 -1.8553 -0.6890
19299SOL     OW59337   4.788   3.302   4.060 -0.2625 -0.0816 -0.0504
19299SOL    HW159338   4.860   3.317   4.121  2.1002 -2.2781 -2.0411
19299SOL    HW259339   4.774   3.207   4.063 -1.1105 -0.0515 -1.7638
19300SOL     OW59340   4.949   3.416   5.616 -0.0293 -0.7008  0.0767
19300SOL    HW159341   4.869   3.447   5.575  1.7820  2.4478 -1.4708
19300SOL    HW259342   4.931   3.420   5.710 -1.7069 -0.2008 -0.2284
19301SOL     OW59343   4.919   1.970   7.814  0.4129 -0.1199  0.1130
19301SOL    HW159344   4.924   1.989   7.721 -0.1769 -1.8427 -0.2963
19301SOL    HW259345   4.898   1.877   7.819 -1.9050  0.4000  1.9098
19302SOL     OW59346   4.137   1.144   5.807 -0.5425 -0.7425 -0.4553
19302SOL    HW159347   4.106   1.128   5.718  3.1007 -1.0540 -1.8153
19302SOL    HW259348   4.181   1.229   5.802 -1.7245  0.0523  1.5382
19303SOL     OW59349   5.334   4.228   6.248 -0.0213  0.4294 -0.1936
19303SOL    HW159350   5.397   4.186   6.189  2.1389  0.1715  2.1127
19303SOL    HW259351   5.249   4.193   6.221  1.1190 -1.4511 -1.6272
19304SOL     OW59352   6.509   4.255   6.779  0.1658 -0.3480 -0.1563
19304SOL    HW159353   6.590   4.235   6.734 -1.0863 -2.1356 -1.7596
19304SOL    HW259354   6.536   4.293   6.863  2.6058 -0.8154 -0.6790
19305SOL     OW59355   6.786   1.782   5.348  0.5341 -0.1777  0.2670
19305SOL    HW159356   6.809   1.797   5.439 -2.8935 -1.9034  1.5856
19305SOL    HW259357   6.847   1.716   5.317  0.5962 -0.9275  1.9298
19306SOL     OW59358   5.679   3.030   5.204 -0.7854 -0.1318  0.2284
19306SOL    HW159359   5.747   2.989   5.151 -0.3884 -1.1321  1.4520
19306SOL    HW259360   5.716   3.114   5.230  0.9319 -1.5138  2.5935
19307SOL     OW59361   7.063   2.294   6.347 -0.1317  0.4041  0.1300
19307SOL    HW159362   7.107   2.272   6.430 -0.5856 -0.1502  0.2344
19307SOL    HW259363   7.005   2.366   6.370  2.5402  2.9607 -0.5581
19308SOL     OW59364   4.819   2.688   8.322 -0.5470 -0.3663  0.1025
19308SOL    HW159365   4.760   2.660   8.253  0.5295 -1.5495 -0.3842
19308SOL    HW259366   4.847   2.776   8.297 -0.7988 -0.4649 -0.5220
19309SOL     OW59367   7.444   1.570   5.458  0.0678  0.7707  0.1559
19309SOL    HW159368   7.498   1.617   5.522 -0.4587  1.9101 -0.1964
19309SOL    HW259369   7.425   1.486   5.499  1.5481  0.5996  0.5596
19310SOL     OW59370   0.144   0.875   6.202 -0.2326 -0.4061  0.1058
19310SOL    HW159371   0.156   0.939   6.132  1.0667  0.1321  0.8153
19310SOL    HW259372   0.226   0.874   6.250 -1.9510  1.3571  3.4483
19311SOL     OW59373   5.750   2.303   6.336 -0.6512  0.2949  0.4304
19311SOL    HW159374   5.799   2.308   6.419 -0.3612  1.0490  0.2278
19311SOL    HW259375   5.784   2.225   6.292 -0.4162  0.1990  0.7782
19312SOL     OW59376   6.255   3.894   9.464  0.5184  0.0690  0.0117
19312SOL    HW159377   6.344   3.867   9.440  0.6723  0.3990  0.2053
19312SOL    HW259378   6.249   3.875   9.557  1.0134  1.7086  0.4126
19313SOL     OW59379   7.561   1.833   8.026 -0.0478 -0.1320  0.0880
19313SOL    HW159380   7.594   1.783   8.100 -1.8139 -0.1714  0.8874
19313SOL    HW259381   7.483   1.786   7.998 -0.2209  0.6951 -0.8757
19314SOL     OW59382   7.134   2.650   5.543  0.0558 -0.8698 -0.6420
19314SOL    HW159383   7.214   2.651   5.491  1.0338  1.0147  0.7929
19314SOL    HW259384   7.064   2.670   5.480  0.6797 -2.3666 -1.8766
19315SOL     OW59385   7.225   2.307   6.927  0.2397 -0.0015  0.5875
19315SOL    HW159386   7.250   2.388   6.972 -1.3465  0.3587  0.8756
19315SOL    HW259387   7.204   2.335   6.838  0.1638 -0.1737  0.5512
19316SOL     OW59388   5.573   3.344   8.224 -0.2891 -0.2098  0.0276
19316SOL    HW159389   5.617   3.361   8.308 -1.5207  1.6265  0.3655
19316SOL    HW259390   5.484   3.378   8.236 -0.9108 -1.1318 -1.6054
19317SOL     OW59391   5.135   2.504   5.492 -0.4910  0.8556 -0.1239
19317SOL    HW159392   5.184   2.581   5.522  0.8153  0.3261 -0.8086
19317SOL    HW259393   5.201   2.434   5.487 -1.3654  0.0503 -0.8499
19318SOL     OW59394   5.944   3.924   8.389 -0.1675  0.1779  0.0064
19318SOL    HW159395   6.018   3.888   8.341 -0.6644 -1.7881  0.6315
19318SOL    HW259396   5.921   3.856   8.452 -2.7567  0.5515 -0.4254
19319SOL     OW59397   6.097   4.438   6.689 -0.4261 -0.1906  0.2830
19319SOL    HW159398   6.031   4.369   6.682 -0.4726 -0.0556 -0.8901
19319SOL    HW259399   6.047   4.517   6.709 -0.5551 -0.2048  0.0239
19320SOL     OW59400   7.055   6.860   5.553 -0.1887  0.0808  0.0573
19320SOL    HW159401   6.983   6.922   5.564 -0.9861 -0.5769 -1.2981
19320SOL    HW259402   7.122   6.909   5.505 -0.2729  0.2750  0.1340
19321SOL     OW59403   5.212   2.142   7.097  0.0498 -0.4706  0.5466
19321SOL    HW159404   5.201   2.190   7.179 -0.5392  1.4171 -0.5831
19321SOL    HW259405   5.132   2.090   7.089  0.3523 -1.0998  1.4071
19322SOL     OW59406   0.228   2.494   5.897 -0.8163  0.1918  0.2600
19322SOL    HW159407   0.181   2.508   5.980 -0.6714  1.0519  0.2051
19322SOL    HW259408   0.167   2.524   5.830 -0.2956  1.0984  0.1735
19323SOL     OW59409   5.225   4.023   4.947 -0.1482  0.3245  0.1328
19323SOL    HW159410   5.138   3.983   4.949 -1.0714  1.8294 -2.9179
19323SOL    HW259411   5.215   4.104   4.996  0.0383 -0.2823  1.1982
19324SOL     OW59412   6.387   3.618   7.711  0.0395  0.5453  0.0580
19324SOL    HW159413   6.336   3.548   7.753 -0.2538  0.3992 -0.5319
19324SOL    HW259414   6.388   3.688   7.776  0.4464 -0.0528  0.7088
19325SOL     OW59415   7.780   0.449   5.111  0.1536 -0.0871 -0.0150
19325SOL    HW159416   7.687   0.429   5.122  0.4287 -0.6982  1.4780
19325SOL    HW259417   7.825   0.373   5.148  1.2444  0.9800  0.9085
19326SOL     OW59418   4.355   2.352   7.024 -0.1500 -0.5865  0.1847
19326SOL    HW159419   4.364   2.309   6.939  0.8192  1.0690 -0.6031
19326SOL    HW259420   4.261   2.370   7.032 -0.3057 -1.1632 -0.3208
19327SOL     OW59421   5.529   3.760   6.991 -0.5294  0.1854 -0.2142
19327SOL    HW159422   5.497   3.847   7.015 -0.6653  0.1335 -0.2065
19327SOL    HW259423   5.451   3.712   6.964 -0.8269 -0.6561  1.9196
19328SOL     OW59424   6.962   3.184   6.810  0.3476 -1.2022  0.3399
19328SOL    HW159425   6.929   3.210   6.896 -3.0388 -0.8061 -0.9400
19328SOL    HW259426   7.032   3.247   6.792 -0.2697  0.0186  1.9579
19329SOL     OW59427   5.285   1.232   5.810  0.0998 -0.1316  0.7172
19329SOL    HW159428   5.197   1.268   5.796 -0.2044 -0.4606  1.6569
19329SOL    HW259429   5.277   1.139   5.787  0.2365 -0.1225  0.6377
19330SOL     OW59430   4.646   2.560   8.096 -0.8010  0.0987 -0.5150
19330SOL    HW159431   4.615   2.651   8.100 -0.9569  0.1148 -1.7579
19330SOL    HW259432   4.593   2.520   8.026  1.1637 -0.1884 -1.9038
19331SOL     OW59433   7.437   2.548   7.465  0.1961  0.4896  0.0445
19331SOL    HW159434   7.529   2.573   7.464  0.6192 -0.9891 -0.1789
19331SOL    HW259435   7.438   2.452   7.472 -1.3108  0.3874 -0.7958
19332SOL     OW59436   6.583   3.904   6.247 -1.0299  0.0596 -0.0575
19332SOL    HW159437   6.564   3.866   6.332 -1.1262 -1.8429 -0.8918
19332SOL    HW259438   6.678   3.898   6.238 -1.0580 -0.1010 -0.2482
19333SOL     OW59439   6.748   2.592   8.252 -0.8017 -0.0396  0.0949
19333SOL    HW159440   6.794   2.676   8.252 -0.4612 -0.2183  0.6096
19333SOL    HW259441   6.656   2.615   8.242 -0.8595  0.4942  1.6052
19334SOL     OW59442   0.502   3.865   6.239 -0.3057  0.3816 -0.2552
19334SOL    HW159443   0.564   3.923   6.196  0.7613 -1.2337 -0.9741
19334SOL    HW259444   0.419   3.880   6.193  0.0448  1.0366 -0.6768
19335SOL     OW59445   7.034   3.741   6.825 -0.3428  0.2527 -0.5288
19335SOL    HW159446   7.001   3.830   6.816  0.0834  0.6948  1.8143
19335SOL    HW259447   6.982   3.701   6.894  0.9112 -0.5794 -0.0167
19336SOL     OW59448   5.506   2.429   6.302  0.4317  0.2801  0.8074
19336SOL    HW159449   5.429   2.372   6.311 -0.1168  1.3027  3.3224
19336SOL    HW259450   5.579   2.368   6.295 -0.4631 -0.7159 -0.2303
19337SOL     OW59451   0.239   4.455   7.096  0.0048  0.0269 -0.1180
19337SOL    HW159452   0.173   4.442   7.028  1.1972  0.7652 -1.4736
19337SOL    HW259453   0.288   4.373   7.098  0.0847  0.0695 -0.2943
19338SOL     OW59454   6.910   2.317   6.952  0.0699  0.0588 -0.0103
19338SOL    HW159455   6.949   2.366   6.880 -0.5366  1.0278  0.3094
19338SOL    HW259456   6.846   2.376   6.990 -0.0197 -0.6430  0.9773
19339SOL     OW59457   7.210   1.049   6.175  0.3212  0.1674 -0.2936
19339SOL    HW159458   7.169   1.106   6.241  0.2524  0.1750 -0.3437
19339SOL    HW259459   7.169   1.074   6.093  0.7298  0.4749 -0.4096
19340SOL     OW59460   5.852   3.331   7.915 -0.2093 -0.0289 -0.0519
19340SOL    HW159461   5.763   3.326   7.950 -0.0406  0.3927  0.4504
19340SOL    HW259462   5.893   3.403   7.963  0.6475 -0.7214  0.2737
19341SOL     OW59463   5.179   2.752   5.681  0.7434  0.4034  0.0780
19341SOL    HW159464   5.262   2.739   5.725 -0.3476 -0.1079  2.1172
19341SOL    HW259465   5.113   2.732   5.747 -1.0365 -1.6388 -2.1030
19342SOL     OW59466   7.851   2.024   5.813 -0.1849  0.7632  0.0313
19342SOL    HW159467   7.904   2.074   5.751  1.2489 -1.5878 -0.7889
19342SOL    HW259468   7.783   1.983   5.759  0.9942 -1.1967 -0.0755
19343SOL     OW59469   4.057   2.777   5.569 -0.3301 -0.1849  0.0088
19343SOL    HW159470   3.963   2.783   5.549 -0.3687 -0.0630  0.2195
19343SOL    HW259471   4.098   2.840   5.511 -0.4774  0.4112  0.5435
19344SOL     OW59472   4.954   4.686   5.827 -0.2438  0.2550 -0.4767
19344SOL    HW159473   4.904   4.605   5.814 -0.1410 -0.3312  2.2549
19344SOL    HW259474   4.888   4.754   5.834 -0.3495  0.3898 -2.3958
19345SOL     OW59475   5.429   2.634   5.802  0.1689  0.0467 -0.0261
19345SOL    HW159476   5.427   2.630   5.707  2.3647  0.6675 -0.1511
19345SOL    HW259477   5.404   2.546   5.830 -0.6661 -0.0902 -1.1607
19346SOL     OW59478   0.219   3.589   5.699  0.2214  0.0060 -0.1310
19346SOL    HW159479   0.274   3.552   5.768 -0.1795  0.3188  0.3622
19346SOL    HW259480   0.202   3.515   5.640 -2.0181 -1.1449  1.7633
19347SOL     OW59481   4.608   1.243   5.543  0.2299 -0.2579 -0.0578
19347SOL    HW159482   4.518   1.211   5.535 -0.0610  0.4588  0.2804
19347SOL    HW259483   4.655   1.171   5.585 -0.0509 -0.8601 -0.7575
19348SOL     OW59484   6.847   4.224   4.928 -0.1572 -0.1863  0.2981
19348SOL    HW159485   6.891   4.242   5.010 -0.4563 -0.0496  0.4315
19348SOL    HW259486   6.885   4.286   4.866  1.3223 -1.4293 -0.1113
19349SOL     OW59487   6.387   5.032   6.470  0.2989  0.0418 -0.3658
19349SOL    HW159488   6.476   5.043   6.438  0.3117  0.0688 -0.3204
19349SOL    HW259489   6.396   4.990   6.556  0.1916 -1.4448 -1.0622
19350SOL     OW59490   7.470   1.734   7.000 -0.1413 -0.4507 -0.3817
19350SOL    HW159491   7.536   1.738   6.931 -0.3999  2.7717 -0.6104
19350SOL    HW259492   7.492   1.807   7.058 -2.1625 -0.7184  0.8322
19351SOL     OW59493   7.610   3.876   6.629 -0.3717  0.2682  0.0659
19351SOL    HW159494   7.691   3.824   6.627 -1.2927 -1.2401  0.4949
19351SOL    HW259495   7.614   3.924   6.711 -0.0164  0.0098  0.2027
19352SOL     OW59496   7.486   4.030   6.035 -0.2602  0.0403 -0.1258
19352SOL    HW159497   7.566   4.039   5.983 -0.4071  2.5524 -0.0201
19352SOL    HW259498   7.415   4.038   5.972 -0.4291  1.7652  0.2616
19353SOL     OW59499   7.644   4.081   6.454  0.1609  0.1295  0.1795
19353SOL    HW159500   7.566   4.097   6.401  0.7991 -0.4387 -0.9420
19353SOL    HW259501   7.618   4.011   6.514 -0.2822  0.1527  0.0206
19354SOL     OW59502   6.740   3.688   5.356 -0.8491 -0.0726 -0.6311
19354SOL    HW159503   6.815   3.726   5.310  0.3981 -1.5656  0.0623
19354SOL    HW259504   6.668   3.693   5.293  0.5671 -1.2368 -2.4630
19355SOL     OW59505   4.761   2.142   7.979 -0.0718 -0.0366 -0.1214
19355SOL    HW159506   4.829   2.082   7.948 -0.5420 -0.7746  0.2367
19355SOL    HW259507   4.808   2.219   8.009  0.7238 -1.0586  1.3634
19356SOL     OW59508   0.444   3.488   5.892 -0.3067 -0.8601  0.0766
19356SOL    HW159509   0.489   3.421   5.841  0.8423 -0.3801  0.4417
19356SOL    HW259510   0.499   3.566   5.885 -2.0665  0.3582 -1.0888
19357SOL     OW59511   5.943   2.258   7.260 -0.4102 -0.8520 -0.1602
19357SOL    HW159512   5.882   2.312   7.209 -0.8462 -0.8277  0.3856
19357SOL    HW259513   5.998   2.322   7.306 -0.1060 -0.8752 -0.4850
19358SOL     OW59514   6.912   2.557   7.298  0.1372  0.0321  0.3619
19358SOL    HW159515   6.936   2.569   7.207  2.5017 -0.5038  0.8436
19358SOL    HW259516   6.827   2.513   7.295  0.4556 -0.5324 -1.5893
19359SOL     OW59517   5.404   3.690   7.372  0.2497  0.2753 -0.3188
19359SOL    HW159518   5.316   3.669   7.341  1.4026 -2.8963 -1.8518
19359SOL    HW259519   5.425   3.622   7.435  1.3794  1.4321  0.6226
19360SOL     OW59520   7.527   3.624   6.940 -0.1181  0.0854 -0.0878
19360SOL    HW159521   7.575   3.574   6.873  1.2935 -0.2818  1.1551
19360SOL    HW259522   7.445   3.649   6.896 -1.0393 -3.4846 -0.7667
19361SOL     OW59523   6.012   0.877   6.896  0.6745  0.1277 -0.0342
19361SOL    HW159524   5.924   0.914   6.886  1.1157  1.7201  1.4060
19361SOL    HW259525   5.998   0.783   6.905 -0.6945  0.1221 -1.7623
19362SOL     OW59526   6.624   2.857   7.334  0.7452  0.3189 -0.0389
19362SOL    HW159527   6.571   2.937   7.326 -1.3117 -1.0344 -0.9856
19362SOL    HW259528   6.710   2.881   7.300 -0.4308  1.6261 -2.3710
19363SOL     OW59529   5.716   1.421   7.095 -0.6042 -0.3613  0.1435
19363SOL    HW159530   5.746   1.414   7.186  1.8756  0.8746 -0.5116
19363SOL    HW259531   5.676   1.336   7.076  1.3783 -1.6690  1.5273
19364SOL     OW59532   6.420   1.307   8.737 -0.0018  0.1839 -0.0856
19364SOL    HW159533   6.422   1.400   8.758  1.3121 -0.2761  2.0749
19364SOL    HW259534   6.503   1.290   8.692  0.5412 -0.2476  1.0568
19365SOL     OW59535   6.126   3.079   6.118  0.1373  0.2452  0.8423
19365SOL    HW159536   6.060   3.116   6.059  0.0492  3.0883  2.5496
19365SOL    HW259537   6.199   3.055   6.061 -0.3643  1.8658 -0.5589
19366SOL     OW59538   7.398   3.437   8.173 -0.2484  0.3799 -0.8152
19366SOL    HW159539   7.493   3.429   8.167 -0.1615  0.7123 -0.0202
19366SOL    HW259540   7.377   3.513   8.119 -0.2565 -0.6253 -2.2904
19367SOL     OW59541   5.102   1.198   7.286 -0.1271 -0.4633  0.1992
19367SOL    HW159542   5.129   1.212   7.377  1.2794 -1.3352 -0.0590
19367SOL    HW259543   5.177   1.227   7.234 -0.0285 -2.0181 -0.5903
19368SOL     OW59544   7.048   2.804   6.230 -0.2269  0.2458 -0.1491
19368SOL    HW159545   7.053   2.728   6.288 -3.0219  0.2738  0.2334
19368SOL    HW259546   7.062   2.769   6.142 -1.4024 -0.7176  0.0314
19369SOL     OW59547   3.928   1.657   5.837  0.4035  0.1413 -0.1699
19369SOL    HW159548   3.969   1.742   5.820 -0.1344  0.8173  1.6680
19369SOL    HW259549   3.959   1.601   5.766  0.6682  1.8908 -1.5048
19370SOL     OW59550   7.771   3.589   5.124 -0.1626 -0.0076  0.0894
19370SOL    HW159551   7.738   3.503   5.098  0.2862 -0.1035 -0.1776
19370SOL    HW259552   7.849   3.602   5.070  0.5054  0.0043  1.0365
19371SOL     OW59553   7.830   3.786   7.058 -0.2840  0.0758  0.6345
19371SOL    HW159554   7.749   3.755   7.018  0.3430 -0.7469 -0.0482
19371SOL    HW259555   7.839   3.876   7.026 -0.3249 -0.2271 -0.2609
19372SOL     OW59556   6.123   2.801   5.810  0.2745 -0.4139 -0.2989
19372SOL    HW159557   6.058   2.836   5.749 -0.0024  0.1186  0.2929
19372SOL    HW259558   6.072   2.764   5.882  0.6052 -0.8031 -0.2628
19373SOL     OW59559   6.860   1.747   7.561  0.2263  0.6711 -0.3415
19373SOL    HW159560   6.786   1.793   7.522 -1.9023 -1.2916  1.1072
19373SOL    HW259561   6.872   1.669   7.507  0.2378  0.2253  0.2891
19374SOL     OW59562   7.746   3.066   6.669 -0.1947  0.0347 -0.1380
19374SOL    HW159563   7.692   3.042   6.745  0.3954  0.6093  0.4711
19374SOL    HW259564   7.730   2.995   6.606 -1.2548 -0.0722  0.2284
19375SOL     OW59565   7.626   3.274   6.978 -0.2402  0.0015  0.1726
19375SOL    HW159566   7.553   3.311   7.027 -1.3463 -2.3516  0.4234
19375SOL    HW259567   7.591   3.194   6.939  2.0554 -0.9147 -0.1845
19376SOL     OW59568   6.222   3.436   7.481  0.1262  0.0293  0.1528
19376SOL    HW159569   6.311   3.431   7.515 -0.0083 -0.7525  0.3973
19376SOL    HW259570   6.167   3.399   7.549 -0.2708 -0.4750 -0.4285
19377SOL     OW59571   6.984   2.651   5.786  0.2887  0.5727 -0.2047
19377SOL    HW159572   6.900   2.608   5.771  0.4333  0.4092 -0.5845
19377SOL    HW259573   7.033   2.637   5.704  0.3463  1.4530 -0.3295
19378SOL     OW59574   4.949   2.352   6.558 -0.0811  0.2488  0.0836
19378SOL    HW159575   4.950   2.383   6.467  0.1274  1.7137  0.5468
19378SOL    HW259576   4.890   2.277   6.557  2.2473 -1.7379 -1.8307
19379SOL     OW59577   5.539   3.407   7.945 -0.1535 -0.0687 -0.4845
19379SOL    HW159578   5.473   3.476   7.938 -1.1716 -0.9499  0.0141
19379SOL    HW259579   5.531   3.376   8.035  1.9907  0.7772  0.0570
19380SOL     OW59580   6.791   1.313   7.515  0.0867 -0.8215 -0.0385
19380SOL    HW159581   6.757   1.363   7.589 -0.4480 -1.7562  0.3602
19380SOL    HW259582   6.716   1.261   7.485  0.4910 -0.9842 -0.7931
19381SOL     OW59583   6.632   1.626   6.457  0.8255  0.1631  0.1358
19381SOL    HW159584   6.548   1.595   6.491  0.5426  0.9010  0.1232
19381SOL    HW259585   6.609   1.703   6.404  1.2007 -1.0254 -1.8887
19382SOL     OW59586   7.188   3.080   6.527 -0.3940  0.1338  0.7499
19382SOL    HW159587   7.156   3.126   6.604 -0.5077 -0.9271  1.3561
19382SOL    HW259588   7.201   2.990   6.556  0.8275 -0.0003 -0.1280
19383SOL     OW59589   6.854   3.646   6.008 -0.1074 -0.1142 -0.1389
19383SOL    HW159590   6.886   3.691   6.086  1.2694 -1.2920  0.0199
19383SOL    HW259591   6.849   3.715   5.941 -0.2431  0.6898  0.6881
19384SOL     OW59592   0.913   1.088   5.177  0.4308 -0.1057  0.1624
19384SOL    HW159593   0.880   1.011   5.131 -2.2516  1.6451 -1.1292
19384SOL    HW259594   0.860   1.093   5.257  0.3616  0.5049  0.0875
19385SOL     OW59595   5.188   2.863   5.198 -0.3434 -0.1570  0.8059
19385SOL    HW159596   5.149   2.887   5.281 -0.9917 -0.6988  0.6640
19385SOL    HW259597   5.272   2.909   5.197 -0.8876  0.8737  1.1871
19386SOL     OW59598   6.180   4.251   5.410  0.3041  0.2762  0.2655
19386SOL    HW159599   6.269   4.278   5.432  0.3756 -0.2377  0.6213
19386SOL    HW259600   6.190   4.194   5.334  0.2882  0.1303  0.3732
19387SOL     OW59601   6.354   2.760   4.140 -0.0549 -0.3434 -0.6219
19387SOL    HW159602   6.435   2.716   4.114  0.9205 -0.3122  2.0288
19387SOL    HW259603   6.360   2.847   4.102  1.3298 -0.2533 -0.2441
19388SOL     OW59604   7.202   1.436   5.809 -0.2844  0.2992 -0.5171
19388SOL    HW159605   7.117   1.444   5.765 -1.4338  0.7593  1.6447
19388SOL    HW259606   7.211   1.517   5.858  1.3794  0.1983 -0.6255
19389SOL     OW59607   7.559   4.364   6.137 -0.2643  0.0556 -0.1085
19389SOL    HW159608   7.515   4.337   6.056 -0.2862  0.2673 -0.1688
19389SOL    HW259609   7.647   4.390   6.108 -0.3154  0.2551 -0.0838
19390SOL     OW59610   6.019   3.993   6.760 -0.0025 -0.0488  0.3582
19390SOL    HW159611   5.998   3.906   6.793 -0.6244  1.4389  4.5387
19390SOL    HW259612   6.093   4.022   6.813 -0.1592  2.1693 -0.5158
19391SOL     OW59613   7.963   4.036   8.562  0.3290 -0.2110  0.4001
19391SOL    HW159614   7.990   4.119   8.602 -0.2502  0.9818 -1.5117
19391SOL    HW259615   7.884   4.011   8.611 -0.1386  0.9924  0.3199
19392SOL     OW59616   7.903   3.427   6.176  0.1430  0.3693 -0.3669
19392SOL    HW159617   7.944   3.400   6.259  0.9628  0.7517 -0.6328
19392SOL    HW259618   7.848   3.501   6.200  0.8960  0.9065 -0.2604
19393SOL     OW59619   4.892   1.827   8.482 -0.7543 -0.2032 -0.4488
19393SOL    HW159620   4.881   1.739   8.517 -2.3136  0.1461  0.0047
19393SOL    HW259621   4.965   1.819   8.420 -0.6489 -1.7263 -0.1653
19394SOL     OW59622   6.587   1.840   6.286 -0.2371 -0.3310  0.5028
19394SOL    HW159623   6.616   1.886   6.206  2.5152 -0.0182  1.5716
19394SOL    HW259624   6.494   1.822   6.270 -0.3074  1.5137 -1.9079
19395SOL     OW59625   5.861   4.470   8.437  0.4367  0.0277 -0.0396
19395SOL    HW159626   5.846   4.378   8.461  1.2658 -0.8178 -2.5081
19395SOL    HW259627   5.787   4.493   8.382  0.1531  0.9400  0.6883
19396SOL     OW59628   5.821   4.082   6.014  1.3370 -0.5489 -0.2394
19396SOL    HW159629   5.850   3.992   6.025  0.3783 -0.7533  0.7538
19396SOL    HW259630   5.745   4.090   6.071  1.1410  0.7654 -0.6529
19397SOL     OW59631   5.398   1.987   4.803 -0.3586  0.2486 -0.1352
19397SOL    HW159632   5.340   1.976   4.727 -2.0192  0.8263  0.9823
19397SOL    HW259633   5.407   1.899   4.839  0.3904 -0.0191 -0.9344
19398SOL     OW59634   6.406   3.521   6.547 -0.0360 -0.4027 -0.6996
19398SOL    HW159635   6.470   3.482   6.487  0.4597 -0.5067 -0.1153
19398SOL    HW259636   6.321   3.508   6.504  0.3241 -0.3600 -1.4326
19399SOL     OW59637   6.650   3.169   6.020 -0.0480 -0.0033 -0.7012
19399SOL    HW159638   6.612   3.256   6.031  1.9620  0.9094 -0.4860
19399SOL    HW259639   6.669   3.163   5.926 -0.0653 -0.1559 -0.6945
19400SOL     OW59640   5.054   4.403   5.626 -0.3760 -0.4733  0.2894
19400SOL    HW159641   4.981   4.422   5.567 -0.7768 -2.3498  0.1286
19400SOL    HW259642   5.013   4.393   5.712 -0.4942 -2.4008  0.0553
19401SOL     OW59643   6.691   0.963   6.281  0.0017  0.4405  0.4757
19401SOL    HW159644   6.652   1.024   6.343  0.6208  0.3996  0.9216
19401SOL    HW259645   6.771   0.932   6.325 -0.2553 -0.6279  0.2313
19402SOL     OW59646   6.593   4.227   6.225  0.4597 -0.2893  0.3267
19402SOL    HW159647   6.652   4.283   6.276  1.0799 -0.5410 -0.1035
19402SOL    HW259648   6.607   4.140   6.260  0.4218 -0.3643  0.1547
19403SOL     OW59649   6.368   3.538   8.765 -0.4006 -0.3049  0.2921
19403SOL    HW159650   6.389   3.568   8.677 -1.0817 -0.4255  0.0826
19403SOL    HW259651   6.449   3.551   8.815  0.0016 -0.2707 -0.3558
19404SOL     OW59652   0.278   2.427   5.449 -0.4167 -0.2475  0.0803
19404SOL    HW159653   0.229   2.507   5.465 -0.6281 -0.6580  1.6235
19404SOL    HW259654   0.368   2.449   5.469  0.0634  0.4336 -2.5056
19405SOL     OW59655   6.613   3.037   6.489  0.2077 -0.5058 -0.1128
19405SOL    HW159656   6.535   3.092   6.494  0.9130  0.4223  1.2435
19405SOL    HW259657   6.581   2.950   6.514 -0.5013 -0.2538 -0.0917
19406SOL     OW59658   6.610   3.690   8.179  0.0970 -0.2237 -0.6528
19406SOL    HW159659   6.607   3.596   8.194 -0.2370 -0.0662  0.3785
19406SOL    HW259660   6.616   3.728   8.266 -0.5109  0.7339 -1.0041
19407SOL     OW59661   0.153   3.313   8.032 -0.7854  0.0479  0.2921
19407SOL    HW159662   0.117   3.256   8.100 -0.5428  1.3284  1.5540
19407SOL    HW259663   0.167   3.397   8.077 -1.0500  1.0814 -1.4646
19408SOL     OW59664   6.437   2.333   7.148 -0.4104 -0.2663  0.4510
19408SOL    HW159665   6.377   2.387   7.200 -0.5961 -0.2852  0.2569
19408SOL    HW259666   6.472   2.393   7.082 -0.8848 -0.4643  0.0120
19409SOL     OW59667   7.532   1.529   7.851  0.5531  0.2045 -0.5576
19409SOL    HW159668   7.623   1.501   7.845 -0.1116 -1.9893 -1.7522
19409SOL    HW259669   7.532   1.620   7.823  2.2108 -0.1613 -1.8866
19410SOL     OW59670   7.689   1.198   7.164  0.3717  0.0719  0.0278
19410SOL    HW159671   7.738   1.195   7.246 -0.9026 -1.6452  0.7911
19410SOL    HW259672   7.649   1.285   7.164  0.8996  0.3343  0.9094
19411SOL     OW59673   7.464   2.155   6.867  0.4989 -0.5393 -0.5094
19411SOL    HW159674   7.373   2.131   6.850  0.3985 -0.1430 -0.5544
19411SOL    HW259675   7.508   2.149   6.782  0.5009 -0.6794 -0.4975
19412SOL     OW59676   0.283   3.588   6.094  0.4787 -0.1458 -0.1176
19412SOL    HW159677   0.357   3.574   6.034  0.9365 -2.7826  0.8882
19412SOL    HW259678   0.249   3.500   6.109 -0.8809  0.6754  1.9313
19413SOL     OW59679   5.510   4.198   6.704 -0.4754 -0.1951  0.4821
19413SOL    HW159680   5.487   4.133   6.639 -1.5482  0.6639 -0.0333
19413SOL    HW259681   5.428   4.218   6.749 -0.1182  0.5956  0.8192
19414SOL     OW59682   7.172   1.333   6.763 -0.2581 -0.1056 -0.9561
19414SOL    HW159683   7.235   1.380   6.817  0.6409 -1.3211 -0.9155
19414SOL    HW259684   7.123   1.402   6.718 -0.7483  0.9392  1.0521
19415SOL     OW59685   6.337   2.739   7.898  0.2323 -0.2811  0.3425
19415SOL    HW159686   6.418   2.791   7.896  0.1803 -0.2070  0.0486
19415SOL    HW259687   6.269   2.803   7.920  0.1824 -0.2405  0.0788
19416SOL     OW59688   5.331   2.238   4.366 -0.2877  0.1182 -0.2079
19416SOL    HW159689   5.321   2.179   4.441 -0.6886 -0.6516 -0.8421
19416SOL    HW259690   5.317   2.181   4.290  0.5374  0.7925 -0.8789
19417SOL     OW59691   7.334   1.891   7.241  0.0155 -0.8287 -0.0557
19417SOL    HW159692   7.345   1.981   7.211  2.2785 -1.6813 -2.1623
19417SOL    HW259693   7.242   1.871   7.226  0.1104  0.2441 -2.3929
19418SOL     OW59694   5.307   3.125   7.681  0.6840 -0.1708  0.3930
19418SOL    HW159695   5.384   3.180   7.691  0.3906  0.1778  0.7685
19418SOL    HW259696   5.254   3.169   7.614  0.2124  0.2848  1.0531
19419SOL     OW59697   4.360   2.644   7.676 -0.5103 -0.1213 -0.2181
19419SOL    HW159698   4.330   2.700   7.605 -1.3971 -0.4391 -0.0951
19419SOL    HW259699   4.346   2.697   7.755  0.2321  0.1308 -0.2468
19420SOL     OW59700   1.316   2.511   5.831  0.2199 -0.3525  0.7281
19420SOL    HW159701   1.365   2.453   5.773 -0.5530 -0.2447 -0.0607
19420SOL    HW259702   1.234   2.464   5.849 -0.1657  0.2376  0.5534
19421SOL     OW59703   0.642   2.564   5.860  0.2287  0.3965  0.2434
19421SOL    HW159704   0.657   2.609   5.777 -0.9355  1.3090  0.4977
19421SOL    HW259705   0.641   2.633   5.926 -0.2133 -0.1590  0.8399
19422SOL     OW59706   6.090   1.722   6.193  0.9341  0.1272  0.1072
19422SOL    HW159707   6.045   1.764   6.120 -0.2408 -2.4172 -0.7474
19422SOL    HW259708   6.029   1.728   6.266  0.9225  0.2092  0.0908
19423SOL     OW59709   6.591   2.232   6.846 -0.1606  0.5452  0.3145
19423SOL    HW159710   6.637   2.316   6.850 -0.1540  0.5116  1.0479
19423SOL    HW259711   6.645   2.172   6.896 -1.0893  0.5505  1.3549
19424SOL     OW59712   5.805   2.219   4.453 -0.5226 -0.4343 -0.1619
19424SOL    HW159713   5.764   2.245   4.370 -1.4802 -1.1127  0.0732
19424SOL    HW259714   5.864   2.148   4.428  0.3981  0.4192 -0.4765
19425SOL     OW59715   6.094   2.941   6.348 -0.2794 -0.1539  0.7500
19425SOL    HW159716   5.999   2.940   6.357 -0.2832  2.2932  1.7973
19425SOL    HW259717   6.110   2.990   6.267  0.0561  1.2805  1.6424
19426SOL     OW59718   5.254   0.389   8.607 -0.2839  0.3774  0.4187
19426SOL    HW159719   5.341   0.373   8.569 -1.0291 -2.9751 -0.1200
19426SOL    HW259720   5.249   0.485   8.614  2.4475  0.8356 -1.8857
19427SOL     OW59721   4.828   2.757   7.967  0.3813  0.3356 -0.0521
19427SOL    HW159722   4.761   2.777   8.032 -0.1896  0.4584 -0.6631
19427SOL    HW259723   4.788   2.782   7.883  2.0058  2.5455 -0.2639
19428SOL     OW59724   5.512   3.533   5.863 -0.2553 -0.0443  0.4443
19428SOL    HW159725   5.522   3.443   5.895  0.2642 -0.1488 -0.0023
19428SOL    HW259726   5.449   3.572   5.923 -0.4958 -0.7098  0.6403
19429SOL     OW59727   7.170   2.639   6.815  0.3258 -0.4639  0.2588
19429SOL    HW159728   7.129   2.565   6.770  0.8701 -0.6764  0.0955
19429SOL    HW259729   7.209   2.600   6.894 -0.9233 -0.0351  1.1063
19430SOL     OW59730   7.158   3.133   5.463 -0.2924 -0.0031 -0.0481
19430SOL    HW159731   7.134   3.180   5.543 -3.1294 -0.5083 -0.5171
19430SOL    HW259732   7.233   3.183   5.428  0.0934  1.0692  2.1168
19431SOL     OW59733   4.478   2.371   5.877 -0.3352  0.0376 -0.0103
19431SOL    HW159734   4.391   2.340   5.853 -0.5745  1.5376 -1.2622
19431SOL    HW259735   4.462   2.445   5.936  0.1761 -1.0772  1.5830
19432SOL     OW59736   3.938   2.299   7.580  0.4754 -0.0530  0.1737
19432SOL    HW159737   3.980   2.384   7.576 -0.0339  0.3101  1.7332
19432SOL    HW259738   3.930   2.280   7.674 -1.7302 -0.6279 -0.0696
19433SOL     OW59739   0.669   3.158   6.979  0.6119  0.2649 -0.0298
19433SOL    HW159740   0.691   3.089   6.916  0.7995  0.7932 -0.5531
19433SOL    HW259741   0.582   3.189   6.952 -0.7883 -1.6634  1.8958
19434SOL     OW59742   7.205   1.885   7.501  0.5270 -0.2316 -0.0549
19434SOL    HW159743   7.242   1.861   7.415  0.8169 -0.1414  0.0431
19434SOL    HW259744   7.133   1.944   7.480  0.4935 -0.3364 -0.2457
19435SOL     OW59745   7.835   3.464   6.503 -0.0802  0.6146  0.0069
19435SOL    HW159746   7.916   3.442   6.457 -1.4877  1.5339 -3.1931
19435SOL    HW259747   7.782   3.384   6.497 -0.3096  0.7733 -0.1206
19436SOL     OW59748   5.195   3.430   7.296  0.1574  0.2854  0.0230
19436SOL    HW159749   5.169   3.373   7.369 -1.0979  1.5295  0.5832
19436SOL    HW259750   5.277   3.392   7.264 -0.4865 -1.6583  0.5609
19437SOL     OW59751   6.514   2.000   6.693  0.3841  0.1053 -0.3485
19437SOL    HW159752   6.577   1.944   6.740 -2.0562 -1.0104  1.9055
19437SOL    HW259753   6.527   2.087   6.730  1.2829  0.1037 -0.6508
19438SOL     OW59754   6.206   1.774   7.510 -0.1312  0.1424 -0.0690
19438SOL    HW159755   6.242   1.858   7.482 -1.6127  1.3059  1.3178
19438SOL    HW259756   6.120   1.770   7.466 -0.2739 -0.4094  0.2636
19439SOL     OW59757   6.017   1.401   6.111 -0.1680 -0.1030 -0.0471
19439SOL    HW159758   5.940   1.455   6.096  1.0546  1.9560  0.6151
19439SOL    HW259759   6.003   1.363   6.197 -1.3597 -1.4815 -0.8092
19440SOL     OW59760   4.719   1.784   6.689  0.4654  0.5065  0.6970
19440SOL    HW159761   4.767   1.750   6.764 -1.1632 -0.5788  1.2986
19440SOL    HW259762   4.741   1.724   6.618 -1.1526 -0.9689  1.3624
19441SOL     OW59763   7.454   3.321   6.666 -0.1725 -0.0298 -0.3551
19441SOL    HW159764   7.383   3.345   6.606 -1.0459 -3.0699 -0.6705
19441SOL    HW259765   7.413   3.263   6.730  1.6207 -0.1607  0.7437
19442SOL     OW59766   6.573   2.485   6.640  0.8439  0.2941  0.1669
19442SOL    HW159767   6.481   2.499   6.660  0.9075  1.0783 -0.0619
19442SOL    HW259768   6.620   2.520   6.716  0.9863  0.9661 -0.2170
19443SOL     OW59769   7.855   2.783   6.315  0.0598  0.4525  0.3956
19443SOL    HW159770   7.807   2.767   6.235  0.4314 -1.0493  0.4442
19443SOL    HW259771   7.899   2.700   6.334 -1.9535 -0.0826  3.4681
19444SOL     OW59772   6.010   4.823   5.625  0.1154 -0.0337  0.0091
19444SOL    HW159773   5.929   4.870   5.602  0.0989  0.2553  0.6388
19444SOL    HW259774   6.048   4.799   5.541 -0.4671  0.1035 -0.3028
19445SOL     OW59775   5.125   3.687   7.187 -0.1081  0.1162  0.6554
19445SOL    HW159776   5.056   3.706   7.123  2.3563  0.5477 -2.1257
19445SOL    HW259777   5.102   3.601   7.223 -0.9005 -0.9126 -2.0519
19446SOL     OW59778   6.488   3.364   7.419  0.0689  0.1375 -0.0572
19446SOL    HW159779   6.511   3.449   7.380  0.0255 -0.2698 -0.9820
19446SOL    HW259780   6.561   3.346   7.479  0.5020  0.4334 -0.4813
19447SOL     OW59781   0.834   2.664   7.295  0.0287  0.1432 -0.4809
19447SOL    HW159782   0.845   2.725   7.222  2.1637  0.4959  0.0849
19447SOL    HW259783   0.907   2.603   7.288  0.5774  0.4852  1.6312
19448SOL     OW59784   7.417   3.624   5.873  0.6613  0.1378  0.1208
19448SOL    HW159785   7.325   3.649   5.863  0.7851  0.0968 -1.2803
19448SOL    HW259786   7.462   3.705   5.895  0.2390  0.0737  1.3035
19449SOL     OW59787   4.746   2.284   7.529 -0.0119 -0.1964  0.6265
19449SOL    HW159788   4.677   2.219   7.515 -0.2787  0.0151  0.9438
19449SOL    HW259789   4.700   2.365   7.549  0.3120 -0.5485  3.0816
19450SOL     OW59790   7.138   3.054   6.022 -0.2268 -0.1683 -0.0552
19450SOL    HW159791   7.055   3.008   6.032  0.6233 -1.4792  1.7268
19450SOL    HW259792   7.204   2.984   6.019  0.9236  0.8628  0.1179
19451SOL     OW59793   6.280   2.672   6.447  0.3792 -0.3881  0.3105
19451SOL    HW159794   6.223   2.630   6.383  0.4326  1.1173 -0.7867
19451SOL    HW259795   6.245   2.761   6.455  0.6902 -0.3815  2.0138
19452SOL     OW59796   6.025   3.368   7.681 -0.4509  0.2873 -0.0292
19452SOL    HW159797   5.951   3.348   7.738 -0.4237 -1.1722 -0.4791
19452SOL    HW259798   6.098   3.384   7.740 -0.6999 -0.0273  0.3654
19453SOL     OW59799   6.147   2.900   6.713  0.4306 -0.2408  0.9909
19453SOL    HW159800   6.227   2.893   6.764  1.2611  0.7627 -0.1306
19453SOL    HW259801   6.143   2.992   6.687 -2.4532  0.4064  3.1853
19454SOL     OW59802   6.079   2.440   7.385  0.1873  0.2395 -0.5137
19454SOL    HW159803   6.096   2.530   7.357  0.9103  0.2754  0.0218
19454SOL    HW259804   6.052   2.448   7.476  0.0632 -0.0665 -0.5238
19455SOL     OW59805   5.780   0.715   5.256 -0.3243 -0.1972 -0.3667
19455SOL    HW159806   5.736   0.739   5.338 -0.3344 -1.5468  0.0429
19455SOL    HW259807   5.709   0.698   5.195 -0.3688  3.0936 -1.4544
19456SOL     OW59808   5.572   4.724   6.404 -0.5355  0.5759 -0.3281
19456SOL    HW159809   5.628   4.647   6.415 -1.5373  0.0490  1.6493
19456SOL    HW259810   5.629   4.798   6.424  0.1539  0.2754 -1.1332
19457SOL     OW59811   0.233   3.095   4.960  0.5130  0.3480  0.0421
19457SOL    HW159812   0.193   3.059   4.881  0.9673  0.4530 -0.2397
19457SOL    HW259813   0.164   3.091   5.026  0.5533 -1.0465  0.0266
19458SOL     OW59814   6.616   1.616   5.213 -0.1290 -0.0422  0.0745
19458SOL    HW159815   6.528   1.642   5.240 -0.1166 -0.3027  0.3698
19458SOL    HW259816   6.675   1.663   5.272 -0.0283  0.8458 -0.7047
19459SOL     OW59817   7.049   3.403   6.300 -0.7307  0.2236 -0.1991
19459SOL    HW159818   7.055   3.499   6.296  0.4022  0.1574 -0.5550
19459SOL    HW259819   6.973   3.386   6.356  0.1665  1.3442  1.4654
19460SOL     OW59820   6.377   3.549   5.045 -0.2116 -0.1024 -0.1275
19460SOL    HW159821   6.309   3.481   5.041  0.2224 -0.6501  1.1115
19460SOL    HW259822   6.445   3.511   5.101  0.5754  0.9100 -0.3623
19461SOL     OW59823   6.834   3.366   7.994  0.1635 -0.0878  0.1456
19461SOL    HW159824   6.851   3.459   8.004 -0.4828  0.1251 -0.5879
19461SOL    HW259825   6.825   3.353   7.900  1.6168 -1.1524  0.1231
19462SOL     OW59826   6.684   2.349   7.264  0.1551  0.2602 -0.0360
19462SOL    HW159827   6.684   2.381   7.174  1.0589 -1.0124 -0.5140
19462SOL    HW259828   6.598   2.373   7.298 -0.2551  0.6282 -1.2887
19463SOL     OW59829   6.319   2.817   8.560  0.0691 -0.2630 -0.1622
19463SOL    HW159830   6.348   2.747   8.618 -1.1989 -0.2866  0.4743
19463SOL    HW259831   6.253   2.865   8.610 -0.6220  0.0962 -1.3616
19464SOL     OW59832   7.070   4.152   6.940  0.6868  0.4819 -0.6461
19464SOL    HW159833   7.159   4.136   6.910  1.4907 -0.7668  2.1311
19464SOL    HW259834   7.056   4.089   7.011 -2.2746  0.9109 -0.6914
19465SOL     OW59835   0.477   3.371   7.566  0.3247 -0.0451  0.8935
19465SOL    HW159836   0.405   3.413   7.613 -0.4729 -2.1447  1.6652
19465SOL    HW259837   0.540   3.347   7.634  0.7545 -0.0861  0.4857
19466SOL     OW59838   6.112   5.106   5.350  0.0700  0.2615 -0.1319
19466SOL    HW159839   6.030   5.056   5.351  0.5367 -0.5359 -0.5007
19466SOL    HW259840   6.100   5.169   5.279  0.2002 -0.6242 -0.9653
19467SOL     OW59841   5.643   1.300   8.226  0.1468 -0.3156 -0.2139
19467SOL    HW159842   5.650   1.356   8.303  0.6826 -2.5464  1.4443
19467SOL    HW259843   5.556   1.261   8.232  0.2469 -0.6188 -0.6584
19468SOL     OW59844   4.606   2.325   9.279 -0.1734  0.0633 -0.3778
19468SOL    HW159845   4.660   2.327   9.200  0.3422 -0.3408 -0.0450
19468SOL    HW259846   4.603   2.415   9.309 -0.5913  0.2643 -0.9948
19469SOL     OW59847   5.206   0.781   6.490 -0.4894 -0.6127  0.0051
19469SOL    HW159848   5.295   0.778   6.527 -1.2090 -2.0084  1.7574
19469SOL    HW259849   5.169   0.694   6.508 -2.5176  0.2162  0.0822
19470SOL     OW59850   7.340   2.877   6.004 -0.1139 -0.2911 -0.0489
19470SOL    HW159851   7.284   2.801   6.020 -0.9162 -0.2498 -2.2707
19470SOL    HW259852   7.344   2.884   5.908  1.1487  1.5970  0.0851
19471SOL     OW59853   4.871   1.519   4.990  0.4401  0.0026  0.1046
19471SOL    HW159854   4.807   1.547   5.056  1.5268  1.7743  0.4844
19471SOL    HW259855   4.818   1.490   4.916 -0.7975  0.3520  0.8154
19472SOL     OW59856   5.357   2.587   6.636 -0.1425 -0.1068  0.1253
19472SOL    HW159857   5.310   2.635   6.705 -0.7528  1.3144 -1.1940
19472SOL    HW259858   5.326   2.497   6.644 -1.4186  0.3515  0.7249
19473SOL     OW59859   5.065   3.012   8.754 -0.2839 -0.5075  0.7187
19473SOL    HW159860   5.079   3.059   8.672  0.0262 -0.9722  0.5023
19473SOL    HW259861   5.146   3.024   8.803 -0.4383 -0.2987  0.9244
19474SOL     OW59862   6.981   4.397   8.660  0.4538 -0.2872 -0.2855
19474SOL    HW159863   7.036   4.466   8.623  1.0370 -0.3248  0.4826
19474SOL    HW259864   7.043   4.327   8.682 -0.2602 -1.5607 -2.1240
19475SOL     OW59865   6.012   2.821   7.387  0.2358 -0.2362  0.1491
19475SOL    HW159866   6.042   2.774   7.309 -1.0269  1.4357 -1.4520
19475SOL    HW259867   5.920   2.794   7.396  0.0105  0.5437  0.2645
19476SOL     OW59868   6.431   3.848   7.838  0.4416  0.4549  0.4957
19476SOL    HW159869   6.483   3.912   7.887  1.7104  2.1762 -2.7261
19476SOL    HW259870   6.345   3.889   7.829  1.1110  1.6128 -1.1528
19477SOL     OW59871   5.172   4.058   6.754  0.5745 -0.9574 -0.2302
19477SOL    HW159872   5.229   4.131   6.731 -0.3160 -0.6463 -1.5270
19477SOL    HW259873   5.143   4.023   6.670 -1.3401 -0.9522  0.3960
19478SOL     OW59874   0.602   2.114   8.156 -0.2835  0.4549 -0.0431
19478SOL    HW159875   0.578   2.150   8.071  0.6753 -1.1255 -1.0340
19478SOL    HW259876   0.606   2.019   8.141 -0.2283  0.1318  1.8060
19479SOL     OW59877   7.325   0.879   6.453  0.0691 -0.5622 -0.2211
19479SOL    HW159878   7.305   0.880   6.547  2.6071  0.9120  0.3983
19479SOL    HW259879   7.265   0.944   6.415  0.3304  0.2701  0.7338
19480SOL     OW59880   5.433   2.288   3.531 -0.1907  0.1706 -0.5317
19480SOL    HW159881   5.437   2.296   3.436  2.6613 -1.3545 -0.6511
19480SOL    HW259882   5.517   2.322   3.562 -0.6751 -0.2277  1.3719
19481SOL     OW59883   1.265   1.107   6.180 -0.0507 -0.0112  0.7864
19481SOL    HW159884   1.341   1.106   6.239  0.8551  1.8875 -0.2305
19481SOL    HW259885   1.204   1.169   6.220  0.6419  1.4210 -0.2497
19482SOL     OW59886   7.284   2.064   8.232  0.4693 -0.0380 -0.4762
19482SOL    HW159887   7.298   1.969   8.229  1.7254  0.1025  0.0448
19482SOL    HW259888   7.225   2.078   8.306  0.5539 -0.3952 -0.3401
19483SOL     OW59889   5.785   3.608   5.948  0.2036  0.0657 -0.5161
19483SOL    HW159890   5.820   3.693   5.974 -0.9684 -0.0145  1.5125
19483SOL    HW259891   5.709   3.628   5.894 -0.9188  0.3611  1.1359
19484SOL     OW59892   6.251   3.659   7.277 -0.3426  0.4023 -0.2397
19484SOL    HW159893   6.247   3.615   7.362 -2.3344 -0.5304 -0.7387
19484SOL    HW259894   6.225   3.591   7.214  1.5256  0.9396 -1.6898
19485SOL     OW59895   7.018   3.345   5.793 -0.4288 -0.4152 -0.2740
19485SOL    HW159896   7.088   3.280   5.780 -0.5667 -0.4587 -0.8211
19485SOL    HW259897   7.000   3.341   5.887  0.4138 -0.2866 -0.0983
19486SOL     OW59898   6.039   2.667   6.756 -0.5307  0.3088 -0.5053
19486SOL    HW159899   6.070   2.757   6.755 -1.0249  0.5653  1.5992
19486SOL    HW259900   5.960   2.669   6.810  0.6786 -1.7000  1.5267
19487SOL     OW59901   4.971   2.568   5.252  0.4950 -0.0807 -0.4761
19487SOL    HW159902   5.003   2.544   5.339  0.9100 -0.1338 -0.6421
19487SOL    HW259903   4.947   2.660   5.261 -0.1872 -0.2829 -0.1018
19488SOL     OW59904   5.435   3.882   4.838  0.2202  0.0403 -0.2763
19488SOL    HW159905   5.372   3.948   4.867 -1.2611 -1.1145 -0.7362
19488SOL    HW259906   5.453   3.904   4.747 -0.4772 -0.3094 -0.5106
19489SOL     OW59907   6.415   3.149   7.080 -0.2702  0.1944 -0.8423
19489SOL    HW159908   6.498   3.153   7.128 -0.3121 -0.0129 -0.7484
19489SOL    HW259909   6.357   3.207   7.128 -0.3763 -0.1812 -0.5087
19490SOL     OW59910   0.155   1.898   7.050 -0.4378  0.5207 -0.0209
19490SOL    HW159911   0.070   1.938   7.030 -0.2682  1.3293  0.7863
19490SOL    HW259912   0.211   1.972   7.073 -0.2929 -0.1999  2.1896
19491SOL     OW59913   5.866   2.896   8.178  0.3513 -0.4528 -0.2525
19491SOL    HW159914   5.837   2.805   8.171 -0.3897 -0.1616 -1.3079
19491SOL    HW259915   5.809   2.933   8.246  0.3324 -0.6577 -0.1547
19492SOL     OW59916   6.800   3.228   6.401  0.3570 -0.2377  0.4584
19492SOL    HW159917   6.863   3.160   6.378  1.7638  0.5829  1.7285
19492SOL    HW259918   6.728   3.180   6.442 -0.3688 -1.2796 -1.8473
19493SOL     OW59919   6.439   1.493   5.405  0.2555  0.1795  0.2470
19493SOL    HW159920   6.492   1.535   5.472 -0.8343 -0.1950  1.3837
19493SOL    HW259921   6.354   1.536   5.411 -0.1042 -0.4403 -0.3155
19494SOL     OW59922   5.190   4.346   4.553 -0.5732 -0.8274 -0.2154
19494SOL    HW159923   5.214   4.276   4.492 -2.7603  0.5473 -2.9052
19494SOL    HW259924   5.106   4.379   4.519 -0.2212  2.3243  1.5888
19495SOL     OW59925   7.550   7.965   5.708 -0.3905  0.1655 -0.0546
19495SOL    HW159926   7.476   7.924   5.752  2.0622 -2.3689  2.0961
19495SOL    HW259927   7.598   8.009   5.778  1.7917 -1.0035 -0.7240
19496SOL     OW59928   6.944   0.875   7.374 -0.0103 -0.1650  0.0586
19496SOL    HW159929   6.897   0.810   7.426 -0.4635  0.4102  0.3734
19496SOL    HW259930   6.978   0.825   7.299 -0.2449 -0.7877  0.3563
19497SOL     OW59931   6.577   2.395   6.158  0.2480  1.3113  0.2261
19497SOL    HW159932   6.544   2.317   6.114  1.7551  1.4160 -1.1730
19497SOL    HW259933   6.587   2.369   6.250  0.8692 -0.2082 -0.2519
19498SOL     OW59934   5.345   2.771   4.888 -0.2369  0.3092 -0.0480
19498SOL    HW159935   5.309   2.773   4.800  1.4266 -0.8159 -0.7908
19498SOL    HW259936   5.383   2.858   4.900  1.2799 -0.1497 -1.2392
19499SOL     OW59937   7.850   1.218   6.291  0.1383 -0.3741 -0.1190
19499SOL    HW159938   7.926   1.168   6.320  0.5585  0.7386  0.7956
19499SOL    HW259939   7.869   1.241   6.200  0.5740 -0.7060 -0.1148
19500SOL     OW59940   5.591   0.985   7.918  0.0291  0.3137  0.4236
19500SOL    HW159941   5.659   1.052   7.916  0.3251  0.0135  0.2279
19500SOL    HW259942   5.544   0.996   7.836 -0.1581  0.5173  0.5562
19501SOL     OW59943   7.997   3.837   7.548  0.4770 -0.0848 -0.0663
19501SOL    HW159944   8.014   3.919   7.594  0.0970  0.3247 -0.6329
19501SOL    HW259945   7.902   3.825   7.554  0.5283 -0.4713 -0.0047
19502SOL     OW59946   4.547   2.375   5.612 -0.3916 -0.2142 -0.2181
19502SOL    HW159947   4.558   2.463   5.576  1.9336 -0.3533  0.0242
19502SOL    HW259948   4.513   2.391   5.701  0.2050  0.4504 -0.0992
19503SOL     OW59949   6.372   3.257   4.596  0.0791 -0.0904  0.4561
19503SOL    HW159950   6.298   3.268   4.656  1.3807  0.6743  1.9985
19503SOL    HW259951   6.338   3.200   4.527 -1.6072 -0.6867  1.7001
19504SOL     OW59952   6.061   3.474   7.101 -0.5229  0.0038 -0.5436
19504SOL    HW159953   6.073   3.489   7.008 -0.4649  0.3504 -0.4816
19504SOL    HW259954   5.978   3.517   7.122 -0.4101  0.1468 -0.3859
19505SOL     OW59955   4.524   1.950   6.810  0.0123 -0.3048 -0.1201
19505SOL    HW159956   4.500   1.898   6.887  0.6908  0.6707  0.7834
19505SOL    HW259957   4.588   1.896   6.764  1.1693 -0.0634  1.1297
19506SOL     OW59958   6.204   3.568   8.348  0.2308  0.8836 -0.8162
19506SOL    HW159959   6.178   3.479   8.327 -2.1113  0.7231  2.1275
19506SOL    HW259960   6.292   3.560   8.383 -1.0154 -0.8720  2.2515
19507SOL     OW59961   7.253   2.625   7.678 -0.6676  0.1863  0.1787
19507SOL    HW159962   7.327   2.591   7.627 -2.5890 -1.6552 -1.6183
19507SOL    HW259963   7.293   2.663   7.756  2.1597 -0.6985 -0.7047
19508SOL     OW59964   6.825   3.112   8.346 -0.5784  0.2990 -0.3584
19508SOL    HW159965   6.890   3.100   8.277 -0.2319  0.2842 -0.0304
19508SOL    HW259966   6.876   3.128   8.425 -0.9320 -0.7741  0.1190
19509SOL     OW59967   5.428   1.254   8.763  0.2031  0.5154  0.1770
19509SOL    HW159968   5.358   1.319   8.771  1.4962  2.1418 -0.8973
19509SOL    HW259969   5.501   1.292   8.812  0.7011 -0.6079  0.3270
19510SOL     OW59970   7.663   2.356   9.183  0.4291 -0.3547 -0.2649
19510SOL    HW159971   7.707   2.322   9.105  1.8813 -1.1172  0.8388
19510SOL    HW259972   7.734   2.394   9.235 -0.4202 -0.4265  0.9789
19511SOL     OW59973   1.179   3.088   8.623  0.4251  0.1898  0.4927
19511SOL    HW159974   1.177   3.074   8.718 -0.0306  1.0063  0.6122
19511SOL    HW259975   1.214   3.177   8.613  0.6793  0.0266 -0.1157
19512SOL     OW59976   6.573   1.994   9.459  1.1991  0.3263 -0.4403
19512SOL    HW159977   6.576   2.028   9.548 -3.5590  0.5440 -0.1108
19512SOL    HW259978   6.609   2.065   9.406  1.4535  1.3968  1.0897
19513SOL     OW59979   5.405   2.832   9.127  0.2468 -0.1249 -0.1746
19513SOL    HW159980   5.488   2.868   9.157  0.7827 -1.8344  0.5588
19513SOL    HW259981   5.382   2.767   9.194 -1.4615  0.0187 -0.5909
19514SOL     OW59982   3.742   2.445   9.151 -0.0386 -0.2190 -0.5493
19514SOL    HW159983   3.722   2.475   9.240 -1.2328 -0.5444 -0.6958
19514SOL    HW259984   3.836   2.463   9.141 -0.0664  0.6279  0.4594
19515SOL     OW59985   6.292   2.306   9.257  0.0319 -0.5940  0.4328
19515SOL    HW159986   6.380   2.267   9.260  0.5113  0.4894  1.6952
19515SOL    HW259987   6.283   2.350   9.342 -1.9115 -1.0308  0.4957
19516SOL     OW59988   6.287   2.001   7.364  1.1268 -0.4025  0.2384
19516SOL    HW159989   6.367   2.015   7.314  1.0974 -0.7508  0.0910
19516SOL    HW259990   6.269   2.085   7.406  1.2666 -0.1687 -0.1704
19517SOL     OW59991   7.195   3.407   7.060 -0.6997 -1.0428 -0.7077
19517SOL    HW159992   7.218   3.441   6.974  1.1228 -0.7835 -0.1444
19517SOL    HW259993   7.146   3.478   7.101  1.3138  0.1955 -0.3135
19518SOL     OW59994   7.270   3.168   7.178  0.2385 -0.6264  0.2595
19518SOL    HW159995   7.268   3.257   7.142 -1.1450 -0.9650 -0.6009
19518SOL    HW259996   7.191   3.162   7.232  1.0413 -0.9082  1.4270
19519SOL     OW59997   0.096   3.446   8.976  0.7695  0.1346  0.3272
19519SOL    HW159998   0.016   3.497   8.986  1.1374  0.8827 -0.5360
19519SOL    HW259999   0.068   3.356   8.995 -0.5606  0.1828 -1.1997
19520SOL     OW60000   4.956   3.976   8.387 -0.4114  0.0112 -0.0607
19520SOL    HW160001   4.924   3.954   8.474  1.8534 -0.3222  0.7383
19520SOL    HW260002   5.018   4.048   8.401 -1.7220  1.5514 -1.6959
19521SOL     OW60003   5.474   2.855   9.870  0.5897  0.0859  0.1269
19521SOL    HW160004   5.511   2.879   9.955  2.2326  0.4230 -0.6423
19521SOL    HW260005   5.515   2.771   9.849 -3.1893 -2.4023  1.6337
19522SOL     OW60006   5.998   2.480   7.658 -0.1844 -0.1924  0.2026
19522SOL    HW160007   5.936   2.500   7.728 -0.0910 -1.1100  0.5527
19522SOL    HW260008   6.082   2.512   7.691 -0.3557  0.5570 -0.0476
19523SOL     OW60009   0.483   3.522   6.596 -0.5308  0.2555 -0.6907
19523SOL    HW160010   0.522   3.594   6.545  0.9242  0.5981  0.8224
19523SOL    HW260011   0.428   3.566   6.661  1.5692  0.1784  1.2519
19524SOL     OW60012   7.797   2.346   8.139  0.3108 -0.8031 -0.8132
19524SOL    HW160013   7.877   2.357   8.086  0.3646 -2.0218 -1.0176
19524SOL    HW260014   7.767   2.258   8.118 -0.5520 -0.7161  0.0132
19525SOL     OW60015   5.955   4.029   9.009 -0.2094  0.0634  0.0421
19525SOL    HW160016   5.950   4.098   9.075 -0.0007  0.9198 -0.8127
19525SOL    HW260017   5.868   3.991   9.006 -0.3633  0.3912  0.4209
19526SOL     OW60018   0.980   4.167   7.715  0.2055  0.3339 -0.0427
19526SOL    HW160019   0.884   4.168   7.713  0.2028  1.6921 -1.4444
19526SOL    HW260020   1.002   4.116   7.793 -1.6225 -1.6780 -0.7416
19527SOL     OW60021   5.135   4.093   8.708  0.0613  0.5676  0.0848
19527SOL    HW160022   5.064   4.136   8.660  0.2161  1.9193  1.0141
19527SOL    HW260023   5.093   4.056   8.785  0.1449  0.1319 -0.0746
19528SOL     OW60024   7.131   2.897   7.145  0.2686  0.0841 -0.6010
19528SOL    HW160025   7.202   2.959   7.162 -0.2524  0.2010  1.2965
19528SOL    HW260026   7.161   2.816   7.187  0.7729 -0.8987 -2.7211
19529SOL     OW60027   6.507   4.782   6.884 -0.3030 -0.4086  0.1046
19529SOL    HW160028   6.574   4.714   6.873  1.2149  0.8475  1.2706
19529SOL    HW260029   6.503   4.797   6.978  0.9539  2.5751 -0.2087
19530SOL     OW60030   3.853   2.760   8.459  0.1606  0.3925  0.1711
19530SOL    HW160031   3.799   2.732   8.384  0.8224 -2.8072  0.7401
19530SOL    HW260032   3.919   2.818   8.421 -0.3342 -0.0840 -1.5015
19531SOL     OW60033   5.203   1.660   9.034  0.9122  0.0519 -0.0987
19531SOL    HW160034   5.144   1.671   8.959  2.3422  1.3007 -1.1135
19531SOL    HW260035   5.145   1.648   9.109 -0.5774 -1.1234 -1.3592
19532SOL     OW60036   6.237   3.659   9.968  0.1972  0.5087 -0.2195
19532SOL    HW160037   6.200   3.747   9.969  1.5026  1.0787  0.1204
19532SOL    HW260038   6.293   3.657   9.890 -1.0843 -0.5989 -1.1672
19533SOL     OW60039   4.531   2.780   8.654 -0.3463  0.3765  0.3591
19533SOL    HW160040   4.568   2.860   8.617  0.0515  0.2199  0.4146
19533SOL    HW260041   4.524   2.720   8.580  1.3581 -0.2758  0.6848
19534SOL     OW60042   6.808   1.737   7.876  0.1033  0.3077  0.5955
19534SOL    HW160043   6.783   1.756   7.785  2.1310  2.1317  0.3443
19534SOL    HW260044   6.751   1.794   7.928  0.8548  1.4024  0.2613
19535SOL     OW60045   7.813   2.834   7.452  0.0652 -0.1139 -0.7602
19535SOL    HW160046   7.821   2.743   7.481 -1.0432  0.4005  1.3506
19535SOL    HW260047   7.889   2.878   7.490 -0.4632  0.2187 -0.0656
19536SOL     OW60048   7.553   2.430   7.929  0.0755 -0.1272 -0.1818
19536SOL    HW160049   7.528   2.522   7.937  0.3203  0.0376 -1.2647
19536SOL    HW260050   7.533   2.393   8.015 -1.0139  0.6937 -0.0572
19537SOL     OW60051   5.142   3.270   9.145  0.1986  0.2552  0.4178
19537SOL    HW160052   5.154   3.182   9.182 -1.9565 -0.5173 -0.5431
19537SOL    HW260053   5.218   3.283   9.089  1.8844  0.1274  2.5675
19538SOL     OW60054   5.737   2.937   7.029 -0.2662  0.1312  0.1324
19538SOL    HW160055   5.760   2.998   7.099  0.6625  0.2496 -0.2602
19538SOL    HW260056   5.677   2.986   6.973 -1.8804 -0.3230  1.3997
19539SOL     OW60057   5.059   1.354   8.633 -0.5739 -0.5649 -0.3464
19539SOL    HW160058   5.071   1.263   8.607 -2.8188 -1.2334  0.7396
19539SOL    HW260059   5.135   1.400   8.595  1.0235 -2.9677 -0.2684
19540SOL     OW60060   6.607   3.414   8.165  0.2776 -0.3186 -0.5030
19540SOL    HW160061   6.669   3.418   8.092  1.0298  0.9504  0.1644
19540SOL    HW260062   6.534   3.363   8.131  1.0405 -0.6127 -1.8054
19541SOL     OW60063   6.103   3.820   7.115  0.3819  0.2399 -0.4819
19541SOL    HW160064   6.157   3.783   7.185  0.4279 -1.5480 -1.3989
19541SOL    HW260065   6.025   3.852   7.160  0.9195  0.2134  0.5133
19542SOL     OW60066   6.279   3.013   9.059  0.0557  0.1344 -0.1425
19542SOL    HW160067   6.353   2.952   9.057  0.3608  0.2309  3.1872
19542SOL    HW260068   6.202   2.957   9.067  0.0194  0.1167 -0.5916
19543SOL     OW60069   6.942   2.359   9.156 -0.2683  0.0464 -0.2985
19543SOL    HW160070   6.939   2.421   9.229 -1.6582 -0.6050  0.2362
19543SOL    HW260071   6.850   2.348   9.130  0.2071  0.4732 -2.3573
19544SOL     OW60072   7.105   4.011   9.484 -0.5254 -0.4796  0.0204
19544SOL    HW160073   7.160   3.947   9.530  1.4208 -0.4401 -2.1108
19544SOL    HW260074   7.019   3.968   9.478 -0.3093 -1.2749  1.9027
19545SOL     OW60075   7.612   2.901  10.204 -0.2790 -0.2019  0.2139
19545SOL    HW160076   7.666   2.873  10.130  1.8802  1.9853  0.7981
19545SOL    HW260077   7.538   2.947  10.165  0.6883  0.6726 -0.6502
19546SOL     OW60078   5.340   2.733   8.689 -0.0070 -0.5409 -0.0073
19546SOL    HW160079   5.433   2.711   8.677  0.1743  0.7268 -1.2238
19546SOL    HW260080   5.331   2.821   8.650 -2.3151 -1.7855 -2.6413
19547SOL     OW60081   5.366   3.291   9.423 -0.2085  0.0438  0.1146
19547SOL    HW160082   5.417   3.316   9.347  0.1289  0.6186  0.5232
19547SOL    HW260083   5.277   3.275   9.389 -0.1511  0.6574 -0.3318
19548SOL     OW60084   0.083   2.304   6.108  0.5508 -0.5123 -0.5583
19548SOL    HW160085   0.156   2.253   6.074 -0.1926 -1.6915 -0.4651
19548SOL    HW260086   0.018   2.302   6.037  1.1341  1.7760 -1.2408
19549SOL     OW60087   7.779   3.235   8.940  0.0584 -0.2879  0.4249
19549SOL    HW160088   7.849   3.181   8.977 -0.5565 -0.8525  0.7857
19549SOL    HW260089   7.707   3.174   8.925 -2.3119  1.0097  4.9308
19550SOL     OW60090   5.626   3.070   8.276  0.1674  0.3204 -0.1931
19550SOL    HW160091   5.605   3.094   8.367 -0.3604  0.3685 -0.3291
19550SOL    HW260092   5.641   3.154   8.232 -1.5834  0.4214 -0.6437
19551SOL     OW60093   5.083   1.621   9.290 -0.6052 -0.8287 -0.0846
19551SOL    HW160094   5.102   1.656   9.377 -3.1896 -0.7301  0.5504
19551SOL    HW260095   4.987   1.626   9.284 -0.6357 -2.6893 -2.1628
19552SOL     OW60096   4.825   3.665   7.887 -0.2315  0.2413  0.0116
19552SOL    HW160097   4.840   3.632   7.799 -1.1436 -0.1819  0.0122
19552SOL    HW260098   4.897   3.727   7.902  0.0977  0.0864 -0.9075
19553SOL     OW60099   7.696   3.248   7.996  0.4685  0.5693 -0.2907
19553SOL    HW160100   7.785   3.252   7.963  0.5964  2.5961  0.1605
19553SOL    HW260101   7.664   3.338   7.989 -1.7072 -0.1859 -0.8673
19554SOL     OW60102   5.834   2.722   9.137  0.1627 -0.3920 -0.0761
19554SOL    HW160103   5.794   2.655   9.192 -0.6192 -0.4137 -0.6688
19554SOL    HW260104   5.784   2.802   9.155 -0.3248 -0.4787 -1.0129
19555SOL     OW60105   5.368   3.791   7.690  0.3376 -0.3280  0.0154
19555SOL    HW160106   5.292   3.849   7.685  0.0559 -0.3258  2.6294
19555SOL    HW260107   5.438   3.837   7.645 -0.4608  1.0528  0.1588
19556SOL     OW60108   5.299   4.353   9.604 -0.4739  0.0170 -0.3191
19556SOL    HW160109   5.274   4.272   9.648  0.8224 -0.8378 -1.0924
19556SOL    HW260110   5.247   4.354   9.524  0.6152 -0.8787 -1.0740
19557SOL     OW60111   5.588   3.096   9.001  0.0232 -0.4738  0.3711
19557SOL    HW160112   5.651   3.046   8.949  0.9106  0.5937  0.3874
19557SOL    HW260113   5.594   3.057   9.089  2.6414  1.2492  1.0675
19558SOL     OW60114   5.425   1.845   9.380  0.2334  0.0671 -0.6115
19558SOL    HW160115   5.443   1.913   9.445  1.9271 -0.3520 -0.5836
19558SOL    HW260116   5.418   1.764   9.431  0.0830 -0.0432 -0.8069
19559SOL     OW60117   7.123   4.152   8.472 -0.3815 -0.2795 -0.1296
19559SOL    HW160118   7.133   4.178   8.563  0.5379 -0.1325 -0.2644
19559SOL    HW260119   7.080   4.226   8.429 -0.1450 -0.0509  0.0303
19560SOL     OW60120   6.048   4.440   7.954 -0.1358  0.0685  0.6137
19560SOL    HW160121   5.953   4.439   7.956 -0.1488  0.7517  1.0684
19560SOL    HW260122   6.070   4.530   7.929  0.3829  0.1204  1.2225
19561SOL     OW60123   6.769   3.455   6.896  0.0158 -0.2076 -0.2424
19561SOL    HW160124   6.785   3.378   6.952 -0.5842  0.1988  0.5053
19561SOL    HW260125   6.793   3.530   6.951 -1.5953  0.2548 -0.1308
19562SOL     OW60126   5.476   3.899   8.235  0.3945  0.6303  0.0370
19562SOL    HW160127   5.528   3.937   8.306  0.8918  1.0521 -0.5384
19562SOL    HW260128   5.397   3.953   8.231 -0.6995 -0.7583  1.7182
19563SOL     OW60129   5.404   4.266   8.065 -0.1130 -0.2147 -0.6467
19563SOL    HW160130   5.490   4.257   8.107 -1.0439 -0.4324  1.3011
19563SOL    HW260131   5.353   4.192   8.097 -1.5243  0.7863 -0.4771
19564SOL     OW60132   7.575   2.297   7.307 -0.1417  0.1720  0.8219
19564SOL    HW160133   7.624   2.359   7.253 -1.0915  0.0553 -0.2173
19564SOL    HW260134   7.634   2.277   7.379  1.8819 -0.9621 -1.0169
19565SOL     OW60135   6.573   1.585   9.613  0.1067  0.2512  0.2242
19565SOL    HW160136   6.521   1.615   9.687 -1.7724 -0.2691 -0.8168
19565SOL    HW260137   6.648   1.645   9.610 -1.0383  1.7856  1.0748
19566SOL     OW60138   4.225   2.535   8.289 -0.1354  0.0563 -0.3010
19566SOL    HW160139   4.202   2.582   8.370 -0.4646 -0.3891 -0.1358
19566SOL    HW260140   4.142   2.525   8.243 -0.2295 -1.1950  0.1068
19567SOL     OW60141   5.378   2.571   9.251 -0.2651 -0.1117  0.0882
19567SOL    HW160142   5.286   2.591   9.267 -0.1274  0.5911  0.0348
19567SOL    HW260143   5.391   2.484   9.289 -0.7795  0.0854  0.7214
19568SOL     OW60144   7.112   4.244   9.105 -0.0583  0.1406 -0.6174
19568SOL    HW160145   7.145   4.159   9.133  3.0135  1.1976 -0.7151
19568SOL    HW260146   7.157   4.262   9.023 -1.9915  1.1293 -1.5199
19569SOL     OW60147   0.283   2.098   8.817  0.4823 -0.6089  0.2119
19569SOL    HW160148   0.188   2.086   8.820  0.7336 -2.9153  0.3992
19569SOL    HW260149   0.317   2.043   8.888  1.8938  1.5473  1.3254
19570SOL     OW60150   6.698   2.907   8.505 -0.5425  0.4718  0.2270
19570SOL    HW160151   6.762   2.975   8.487 -0.5591  0.0414 -1.7234
19570SOL    HW260152   6.622   2.953   8.541  0.3964  1.1218  1.4337
19571SOL     OW60153   6.877   3.041   7.217  0.1689 -0.3037  0.2323
19571SOL    HW160154   6.918   3.106   7.275 -0.9226 -0.0390  0.7422
19571SOL    HW260155   6.943   2.973   7.207  1.0944  0.5618  0.2307
19572SOL     OW60156   6.242   3.282   7.230  0.3254  0.2236  0.2596
19572SOL    HW160157   6.171   3.312   7.173 -0.0726 -1.3432 -0.1364
19572SOL    HW260158   6.239   3.341   7.305  0.1632  1.6585 -0.8414
19573SOL     OW60159   7.246   3.935   6.205 -0.0672  0.0519 -0.1830
19573SOL    HW160160   7.300   4.014   6.206 -1.8514  1.3230  0.8354
19573SOL    HW260161   7.196   3.940   6.124 -1.2278  0.7282  0.5638
19574SOL     OW60162   6.158   0.939   7.151 -0.0249 -0.5420  0.1623
19574SOL    HW160163   6.091   0.923   7.085 -0.7094  3.6627 -0.4701
19574SOL    HW260164   6.239   0.950   7.101  0.1698 -0.8328  0.4100
19575SOL     OW60165   5.155   2.859   8.352  0.2617  0.2004 -0.4972
19575SOL    HW160166   5.074   2.877   8.304 -0.5478  1.8106  1.3620
19575SOL    HW260167   5.179   2.770   8.325 -1.3099  0.2219 -2.1820
19576SOL     OW60168   6.533   0.540   9.331 -0.3344  0.0312 -0.1280
19576SOL    HW160169   6.453   0.489   9.343 -1.7204  1.6122 -1.9904
19576SOL    HW260170   6.604   0.478   9.349 -1.9518 -1.9049 -0.0740
19577SOL     OW60171   6.542   3.851   9.394 -0.4601 -0.4258  0.0632
19577SOL    HW160172   6.568   3.939   9.365 -0.5357  0.0322  1.3049
19577SOL    HW260173   6.582   3.842   9.480 -1.3861 -1.1700  0.4278
19578SOL     OW60174   4.649   2.062   8.330 -0.3283  0.4362  0.2280
19578SOL    HW160175   4.728   2.110   8.357  0.1232 -1.1693  1.9624
19578SOL    HW260176   4.675   1.970   8.333 -1.7767 -0.0436 -0.9200
19579SOL     OW60177   5.545   3.683   6.393  1.2604 -0.3515  0.5137
19579SOL    HW160178   5.482   3.611   6.386 -1.1584  1.5812  0.7940
19579SOL    HW260179   5.600   3.675   6.315 -1.4093 -0.3926 -1.5059
19580SOL     OW60180   0.210   3.424   7.625 -0.0727  0.7933  0.2005
19580SOL    HW160181   0.119   3.397   7.639  0.6183 -1.5169  0.6861
19580SOL    HW260182   0.204   3.499   7.566 -2.2801  0.5543  0.0324
19581SOL     OW60183   4.333   1.627  10.146  0.7584 -0.2961 -0.6784
19581SOL    HW160184   4.327   1.595  10.056  0.9306 -0.6751 -0.5549
19581SOL    HW260185   4.282   1.565  10.198  1.8727 -0.9246 -0.3008
19582SOL     OW60186   5.984   2.416   8.646  0.1517 -0.5915 -0.1168
19582SOL    HW160187   5.996   2.322   8.656 -1.2688 -0.8414 -0.4496
19582SOL    HW260188   6.031   2.455   8.720  0.7729 -1.5606  0.0036
19583SOL     OW60189   5.966   3.361   8.286  0.3652  0.5376  0.7291
19583SOL    HW160190   6.041   3.305   8.268  2.4476  2.8078  1.8069
19583SOL    HW260191   5.957   3.416   8.208 -0.3911  0.0785  0.4831
19584SOL     OW60192   6.336   3.061   9.372 -0.8224 -0.5765 -0.1799
19584SOL    HW160193   6.337   3.091   9.281  0.7390  2.8901  0.7926
19584SOL    HW260194   6.254   3.097   9.408 -0.4320 -0.0982  0.2522
19585SOL     OW60195   0.291   3.917   8.845 -0.0981 -0.7662 -0.4301
19585SOL    HW160196   0.263   3.844   8.790  0.6618 -0.9263 -0.6150
19585SOL    HW260197   0.299   3.991   8.785 -1.5874 -0.3239 -0.1203
19586SOL     OW60198   7.018   2.688   7.850 -0.2232 -0.2061  0.1325
19586SOL    HW160199   6.934   2.659   7.883  0.4479 -2.4939  0.0219
19586SOL    HW260200   7.049   2.753   7.914 -1.3455 -0.5330  1.0260
19587SOL     OW60201   0.047   3.901   9.209  0.0086  0.4054  0.2478
19587SOL    HW160202   0.058   3.957   9.132 -0.5086  2.4990  1.6155
19587SOL    HW260203  -0.046   3.880   9.210  0.3518 -1.3457 -0.7781
19588SOL     OW60204   7.704   2.626   7.631  1.2617 -0.0266 -0.1864
19588SOL    HW160205   7.681   2.583   7.713 -0.4253  0.3349 -0.4275
19588SOL    HW260206   7.687   2.719   7.647 -0.8475 -0.1335 -1.4543
19589SOL     OW60207   7.305   3.687   6.773  0.0524  0.0289 -0.4262
19589SOL    HW160208   7.351   3.701   6.690  0.4060  1.2748 -0.0402
19589SOL    HW260209   7.213   3.707   6.752 -0.2906 -1.9922 -1.0752
19590SOL     OW60210   6.069   2.288   8.109  0.1841  0.1974  0.0454
19590SOL    HW160211   6.040   2.357   8.050  0.8929  0.3007 -0.1857
19590SOL    HW260212   6.023   2.305   8.191 -1.7094 -0.6057 -0.7891
19591SOL     OW60213   4.778   3.143   8.363 -0.5691 -0.1223  0.4331
19591SOL    HW160214   4.715   3.137   8.435  0.2002 -0.1135  1.1344
19591SOL    HW260215   4.727   3.129   8.284 -1.2658 -1.2206  1.0566
19592SOL     OW60216   7.859   4.689   9.367 -0.0200  0.4529  0.2656
19592SOL    HW160217   7.804   4.765   9.350 -0.3304  0.1972  0.1173
19592SOL    HW260218   7.852   4.635   9.289  0.9771  0.7309 -0.0337
19593SOL     OW60219   7.425   4.247   9.328 -0.3928 -0.4052 -0.5334
19593SOL    HW160220   7.433   4.324   9.272  0.6938 -0.2221 -0.1303
19593SOL    HW260221   7.481   4.181   9.287  2.6865  0.5803  1.7595
19594SOL     OW60222   0.626   3.991   9.063 -0.2213  0.1987 -0.2456
19594SOL    HW160223   0.545   4.037   9.086  0.4053  0.6778  1.1141
19594SOL    HW260224   0.695   4.056   9.074  0.5048 -0.5932  0.0453
19595SOL     OW60225   6.554   3.985   8.131  0.2455  0.9559  0.5599
19595SOL    HW160226   6.528   3.895   8.150  0.4578  0.6356 -0.6052
19595SOL    HW260227   6.649   3.982   8.124  0.3199  1.4263  1.2330
19596SOL     OW60228   7.588   3.636   9.307 -0.2455 -0.0525 -0.3949
19596SOL    HW160229   7.642   3.557   9.302  0.1654  0.0368  1.5574
19596SOL    HW260230   7.498   3.603   9.307 -0.0702 -0.6641  1.2504
19597SOL     OW60231   0.026   2.905   7.607 -0.5279 -0.4942 -0.1088
19597SOL    HW160232   0.095   2.839   7.599  0.5610  0.3138  1.9491
19597SOL    HW260233   0.023   2.925   7.700 -0.5569  2.6438 -0.6844
19598SOL     OW60234   6.301   2.054   8.920 -0.2701  0.5549 -0.1578
19598SOL    HW160235   6.387   2.014   8.905 -1.1198 -0.9772 -1.1859
19598SOL    HW260236   6.270   2.078   8.832 -1.1572  0.5500  0.1500
19599SOL     OW60237   5.300   1.479   8.550  0.1199  0.3045  0.4633
19599SOL    HW160238   5.283   1.572   8.567 -0.0481  0.1868  0.9443
19599SOL    HW260239   5.358   1.452   8.621  0.0196 -0.0006  0.4311
19600SOL     OW60240   5.256   3.037   7.924  0.6146  0.2422  0.1605
19600SOL    HW160241   5.273   3.110   7.983 -2.3680  1.8778 -0.8173
19600SOL    HW260242   5.271   3.072   7.836 -0.2985 -0.4414 -0.2952
19601SOL     OW60243   6.953   1.668   9.821 -0.2808  0.3055 -0.1173
19601SOL    HW160244   6.873   1.708   9.855  0.2659  1.5276 -0.2378
19601SOL    HW260245   7.024   1.707   9.872  0.2131 -1.3356  0.5203
19602SOL     OW60246   6.417   3.232   8.089  0.4012 -0.3790  0.4778
19602SOL    HW160247   6.441   3.158   8.033 -1.7232 -0.4839 -0.3808
19602SOL    HW260248   6.388   3.300   8.028 -0.8577 -0.0707  1.3663
19603SOL     OW60249   6.999   3.176   8.130 -0.4244 -0.5361 -0.1489
19603SOL    HW160250   7.053   3.219   8.196 -0.6905  0.4769 -0.5684
19603SOL    HW260251   6.930   3.239   8.111 -0.4893 -0.9151 -1.2159
19604SOL     OW60252   6.980   3.495   7.194  0.6877 -0.0343  0.0039
19604SOL    HW160253   6.968   3.493   7.289  0.8807  0.1366  0.0346
19604SOL    HW260254   6.928   3.571   7.165  0.1086 -0.4676 -0.1085
19605SOL     OW60255   6.677   3.928   7.105 -0.4774  0.5819  0.1751
19605SOL    HW160256   6.703   3.985   7.177 -1.0282  0.1323  0.7456
19605SOL    HW260257   6.591   3.894   7.132 -0.5826  0.2296 -0.5890
19606SOL     OW60258   0.911   3.210   8.046 -0.7877  0.1732 -0.1860
19606SOL    HW160259   0.834   3.255   8.010 -0.5757  2.2013  1.6371
19606SOL    HW260260   0.985   3.251   8.002 -0.6515  0.6681  0.4797
19607SOL     OW60261   6.499   3.667   9.201 -0.2143 -0.4825 -0.0489
19607SOL    HW160262   6.583   3.625   9.219 -0.8361 -1.7546  0.0364
19607SOL    HW260263   6.483   3.722   9.277  0.9826  0.5611 -0.5077
19608SOL     OW60264   6.188   3.671   7.984  0.3494 -0.1254  0.5375
19608SOL    HW160265   6.149   3.715   7.908  1.3968 -0.0395  0.0332
19608SOL    HW260266   6.213   3.584   7.951  2.3931  0.5131  0.2651
19609SOL     OW60267   7.616   1.870   9.806 -0.1762 -0.0196 -0.3529
19609SOL    HW160268   7.580   1.931   9.742 -0.4327  1.3799  1.0539
19609SOL    HW260269   7.585   1.903   9.891  0.5994 -1.4731  0.5398
19610SOL     OW60270   6.689   1.324   8.364 -0.4206  0.0947  0.4108
19610SOL    HW160271   6.627   1.253   8.355 -2.2363  1.4388  1.6669
19610SOL    HW260272   6.717   1.321   8.455  0.9604 -0.1233  0.0136
19611SOL     OW60273   5.676   1.999   9.581 -0.3762 -0.2757  0.0582
19611SOL    HW160274   5.695   1.921   9.530 -0.7291  0.0912 -0.6485
19611SOL    HW260275   5.581   2.006   9.580 -0.3619 -0.0106  0.3733
19612SOL     OW60276   5.036   3.218   8.435  0.3135 -0.7796  0.1072
19612SOL    HW160277   4.942   3.210   8.417  0.1436 -0.4390  0.7851
19612SOL    HW260278   5.063   3.296   8.386  0.1744 -0.6976  0.1591
19613SOL     OW60279   0.066   3.689   7.777  0.4166  0.2456 -0.0196
19613SOL    HW160280   0.155   3.690   7.812  0.8136 -0.5056 -0.9589
19613SOL    HW260281   0.067   3.757   7.709  0.8712 -1.0472 -1.3669
19614SOL     OW60282   7.336   2.221   8.618  0.4432 -0.1996  0.0218
19614SOL    HW160283   7.374   2.308   8.622 -0.0812  0.1943 -2.2931
19614SOL    HW260284   7.243   2.235   8.605  0.3271 -1.0860 -0.2180
19615SOL     OW60285   6.453   3.830   8.766 -0.5784  0.3293  0.3093
19615SOL    HW160286   6.496   3.825   8.851 -0.1581  1.2885  0.1738
19615SOL    HW260287   6.476   3.917   8.733 -1.1724  0.1745 -0.5505
19616SOL     OW60288   4.610   3.381   7.935 -0.3464  0.5926 -0.1676
19616SOL    HW160289   4.647   3.370   7.848  2.1863 -0.1894  0.9290
19616SOL    HW260290   4.607   3.476   7.949  1.5951  0.6799 -0.1922
19617SOL     OW60291   6.248   1.942  10.351 -0.0606  0.1186  0.3694
19617SOL    HW160292   6.320   1.881  10.365 -0.2132 -0.6047 -1.6061
19617SOL    HW260293   6.241   1.991  10.433  1.3474 -1.1699  1.3133
19618SOL     OW60294   6.901   3.385   8.955  0.9207 -0.0173  0.0509
19618SOL    HW160295   6.817   3.339   8.950  0.6344  0.4948  0.1489
19618SOL    HW260296   6.936   3.363   9.042  0.6959  0.1068  0.1719
19619SOL     OW60297   5.198   1.722   8.557 -0.5396 -0.0852 -0.3975
19619SOL    HW160298   5.165   1.767   8.635  2.6803  0.9741  0.5215
19619SOL    HW260299   5.183   1.783   8.486 -0.7480  0.2692 -0.0529
19620SOL     OW60300   6.592   2.882   9.369  0.4871 -0.1559 -0.1541
19620SOL    HW160301   6.529   2.951   9.389  0.4858  0.0400 -0.8247
19620SOL    HW260302   6.595   2.878   9.273 -0.9522 -2.3965 -0.1622
19621SOL     OW60303   6.115   2.561   8.836  0.4156 -0.0043 -0.0532
19621SOL    HW160304   6.172   2.638   8.833 -1.0323  1.2176  1.7933
19621SOL    HW260305   6.140   2.515   8.916 -0.9016  0.3686  0.6084
19622SOL     OW60306   6.264   4.057   8.914 -0.7051 -0.4725 -0.6163
19622SOL    HW160307   6.270   3.981   8.973 -1.2882  0.0534  0.1534
19622SOL    HW260308   6.354   4.074   8.887  0.1111  1.2268  2.6800
19623SOL     OW60309   0.105   4.041   8.982 -0.6198  0.1221  0.1529
19623SOL    HW160310   0.173   3.987   8.943  0.1804  0.1335  1.4842
19623SOL    HW260311   0.068   4.090   8.908  1.9713  1.3802 -0.4220
19624SOL     OW60312   6.094   2.870   8.713 -0.1641 -0.2842 -0.6562
19624SOL    HW160313   6.038   2.814   8.766 -0.4074 -1.1047 -1.7400
19624SOL    HW260314   6.039   2.896   8.639  0.2890  0.5084 -0.7312
19625SOL     OW60315   6.187   2.934   7.695  0.0283 -0.0540 -0.1128
19625SOL    HW160316   6.276   2.969   7.690  0.0674 -0.0810  0.3566
19625SOL    HW260317   6.137   3.003   7.738 -0.3715  0.3172 -1.1418
19626SOL     OW60318   7.752   3.091   9.233 -0.3920  0.5960  0.2637
19626SOL    HW160319   7.671   3.040   9.230 -1.5731  2.4213 -1.5559
19626SOL    HW260320   7.803   3.059   9.158 -0.9049  1.6206 -0.5584
19627SOL     OW60321   6.368   3.097   7.514  0.1166 -0.1101 -0.3418
19627SOL    HW160322   6.431   3.127   7.580  1.9675 -1.8881 -1.1764
19627SOL    HW260323   6.334   3.177   7.474  0.0732  0.9631  1.7017
19628SOL     OW60324   7.742   4.009   8.170  0.0819 -0.2093  0.0884
19628SOL    HW160325   7.652   3.981   8.152 -0.6608  1.0066  1.6762
19628SOL    HW260326   7.733   4.098   8.206  1.7470 -0.7574  2.0513
19629SOL     OW60327   5.914   2.087   9.375  0.7570 -0.5995  0.6172
19629SOL    HW160328   5.882   2.007   9.332  0.3678  0.2838 -0.8293
19629SOL    HW260329   5.848   2.105   9.443 -1.6377  0.8008 -1.8622
19630SOL     OW60330   7.486   1.671   9.378 -0.5728  0.3165  0.6577
19630SOL    HW160331   7.537   1.644   9.301 -1.0578  0.3776  0.3083
19630SOL    HW260332   7.437   1.747   9.349 -1.0781  0.0895  0.9011
19631SOL     OW60333   6.316   2.115   8.177  0.6742  0.6485 -0.7126
19631SOL    HW160334   6.326   2.091   8.085 -0.7645  0.2671 -0.7869
19631SOL    HW260335   6.222   2.124   8.190  0.6118 -1.9385  1.3725
19632SOL     OW60336   5.531   2.624   6.852 -0.3557 -0.4485 -0.2202
19632SOL    HW160337   5.500   2.590   6.768 -0.4741 -0.2493 -0.2572
19632SOL    HW260338   5.456   2.616   6.911 -0.1614 -0.9355 -0.0311
19633SOL     OW60339   5.484   2.236   9.013  0.1471 -0.1123  0.1999
19633SOL    HW160340   5.490   2.199   9.101  1.1585 -0.7253 -0.1080
19633SOL    HW260341   5.394   2.269   9.007  0.3241  0.8110  1.7942
19634SOL     OW60342   6.981   2.126   9.634  0.2549 -0.1948  0.0175
19634SOL    HW160343   7.023   2.177   9.564  2.0910 -0.3357  0.9497
19634SOL    HW260344   6.927   2.189   9.681  0.4438  0.3115 -0.4359
19635SOL     OW60345   6.062   1.505   8.314 -0.1958  0.5337 -0.0625
19635SOL    HW160346   6.034   1.547   8.395 -1.5116  1.4187 -0.9282
19635SOL    HW260347   6.032   1.415   8.322 -0.0494  0.5392  0.5596
19636SOL     OW60348   4.359   0.461   9.921  0.0622 -0.5809 -0.4211
19636SOL    HW160349   4.441   0.437   9.876 -0.7997 -0.2573 -2.2760
19636SOL    HW260350   4.388   0.506  10.000  1.6658 -2.5679  0.1943
19637SOL     OW60351   6.162   1.464   8.904 -0.1524 -0.0754  0.1932
19637SOL    HW160352   6.085   1.407   8.896 -0.5388  0.4730 -0.0472
19637SOL    HW260353   6.143   1.538   8.847  1.6023 -1.0604 -1.7875
19638SOL     OW60354   6.235   3.174   6.663  0.0907 -0.1959  0.3250
19638SOL    HW160355   6.168   3.236   6.636 -1.8691 -1.9109  0.9877
19638SOL    HW260356   6.286   3.159   6.583  0.7608  2.3146  0.1996
19639SOL     OW60357   7.074   3.277   9.162  0.0747 -0.1500 -0.0684
19639SOL    HW160358   7.141   3.281   9.094 -1.0582 -0.8685 -1.2752
19639SOL    HW260359   7.103   3.208   9.221  0.6045 -0.1759 -0.3598
19640SOL     OW60360   0.235   2.771   9.768 -0.2340 -0.0515  0.1271
19640SOL    HW160361   0.283   2.760   9.686  1.5927 -1.5898  1.3005
19640SOL    HW260362   0.263   2.856   9.801 -0.3770  0.2325 -0.4742
19641SOL     OW60363   5.789   3.373   9.435  0.2221  0.0495 -0.3652
19641SOL    HW160364   5.855   3.417   9.382 -0.3431  0.1349 -1.0253
19641SOL    HW260365   5.723   3.345   9.371 -2.0080  2.8100  0.5295
19642SOL     OW60366   7.630   2.709   9.006 -0.3566 -0.1474 -0.3513
19642SOL    HW160367   7.710   2.663   9.031 -1.5725 -2.1778 -0.0053
19642SOL    HW260368   7.626   2.698   8.911 -0.7506 -0.9541 -0.2447
19643SOL     OW60369   6.087   2.100   6.770 -0.2853  0.1938  0.2664
19643SOL    HW160370   6.151   2.029   6.772  1.1675  1.4866  0.8306
19643SOL    HW260371   6.105   2.151   6.849 -2.0163  0.6129  0.4445
19644SOL     OW60372   6.078   1.374   9.609 -0.3265 -0.1824 -0.2107
19644SOL    HW160373   6.107   1.293   9.568 -2.1654 -0.2670 -1.4366
19644SOL    HW260374   6.133   1.442   9.570  0.2013 -0.6539 -0.2983
19645SOL     OW60375   5.727   2.952   8.816  0.3802 -0.3663  0.4335
19645SOL    HW160376   5.716   2.929   8.724  1.7698  0.9020 -0.0893
19645SOL    HW260377   5.805   2.904   8.843  0.2113 -0.4132  0.8431
19646SOL     OW60378   7.456   2.010   6.252 -0.1451  0.5797  0.1482
19646SOL    HW160379   7.537   1.970   6.220 -0.6947 -0.6756  0.2408
19646SOL    HW260380   7.474   2.104   6.254  0.9228  0.4227 -0.9146
19647SOL     OW60381   1.603   4.714   9.790 -0.2834  0.1117 -0.3274
19647SOL    HW160382   1.692   4.710   9.756 -0.5053 -1.4638 -0.8095
19647SOL    HW260383   1.548   4.726   9.713 -0.4991  1.3475 -0.0080
19648SOL     OW60384   0.594   3.825   7.939 -0.6017  0.3598  0.0190
19648SOL    HW160385   0.632   3.840   7.852  1.8033 -1.0017  0.7474
19648SOL    HW260386   0.514   3.877   7.939  0.0342  1.5004 -2.5131
19649SOL     OW60387   7.398   2.388   9.257 -0.3042  0.5301  0.2507
19649SOL    HW160388   7.493   2.381   9.251 -0.3725 -1.5645  0.9489
19649SOL    HW260389   7.377   2.469   9.211  1.6650  0.1348 -1.5032
19650SOL     OW60390   6.309   3.468   9.217  0.0731 -0.4259 -0.2039
19650SOL    HW160391   6.392   3.513   9.201  0.6515 -1.8873 -1.5482
19650SOL    HW260392   6.242   3.535   9.202  0.9605  0.3537 -0.7781
19651SOL     OW60393   7.174   3.097   7.574 -0.2226  0.1729 -0.4426
19651SOL    HW160394   7.260   3.062   7.597 -1.2656 -1.8677  0.6091
19651SOL    HW260395   7.152   3.156   7.645 -1.2369 -2.1982  1.3364
19652SOL     OW60396   6.812   4.009   8.204 -0.2775 -0.3199  0.0283
19652SOL    HW160397   6.852   3.940   8.257  1.2143  1.3068  1.0973
19652SOL    HW260398   6.881   4.035   8.143 -0.2110  1.3926  0.7963
19653SOL     OW60399   7.750   4.328   9.455  0.2529  0.2713  0.0619
19653SOL    HW160400   7.744   4.249   9.508  0.3403  0.0482 -0.2544
19653SOL    HW260401   7.793   4.391   9.512  2.4917 -0.6583 -0.4704
19654SOL     OW60402   0.058   2.237   7.605  0.0387 -0.0841 -0.8943
19654SOL    HW160403   0.055   2.141   7.600  2.7124 -0.1867 -4.6126
19654SOL    HW260404   0.150   2.258   7.590 -0.5469  3.1271 -0.5479
19655SOL     OW60405   5.882   2.717   8.867 -0.6634  0.3729 -0.4763
19655SOL    HW160406   5.850   2.704   8.956 -0.8999 -0.1750 -0.6389
19655SOL    HW260407   5.956   2.657   8.859 -2.1190 -1.3979 -1.4238
19656SOL     OW60408   7.023   2.822   7.603  0.2508  0.0889  0.0837
19656SOL    HW160409   7.088   2.892   7.598 -0.2177  0.6512  1.5463
19656SOL    HW260410   7.018   2.799   7.696 -2.9290  1.3480  0.3334
19657SOL     OW60411   7.980   4.495   8.557 -0.1634  0.2396  0.4249
19657SOL    HW160412   7.996   4.423   8.619  0.4079 -0.8814 -0.9762
19657SOL    HW260413   8.036   4.566   8.588 -0.8995  0.1891  1.9607
19658SOL     OW60414   0.832   2.344   7.246  0.2486 -0.6514 -0.2534
19658SOL    HW160415   0.784   2.415   7.204  0.0946 -1.0271 -0.7124
19658SOL    HW260416   0.774   2.314   7.316 -0.5599 -1.6410 -1.3105
19659SOL     OW60417   5.810   1.892   8.523  0.0493 -0.0486 -0.3338
19659SOL    HW160418   5.787   1.866   8.612 -2.4082  1.4181 -0.4502
19659SOL    HW260419   5.726   1.895   8.477  1.2292 -0.5637 -2.6701
19660SOL     OW60420   4.477   6.048   7.740  0.1403  0.0613  0.2134
19660SOL    HW160421   4.451   6.040   7.832 -2.5668  1.9392 -0.2758
19660SOL    HW260422   4.426   5.981   7.695  2.3113 -1.6402  0.1077
19661SOL     OW60423   7.447   3.041   8.966 -0.2428 -0.4891  0.1539
19661SOL    HW160424   7.392   2.966   8.943  0.0147 -0.2264 -1.4083
19661SOL    HW260425   7.499   3.058   8.888 -0.9183  1.8683  0.1476
19662SOL     OW60426   7.094   2.068   8.427 -0.1820  0.1637  0.3552
19662SOL    HW160427   7.017   2.016   8.402 -0.7964  0.2094  1.9783
19662SOL    HW260428   7.058   2.141   8.477  0.8211  1.0672 -0.2268
19663SOL     OW60429   6.041   3.798   7.812  0.0222  0.3506  0.0078
19663SOL    HW160430   6.022   3.762   7.725 -0.8853  1.7045 -0.4011
19663SOL    HW260431   6.055   3.892   7.795 -1.2980  0.8506  1.4462
19664SOL     OW60432   5.509   2.603   9.008 -0.4296 -0.6284 -0.1797
19664SOL    HW160433   5.461   2.673   9.053 -0.2447 -0.4327 -0.2851
19664SOL    HW260434   5.557   2.558   9.078  1.0778  0.6386 -0.3524
19665SOL     OW60435   7.295   2.362   7.837  0.2240 -0.4764  0.8630
19665SOL    HW160436   7.356   2.362   7.911  1.0047 -0.2069  0.2412
19665SOL    HW260437   7.335   2.303   7.773 -0.3458 -0.5651  0.5822
19666SOL     OW60438   4.805   3.194   9.321 -0.4658 -0.1175 -0.8735
19666SOL    HW160439   4.796   3.149   9.237  3.1365  0.4731 -1.7422
19666SOL    HW260440   4.791   3.287   9.300  0.1519 -0.0010 -0.7882
19667SOL     OW60441   7.639   1.299   9.399  0.3943 -0.0946 -0.4615
19667SOL    HW160442   7.686   1.235   9.345  0.8102 -0.6759  0.5566
19667SOL    HW260443   7.656   1.272   9.489 -0.9295  0.3840 -0.0331
19668SOL     OW60444   4.671   2.584   6.197 -0.4976 -0.2570  0.0815
19668SOL    HW160445   4.640   2.605   6.285 -0.4827 -0.8175  0.2194
19668SOL    HW260446   4.613   2.633   6.138 -0.0229  0.7406  0.4243
19669SOL     OW60447   0.902   3.670   7.753 -0.0060 -0.6233 -0.0261
19669SOL    HW160448   0.950   3.752   7.770  1.1661 -1.3138  0.1180
19669SOL    HW260449   0.967   3.601   7.766 -0.7856 -1.5483 -0.8363
19670SOL     OW60450   5.709   2.563   8.508 -0.0435 -0.0631 -0.1904
19670SOL    HW160451   5.692   2.572   8.602 -0.5940 -1.2496 -0.1563
19670SOL    HW260452   5.636   2.608   8.466 -0.0983 -0.0177 -0.0490
19671SOL     OW60453   6.110   2.808   9.473  0.4691 -0.1869  0.2120
19671SOL    HW160454   6.088   2.715   9.473  1.7105 -0.5139 -1.0067
19671SOL    HW260455   6.204   2.811   9.454  0.4167  1.3086  0.0688
19672SOL     OW60456   6.932   2.722   8.516  0.3480  0.0446  0.0199
19672SOL    HW160457   6.920   2.663   8.590 -0.2127  1.6771  1.2869
19672SOL    HW260458   6.865   2.790   8.527  0.4591  0.5181 -1.8108
19673SOL     OW60459   6.737   3.184   7.486 -0.0962 -0.3609 -0.7327
19673SOL    HW160460   6.799   3.244   7.528 -1.3508  0.1278  0.4923
19673SOL    HW260461   6.726   3.113   7.549 -0.0140 -0.9736 -1.3935
19674SOL     OW60462   4.959   2.385  10.101  0.0768 -0.1035  0.0631
19674SOL    HW160463   4.955   2.343  10.187 -0.2521  0.3973  0.3008
19674SOL    HW260464   4.969   2.313  10.039  2.0450 -0.3663  0.6334
19675SOL     OW60465   7.918   3.771   8.519 -0.3237  0.3930 -0.3067
19675SOL    HW160466   7.943   3.862   8.529 -0.6338  0.3399  1.1546
19675SOL    HW260467   7.834   3.774   8.472 -0.4063  0.8670 -0.1322
19676SOL     OW60468   7.658   3.748   8.312  0.2219  0.1136  0.1597
19676SOL    HW160469   7.587   3.785   8.259  1.7982  0.1976 -2.0214
19676SOL    HW260470   7.728   3.813   8.306  0.1513  0.5952  3.2487
19677SOL     OW60471   6.713   3.385   8.422 -0.1079 -0.3998  0.0359
19677SOL    HW160472   6.661   3.396   8.343 -1.7864  1.5827  1.3087
19677SOL    HW260473   6.718   3.290   8.435 -2.1750 -0.6855 -0.9374
19678SOL     OW60474   5.724   3.341   9.081  0.0297  0.0131 -0.0360
19678SOL    HW160475   5.658   3.276   9.059 -1.2731  1.2359  0.1245
19678SOL    HW260476   5.706   3.415   9.023  2.0436 -0.0585 -0.8472
19679SOL     OW60477   5.983   2.397   8.359  0.2106  0.1857  0.4572
19679SOL    HW160478   5.998   2.383   8.452  2.3554  1.3099  0.3537
19679SOL    HW260479   6.044   2.468   8.335  1.3488 -1.5117 -2.2085
19680SOL     OW60480   0.293   4.281   7.755  0.5264  0.2956 -0.0026
19680SOL    HW160481   0.358   4.302   7.822  0.6076  1.4824 -0.4288
19680SOL    HW260482   0.328   4.204   7.711  0.3780 -0.6365  1.4178
19681SOL     OW60483   6.323   3.305   8.916  0.6439 -0.6585 -0.1797
19681SOL    HW160484   6.285   3.240   8.858 -1.6046  0.6083 -0.2447
19681SOL    HW260485   6.354   3.375   8.858  1.3283 -0.8038 -0.0049
19682SOL     OW60486   6.210   1.417   9.352 -0.2661  0.7227 -0.0243
19682SOL    HW160487   6.251   1.413   9.265  0.8437 -0.1277  0.5155
19682SOL    HW260488   6.265   1.477   9.402 -0.0579  0.0877  0.5162
19683SOL     OW60489   7.895   2.912   8.559 -0.1148  0.2096 -0.1545
19683SOL    HW160490   7.865   2.993   8.517 -1.5537 -0.4771 -0.5055
19683SOL    HW260491   7.821   2.884   8.613  0.8303 -0.2295  0.9405
19684SOL     OW60492   6.655   3.799   8.438  0.0688 -0.5710 -0.1067
19684SOL    HW160493   6.744   3.774   8.415  0.1234 -1.4299  1.0026
19684SOL    HW260494   6.665   3.864   8.507 -0.1574 -0.0890 -0.5182
19685SOL     OW60495   5.809   4.818   8.540 -0.5664  0.3592 -0.3182
19685SOL    HW160496   5.783   4.904   8.572 -0.0837  0.3254  0.1836
19685SOL    HW260497   5.881   4.792   8.598  0.3184  0.2847 -1.4294
19686SOL     OW60498   7.267   2.519   8.160  0.4132  0.1818 -0.0013
19686SOL    HW160499   7.285   2.583   8.091  2.5125  0.6804  0.9519
19686SOL    HW260500   7.248   2.438   8.113 -0.0861  0.9523 -1.1773
19687SOL     OW60501   7.061   3.977   8.846 -0.1868 -0.3857 -0.0359
19687SOL    HW160502   7.114   3.916   8.793  0.2915 -1.8652  2.0138
19687SOL    HW260503   7.111   4.059   8.844  0.7929 -0.9631 -0.3646
19688SOL     OW60504   6.346   2.851   8.181 -0.2113  0.4917  0.1164
19688SOL    HW160505   6.274   2.878   8.124 -0.9977  1.0759  1.3304
19688SOL    HW260506   6.344   2.915   8.252  1.4314  0.4238  0.2469
19689SOL     OW60507   6.173   5.161   6.649 -0.0837 -0.8999 -0.8728
19689SOL    HW160508   6.127   5.193   6.571  0.3669 -0.8707 -1.1320
19689SOL    HW260509   6.266   5.169   6.626  0.1575  1.3217  0.4989
19690SOL     OW60510   5.363   2.038  10.393  0.2964  0.3851  0.3934
19690SOL    HW160511   5.359   1.966  10.331 -0.4836 -1.1610  2.1461
19690SOL    HW260512   5.442   2.022  10.444  0.5918  1.2727  0.2300
19691SOL     OW60513   7.023   2.199   8.095  0.0957  0.4210  0.0084
19691SOL    HW160514   7.069   2.153   8.165  1.1036 -0.5135 -1.2257
19691SOL    HW260515   7.001   2.130   8.032  1.8071  1.5978 -1.9843
19692SOL     OW60516   4.628   1.415   9.164  0.1261 -0.1165 -0.6464
19692SOL    HW160517   4.535   1.418   9.184  0.1740  2.6303 -0.4544
19692SOL    HW260518   4.632   1.429   9.069  0.3524  0.3380 -0.5713
19693SOL     OW60519   5.850   4.827   7.873 -0.0223  0.2048 -0.2548
19693SOL    HW160520   5.818   4.890   7.809  1.3790  1.2427  0.0211
19693SOL    HW260521   5.820   4.860   7.957  0.3060  0.2463 -0.1519
19694SOL     OW60522   5.135   1.197   9.119  0.4747 -0.8685  0.4937
19694SOL    HW160523   5.145   1.120   9.064  1.1346  0.3641 -1.1851
19694SOL    HW260524   5.042   1.200   9.140  0.1144 -1.1241 -0.9650
19695SOL     OW60525   5.844   3.867   7.558  0.6625 -0.1648 -0.6927
19695SOL    HW160526   5.813   3.848   7.647 -0.6835 -1.1810 -1.3465
19695SOL    HW260527   5.883   3.786   7.528  0.3755 -0.0767 -1.3207
19696SOL     OW60528   6.045   5.043   8.443  0.6572 -0.2705 -0.3115
19696SOL    HW160529   6.056   5.034   8.537  1.8356 -0.4044 -0.4380
19696SOL    HW260530   6.066   4.957   8.408  0.6988 -0.0994 -0.7203
19697SOL     OW60531   7.859   7.876   8.072  0.1236  1.1028  0.0829
19697SOL    HW160532   7.870   7.822   7.993  0.4876 -0.0406  0.8993
19697SOL    HW260533   7.784   7.932   8.051 -0.5434 -0.0032 -0.6467
19698SOL     OW60534   5.166   2.558   8.584  0.6389 -0.1004  0.1420
19698SOL    HW160535   5.242   2.601   8.624 -0.0104 -0.3740  1.7515
19698SOL    HW260536   5.142   2.615   8.511  2.4424 -0.0672 -0.4751
19699SOL     OW60537   6.037   3.289   9.037  0.4434  0.4674 -0.0124
19699SOL    HW160538   6.055   3.258   8.949  0.3326 -0.3058  0.2312
19699SOL    HW260539   5.941   3.295   9.041  0.4004 -0.2957  0.3107
19700SOL     OW60540   0.223   1.823   8.192 -0.1835  0.0729  0.3834
19700SOL    HW160541   0.287   1.792   8.257  1.9537 -0.2504 -1.7332
19700SOL    HW260542   0.264   1.804   8.107 -1.7938  2.5922 -1.0870
19701SOL     OW60543   0.313   3.704   7.885  0.2678 -0.0376  0.1529
19701SOL    HW160544   0.339   3.638   7.949 -0.5216 -1.0305 -0.5123
19701SOL    HW260545   0.318   3.787   7.933  1.0418 -0.5966  1.0765
19702SOL     OW60546   0.629   2.759   8.048  0.1955 -0.3597  0.4325
19702SOL    HW160547   0.645   2.673   8.011  2.9875  0.3746 -0.3034
19702SOL    HW260548   0.603   2.743   8.139  3.0443 -1.9688  1.0551
19703SOL     OW60549   5.235   2.643   8.233 -0.4746  0.5235 -0.5108
19703SOL    HW160550   5.179   2.620   8.158 -0.0196 -0.3026 -0.6097
19703SOL    HW260551   5.324   2.624   8.203 -0.0362  2.5237 -0.6198
19704SOL     OW60552   5.404   4.747   8.920 -0.1304 -1.0986 -0.4288
19704SOL    HW160553   5.436   4.740   9.010  0.0646 -0.8069 -0.4745
19704SOL    HW260554   5.446   4.826   8.886 -1.5492 -0.2085 -0.2140
19705SOL     OW60555   5.674   2.270   9.544 -0.3674 -0.2713 -0.0139
19705SOL    HW160556   5.689   2.177   9.559 -0.0572 -0.0817  0.9686
19705SOL    HW260557   5.600   2.274   9.484  0.0740 -1.1585 -0.6325
19706SOL     OW60558   5.946   1.748   9.731  0.0888  0.1391  0.2787
19706SOL    HW160559   6.013   1.718   9.792 -0.1319 -0.2843  0.3180
19706SOL    HW260560   5.868   1.696   9.753  0.2477 -0.6667 -0.9240
19707SOL     OW60561   5.339   3.021   9.720  0.1233 -0.2668  0.4987
19707SOL    HW160562   5.251   2.989   9.741 -0.0878  0.6405  1.0237
19707SOL    HW260563   5.397   2.973   9.781 -0.1072 -0.2026  0.7706
19708SOL     OW60564   6.317   2.651  10.379 -0.0194 -0.0365  0.0799
19708SOL    HW160565   6.252   2.711  10.417 -0.7168 -0.8770  0.2201
19708SOL    HW260566   6.379   2.636  10.451  0.6629  1.1983 -0.2172
19709SOL     OW60567   7.182   3.970   9.222  0.3240 -0.5678 -0.0211
19709SOL    HW160568   7.135   3.990   9.303  1.7571 -1.0453  0.9721
19709SOL    HW260569   7.141   3.891   9.188 -1.1442  0.3587 -0.4989
19710SOL     OW60570   7.748   3.474  11.013 -0.4188 -0.0821 -0.3838
19710SOL    HW160571   7.664   3.450  11.052 -0.2459 -0.8164 -0.4477
19710SOL    HW260572   7.808   3.479  11.088 -0.5874  0.7904 -0.2953
19711SOL     OW60573   7.704   1.586  10.144 -0.0332  0.0128  0.0392
19711SOL    HW160574   7.652   1.506  10.132 -2.0170  1.2837 -0.2913
19711SOL    HW260575   7.716   1.620  10.055 -1.0718  1.1733  0.3150
19712SOL     OW60576   6.198   4.093  10.038 -0.5349 -0.0309  0.1771
19712SOL    HW160577   6.154   4.007  10.034 -1.8359  0.4332  2.5838
19712SOL    HW260578   6.131   4.155  10.012  0.1798  0.3459 -0.8081
19713SOL     OW60579   6.377   1.797  10.630  0.1494 -0.0502 -0.0551
19713SOL    HW160580   6.377   1.889  10.607  0.0579 -0.2619 -0.9133
19713SOL    HW260581   6.463   1.782  10.670 -0.0518  0.5261  0.6101
19714SOL     OW60582   6.653   4.045  10.764 -1.2717  0.1680  0.1964
19714SOL    HW160583   6.662   3.986  10.689 -2.8919 -0.1725  0.2419
19714SOL    HW260584   6.571   4.020  10.805 -1.6869  2.0363  0.5910
19715SOL     OW60585   6.914   2.569   9.672 -0.2256  0.3634  0.1558
19715SOL    HW160586   6.950   2.656   9.685  0.3456  0.5386 -2.3177
19715SOL    HW260587   6.823   2.584   9.647 -0.2382  0.2206  0.1139
19716SOL     OW60588   6.198   2.483  11.090 -0.4695 -0.1195  0.5267
19716SOL    HW160589   6.178   2.567  11.132 -1.8812 -0.2767  0.2220
19716SOL    HW260590   6.113   2.450  11.061  0.2886 -0.7600 -1.0686
19717SOL     OW60591   7.643   4.242  12.415  0.2624 -0.1153  0.2029
19717SOL    HW160592   7.619   4.281  12.499 -0.2845 -0.3896  0.1789
19717SOL    HW260593   7.563   4.247  12.363  0.5282 -0.1816 -0.2142
19718SOL     OW60594   5.470   1.587   9.525  0.3061 -0.1906 -0.2269
19718SOL    HW160595   5.526   1.569   9.600  0.8946  1.5420 -0.2076
19718SOL    HW260596   5.397   1.524   9.534  0.4891 -0.1991  1.6335
19719SOL     OW60597   7.482   3.210  10.667  0.6647  0.0758 -0.4164
19719SOL    HW160598   7.527   3.129  10.642  1.6520  0.5337 -0.1698
19719SOL    HW260599   7.538   3.249  10.734 -0.7753  0.0217  0.8522
19720SOL     OW60600   6.220   2.393   9.545 -0.4796 -0.3106 -0.6202
19720SOL    HW160601   6.260   2.342   9.616 -0.4033  1.0627  0.3682
19720SOL    HW260602   6.291   2.445   9.510 -0.8236  0.0775 -0.7453
19721SOL     OW60603   0.188   3.141  11.118  0.3370  0.4177 -0.5471
19721SOL    HW160604   0.157   3.052  11.108 -0.7306  0.8516 -1.3253
19721SOL    HW260605   0.270   3.143  11.068  0.1272 -0.0079 -0.9148
19722SOL     OW60606   5.340   3.708   9.856 -0.4400  0.2188 -0.2400
19722SOL    HW160607   5.403   3.770   9.893  2.3059 -1.6367 -1.4342
19722SOL    HW260608   5.309   3.750   9.777 -1.7644  1.6927  0.9987
19723SOL     OW60609   6.323   3.736   9.710 -0.3338 -0.4074 -0.2166
19723SOL    HW160610   6.413   3.758   9.686 -0.1132  1.1692  1.8085
19723SOL    HW260611   6.304   3.655   9.662  1.7889 -0.2292 -1.4665
19724SOL     OW60612   5.866   4.965  11.067  0.6807 -0.4207 -0.0434
19724SOL    HW160613   5.896   4.989  10.980  0.9323  1.2939  0.4897
19724SOL    HW260614   5.774   4.941  11.055  0.6269  0.1218 -0.7225
19725SOL     OW60615   6.179   2.288  10.622 -0.0780 -0.2452 -0.6819
19725SOL    HW160616   6.172   2.345  10.545 -1.6707 -0.9399 -1.1027
19725SOL    HW260617   6.202   2.203  10.586  2.9992  0.1915  0.0048
19726SOL     OW60618   7.122   2.025  10.363  0.1232 -0.2103  0.1875
19726SOL    HW160619   7.075   2.018  10.446 -0.8470 -0.9266 -0.4017
19726SOL    HW260620   7.079   1.962  10.305  0.6098  0.4581 -0.9408
19727SOL     OW60621   6.986   1.894   9.465 -0.5188  0.3751 -0.3076
19727SOL    HW160622   7.028   1.951   9.401  3.4173 -1.0933  0.7284
19727SOL    HW260623   6.974   1.949   9.542  2.1525  0.1990  0.2936
19728SOL     OW60624   7.460   4.671   9.454  0.2115  0.1437 -0.3437
19728SOL    HW160625   7.468   4.658   9.359 -1.7052 -1.9875 -0.3163
19728SOL    HW260626   7.385   4.616   9.479 -0.0368  1.5123  2.2501
19729SOL     OW60627   4.322   3.790  10.422  0.1006  0.0653 -0.3993
19729SOL    HW160628   4.248   3.740  10.386 -0.2780 -0.5463  1.1321
19729SOL    HW260629   4.317   3.875  10.378 -1.4665  0.0071 -0.4157
19730SOL     OW60630   0.022   2.878  11.196 -0.3284  0.7036 -1.0238
19730SOL    HW160631   0.089   2.817  11.167 -1.1968 -0.4772 -0.6463
19730SOL    HW260632   0.057   2.917  11.276 -0.3334 -0.3587 -0.4907
19731SOL     OW60633   7.675   1.623   9.884  0.7134  0.1215 -0.1769
19731SOL    HW160634   7.765   1.597   9.864  0.8937  1.4094 -1.1670
19731SOL    HW260635   7.668   1.712   9.852 -0.4004  0.7024  1.5098
19732SOL     OW60636   6.419   2.728  11.114  0.4692  0.2945 -0.2926
19732SOL    HW160637   6.511   2.702  11.110  0.3184 -0.6167  1.1958
19732SOL    HW260638   6.401   2.739  11.207 -1.2272 -0.7282 -0.4438
19733SOL     OW60639   6.002   4.306  10.492 -0.1046 -0.5976  0.7691
19733SOL    HW160640   5.999   4.241  10.421 -0.5053 -0.6105  0.7952
19733SOL    HW260641   5.952   4.380  10.458 -0.7265 -0.7978  1.2303
19734SOL     OW60642   6.140   3.139  10.722 -0.3055  0.6388  0.0285
19734SOL    HW160643   6.073   3.080  10.756 -0.1378 -0.3057 -1.2084
19734SOL    HW260644   6.217   3.121  10.776 -0.1134 -0.6583 -0.6290
19735SOL     OW60645   7.424   1.840  10.592  0.7478 -0.2067 -0.3273
19735SOL    HW160646   7.412   1.763  10.537 -1.8430 -0.0944 -0.0188
19735SOL    HW260647   7.519   1.851  10.596  1.5254 -4.9497  1.7962
19736SOL     OW60648   6.795   3.003  10.758  0.8130 -0.2546 -0.2006
19736SOL    HW160649   6.813   3.018  10.665  1.8582 -0.7404 -0.0927
19736SOL    HW260650   6.882   2.992  10.797  0.3384 -0.9161  0.6873
19737SOL     OW60651   7.409   2.268   9.761 -0.4780 -0.0230 -0.2550
19737SOL    HW160652   7.324   2.274   9.804 -0.2196  1.1280  0.1236
19737SOL    HW260653   7.389   2.244   9.671 -1.1141 -1.0413  0.1466
19738SOL     OW60654   6.741   3.824  10.608  0.4820 -0.2036  0.3016
19738SOL    HW160655   6.832   3.794  10.618  0.4304 -0.2442  0.6424
19738SOL    HW260656   6.689   3.757  10.652  0.3272  0.1130  0.5996
19739SOL     OW60657   5.846   1.464   9.740  0.4579  0.3921  0.6281
19739SOL    HW160658   5.921   1.427   9.694  0.6444  0.6910  0.6916
19739SOL    HW260659   5.784   1.486   9.670 -0.3019 -1.4163  0.6631
19740SOL     OW60660   0.434   2.686  12.185 -0.2137 -0.1965  0.4873
19740SOL    HW160661   0.340   2.668  12.189 -0.5716  0.5887 -2.1471
19740SOL    HW260662   0.471   2.609  12.142  0.1478  0.0803  0.3006
19741SOL     OW60663   6.303   2.915   9.946  0.8171  0.1479  0.3710
19741SOL    HW160664   6.288   2.921  10.040 -1.1599  0.7952  0.0747
19741SOL    HW260665   6.272   2.827   9.922 -0.9442  0.8208  0.0238
19742SOL     OW60666   7.690   2.261   9.732  1.0661  0.3276 -0.4859
19742SOL    HW160667   7.708   2.352   9.707 -0.2765  0.4628 -1.0607
19742SOL    HW260668   7.598   2.262   9.758  1.1922 -0.7711  0.0363
19743SOL     OW60669   7.373   1.892  10.168 -0.0480  0.2712 -0.6452
19743SOL    HW160670   7.336   1.831  10.231 -1.3356  2.3691  0.7836
19743SOL    HW260671   7.393   1.971  10.220  0.6076  1.4247 -2.5403
19744SOL     OW60672   6.466   3.186   7.752 -0.0546 -0.8248  0.3952
19744SOL    HW160673   6.396   3.239   7.790  0.3128 -0.1055  0.0994
19744SOL    HW260674   6.541   3.246   7.749 -0.0190 -0.9190 -1.2522
19745SOL     OW60675   5.578   1.307  10.658 -0.0899 -0.3376  0.4417
19745SOL    HW160676   5.616   1.390  10.629  0.1963 -0.1507  1.3205
19745SOL    HW260677   5.484   1.324  10.663 -0.2071 -0.5341 -0.8701
19746SOL     OW60678   7.554   3.698  12.097  0.2696  0.2707 -0.2049
19746SOL    HW160679   7.480   3.661  12.145 -0.8272  1.5251 -0.8658
19746SOL    HW260680   7.518   3.721  12.011  1.2143  1.6423 -0.2678
19747SOL     OW60681   1.392   3.194  10.526  0.4272 -0.1878 -0.0267
19747SOL    HW160682   1.325   3.229  10.468 -0.8193 -0.4557  1.1937
19747SOL    HW260683   1.357   3.110  10.556  0.6166  0.3288  1.7563
19748SOL     OW60684   6.622   2.154  11.296 -0.1090  0.2384 -0.0791
19748SOL    HW160685   6.605   2.141  11.390 -1.0021 -2.1799 -0.5093
19748SOL    HW260686   6.711   2.121  11.284  0.1392  0.8803 -0.0422
19749SOL     OW60687   0.309   3.081   9.342 -0.3574  0.3155  0.1705
19749SOL    HW160688   0.295   3.020   9.269  1.1245  2.1195 -1.7528
19749SOL    HW260689   0.373   3.038   9.398  0.3113 -0.1251 -0.9032
19750SOL     OW60690   5.731   3.307   8.440 -0.2053 -0.5424  0.0564
19750SOL    HW160691   5.765   3.258   8.514  0.9419 -1.2607 -0.9140
19750SOL    HW260692   5.809   3.334   8.391 -0.8055  1.8057  0.2448
19751SOL     OW60693   5.027   4.056   9.465 -0.1339 -0.3704  0.1933
19751SOL    HW160694   5.107   4.097   9.497 -1.1957  1.3610  0.7753
19751SOL    HW260695   4.982   4.126   9.417 -1.2516 -1.3383 -0.2221
19752SOL     OW60696   0.181   2.828   8.720 -0.2227  0.1687  0.6418
19752SOL    HW160697   0.121   2.890   8.678 -0.6787 -0.4179  0.4136
19752SOL    HW260698   0.195   2.865   8.807 -0.0620  0.8750  0.3273
19753SOL     OW60699   6.669   2.630  11.122 -0.0621  0.2862 -0.3255
19753SOL    HW160700   6.670   2.609  11.028  0.3636 -1.8879  0.1227
19753SOL    HW260701   6.682   2.546  11.166  1.3706  1.4626  1.6679
19754SOL     OW60702   6.501   2.955   9.748 -0.2097 -0.4125 -0.2447
19754SOL    HW160703   6.441   2.956   9.823  0.1718  0.3246  0.0613
19754SOL    HW260704   6.544   3.041   9.751  1.5526 -1.2497  0.1098
19755SOL     OW60705   5.768   2.714   9.492  0.0992  0.3580  0.3968
19755SOL    HW160706   5.851   2.671   9.473 -0.3177 -0.0607 -0.5513
19755SOL    HW260707   5.741   2.752   9.408 -0.2617  1.2052  0.8825
19756SOL     OW60708   6.020   3.437  10.749  0.1846  0.4612 -0.3018
19756SOL    HW160709   6.092   3.404  10.802 -0.4732 -0.9340 -0.2454
19756SOL    HW260710   6.033   3.399  10.663 -0.8757 -0.4051 -0.0939
19757SOL     OW60711   0.727   3.496   9.033 -0.3204  0.0850 -0.3186
19757SOL    HW160712   0.665   3.431   9.066 -0.7779  0.1652 -0.9905
19757SOL    HW260713   0.705   3.504   8.940 -0.0980  1.0095 -0.3007
19758SOL     OW60714   6.841   3.771  10.143 -0.0377 -0.6246  0.5469
19758SOL    HW160715   6.826   3.841  10.206 -0.0594  1.1234 -1.3047
19758SOL    HW260716   6.813   3.807  10.059  0.0592 -2.8250 -0.5131
19759SOL     OW60717   6.873   2.733   9.398  0.1815  0.2979 -0.5261
19759SOL    HW160718   6.956   2.767   9.365  0.4156  0.7761  0.4947
19759SOL    HW260719   6.812   2.807   9.393 -0.0909  0.0456 -0.9586
19760SOL     OW60720   7.566   2.965  10.561  0.5503  0.5729 -0.4589
19760SOL    HW160721   7.659   2.945  10.546  0.7833  1.4166 -0.1755
19760SOL    HW260722   7.533   2.889  10.608  1.1615  0.3745 -0.3360
19761SOL     OW60723   4.425   2.700   9.736 -0.0987 -1.0000  0.1759
19761SOL    HW160724   4.516   2.694   9.707 -0.4187  0.1640 -1.1817
19761SOL    HW260725   4.374   2.665   9.663 -0.8012 -0.4345  0.3758
19762SOL     OW60726   7.332   4.650  10.065 -0.4372  0.1113  0.4736
19762SOL    HW160727   7.244   4.683  10.087  0.1120  1.0629  1.3743
19762SOL    HW260728   7.333   4.561  10.099 -1.2234 -0.0971 -0.0152
19763SOL     OW60729   7.767   1.962  11.978 -0.2074 -0.1611  0.2030
19763SOL    HW160730   7.822   1.975  12.055  0.4355 -0.7708 -0.1352
19763SOL    HW260731   7.820   1.908  11.920 -0.2793  1.0820 -1.0878
19764SOL     OW60732   7.305   1.685  10.368  0.4058 -0.1931 -0.0866
19764SOL    HW160733   7.347   1.603  10.394 -0.1520 -0.7352 -0.8401
19764SOL    HW260734   7.223   1.686  10.417 -0.4410 -1.0020 -1.4344
19765SOL     OW60735   6.031   4.269   8.796  0.1766 -0.2202  0.0848
19765SOL    HW160736   5.946   4.310   8.816 -0.7361 -1.4958 -0.9747
19765SOL    HW260737   6.092   4.310   8.856 -1.2397  0.5834  1.0371
19766SOL     OW60738   7.962   0.957   9.804  0.6733  0.0195 -0.0192
19766SOL    HW160739   7.892   0.957   9.738  1.0471 -0.6121 -0.4230
19766SOL    HW260740   7.917   0.980   9.885 -0.0393 -0.5503 -0.2377
19767SOL     OW60741   6.541   4.286  10.705 -0.3083  0.1611  0.0943
19767SOL    HW160742   6.614   4.224  10.703 -0.6189 -0.1850 -1.0478
19767SOL    HW260743   6.546   4.332  10.622 -1.7509 -0.3049 -0.2781
19768SOL     OW60744   7.531   4.828  10.474  0.3528 -0.3306  0.3593
19768SOL    HW160745   7.441   4.800  10.455  0.2482  1.0758 -1.4080
19768SOL    HW260746   7.567   4.757  10.528 -1.7750 -0.9572  1.0612
19769SOL     OW60747   5.508   2.673   9.610 -0.0202 -0.5060 -0.5332
19769SOL    HW160748   5.462   2.725   9.544 -0.9171 -1.1892 -0.4678
19769SOL    HW260749   5.600   2.680   9.586 -0.3943 -1.5765 -2.4938
19770SOL     OW60750   7.657   2.939  11.506  0.4251 -0.0412 -0.3954
19770SOL    HW160751   7.629   2.908  11.420  0.3123  0.5428 -0.5747
19770SOL    HW260752   7.576   2.965  11.550  0.6582  1.9503 -1.0325
19771SOL     OW60753   5.118   0.996   8.932 -0.4013 -0.0244 -0.4765
19771SOL    HW160754   5.133   0.914   8.979 -1.0117  1.1254  1.9022
19771SOL    HW260755   5.190   1.002   8.869 -0.4114 -2.4013 -0.7979
19772SOL     OW60756   1.079   3.357  11.183 -0.4336 -0.1888  0.0591
19772SOL    HW160757   1.118   3.338  11.269  0.1003  1.6153  0.2785
19772SOL    HW260758   1.115   3.291  11.125  0.1543 -0.7205  0.9988
19773SOL     OW60759   5.808   3.112  10.977  0.1879 -0.3309  0.1511
19773SOL    HW160760   5.814   3.207  10.971 -0.4916 -0.3978 -2.7529
19773SOL    HW260761   5.719   3.091  10.947  0.2379 -1.8952  0.9701
19774SOL     OW60762   0.348   2.608  11.306 -0.7322  0.3445 -0.2405
19774SOL    HW160763   0.284   2.678  11.320 -1.4490 -0.1333 -1.0526
19774SOL    HW260764   0.425   2.636  11.356 -1.7470  0.6646  1.2285
19775SOL     OW60765   5.338   2.975   8.526  0.0909 -0.0097 -0.1602
19775SOL    HW160766   5.370   3.060   8.496  0.2799 -0.2280 -0.5850
19775SOL    HW260767   5.266   2.954   8.466 -0.3803  0.1409  0.3393
19776SOL     OW60768   5.471   1.337   9.715 -0.4633 -0.2318  0.6203
19776SOL    HW160769   5.382   1.360   9.742 -0.4726  0.5670 -0.0598
19776SOL    HW260770   5.523   1.345   9.796 -0.3502  2.8747  0.3745
19777SOL     OW60771   6.407   4.799   8.638  0.2107 -0.2964 -0.3707
19777SOL    HW160772   6.502   4.803   8.639  0.2703 -1.3374  0.4542
19777SOL    HW260773   6.384   4.754   8.720 -0.8723 -1.9756 -1.5351
19778SOL     OW60774   3.902   1.878   8.934 -0.0389 -0.0602 -0.3845
19778SOL    HW160775   3.831   1.939   8.956 -0.0958 -0.3369  0.2226
19778SOL    HW260776   3.896   1.809   9.001  1.3105  0.3283  0.1595
19779SOL     OW60777   7.820   2.510  11.205  0.1677 -0.4065 -0.0566
19779SOL    HW160778   7.839   2.525  11.113  1.2657 -1.8005 -0.1076
19779SOL    HW260779   7.890   2.555  11.252 -1.3269  1.7382  0.2202
19780SOL     OW60780   0.012   2.297   9.726  0.1381  0.2333 -0.3191
19780SOL    HW160781  -0.054   2.365   9.717 -2.3469 -2.1310 -1.4806
19780SOL    HW260782   0.093   2.338   9.699 -0.7909  3.2509  1.0413
19781SOL     OW60783   7.503   2.092   9.988 -0.1472 -0.0178 -0.4392
19781SOL    HW160784   7.427   2.046  10.025  0.1785 -1.4312 -1.4267
19781SOL    HW260785   7.467   2.173   9.953 -0.7782  0.4738  1.2325
19782SOL     OW60786   4.017   2.409   9.834 -0.0457  0.2223  0.4942
19782SOL    HW160787   3.995   2.429   9.743  1.2741  0.1014  0.1213
19782SOL    HW260788   3.967   2.471   9.886  0.3310  1.3108 -0.4032
19783SOL     OW60789   7.970   4.019  10.834  0.0963 -0.5165 -0.0747
19783SOL    HW160790   7.977   4.112  10.856  0.3502 -0.5333 -0.0826
19783SOL    HW260791   7.959   4.018  10.739 -0.7647 -0.4567  0.0139
19784SOL     OW60792   7.794   0.968   9.587  0.0097 -0.1657 -0.1840
19784SOL    HW160793   7.723   0.916   9.548 -0.3283 -0.7448  1.1312
19784SOL    HW260794   7.751   1.048   9.618  0.0740 -0.1732 -0.0759
19785SOL     OW60795   6.558   3.514   9.501  0.4065  0.6344  0.1821
19785SOL    HW160796   6.579   3.592   9.552 -0.7737  1.0595  0.0332
19785SOL    HW260797   6.492   3.468   9.553  0.8068 -0.0683  0.0791
19786SOL     OW60798   0.487   2.297   9.585 -0.7924 -0.2862  0.4649
19786SOL    HW160799   0.405   2.260   9.554 -0.1618 -1.2313 -0.1056
19786SOL    HW260800   0.460   2.366   9.647 -1.9886 -1.0664  0.8423
19787SOL     OW60801   6.921   1.924   8.778  0.2860  0.7093 -0.7582
19787SOL    HW160802   6.970   2.003   8.800 -0.7425  1.2089 -0.1905
19787SOL    HW260803   6.845   1.957   8.729  0.6087 -0.0689 -1.8266
19788SOL     OW60804   5.804   3.789   9.643 -0.0627 -0.0945 -0.4375
19788SOL    HW160805   5.881   3.734   9.657  0.1527  0.2572 -0.2263
19788SOL    HW260806   5.840   3.875   9.623 -0.4000  0.4034  0.9903
19789SOL     OW60807   0.869   2.683   8.846  0.1064  0.0169 -0.1361
19789SOL    HW160808   0.824   2.630   8.779 -1.5355  1.1207  0.0232
19789SOL    HW260809   0.936   2.625   8.881  0.2777 -0.9669 -1.9616
19790SOL     OW60810   6.060   2.401   9.884  0.5601 -0.2715 -0.6499
19790SOL    HW160811   6.054   2.305   9.888 -2.6273 -0.1810  0.3965
19790SOL    HW260812   5.991   2.426   9.822  0.3659  1.3497  0.1647
19791SOL     OW60813   7.892   1.573   9.120  0.1803  0.4360  0.1740
19791SOL    HW160814   7.801   1.543   9.126 -0.1407  1.6676  3.6488
19791SOL    HW260815   7.917   1.591   9.210  3.6279  1.0294 -0.7699
19792SOL     OW60816   1.511   3.335  11.259 -0.0660  0.4997 -0.0453
19792SOL    HW160817   1.485   3.396  11.190 -0.7534  1.9794  1.4547
19792SOL    HW260818   1.446   3.264  11.255 -0.3164  0.7619 -0.6713
19793SOL     OW60819   7.140   4.206  10.082 -0.2401 -0.3755 -0.2817
19793SOL    HW160820   7.212   4.261  10.112 -0.9566  0.0453  0.7287
19793SOL    HW260821   7.150   4.203   9.987  1.1212 -0.3665 -0.1550
19794SOL     OW60822   0.659   3.214  12.184  0.4368 -0.2215  0.1873
19794SOL    HW160823   0.593   3.163  12.231  1.3564 -0.6359  1.0714
19794SOL    HW260824   0.686   3.281  12.247 -0.8432  1.4980 -0.9930
19795SOL     OW60825   7.079   3.067  12.003 -0.3950  0.1329  0.3131
19795SOL    HW160826   7.106   3.103  11.919  0.8922 -1.0156  0.1913
19795SOL    HW260827   7.080   3.141  12.064  0.9175  0.5381 -0.1904
19796SOL     OW60828   6.396   2.362  11.567 -0.6962  0.3097 -0.7562
19796SOL    HW160829   6.344   2.380  11.489 -0.1001 -0.7876 -1.4346
19796SOL    HW260830   6.425   2.271  11.557  0.9983  0.7406 -0.2050
19797SOL     OW60831   6.852   0.662  11.928 -0.5082 -0.1694  0.0660
19797SOL    HW160832   6.849   0.692  11.837 -1.6608  2.1911  0.8018
19797SOL    HW260833   6.762   0.669  11.959 -0.1375 -0.9400  1.3852
19798SOL     OW60834   7.555   3.822  10.958 -0.0218 -0.4952 -0.4793
19798SOL    HW160835   7.511   3.743  10.988  0.7024 -0.7130  0.0215
19798SOL    HW260836   7.556   3.815  10.863 -0.2563 -0.9251 -0.4482
19799SOL     OW60837   6.962   1.859  11.181 -0.0141 -0.4842  0.3660
19799SOL    HW160838   7.026   1.816  11.124  0.6899 -0.3959  1.0843
19799SOL    HW260839   6.946   1.943  11.139  0.9659 -0.1676  0.6127
19800SOL     OW60840   4.886   2.405  10.808  0.1134  0.8240  0.0421
19800SOL    HW160841   4.900   2.429  10.716 -1.1749  0.1043 -0.3638
19800SOL    HW260842   4.847   2.318  10.805 -0.1962  0.9002  1.2651
19801SOL     OW60843   7.312   2.719  10.347  0.2003 -0.0774 -0.6131
19801SOL    HW160844   7.284   2.727  10.256  1.4371 -0.0879 -1.0176
19801SOL    HW260845   7.371   2.793  10.361  0.4761 -0.4021  0.0006
19802SOL     OW60846   5.451   2.874  11.674 -0.0231 -0.1849 -0.3118
19802SOL    HW160847   5.398   2.932  11.728  1.3577  0.0310  0.8676
19802SOL    HW260848   5.474   2.802  11.731 -0.7398 -1.3327 -1.4237
19803SOL     OW60849   6.879   3.118   9.410 -0.0796 -0.1180 -0.5230
19803SOL    HW160850   6.802   3.165   9.443 -0.3641  0.2170 -1.6193
19803SOL    HW260851   6.864   3.111   9.315  0.4947 -1.4411 -0.5344
19804SOL     OW60852   6.283   1.302   8.132 -0.2351  0.6505  0.4206
19804SOL    HW160853   6.241   1.350   8.060  0.4049  1.0065  0.2801
19804SOL    HW260854   6.258   1.210   8.117 -1.2168  0.8839  0.5182
19805SOL     OW60855   0.440   2.204   9.136 -0.2242  0.0486 -0.8473
19805SOL    HW160856   0.518   2.235   9.182  0.4160  2.6200 -3.3493
19805SOL    HW260857   0.461   2.115   9.107  1.4726  0.4053 -0.7776
19806SOL     OW60858   7.974   4.937   9.759 -0.0154 -0.1638  0.9551
19806SOL    HW160859   7.893   4.905   9.799 -1.0464  1.2690  0.0620
19806SOL    HW260860   7.991   5.020   9.802 -0.2906  0.6490 -0.4422
19807SOL     OW60861   7.540   3.798  10.681 -0.2202  0.2261 -0.3235
19807SOL    HW160862   7.615   3.838  10.635  1.0036 -2.3688 -0.7584
19807SOL    HW260863   7.476   3.781  10.611 -0.1836  0.2206 -0.3557
19808SOL     OW60864   7.372   3.260   9.789 -0.1227 -0.0899 -0.4311
19808SOL    HW160865   7.358   3.280   9.696 -0.9173 -2.2764 -0.8305
19808SOL    HW260866   7.284   3.251   9.825  0.1788  0.6274  0.5470
19809SOL     OW60867   5.043   2.423  11.039  0.0896  0.3418 -0.5120
19809SOL    HW160868   5.068   2.512  11.013  0.9506  0.3496  0.3094
19809SOL    HW260869   4.999   2.387  10.962 -0.5416  1.5833 -0.7487
19810SOL     OW60870   7.948   2.075  10.686  0.2175 -0.2572  0.3320
19810SOL    HW160871   8.026   2.031  10.651  0.5838 -2.3491  3.3604
19810SOL    HW260872   7.964   2.168  10.670  1.9653 -0.8013 -1.6574
19811SOL     OW60873   4.571   1.821  11.578  0.1113 -0.8731 -0.7125
19811SOL    HW160874   4.492   1.870  11.556  0.2576 -0.5853 -0.6045
19811SOL    HW260875   4.642   1.883  11.564  0.1957 -0.5649  0.8711
19812SOL     OW60876   7.077   2.563  11.807  0.1356 -0.6614 -0.3106
19812SOL    HW160877   7.047   2.481  11.847  0.0497  0.0313  1.1373
19812SOL    HW260878   7.131   2.536  11.733 -0.6995 -2.0024 -0.4565
19813SOL     OW60879   7.286   2.517   9.976  0.0326 -0.4912  0.6355
19813SOL    HW160880   7.220   2.461   9.934 -0.2836 -0.0599  0.5452
19813SOL    HW260881   7.347   2.539   9.906 -0.4113  0.1065  0.4349
19814SOL     OW60882   7.296   4.363  10.741  0.3100  0.2196 -0.2482
19814SOL    HW160883   7.240   4.369  10.819  1.8278 -0.3579  0.9272
19814SOL    HW260884   7.235   4.345  10.670 -1.2266  1.6159  0.6374
19815SOL     OW60885   6.884   1.911   9.069 -0.1579 -0.0362 -0.8061
19815SOL    HW160886   6.973   1.940   9.046 -0.8520 -0.4511 -4.7073
19815SOL    HW260887   6.892   1.817   9.083  0.0079 -0.1035 -1.3312
19816SOL     OW60888   2.751   2.704  10.021  0.2292 -0.6040 -0.2786
19816SOL    HW160889   2.778   2.657   9.943  0.0717 -0.6677 -0.2962
19816SOL    HW260890   2.800   2.787  10.018 -0.2545 -0.3283 -0.7788
19817SOL     OW60891   6.874   1.446   9.989  0.7377 -0.4073 -0.3040
19817SOL    HW160892   6.875   1.483  10.077  0.4818 -2.2761  0.5271
19817SOL    HW260893   6.933   1.502   9.939 -0.4856  1.7665  0.5662
19818SOL     OW60894   6.180   3.418  10.533  0.1717 -0.2288 -0.3711
19818SOL    HW160895   6.266   3.449  10.561  0.1594 -0.5191 -0.0112
19818SOL    HW260896   6.188   3.322  10.532 -0.9235 -0.4378  2.2890
19819SOL     OW60897   6.540   1.990  10.208  0.3123  0.2495  0.4656
19819SOL    HW160898   6.496   2.036  10.137 -0.2577 -0.8285  0.1093
19819SOL    HW260899   6.483   2.003  10.284  1.8754  3.0985  1.3228
19820SOL     OW60900   7.362   2.208   9.460  0.0453 -0.1167  0.1059
19820SOL    HW160901   7.377   2.263   9.383 -0.0841 -1.9376 -1.2632
19820SOL    HW260902   7.362   2.119   9.427 -0.0394 -0.9632  2.2314
19821SOL     OW60903   7.221   2.988  12.422 -0.1996  0.3678 -0.0893
19821SOL    HW160904   7.285   3.009  12.490  0.1478 -2.9973  0.7996
19821SOL    HW260905   7.139   3.023  12.455  0.2728  0.2414  1.2841
19822SOL     OW60906   6.955   3.272  11.698  0.4877 -0.2373 -0.4455
19822SOL    HW160907   6.907   3.312  11.771 -1.1223  0.0335 -1.6023
19822SOL    HW260908   6.960   3.341  11.632 -0.8336 -1.3720 -1.7996
19823SOL     OW60909   0.128   4.672   9.281  0.4825  0.2866 -0.3284
19823SOL    HW160910   0.158   4.753   9.239  0.1475  1.8454  2.2322
19823SOL    HW260911   0.040   4.692   9.313  1.1523 -0.3447  2.1160
19824SOL     OW60912   5.520   2.988  10.502  0.4766  0.4413 -0.1843
19824SOL    HW160913   5.506   2.967  10.410 -0.2649  1.1336 -0.2421
19824SOL    HW260914   5.492   3.079  10.510  0.6525  0.4263  0.6971
19825SOL     OW60915   7.455   1.197   9.181  0.0690  0.1916  0.1880
19825SOL    HW160916   7.502   1.262   9.233  0.0168  1.2517 -1.0230
19825SOL    HW260917   7.512   1.182   9.105 -1.2082  1.0042 -0.9792
19826SOL     OW60918   4.884   2.588   8.561  0.2817  0.0891  0.1408
19826SOL    HW160919   4.854   2.625   8.478  1.7444  0.9463 -0.0326
19826SOL    HW260920   4.908   2.665   8.614  1.8214 -0.5271  0.3901
19827SOL     OW60921   6.916   3.460   9.278 -0.6728  0.3631  0.3463
19827SOL    HW160922   6.969   3.383   9.258 -0.6251  0.2944  0.7215
19827SOL    HW260923   6.948   3.527   9.218  0.4448  0.5732  1.1570
19828SOL     OW60924   5.915   2.132  10.669  0.3199 -0.2068 -1.0121
19828SOL    HW160925   5.864   2.130  10.750  0.8335 -1.9438 -0.6881
19828SOL    HW260926   6.004   2.153  10.697  0.3486 -0.0118 -1.2407
19829SOL     OW60927   6.108   1.663   8.707  0.4459 -0.6394 -0.4089
19829SOL    HW160928   6.149   1.597   8.651  0.8210  1.0725 -2.2483
19829SOL    HW260929   6.139   1.747   8.673 -2.1420  0.6131  0.0829
19830SOL     OW60930   7.434   3.580   9.919 -0.1906 -0.5111  0.7990
19830SOL    HW160931   7.340   3.574   9.904 -0.2037  0.1963  0.5254
19830SOL    HW260932   7.443   3.614  10.008 -0.1690 -1.5834  1.2186
19831SOL     OW60933   5.562   2.709  11.192 -0.6848 -0.2202  0.0112
19831SOL    HW160934   5.476   2.678  11.164 -0.3952 -1.3251  0.3201
19831SOL    HW260935   5.573   2.673  11.280  0.2424 -0.3687 -0.1613
19832SOL     OW60936   4.892   3.093   9.719 -0.8690 -0.1796  0.2218
19832SOL    HW160937   4.796   3.092   9.724 -0.9903  0.3351 -1.4535
19832SOL    HW260938   4.914   3.182   9.691  0.2169  0.1483  1.9570
19833SOL     OW60939   4.443   3.478  10.488  0.2308  0.2963  0.5381
19833SOL    HW160940   4.380   3.430  10.541 -0.1173 -1.4026 -1.2987
19833SOL    HW260941   4.465   3.418  10.416  3.7516  0.8844  0.9333
19834SOL     OW60942   7.670   2.676   9.867 -0.1026 -0.1028  0.3615
19834SOL    HW160943   7.632   2.735   9.803  1.0588  3.0498  2.3526
19834SOL    HW260944   7.749   2.720   9.897  1.9932 -3.6305  0.6456
19835SOL     OW60945   7.166   3.602   9.899  0.1439 -0.4629  0.0732
19835SOL    HW160946   7.127   3.532   9.951 -0.3809 -1.2318 -1.2789
19835SOL    HW260947   7.110   3.607   9.821  0.6012  0.9718 -0.1878
19836SOL     OW60948   7.180   1.388   9.407 -0.7860 -0.4524  0.2176
19836SOL    HW160949   7.133   1.311   9.440 -0.8132 -0.0927  1.0621
19836SOL    HW260950   7.159   1.457   9.470 -0.7450  0.2417 -0.5181
19837SOL     OW60951   5.478   2.309  10.111 -0.2368 -0.0708  0.0224
19837SOL    HW160952   5.406   2.344  10.058 -0.6875  1.3277  1.4820
19837SOL    HW260953   5.434   2.251  10.174  0.0449 -0.1303  0.1637
19838SOL     OW60954   6.548   4.177  11.186 -0.4260 -0.0001  0.2728
19838SOL    HW160955   6.612   4.231  11.140 -0.0063 -0.4408  0.3359
19838SOL    HW260956   6.510   4.236  11.252  0.4037  0.0745  0.6895
19839SOL     OW60957   6.812   2.330  10.074 -0.6270  0.5041  0.3166
19839SOL    HW160958   6.776   2.397  10.015  0.2268  1.1209  0.4755
19839SOL    HW260959   6.865   2.380  10.137  0.2647 -0.3415  0.2609
19840SOL     OW60960   7.218   2.511  12.133  0.3439  0.5015  0.1677
19840SOL    HW160961   7.243   2.424  12.101  0.5515 -0.2575  2.2638
19840SOL    HW260962   7.201   2.562  12.053  1.3658 -1.1024 -1.1325
19841SOL     OW60963   4.886   3.025  11.260  0.0033  0.1371 -0.1167
19841SOL    HW160964   4.869   3.118  11.268 -0.3450  0.2299 -1.7399
19841SOL    HW260965   4.908   3.011  11.168 -1.0834 -1.5596 -0.1701
19842SOL     OW60966   6.239   0.852  10.365 -0.0245  0.2644 -0.0937
19842SOL    HW160967   6.174   0.783  10.351 -0.4435 -0.2085  3.3738
19842SOL    HW260968   6.188   0.929  10.387  0.5468  0.6182  0.0163
19843SOL     OW60969   0.188   2.717  11.043 -0.2110 -0.4738 -0.3984
19843SOL    HW160970   0.150   2.643  10.996 -2.0461  0.3337 -0.2627
19843SOL    HW260971   0.278   2.689  11.062  0.6700 -0.8860 -4.2630
19844SOL     OW60972   4.014   2.704   9.175 -0.6504 -0.2048  0.1654
19844SOL    HW160973   4.033   2.798   9.177  0.9253 -0.4783 -0.6260
19844SOL    HW260974   3.967   2.688   9.257 -0.2555  1.1272  0.6873
19845SOL     OW60975   5.197   3.311   9.678 -0.6034 -0.4622  0.0306
19845SOL    HW160976   5.147   3.389   9.657 -2.2770 -1.6724 -0.6425
19845SOL    HW260977   5.182   3.252   9.605  0.7643 -1.3737  0.4503
19846SOL     OW60978   5.573   3.082   9.513  0.0605 -0.3850 -0.0874
19846SOL    HW160979   5.591   3.026   9.438  1.1845 -0.9164  0.5538
19846SOL    HW260980   5.632   3.050   9.582  0.0601  0.9803  0.5800
19847SOL     OW60981   0.311   2.745  10.655  0.2001 -0.1128  0.3795
19847SOL    HW160982   0.251   2.697  10.598 -1.3380  0.4886  1.4200
19847SOL    HW260983   0.339   2.681  10.721 -0.1772 -0.1334  0.5238
19848SOL     OW60984   0.694   2.987   9.919  0.6784 -0.1707 -0.1826
19848SOL    HW160985   0.768   2.986   9.981  0.7304 -1.6060 -0.2408
19848SOL    HW260986   0.674   3.080   9.908  2.0157  0.2131  0.3902
19849SOL     OW60987   7.171   3.879   9.961  0.1755 -0.3080 -0.1277
19849SOL    HW160988   7.152   3.788   9.982 -2.0752  0.0678 -0.2971
19849SOL    HW260989   7.188   3.921  10.046 -2.9113 -0.0720  0.4875
19850SOL     OW60990   5.585   2.191  10.998  0.2696 -0.4569  0.2621
19850SOL    HW160991   5.499   2.187  11.041  0.2734  0.2655  0.3371
19850SOL    HW260992   5.641   2.239  11.059  0.5016 -0.1746 -0.1694
19851SOL     OW60993   7.064   3.021   9.591 -0.3693 -0.4949 -0.1043
19851SOL    HW160994   7.113   2.963   9.533 -1.1479 -0.5323 -0.7429
19851SOL    HW260995   6.997   3.059   9.535 -0.5397  0.2031  0.5611
19852SOL     OW60996   7.897   1.524  10.308  0.2336 -0.2122 -0.5842
19852SOL    HW160997   7.816   1.533  10.257  0.1233 -1.1405 -0.5831
19852SOL    HW260998   7.960   1.486  10.248  0.9110  1.2035 -0.8036
19853SOL     OW60999   7.112   5.627  10.020 -0.1506  0.5521 -0.1703
19853SOL    HW161000   7.028   5.636  10.065 -0.4752 -0.4378 -0.5618
19853SOL    HW261001   7.126   5.533  10.012  0.7370  0.7068 -0.6003
19854SOL     OW61002   3.886   4.540  10.702 -0.1128  0.3216  0.4178
19854SOL    HW161003   3.792   4.556  10.701 -0.2995 -0.6393  0.7247
19854SOL    HW261004   3.922   4.614  10.751 -0.8836 -0.0364  1.5881
19855SOL     OW61005   6.249   4.150  10.545 -0.5274 -0.0175  0.2465
19855SOL    HW161006   6.163   4.166  10.506  0.1411  0.5707 -1.0409
19855SOL    HW261007   6.300   4.111  10.474  0.0396 -1.1759  1.2451
19856SOL     OW61008   6.311   1.856   9.391 -0.1303 -0.6436 -0.6166
19856SOL    HW161009   6.388   1.910   9.407 -0.2042 -0.0990 -1.9338
19856SOL    HW261010   6.344   1.780   9.343 -0.1365 -1.4279  0.5869
19857SOL     OW61011   6.821   4.268  10.863 -0.4523 -0.3205 -0.1518
19857SOL    HW161012   6.771   4.198  10.821  0.6954 -0.0621 -2.0450
19857SOL    HW261013   6.841   4.329  10.793  1.6463  0.0987  0.7448
19858SOL     OW61014   7.205   2.929   9.946  0.1265  0.2804  0.0324
19858SOL    HW161015   7.300   2.932   9.933  0.1139 -0.4717 -0.2280
19858SOL    HW261016   7.173   3.009   9.902  0.4924 -0.1939 -1.1441
19859SOL     OW61017   5.722   2.250   8.188  0.7393  0.2635 -0.1006
19859SOL    HW161018   5.749   2.236   8.097 -0.1968  0.9228 -0.5008
19859SOL    HW261019   5.640   2.201   8.196 -0.0632  1.5591 -0.1218
19860SOL     OW61020   0.822   2.121   9.089  0.6878 -0.4187 -0.0661
19860SOL    HW161021   0.848   2.169   9.010 -1.1001  1.2758  0.3006
19860SOL    HW261022   0.881   2.154   9.157  0.8466 -0.3144 -0.2511
19861SOL     OW61023   6.614   1.637   8.073 -0.0760  0.0805 -0.7834
19861SOL    HW161024   6.662   1.559   8.046  1.3366  0.4034  0.6149
19861SOL    HW261025   6.526   1.606   8.095  0.2970 -1.0075 -0.8080
19862SOL     OW61026   7.761   4.828  10.850 -0.4208  0.0942  0.1753
19862SOL    HW161027   7.740   4.793  10.764 -0.1118  0.4740 -0.0540
19862SOL    HW261028   7.770   4.922  10.837  1.0956 -0.0130  0.3232
19863SOL     OW61029   0.407   4.142   9.140 -0.1385 -0.1884 -0.3284
19863SOL    HW161030   0.452   4.181   9.215  0.5921  0.6113 -1.1520
19863SOL    HW261031   0.324   4.109   9.175 -0.6907  1.9221  0.4642
19864SOL     OW61032   7.011   3.616   9.094  0.2125  0.0580 -0.2121
19864SOL    HW161033   7.100   3.648   9.079  0.9729 -1.5201  0.6292
19864SOL    HW261034   6.989   3.569   9.014  0.3566 -0.0010 -0.2178
19865SOL     OW61035   0.071   2.050  11.268 -0.1316 -0.2010 -0.5467
19865SOL    HW161036   0.117   2.015  11.345 -0.4018  0.4600 -0.0775
19865SOL    HW261037   0.134   2.041  11.196  0.3800 -0.1838 -0.1070
19866SOL     OW61038   7.085   3.272  10.705 -0.6420  0.5990  0.2672
19866SOL    HW161039   7.062   3.244  10.617 -2.5117  1.6362  0.3837
19866SOL    HW261040   7.149   3.207  10.735 -2.4808 -1.7630 -0.5939
19867SOL     OW61041   0.193   2.519   9.638  0.0279 -0.0163  0.0304
19867SOL    HW161042   0.163   2.586   9.699  1.5524  0.3400  0.4155
19867SOL    HW261043   0.239   2.567   9.570  0.5521 -0.6188 -0.0453
19868SOL     OW61044   6.907   3.620   9.757 -0.2041 -0.0751  0.0449
19868SOL    HW161045   6.909   3.616   9.661  0.0416  2.1497 -0.0834
19868SOL    HW261046   6.830   3.672   9.778  1.3936  2.1114  0.8749
19869SOL     OW61047   7.745   2.363  11.423  0.1848  0.0675  0.3002
19869SOL    HW161048   7.707   2.420  11.490 -0.0361 -0.3609  0.5426
19869SOL    HW261049   7.756   2.420  11.347  1.2045  0.7650  0.9459
19870SOL     OW61050   6.754   3.353   9.611  0.0860 -0.0663  0.1136
19870SOL    HW161051   6.846   3.368   9.592 -0.0977  0.4757 -0.3853
19870SOL    HW261052   6.707   3.414   9.554 -0.6274 -1.1406 -0.4922
19871SOL     OW61053   6.107   3.228  10.067 -0.0834 -0.2976 -0.3552
19871SOL    HW161054   6.198   3.209  10.091 -0.1869  0.1177  0.3546
19871SOL    HW261055   6.077   3.148  10.023  0.6433 -0.4096 -0.6592
19872SOL     OW61056   6.020   2.552   9.460 -0.0266  0.0449  0.4356
19872SOL    HW161057   5.969   2.500   9.397 -1.2173  0.7036  0.8322
19872SOL    HW261058   6.074   2.488   9.506 -0.7540 -0.7232  0.2453
19873SOL     OW61059   5.432   0.172   8.393  0.5387 -0.3844  0.0367
19873SOL    HW161060   5.487   0.183   8.315  0.3693 -2.0389 -0.3673
19873SOL    HW261061   5.466   0.236   8.456 -1.0535  2.9646 -2.2216
19874SOL     OW61062   7.638   3.188  10.918  0.0846 -0.0986  0.2708
19874SOL    HW161063   7.727   3.222  10.912 -0.0307  0.1252 -0.2001
19874SOL    HW261064   7.586   3.261  10.950  0.0480 -0.1964  0.4383
19875SOL     OW61065   6.311   2.677   9.829  0.0420  0.3849  0.6667
19875SOL    HW161066   6.343   2.716   9.748  1.0905 -0.8893  0.4393
19875SOL    HW261067   6.239   2.620   9.801  1.8467 -1.8565  0.2212
19876SOL     OW61068   6.402   1.758   8.364  0.4133 -0.3832  0.1537
19876SOL    HW161069   6.492   1.738   8.391 -0.2146 -0.7514  2.1065
19876SOL    HW261070   6.365   1.672   8.342  0.9609 -0.0796 -2.2280
19877SOL     OW61071   5.674   3.421  10.497  0.3226 -0.5237 -0.5254
19877SOL    HW161072   5.757   3.385  10.528  0.1299  0.3315  1.0392
19877SOL    HW261073   5.609   3.353  10.518 -0.2241  0.9569  3.4532
19878SOL     OW61074   7.894   3.010   9.756  0.3502  0.2516 -0.8429
19878SOL    HW161075   7.802   3.029   9.740  0.4350  1.8115  0.3091
19878SOL    HW261076   7.895   2.967   9.842  0.7053  0.3852 -0.7771
19879SOL     OW61077   4.931   1.870  11.728 -0.5768  0.8283 -0.0498
19879SOL    HW161078   5.020   1.838  11.745 -1.5025 -0.7242  2.2906
19879SOL    HW261079   4.934   1.962  11.752  0.8793  1.3902 -2.0736
19880SOL     OW61080   7.192   1.932  11.509 -0.2252  0.2560 -0.3455
19880SOL    HW161081   7.217   1.898  11.423 -1.4147 -1.1551 -0.1781
19880SOL    HW261082   7.188   2.027  11.497 -0.2558  0.0919 -1.8134
19881SOL     OW61083   5.369   3.599   0.123  0.6637  0.0725 -0.1528
19881SOL    HW161084   5.385   3.670   0.185 -2.7943 -0.0954  1.1569
19881SOL    HW261085   5.388   3.519   0.172  1.4651  0.0083 -0.5600
19882SOL     OW61086   1.033   3.500  10.908  0.2775  0.0607  0.2279
19882SOL    HW161087   0.955   3.537  10.867 -0.3695  0.0605  1.3955
19882SOL    HW261088   1.072   3.572  10.956 -0.9584 -0.6493  2.4659
19883SOL     OW61089   7.598   5.207   9.143 -0.9107  0.1281 -0.2445
19883SOL    HW161090   7.669   5.271   9.152 -0.4999 -0.1258 -1.5347
19883SOL    HW261091   7.527   5.254   9.101  0.0051 -0.6221 -2.8321
19884SOL     OW61092   7.581   2.348  10.927  0.5376 -0.1203  0.0595
19884SOL    HW161093   7.534   2.265  10.923 -0.6761  0.5508 -0.2268
19884SOL    HW261094   7.516   2.411  10.960  0.2265  1.4975 -3.2674
19885SOL     OW61095   6.082   3.163  10.443  0.5497 -0.5257 -0.1773
19885SOL    HW161096   6.040   3.079  10.424  0.4685 -0.5075 -0.0756
19885SOL    HW261097   6.088   3.166  10.538 -1.7335  0.6920  0.0042
19886SOL     OW61098   5.657   3.631   9.800  0.1133  0.2258 -0.1484
19886SOL    HW161099   5.715   3.673   9.737  0.9666  0.2450  0.6286
19886SOL    HW261100   5.605   3.702   9.836  1.1427  0.5538  0.7343
19887SOL     OW61101   6.000   3.818  10.367 -0.5585 -0.1575  0.1329
19887SOL    HW161102   5.988   3.783  10.279  0.0763 -0.1981  0.0597
19887SOL    HW261103   6.047   3.749  10.414  0.9238  0.6607 -0.0814
19888SOL     OW61104   7.186   3.842  11.130 -0.4379 -0.2120 -0.0314
19888SOL    HW161105   7.174   3.933  11.101 -1.2890 -0.1545  0.4565
19888SOL    HW261106   7.269   3.844  11.179 -0.1611  0.1746 -0.5003
19889SOL     OW61107   6.705   2.208   8.764 -0.4428 -0.0179 -0.1275
19889SOL    HW161108   6.702   2.201   8.668 -0.3199  2.3505 -0.3663
19889SOL    HW261109   6.636   2.270   8.786 -1.2957 -1.4591  1.4888
19890SOL     OW61110   5.969   3.448   8.767  0.0519 -0.0721 -0.0790
19890SOL    HW161111   6.001   3.361   8.739  0.3510 -0.1538  0.5009
19890SOL    HW261112   5.882   3.431   8.801  0.5566 -0.3470  1.1208
19891SOL     OW61113   0.638   2.666   9.467 -0.0904  0.2079  0.6976
19891SOL    HW161114   0.625   2.758   9.490 -1.1847  0.4332 -0.7017
19891SOL    HW261115   0.578   2.618   9.524 -1.0992  0.5546 -0.0637
19892SOL     OW61116   5.553   1.879   8.356  0.5384 -0.1028 -0.3047
19892SOL    HW161117   5.516   1.795   8.383  0.0381 -0.4477 -1.9509
19892SOL    HW261118   5.478   1.934   8.336  0.7215 -0.7629 -3.5234
19893SOL     OW61119   6.412   4.065  10.974 -0.3446  0.8021 -0.2432
19893SOL    HW161120   6.386   3.984  11.017 -0.0876 -0.1172 -1.7528
19893SOL    HW261121   6.458   4.115  11.041  2.5773 -1.7944 -0.1131
19894SOL     OW61122   6.641   3.421   9.259 -0.1486 -0.6148 -0.7852
19894SOL    HW161123   6.736   3.429   9.268 -0.1985 -0.5449 -0.2458
19894SOL    HW261124   6.609   3.427   9.349 -0.6278 -1.1508 -0.9183
19895SOL     OW61125   7.736   5.582  10.862  0.4944  0.2465 -0.3647
19895SOL    HW161126   7.748   5.563  10.955 -2.5396 -0.8607 -0.0906
19895SOL    HW261127   7.693   5.667  10.860 -0.8489 -0.4067 -0.6053
19896SOL     OW61128   6.830   2.102  10.917 -0.0593  0.3183  0.2012
19896SOL    HW161129   6.851   2.183  10.964 -1.2289  0.8586 -0.1529
19896SOL    HW261130   6.893   2.100  10.844  0.1023  0.8100  0.3209
19897SOL     OW61131   6.150   2.441  10.399  0.2317  0.0418  0.4083
19897SOL    HW161132   6.185   2.526  10.372 -0.0581 -0.3165 -1.1986
19897SOL    HW261133   6.132   2.395  10.317 -2.6904 -0.3241  1.1526
19898SOL     OW61134   7.375   2.518  11.018  0.1002  0.2142  0.6288
19898SOL    HW161135   7.324   2.527  11.098 -0.5861 -0.5789  0.2943
19898SOL    HW261136   7.447   2.580  11.029 -2.3542  3.4837 -0.0763
19899SOL     OW61137   0.344   2.845  10.190  0.3270  0.1819 -0.3860
19899SOL    HW161138   0.335   2.752  10.169 -0.2312  0.4113 -1.2474
19899SOL    HW261139   0.438   2.862  10.192  0.4195 -0.3190 -0.6063
19900SOL     OW61140   6.410   2.133  10.015 -0.5967 -0.4227 -0.1085
19900SOL    HW161141   6.415   2.229  10.019  0.7590 -0.4239 -1.0340
19900SOL    HW261142   6.317   2.114  10.013 -1.0219  0.7028  3.1498
19901SOL     OW61143   0.548   2.187  10.148 -0.2324  0.4154  0.6304
19901SOL    HW161144   0.559   2.278  10.176 -0.5781  0.6555 -0.0037
19901SOL    HW261145   0.460   2.183  10.112 -0.3027 -0.2323  0.8572
19902SOL     OW61146   0.294   1.028  11.269  0.0198  0.4181  0.1251
19902SOL    HW161147   0.338   0.977  11.338 -0.7167 -1.0477 -0.4368
19902SOL    HW261148   0.262   0.962  11.207 -2.1020  1.4899 -0.0102
19903SOL     OW61149   6.076   2.121  10.016 -0.0724 -0.0450  0.2345
19903SOL    HW161150   6.056   2.073   9.935 -2.0299  0.1665  0.5256
19903SOL    HW261151   6.074   2.054  10.084  0.5229 -0.0585  0.2408
19904SOL     OW61152   7.360   1.776   8.895  0.7376 -0.6552 -0.5718
19904SOL    HW161153   7.356   1.814   8.807 -0.5275 -0.5483 -0.4858
19904SOL    HW261154   7.450   1.743   8.903  1.0580 -0.0934 -1.6552
19905SOL     OW61155   7.350   3.415  10.527  0.2911 -0.1584  0.5479
19905SOL    HW161156   7.379   3.408  10.436 -0.8901 -1.3921  0.2369
19905SOL    HW261157   7.374   3.330  10.565 -1.6642 -0.7109  0.6259
19906SOL     OW61158   6.210   1.952  11.721 -0.0709  1.0380 -0.6095
19906SOL    HW161159   6.177   1.915  11.640  0.3263 -0.3338 -0.1668
19906SOL    HW261160   6.131   1.976  11.770 -0.3097  2.0924 -1.4713
19907SOL     OW61161   5.239   1.771  12.305 -0.0076  0.2514  0.2215
19907SOL    HW161162   5.294   1.827  12.250 -0.0643  0.7403  0.6608
19907SOL    HW261163   5.294   1.694  12.322  0.0467  0.1385 -0.4345
19908SOL     OW61164   6.291   2.439  11.819 -0.0595 -0.0874  0.4314
19908SOL    HW161165   6.365   2.452  11.879  0.1646  1.3073 -0.1161
19908SOL    HW261166   6.332   2.421  11.734 -0.3163  1.6055 -0.0722
19909SOL     OW61167   6.417   2.207   0.927  0.1253 -0.1965 -0.1173
19909SOL    HW161168   6.455   2.292   0.906 -0.0307 -0.3180 -0.9116
19909SOL    HW261169   6.330   2.227   0.963  0.1756 -0.0124 -0.0990
19910SOL     OW61170   7.159   2.064  11.819 -0.0466 -0.0868 -0.4453
19910SOL    HW161171   7.091   2.125  11.849  0.2996  0.4088 -0.6556
19910SOL    HW261172   7.119   2.020  11.744 -0.5270 -0.5722  0.0865
19911SOL     OW61173   6.788   0.894  11.431  0.0434 -0.0107  0.3952
19911SOL    HW161174   6.709   0.881  11.483 -0.5080  1.7920  0.0577
19911SOL    HW261175   6.792   0.817  11.375  0.5608 -1.9388  2.8953
19912SOL     OW61176   7.774   3.155   0.533  0.1542  0.4089  0.4627
19912SOL    HW161177   7.729   3.075   0.508  0.4369  0.4359 -0.1351
19912SOL    HW261178   7.836   3.128   0.601 -0.8196  0.3887  1.3666
19913SOL     OW61179   5.206   3.328  10.756 -0.3473 -0.2359 -0.4668
19913SOL    HW161180   5.157   3.410  10.760 -0.2688 -0.1963 -0.3111
19913SOL    HW261181   5.283   3.343  10.811  0.1890 -0.0629 -1.2529
19914SOL     OW61182   7.643   2.923  12.325 -0.2216  0.0928 -0.0754
19914SOL    HW161183   7.709   2.927  12.256  0.2686 -0.0168  0.3820
19914SOL    HW261184   7.690   2.893  12.402 -0.7394  0.3277  0.3416
19915SOL     OW61185   7.434   1.131  12.005  0.3709  0.1382 -0.1510
19915SOL    HW161186   7.351   1.158  11.964  0.1749  3.7691  2.2433
19915SOL    HW261187   7.409   1.101  12.092  1.3973 -1.0296 -0.2377
19916SOL     OW61188   6.492   3.206  10.744 -0.3793 -0.3075  0.1607
19916SOL    HW161189   6.468   3.166  10.828 -0.3999 -1.5900 -0.4360
19916SOL    HW261190   6.588   3.202  10.743 -0.3323  0.5041  0.4857
19917SOL     OW61191   6.330   3.082  10.988  0.2046 -0.0381  0.1733
19917SOL    HW161192   6.405   3.024  10.980 -0.6187 -1.1902  0.5782
19917SOL    HW261193   6.294   3.064  11.075 -0.8547  0.0903 -0.2173
19918SOL     OW61194   6.368   3.268   0.563 -0.4778 -0.1291 -0.1597
19918SOL    HW161195   6.343   3.189   0.609 -0.1046 -0.3296 -0.2927
19918SOL    HW261196   6.364   3.245   0.470 -0.0222 -0.1013 -0.1880
19919SOL     OW61197   7.052   2.451  10.372 -0.4903  0.2986  0.2023
19919SOL    HW161198   6.965   2.484  10.350 -1.4266 -2.1586 -0.1146
19919SOL    HW261199   7.036   2.385  10.440  1.1222 -0.1906  0.1427
19920SOL     OW61200   6.293   2.929  11.919 -0.0167 -0.3391 -0.3357
19920SOL    HW161201   6.359   2.931  11.849 -0.6809  1.6954 -0.9819
19920SOL    HW261202   6.243   2.849  11.903  1.6433 -1.4299 -0.4037
19921SOL     OW61203   7.424   3.690   0.259 -0.2599 -0.2356 -0.7400
19921SOL    HW161204   7.352   3.646   0.212  1.8626 -1.4125 -3.1557
19921SOL    HW261205   7.497   3.690   0.196  1.2408  2.8660  0.7761
19922SOL     OW61206   4.675   3.136  10.300 -0.0010 -0.2185  0.2549
19922SOL    HW161207   4.695   3.049  10.334  1.3903 -0.4790 -1.1300
19922SOL    HW261208   4.732   3.146  10.223 -3.1289  0.2390 -2.1907
19923SOL     OW61209   0.861   3.312  10.095 -0.2936  0.7582  0.0634
19923SOL    HW161210   0.806   3.347  10.165  0.1579 -1.4929  1.6853
19923SOL    HW261211   0.949   3.345  10.115 -0.2794  0.6371  0.2100
19924SOL     OW61212   7.016   3.038   0.241  0.5302  0.3465 -0.0402
19924SOL    HW161213   6.985   3.066   0.154 -1.0026 -0.1059  0.3177
19924SOL    HW261214   6.965   3.091   0.302  1.0121  0.0907  0.5912
19925SOL     OW61215   6.273   1.544  11.716  0.2303 -1.1869 -0.5265
19925SOL    HW161216   6.185   1.527  11.681 -0.3481  0.3402  0.0685
19925SOL    HW261217   6.328   1.477  11.677 -1.2603 -2.3685 -0.6859
19926SOL     OW61218   6.341   3.171   0.309  0.1629  0.3953  0.0275
19926SOL    HW161219   6.251   3.145   0.329  0.1467  0.2248 -0.2674
19926SOL    HW261220   6.333   3.227   0.232  0.4296 -0.6191 -0.7497
19927SOL     OW61221   0.473   0.373   0.170 -0.3441  0.3977 -0.1415
19927SOL    HW161222   0.382   0.378   0.201 -0.6086 -0.4356 -0.7443
19927SOL    HW261223   0.511   0.301   0.219 -0.3345  0.0391 -0.6606
19928SOL     OW61224   4.775   2.575  11.737 -0.3816 -0.5754 -0.2759
19928SOL    HW161225   4.742   2.500  11.688 -1.7074 -0.8404  0.9520
19928SOL    HW261226   4.814   2.538  11.815 -0.1478 -0.0501 -0.1369
19929SOL     OW61227   0.466   3.572  11.362  0.1448 -0.0845 -0.1440
19929SOL    HW161228   0.516   3.502  11.404  2.4871  0.9385 -1.0692
19929SOL    HW261229   0.504   3.580  11.275  1.7912  3.9873  0.7280
19930SOL     OW61230   6.952   3.239  10.362  0.5762 -0.1263  0.2206
19930SOL    HW161231   6.956   3.333  10.382 -0.2519 -0.4205  1.9800
19930SOL    HW261232   6.888   3.233  10.291 -0.2128  0.5618  0.8423
19931SOL     OW61233   0.570   2.512  12.024  0.0701 -0.1001 -0.1557
19931SOL    HW161234   0.529   2.479  11.944 -1.5010  0.0669  0.5432
19931SOL    HW261235   0.660   2.479  12.021 -0.0957 -0.4701 -1.7573
19932SOL     OW61236   0.159   2.488  12.193  0.4464 -0.6677  0.2563
19932SOL    HW161237   0.179   2.406  12.237  0.7283 -0.7916 -0.0940
19932SOL    HW261238   0.123   2.544  12.261  0.7424 -0.9067  0.6114
19933SOL     OW61239   7.304   2.696   1.267 -0.1038  0.0779  0.5713
19933SOL    HW161240   7.212   2.668   1.265  0.9005 -3.8304  1.4336
19933SOL    HW261241   7.336   2.679   1.178 -0.4252  2.8601 -0.1900
19934SOL     OW61242   7.048   4.190  11.233  0.0207  0.1946  0.3446
19934SOL    HW161243   7.092   4.241  11.301 -0.1194  2.0852 -0.8796
19934SOL    HW261244   6.961   4.230  11.227 -0.1412 -0.2637 -0.5877
19935SOL     OW61245   0.263   1.749  12.120  0.9110 -0.0521 -0.5451
19935SOL    HW161246   0.177   1.709  12.129  0.4648  1.2244  1.6791
19935SOL    HW261247   0.321   1.696  12.174  1.4861 -0.6714 -1.7169
19936SOL     OW61248   7.567   2.592  11.320 -0.2608  0.0693 -0.2095
19936SOL    HW161249   7.633   2.555  11.260 -1.4249  0.5786 -1.8794
19936SOL    HW261250   7.579   2.687  11.312  0.4616  0.1659  1.4682
19937SOL     OW61251   6.648   3.610  12.053 -0.0242 -0.1781 -0.1643
19937SOL    HW161252   6.576   3.618  12.116  0.6350  0.8861  0.4728
19937SOL    HW261253   6.727   3.603  12.107  0.3843 -1.0883 -0.8614
19938SOL     OW61254   4.518   2.682  12.432  0.0502 -0.2079  0.0119
19938SOL    HW161255   4.563   2.684  12.516 -0.6514  1.2683  0.3834
19938SOL    HW261256   4.431   2.718  12.450 -1.4284 -3.0949 -0.6585
19939SOL     OW61257   0.940   3.934  10.794 -0.9916  0.1824  0.2820
19939SOL    HW161258   1.028   3.968  10.812  0.2418 -2.6316  0.1006
19939SOL    HW261259   0.915   3.890  10.875 -1.6773 -0.1352 -0.1009
19940SOL     OW61260   6.779   2.485  12.488  0.0631 -0.2053 -0.3321
19940SOL    HW161261   6.854   2.513  12.436  1.1010 -0.1734  1.1283
19940SOL    HW261262   6.731   2.425  12.431  2.3506 -1.9060 -0.5810
19941SOL     OW61263   7.798   3.718  11.945 -0.2274  0.0804  0.4502
19941SOL    HW161264   7.804   3.808  11.911 -0.5267  0.2631  0.8666
19941SOL    HW261265   7.716   3.717  11.993 -0.9214 -0.8293 -0.7238
19942SOL     OW61266   5.579   4.654  11.414  0.1896  0.0995  0.0445
19942SOL    HW161267   5.619   4.647  11.327  0.9932 -0.0087  0.4084
19942SOL    HW261268   5.522   4.577  11.421  2.2501 -1.4670  0.6653
19943SOL     OW61269   6.278   2.429  11.338 -0.1927 -0.5578  0.4779
19943SOL    HW161270   6.263   2.428  11.243 -1.4874  1.4712  0.6040
19943SOL    HW261271   6.192   2.445  11.376  0.1410 -2.2616  2.0899
19944SOL     OW61272   6.515   3.528  10.356  0.4104 -0.2715 -0.0679
19944SOL    HW161273   6.504   3.496  10.446 -0.0117  0.9494  0.3487
19944SOL    HW261274   6.533   3.622  10.367 -2.3182  0.4921 -1.3259
19945SOL     OW61275   7.411   2.649  11.653  0.2391  0.5678  0.5829
19945SOL    HW161276   7.392   2.658  11.746 -1.3638 -1.5488  0.5333
19945SOL    HW261277   7.446   2.560  11.644  1.4911  1.1459 -0.6995
19946SOL     OW61278   7.169   2.480  11.547  0.2696  0.1638  0.6699
19946SOL    HW161279   7.264   2.484  11.533  0.1781 -1.0972 -0.5996
19946SOL    HW261280   7.134   2.553  11.497  0.5463  0.5274  0.9987
19947SOL     OW61281   0.148   3.024  10.127 -0.3115 -0.3853 -0.3114
19947SOL    HW161282   0.221   2.969  10.155 -0.4351 -0.6959 -0.5961
19947SOL    HW261283   0.096   2.968  10.071  0.4914  0.5289 -2.0368
19948SOL     OW61284   6.901   3.117  11.452  0.0697  0.2927 -0.5115
19948SOL    HW161285   6.981   3.068  11.434 -0.5403 -1.0776  0.3050
19948SOL    HW261286   6.918   3.161  11.535  0.4503  1.1012 -1.0111
19949SOL     OW61287   7.410   3.437  11.327  0.2084 -0.5190  0.3726
19949SOL    HW161288   7.400   3.367  11.392 -1.0447  1.9023  2.9857
19949SOL    HW261289   7.452   3.509  11.374  0.3528  0.9602 -1.8599
19950SOL     OW61290   4.373   4.640  12.295  0.4266  0.1076  0.3356
19950SOL    HW161291   4.346   4.610  12.381 -0.3872 -0.4877 -0.1097
19950SOL    HW261292   4.449   4.587  12.272  0.4770  0.0793  0.5741
19951SOL     OW61293   6.696   1.684   0.343 -0.6938 -0.3352  0.2795
19951SOL    HW161294   6.701   1.710   0.251 -0.3872 -2.6221 -0.4201
19951SOL    HW261295   6.613   1.721   0.373 -1.7503 -1.0917 -1.5024
19952SOL     OW61296   5.987   2.127  11.791 -0.2831 -0.2034 -0.1588
19952SOL    HW161297   5.936   2.112  11.871  0.3744  0.6013  0.4286
19952SOL    HW261298   6.000   2.221  11.788  2.1253 -0.4669  0.3170
19953SOL     OW61299   5.280   2.379  11.218  0.6888 -0.3803  0.0485
19953SOL    HW161300   5.267   2.463  11.263  0.9303 -0.4649  0.2764
19953SOL    HW261301   5.197   2.364  11.173  1.1281  0.6979 -1.2030
19954SOL     OW61302   7.676   2.578   0.344  0.7782  0.4181  0.3366
19954SOL    HW161303   7.635   2.573   0.258  0.4845  0.7783  0.4531
19954SOL    HW261304   7.606   2.608   0.402  1.5815  2.5774  0.2599
19955SOL     OW61305   6.375   2.082  12.250  0.0277  0.3840 -0.1202
19955SOL    HW161306   6.447   2.138  12.279 -0.3701  1.0869 -0.4897
19955SOL    HW261307   6.312   2.085  12.322  0.8819 -1.2108  0.7536
19956SOL     OW61308   0.085   1.119   0.896  0.0178  0.2549  0.4323
19956SOL    HW161309   0.167   1.107   0.945  0.4745 -0.2654 -0.4357
19956SOL    HW261310   0.056   1.030   0.876  0.1418  0.4529 -0.7221
19957SOL     OW61311   7.128   2.738  10.635 -0.1845  0.2504 -0.1182
19957SOL    HW161312   7.083   2.770  10.556 -0.9286  0.7197  0.4763
19957SOL    HW261313   7.216   2.775  10.628  0.1233 -0.6504 -1.2885
19958SOL     OW61314   6.604   1.690  10.738  0.2916  0.6424  0.2196
19958SOL    HW161315   6.633   1.620  10.797  0.8218 -0.5632 -1.4168
19958SOL    HW261316   6.685   1.730  10.707  0.0479  0.5871 -0.4887
19959SOL     OW61317   7.830   2.233  12.198  0.2426  0.3565 -0.2226
19959SOL    HW161318   7.800   2.182  12.274  0.3561 -1.1785 -1.1496
19959SOL    HW261319   7.811   2.324  12.221 -1.9469 -0.2414  0.6697
19960SOL     OW61320   0.778   3.084  11.831  0.2300  0.3038  0.0304
19960SOL    HW161321   0.824   3.167  11.821  1.9929 -0.6073  0.1715
19960SOL    HW261322   0.765   3.052  11.742  0.3341  0.3279  0.0067
19961SOL     OW61323   4.889   4.485   0.331  0.8184  0.2477  0.0619
19961SOL    HW161324   4.926   4.573   0.339  0.9084  0.3845 -1.4845
19961SOL    HW261325   4.851   4.467   0.417 -0.6847  2.4698 -0.0514
19962SOL     OW61326   7.877   3.272  10.729 -0.6149  0.3222  0.3943
19962SOL    HW161327   7.886   3.248  10.821  1.2139  0.7987  0.3698
19962SOL    HW261328   7.909   3.195  10.681 -0.2654  0.5906  0.1923
19963SOL     OW61329   6.641   2.498   9.925  0.1029  0.2738  0.3711
19963SOL    HW161330   6.635   2.585   9.885  0.2410 -0.6989 -1.9222
19963SOL    HW261331   6.574   2.498   9.993  0.8905  2.5342  1.2346
19964SOL     OW61332   4.888   2.131  11.816 -0.4667 -0.1452  0.4351
19964SOL    HW161333   4.830   2.169  11.882 -0.9678  0.3668 -0.2862
19964SOL    HW261334   4.889   2.195  11.745  4.1329  1.8995  1.9410
19965SOL     OW61335   0.494   3.474  11.068  0.4726  0.1710 -0.1075
19965SOL    HW161336   0.589   3.477  11.061  0.3819  0.9473 -1.7101
19965SOL    HW261337   0.470   3.386  11.039  0.6639  0.3572 -0.8642
19966SOL     OW61338   5.764   3.754  11.520 -0.0938 -0.1637  0.0828
19966SOL    HW161339   5.675   3.748  11.556 -0.5711 -0.0230 -1.0281
19966SOL    HW261340   5.766   3.839  11.476 -0.7941 -1.7588 -3.3370
19967SOL     OW61341   0.013   3.152  12.423  0.5562 -0.2976  0.4831
19967SOL    HW161342   0.014   3.096  12.346 -2.2815  0.1243  0.0244
19967SOL    HW261343  -0.028   3.098  12.491  0.0851  0.3925  0.7554
19968SOL     OW61344   6.597   2.517  11.911 -0.0184 -0.2125  0.0953
19968SOL    HW161345   6.578   2.605  11.944 -0.1589 -0.1919 -0.0378
19968SOL    HW261346   6.686   2.499  11.940  0.3947  0.3987 -0.7814
19969SOL     OW61347   0.154   3.367  10.218 -0.2689 -0.0380  0.1803
19969SOL    HW161348   0.083   3.363  10.154 -0.0546 -0.7725 -0.0246
19969SOL    HW261349   0.187   3.457  10.212 -0.6940  0.0945 -0.2540
19970SOL     OW61350   6.613   3.532   9.902  0.4626  0.9702 -0.1239
19970SOL    HW161351   6.589   3.619   9.870  0.5114  1.2353  0.5573
19970SOL    HW261352   6.679   3.502   9.840 -0.6841  0.7503 -1.2949
19971SOL     OW61353   7.080   4.662  12.055  0.8473 -0.1326  0.8412
19971SOL    HW161354   7.056   4.570  12.045  0.3716 -0.1164  1.7838
19971SOL    HW261355   7.165   4.661  12.098 -0.5116 -0.1482  3.7694
19972SOL     OW61356   5.520   3.834  10.831  0.0759 -0.3514  0.9209
19972SOL    HW161357   5.477   3.751  10.852  1.5898 -1.0607  1.3634
19972SOL    HW261358   5.508   3.844  10.736 -1.0786 -0.4935  1.0377
19973SOL     OW61359   4.844   3.138   0.001  0.2528 -0.2157  0.3792
19973SOL    HW161360   4.810   3.192   0.072  1.0873  1.4213 -0.4343
19973SOL    HW261361   4.769   3.084  -0.025 -0.8294  1.0836  0.7002
19974SOL     OW61362   6.766   3.928  12.316 -0.5230  0.1265  0.1440
19974SOL    HW161363   6.780   4.022  12.313 -1.2449  0.2325  0.0051
19974SOL    HW261364   6.840   3.891  12.266  0.2913  0.5461  1.0028
19975SOL     OW61365   6.705   3.576   1.785 -0.6479 -0.0909  0.4188
19975SOL    HW161366   6.644   3.591   1.713 -0.2319 -0.5589 -0.0381
19975SOL    HW261367   6.661   3.512   1.841 -1.1762  0.6251  0.8434
19976SOL     OW61368   0.157   2.820  11.684  0.3385  0.8549  0.4974
19976SOL    HW161369   0.218   2.885  11.719  0.0578  1.5955 -0.3782
19976SOL    HW261370   0.072   2.864  11.683 -0.0660  0.1164  0.8839
19977SOL     OW61371   6.193   1.148  12.274 -0.0284  0.4606  0.0066
19977SOL    HW161372   6.241   1.119  12.352 -1.4701  0.5676  0.9744
19977SOL    HW261373   6.104   1.118  12.288 -0.0328 -0.9015 -2.3627
19978SOL     OW61374   0.466   2.428   0.210  0.2370 -0.1673 -0.9184
19978SOL    HW161375   0.430   2.340   0.201 -1.1036  0.2999 -0.3885
19978SOL    HW261376   0.497   2.433   0.300 -2.4482  0.8224  0.0522
19979SOL     OW61377   6.617   1.977  11.044  0.4673 -0.4146  0.2472
19979SOL    HW161378   6.566   2.040  11.095  0.9465  0.2156 -0.0366
19979SOL    HW261379   6.688   2.029  11.006 -0.8595 -0.4369 -2.5534
19980SOL     OW61380   6.797   2.367  12.046  0.1787 -0.2507  0.0266
19980SOL    HW161381   6.859   2.406  12.108 -2.3244  3.2562  0.6146
19980SOL    HW261382   6.722   2.342  12.101 -0.0024 -2.0893 -0.9814
19981SOL     OW61383   6.133   4.333  11.181  0.3966  0.3373  0.0169
19981SOL    HW161384   6.097   4.349  11.094  0.6128 -0.6285 -0.2686
19981SOL    HW261385   6.148   4.420  11.218  0.5445  0.7572 -1.0143
19982SOL     OW61386   5.348   3.070   0.824  0.3307 -0.2388 -0.0965
19982SOL    HW161387   5.334   3.165   0.824  2.2932  0.0924  0.4776
19982SOL    HW261388   5.333   3.044   0.733 -0.2154  0.6263 -0.2664
19983SOL     OW61389   7.142   3.372  11.277  0.1247 -0.6454  0.4127
19983SOL    HW161390   7.237   3.383  11.274  0.3345 -2.3323 -0.1907
19983SOL    HW261391   7.125   3.292  11.227 -1.8515  0.8904 -1.6107
19984SOL     OW61392   4.499   5.719  12.474 -0.1265 -0.2469 -0.9451
19984SOL    HW161393   4.540   5.747  12.392  1.5611  0.0962 -0.0354
19984SOL    HW261394   4.533   5.631  12.489 -1.2229 -0.7077 -1.1013
19985SOL     OW61395   5.753   3.157  10.556 -0.1869  0.0531  0.1381
19985SOL    HW161396   5.683   3.093  10.561  0.9350 -1.1685  0.8457
19985SOL    HW261397   5.818   3.118  10.498  0.2442  0.8218  0.0854
19986SOL     OW61398   7.277   2.345  10.598 -0.0157 -0.3570  0.7485
19986SOL    HW161399   7.263   2.356  10.692 -1.3802 -0.9507  0.6365
19986SOL    HW261400   7.307   2.254  10.589 -0.0570 -0.3556  0.5965
19987SOL     OW61401   6.100   4.055  11.999  0.0264  0.2987  0.3721
19987SOL    HW161402   6.156   3.987  11.962 -0.8495 -0.1330 -0.1839
19987SOL    HW261403   6.073   4.107  11.923  0.9062  1.4685  0.8120
19988SOL     OW61404   5.186   2.025   0.157 -0.2567 -0.3710 -0.3680
19988SOL    HW161405   5.111   2.081   0.178  1.2241  1.6763 -0.2932
19988SOL    HW261406   5.157   1.973   0.082 -1.7438  0.3608 -0.3318
19989SOL     OW61407   6.794   2.011  11.809  0.3560  0.7140 -0.5327
19989SOL    HW161408   6.730   2.052  11.751  1.4760  2.0435 -0.8784
19989SOL    HW261409   6.841   1.950  11.754 -1.6683 -1.5681  0.1002
19990SOL     OW61410   7.795   4.281  12.035  0.1278 -0.2210  0.1630
19990SOL    HW161411   7.753   4.273  11.949 -1.4941  0.1482  0.8804
19990SOL    HW261412   7.844   4.363  12.029 -0.1680 -0.0719 -0.3472
19991SOL     OW61413   4.728   1.671  11.748 -0.2893 -0.4530 -0.1322
19991SOL    HW161414   4.659   1.712  11.696  0.5643  0.2518 -0.7343
19991SOL    HW261415   4.798   1.736  11.752 -0.3221 -0.4605  1.9393
19992SOL     OW61416   7.381   0.203  10.742  0.0681 -0.0152  0.4410
19992SOL    HW161417   7.376   0.126  10.686  1.7978 -0.5307  0.9202
19992SOL    HW261418   7.325   0.268  10.700 -1.0232 -1.3572 -0.2438
19993SOL     OW61419   5.867   4.669  11.179  0.0061 -0.0859 -0.2069
19993SOL    HW161420   5.889   4.602  11.244  0.1566  0.2556  0.1033
19993SOL    HW261421   5.788   4.636  11.136  0.3152 -0.6564 -0.3473
19994SOL     OW61422   5.675   4.329   0.967 -0.3758 -0.3048  0.2600
19994SOL    HW161423   5.695   4.277   1.044 -1.6797 -0.2467  0.6612
19994SOL    HW261424   5.754   4.325   0.913  1.0303  0.6760  2.1405
19995SOL     OW61425   5.710   1.143  11.615 -0.0004  0.1191  0.0772
19995SOL    HW161426   5.716   1.160  11.709  0.7275 -0.0964  0.0781
19995SOL    HW261427   5.704   1.048  11.609  2.5183 -0.1068 -0.1651
19996SOL     OW61428   4.876   3.088   2.118  0.3095  0.4001  0.4315
19996SOL    HW161429   4.841   3.003   2.090 -2.0010  1.0634  1.1608
19996SOL    HW261430   4.886   3.137   2.036 -2.0988  0.7409  0.2649
19997SOL     OW61431   7.571   2.815   1.082 -0.2217  0.0018 -0.1355
19997SOL    HW161432   7.563   2.723   1.105 -0.2982 -0.0203 -0.2474
19997SOL    HW261433   7.622   2.815   1.001  1.2197  0.1592  0.7351
19998SOL     OW61434   6.865   3.923  11.218  0.2222  0.0809 -0.2402
19998SOL    HW161435   6.948   3.969  11.214  0.9776 -1.2294 -0.2996
19998SOL    HW261436   6.879   3.844  11.165 -1.9589  1.1486 -2.6741
19999SOL     OW61437   3.973   4.033  11.787 -1.0892  0.6403 -0.2944
19999SOL    HW161438   3.907   4.009  11.723 -0.1342  1.1958 -1.5266
19999SOL    HW261439   4.052   4.049  11.736  0.0578 -0.1404  1.1432
20000SOL     OW61440   6.337   4.052  10.308 -0.3438  0.4816  0.0808
20000SOL    HW161441   6.364   3.960  10.309 -3.6407 -0.6417 -1.3498
20000SOL    HW261442   6.360   4.083  10.221 -2.0279  0.0063 -0.5628
20001SOL     OW61443   6.026   2.207   0.729 -0.0097 -0.3076 -0.0993
20001SOL    HW161444   5.940   2.247   0.713 -0.1272 -1.1769 -1.9492
20001SOL    HW261445   6.089   2.272   0.697 -0.0357 -0.1640  0.1419
20002SOL     OW61446   6.939   2.705  11.583  0.3849 -0.7626  0.1085
20002SOL    HW161447   6.913   2.775  11.642  2.2232  0.4350 -0.4040
20002SOL    HW261448   6.989   2.644  11.638  0.6456 -0.5271  0.1346
20003SOL     OW61449   4.916   2.345  11.289  0.5347 -0.4859  0.0459
20003SOL    HW161450   4.938   2.359  11.197  0.6616 -0.3200  0.1012
20003SOL    HW261451   4.910   2.433  11.326 -0.8787 -0.4896 -0.1138
20004SOL     OW61452   6.427   3.059  10.523  0.4419  0.2138  0.4097
20004SOL    HW161453   6.499   2.996  10.520  0.4557  0.2164 -2.3536
20004SOL    HW261454   6.440   3.107  10.605  3.4256  0.0093  0.1582
20005SOL     OW61455   7.545   1.461   1.093  0.0157  0.2776 -0.9707
20005SOL    HW161456   7.565   1.553   1.112 -2.3850  1.0373 -1.7617
20005SOL    HW261457   7.556   1.453   0.998  2.2573 -0.8763 -0.6808
20006SOL     OW61458   5.577   4.700  11.972  0.6371 -0.0262 -0.6557
20006SOL    HW161459   5.497   4.651  11.954  0.0642  0.0782  1.3974
20006SOL    HW261460   5.547   4.778  12.019  1.9383  0.0546  0.0818
20007SOL     OW61461   7.864   1.567  10.893 -0.2697 -0.1001 -0.1122
20007SOL    HW161462   7.796   1.504  10.918 -0.7796  0.7305  0.6691
20007SOL    HW261463   7.818   1.650  10.888  1.1911  1.1548  3.7466
20008SOL     OW61464   7.933   1.873  12.195 -0.4939  0.0786 -0.2375
20008SOL    HW161465   8.011   1.929  12.188 -1.4867  1.5323 -0.2831
20008SOL    HW261466   7.898   1.893  12.282 -0.9042 -0.4370 -0.2796
20009SOL     OW61467   6.575   3.001   0.358  0.0945 -0.1450 -0.1967
20009SOL    HW161468   6.506   3.059   0.326  0.6093  0.2504 -0.6111
20009SOL    HW261469   6.542   2.967   0.441 -1.0691 -0.8100 -0.9044
20010SOL     OW61470   6.279   2.469   0.159  0.0346 -0.3840  0.0306
20010SOL    HW161471   6.353   2.414   0.133 -1.4649 -1.6005 -2.0093
20010SOL    HW261472   6.253   2.514   0.078 -0.4707  1.2956  1.0650
20011SOL     OW61473   7.510   3.348   0.391  0.3932 -0.0928 -0.2221
20011SOL    HW161474   7.423   3.388   0.394 -0.5959 -2.1102  0.6601
20011SOL    HW261475   7.570   3.421   0.380 -1.4023  1.3852 -0.7458
20012SOL     OW61476   0.507   1.908  11.498 -0.0292 -0.2342 -0.2447
20012SOL    HW161477   0.542   1.996  11.486  0.2911 -0.4591 -1.0216
20012SOL    HW261478   0.570   1.851  11.454 -0.3845 -0.8214 -0.0028
20013SOL     OW61479   0.004   4.043   0.061 -0.5626 -0.1623  0.5439
20013SOL    HW161480   0.078   4.005   0.014 -2.6422 -2.5871 -1.0002
20013SOL    HW261481   0.022   4.137   0.063  1.6894 -0.4758 -1.3279
20014SOL     OW61482   1.130   4.598  12.320  0.2195  0.1612  0.1089
20014SOL    HW161483   1.205   4.623  12.267 -0.0930  0.3721 -0.2432
20014SOL    HW261484   1.167   4.548  12.393  0.8954  2.0373  1.0939
20015SOL     OW61485   7.254   3.513  11.735 -0.6506 -0.7271  0.0138
20015SOL    HW161486   7.181   3.576  11.738 -2.1361 -2.2966 -1.2070
20015SOL    HW261487   7.309   3.545  11.664 -0.9390 -0.3204 -0.0347
20016SOL     OW61488   7.948   2.059   1.283 -0.6601 -0.2628 -0.3158
20016SOL    HW161489   8.006   2.030   1.212  0.9221  0.7289  0.5085
20016SOL    HW261490   7.898   2.132   1.245  0.5647  0.6193 -0.2898
20017SOL     OW61491   6.072   2.739  11.263 -0.2003  0.0571 -0.4719
20017SOL    HW161492   6.068   2.733  11.359  1.6211  0.9020 -0.3025
20017SOL    HW261493   6.002   2.799  11.240 -0.0302  0.6454  0.4472
20018SOL     OW61494   6.833   4.303   0.139  0.1198  0.2182 -0.3122
20018SOL    HW161495   6.817   4.245   0.214 -1.0007  0.2206 -0.5321
20018SOL    HW261496   6.924   4.331   0.150  1.4082 -3.0461 -1.1688
20019SOL     OW61497   6.659   2.453   0.276  0.3798 -0.3617  0.0551
20019SOL    HW161498   6.656   2.385   0.208 -1.1335  0.1236 -0.3987
20019SOL    HW261499   6.649   2.405   0.358 -0.2928 -0.7498 -0.2400
20020SOL     OW61500   6.360   3.645  10.899 -0.0172  0.1778 -0.4931
20020SOL    HW161501   6.347   3.551  10.912 -0.2428  0.5254  2.5999
20020SOL    HW261502   6.438   3.666  10.950 -0.1524  1.7257 -0.8689
20021SOL     OW61503   6.594   3.436  10.938 -0.1217  0.0866 -0.6972
20021SOL    HW161504   6.528   3.421  11.005  0.0261  0.8475 -0.3727
20021SOL    HW261505   6.678   3.425  10.984 -0.0225  0.3795 -0.8045
20022SOL     OW61506   7.452   1.503   0.810 -0.3134  0.2266  0.0864
20022SOL    HW161507   7.379   1.441   0.823  1.9599 -2.0393  4.0846
20022SOL    HW261508   7.506   1.461   0.743 -0.7811 -0.0442 -0.1331
20023SOL     OW61509   6.740   1.657  11.441  0.0624 -0.3205  0.5162
20023SOL    HW161510   6.825   1.692  11.414 -0.3818  0.2350 -0.2180
20023SOL    HW261511   6.760   1.571  11.477  0.8097 -0.7353 -0.8160
20024SOL     OW61512   5.628   4.202  11.432  0.1966  0.1154 -0.0076
20024SOL    HW161513   5.699   4.241  11.482  0.3119 -0.4129  0.2496
20024SOL    HW261514   5.659   4.114  11.410 -0.8326 -0.5620  1.1268
20025SOL     OW61515   0.332   3.947  11.848 -0.0057 -0.3511  0.0597
20025SOL    HW161516   0.423   3.916  11.856 -0.3402 -1.1143  1.0989
20025SOL    HW261517   0.306   3.968  11.937 -0.9713 -0.5010 -0.1807
20026SOL     OW61518   5.505   3.315  10.856  0.6388 -0.4062  0.3478
20026SOL    HW161519   5.488   3.403  10.888  0.0889 -0.0141 -0.9260
20026SOL    HW261520   5.596   3.317  10.827  1.1117 -0.7420  1.7740
20027SOL     OW61521   5.930   2.930  10.429  0.0424 -0.2166  0.2101
20027SOL    HW161522   5.859   2.884  10.474 -0.3646 -0.7440 -0.9366
20027SOL    HW261523   5.962   2.867  10.364  2.1762 -0.3331  1.2600
20028SOL     OW61524   6.844   2.482  11.295 -0.4848 -0.2186  0.2762
20028SOL    HW161525   6.918   2.541  11.304  0.7559 -1.2526 -2.2497
20028SOL    HW261526   6.826   2.453  11.384  0.8193  1.6014  1.1943
20029SOL     OW61527   6.888   3.423   0.152 -0.5120  0.5192  0.7761
20029SOL    HW161528   6.905   3.507   0.110  0.1630  0.1153  0.2262
20029SOL    HW261529   6.920   3.434   0.241 -1.3605  1.1670  1.0198
20030SOL     OW61530   6.940   2.525  12.258 -0.2179 -0.3294  0.6676
20030SOL    HW161531   6.980   2.612  12.260 -0.8969  0.0589 -1.2128
20030SOL    HW261532   7.014   2.465  12.249  0.2319  0.0441  1.6729
20031SOL     OW61533   7.556   0.923   9.934 -0.3235 -0.4482  0.1869
20031SOL    HW161534   7.476   0.975   9.931 -0.0479 -0.0019  0.4737
20031SOL    HW261535   7.552   0.868   9.855 -0.3163  0.4675 -0.4689
20032SOL     OW61536   0.056   2.946  12.212  0.3768 -0.1063 -0.5732
20032SOL    HW161537   0.105   2.983  12.138  0.2175 -0.9771 -1.1346
20032SOL    HW261538  -0.034   2.942  12.180  0.0303  0.9064  0.2270
20033SOL     OW61539   5.463   2.854   0.044  0.2928 -0.1560  0.1516
20033SOL    HW161540   5.396   2.913   0.078  0.4694  1.4724 -2.1138
20033SOL    HW261541   5.484   2.889  -0.043  2.8717 -1.6028  0.1021
20034SOL     OW61542   7.275   1.959  11.240  0.2360  0.5372  0.9227
20034SOL    HW161543   7.241   1.957  11.151  0.0685  1.3665  0.9543
20034SOL    HW261544   7.341   1.890  11.243 -1.0772 -0.7862  0.7148
20035SOL     OW61545   6.143   4.809  10.160  0.2762 -0.0750  0.2586
20035SOL    HW161546   6.237   4.804  10.143  0.7196  1.7510  1.8249
20035SOL    HW261547   6.117   4.718  10.174  1.7363 -0.6440 -0.5091
20036SOL     OW61548   6.705   3.536   0.618  0.1695  0.5012 -0.0500
20036SOL    HW161549   6.649   3.505   0.546 -1.7603 -1.0009  1.9747
20036SOL    HW261550   6.658   3.612   0.653  1.7307  1.9966 -1.0709
20037SOL     OW61551   7.004   3.696  11.767  0.0938  0.5327  0.6755
20037SOL    HW161552   7.033   3.766  11.708  0.5328 -0.1205  0.0969
20037SOL    HW261553   6.910   3.688  11.750  0.3482 -0.1816 -0.5438
20038SOL     OW61554   0.684   3.618  11.837 -0.2356 -0.3482  0.2145
20038SOL    HW161555   0.633   3.551  11.791 -0.5317  0.2670 -0.3617
20038SOL    HW261556   0.756   3.570  11.877 -1.8578 -1.4583  2.0129
20039SOL     OW61557   1.909   3.195  10.597  0.3235  0.6226  0.3110
20039SOL    HW161558   1.986   3.247  10.618  1.4553 -0.4635 -0.9874
20039SOL    HW261559   1.856   3.251  10.541  0.8063  0.8943  0.1292
20040SOL     OW61560   5.767   3.382  10.873  0.1984  0.3235 -0.0465
20040SOL    HW161561   5.748   3.451  10.936  0.3934 -0.2484  0.6589
20040SOL    HW261562   5.853   3.403  10.837 -0.2086  1.0169 -0.6321
20041SOL     OW61563   7.080   2.375   0.947 -0.2052 -0.3328  0.1225
20041SOL    HW161564   7.007   2.365   0.885 -0.8284  0.5093  0.6998
20041SOL    HW261565   7.128   2.451   0.914 -0.7500  0.3441  0.8628
20042SOL     OW61566   0.197   2.977   1.262 -0.2396  0.3557  0.4511
20042SOL    HW161567   0.184   2.920   1.337 -0.3083 -1.5026 -0.8926
20042SOL    HW261568   0.264   2.933   1.210 -1.3590  0.7002 -1.3868
20043SOL     OW61569   5.452   3.582  10.936 -0.3218  0.6422 -0.1465
20043SOL    HW161570   5.421   3.585  11.027  0.5023  2.6167  0.1306
20043SOL    HW261571   5.546   3.600  10.943  0.0267 -0.5888 -1.3153
20044SOL     OW61572   0.718   1.567  12.226 -0.1644 -0.0556  0.4027
20044SOL    HW161573   0.683   1.512  12.297 -1.0816  1.6559  1.3472
20044SOL    HW261574   0.684   1.655  12.245 -1.3283  0.3016 -2.7584
20045SOL     OW61575   7.439   1.396   9.580 -0.4275 -0.0284  0.4224
20045SOL    HW161576   7.361   1.378   9.527 -0.3956  2.2012 -0.4670
20045SOL    HW261577   7.512   1.389   9.519 -0.0489 -0.5774  0.9195
20046SOL     OW61578   0.191   3.316  11.747  0.2354 -0.0800 -0.1221
20046SOL    HW161579   0.227   3.324  11.836 -0.8335 -2.0316  0.5314
20046SOL    HW261580   0.228   3.235  11.714 -0.4268 -0.0426 -0.9673
20047SOL     OW61581   6.266   1.639  12.279 -0.1444 -0.1620  0.1696
20047SOL    HW161582   6.226   1.717  12.318 -1.0647 -1.5334  2.1250
20047SOL    HW261583   6.265   1.656  12.185  1.0895  2.8141  0.5667
20048SOL     OW61584   5.777   3.105  11.246  0.0329  0.2066 -0.3222
20048SOL    HW161585   5.809   3.084  11.158 -0.4735  0.0944 -0.4812
20048SOL    HW261586   5.718   3.179  11.233 -0.6942 -0.3432 -0.1917
20049SOL     OW61587   5.590   1.996  10.610 -0.4368  0.5139 -0.1049
20049SOL    HW161588   5.633   1.958  10.534  0.6536 -1.3499  1.3843
20049SOL    HW261589   5.661   2.031  10.664 -0.8124 -1.3966  1.7387
20050SOL     OW61590   6.002   5.600  11.805  0.6520 -0.0900  0.4035
20050SOL    HW161591   6.056   5.597  11.725  1.8770 -1.1454  1.2199
20050SOL    HW261592   5.915   5.624  11.774  0.7636 -1.8012 -1.4742
20051SOL     OW61593   5.380   4.274   2.415  0.7507  0.1382  0.2612
20051SOL    HW161594   5.312   4.305   2.356 -0.3927 -0.0653  1.4234
20051SOL    HW261595   5.384   4.179   2.401  0.9040  0.1688  0.0923
20052SOL     OW61596   6.065   4.978   1.677 -0.5496  0.3394 -0.2618
20052SOL    HW161597   6.038   5.001   1.766  1.2243  0.0739  0.3891
20052SOL    HW261598   6.156   5.007   1.671 -0.1508 -1.0378 -1.4733
20053SOL     OW61599   5.977   4.347   1.273 -0.5977  0.2666  0.4286
20053SOL    HW161600   6.004   4.374   1.360 -0.7083  0.4782  0.3973
20053SOL    HW261601   6.031   4.398   1.213  0.5827 -0.9988  0.3732
20054SOL     OW61602   6.675   4.505   1.952  0.0590 -0.2717 -0.0974
20054SOL    HW161603   6.683   4.454   2.032 -1.5815 -1.1643 -0.4482
20054SOL    HW261604   6.748   4.477   1.897  0.3180 -0.7595  0.4944
20055SOL     OW61605   7.613   3.901   0.451 -0.3640 -0.0976  0.0304
20055SOL    HW161606   7.661   3.927   0.530 -0.5513 -0.6821  0.3426
20055SOL    HW261607   7.662   3.941   0.379  0.4402 -0.4623  0.3632
20056SOL     OW61608   4.409   5.839   0.743  0.4605 -1.0436 -0.8669
20056SOL    HW161609   4.330   5.880   0.776  0.5938 -1.2408 -0.2674
20056SOL    HW261610   4.404   5.848   0.648 -0.2441 -0.9979 -0.8310
20057SOL     OW61611   6.930   3.893   0.751 -0.1788  0.1486 -0.0608
20057SOL    HW161612   6.994   3.959   0.779 -0.5032  0.0798  0.8490
20057SOL    HW261613   6.872   3.882   0.826 -0.5388 -0.6754 -0.4523
20058SOL     OW61614   6.249   2.836   0.400  0.2634 -0.3455 -0.2702
20058SOL    HW161615   6.168   2.801   0.438 -0.0082  0.1231 -0.4186
20058SOL    HW261616   6.312   2.764   0.408 -0.2476 -0.8137 -0.4146
20059SOL     OW61617   4.887   6.714   1.470  0.1320 -0.1649  0.2965
20059SOL    HW161618   4.905   6.752   1.384  1.2742  0.4897  0.8069
20059SOL    HW261619   4.937   6.632   1.471 -1.0533 -0.9240 -0.1956
20060SOL     OW61620   7.838   5.749  12.432  0.3768  0.5695 -0.3178
20060SOL    HW161621   7.843   5.843  12.448 -0.5099  0.6253 -0.3374
20060SOL    HW261622   7.780   5.741  12.357 -1.3774 -0.1138  1.0472
20061SOL     OW61623   7.189   5.671   1.094  0.5637  0.1755  0.1730
20061SOL    HW161624   7.187   5.729   1.169  0.0927  0.0239  0.2829
20061SOL    HW261625   7.146   5.591   1.124 -0.2416  0.3574 -0.4574
20062SOL     OW61626   6.065   4.461   1.487 -0.0278  0.3725  0.0974
20062SOL    HW161627   5.977   4.429   1.507  0.1606  0.0641  0.4465
20062SOL    HW261628   6.077   4.537   1.544 -1.0022  1.9811 -1.6986
20063SOL     OW61629   7.263   3.615  12.267  0.3770  0.1477  0.2428
20063SOL    HW161630   7.242   3.676  12.197 -0.0219  0.2563  0.4544
20063SOL    HW261631   7.249   3.664  12.348 -0.3544 -0.3415  0.4254
20064SOL     OW61632   6.448   6.423  11.299  0.6136 -0.5635  0.3614
20064SOL    HW161633   6.429   6.367  11.374  0.1768  0.5552  1.1088
20064SOL    HW261634   6.387   6.497  11.308  1.8698  0.5543 -0.0211
20065SOL     OW61635   6.352   4.938   1.147 -0.0687 -0.9945 -0.5402
20065SOL    HW161636   6.340   4.899   1.233  1.5053 -0.4831 -0.0520
20065SOL    HW261637   6.427   4.997   1.157  0.7557 -1.6160 -2.4780
20066SOL     OW61638   5.213   5.036   0.879  0.3082 -0.4968  0.1760
20066SOL    HW161639   5.250   5.124   0.881  0.3252 -0.5070  0.3329
20066SOL    HW261640   5.179   5.022   0.967  1.3263 -1.0826  0.4920
20067SOL     OW61641   5.123   6.366   0.665  0.1463  0.3518  0.8285
20067SOL    HW161642   5.166   6.290   0.625  1.1417  0.0242  2.4193
20067SOL    HW261643   5.182   6.391   0.736 -0.7912  1.8587  1.0988
20068SOL     OW61644   4.174   5.612  12.157 -0.2211 -0.2272  0.5275
20068SOL    HW161645   4.107   5.550  12.126 -1.0618  1.0879 -0.4237
20068SOL    HW261646   4.247   5.557  12.184 -1.3991 -1.6889  0.8952
20069SOL     OW61647   7.106   5.593  11.812  0.5456 -0.1963 -0.1386
20069SOL    HW161648   7.115   5.684  11.783 -1.2614 -0.4890 -1.8735
20069SOL    HW261649   7.185   5.550  11.780  1.4402  0.7534  0.7408
20070SOL     OW61650   6.715   2.818   1.011 -0.0281 -0.0524  0.0678
20070SOL    HW161651   6.773   2.894   1.023  1.3026 -1.1560  1.0322
20070SOL    HW261652   6.683   2.825   0.922  1.1059  0.9616 -0.2792
20071SOL     OW61653   5.613   4.970   0.069 -0.6390 -0.3702  0.1868
20071SOL    HW161654   5.547   4.988   0.002  0.3210  0.0995 -0.6536
20071SOL    HW261655   5.640   5.056   0.101  1.6372 -0.3361 -1.5574
20072SOL     OW61656   7.524   4.352  12.132 -0.0527 -0.3405 -0.3243
20072SOL    HW161657   7.585   4.278  12.135 -1.0520 -1.1757  0.2825
20072SOL    HW261658   7.578   4.429  12.147  1.3317 -0.7140 -2.8233
20073SOL     OW61659   6.909   5.357   0.212 -0.0442 -0.0024  0.2455
20073SOL    HW161660   6.944   5.418   0.277 -0.4691  0.7033 -0.1768
20073SOL    HW261661   6.982   5.340   0.153  0.3783 -0.7398  0.9720
20074SOL     OW61662   6.426   4.146  12.147 -0.0843 -0.0865  0.0118
20074SOL    HW161663   6.453   4.060  12.116  0.1049  0.3800 -1.1604
20074SOL    HW261664   6.501   4.203  12.129 -0.8942  0.7087 -0.9605
20075SOL     OW61665   7.657   4.847   0.224 -0.7886 -0.1650 -0.4450
20075SOL    HW161666   7.679   4.816   0.311  1.6595  2.5518  0.0728
20075SOL    HW261667   7.567   4.816   0.209 -1.4266 -0.4612  3.1434
20076SOL     OW61668   5.909   4.888   0.824  0.2464  0.0760 -0.0553
20076SOL    HW161669   5.863   4.876   0.741  1.1041  0.5101 -0.6028
20076SOL    HW261670   5.847   4.937   0.879 -0.0569  0.4041 -0.6815
20077SOL     OW61671   5.311   5.192  12.343 -0.2305  0.4974 -0.1426
20077SOL    HW161672   5.361   5.264  12.382  3.1183 -0.8114 -1.6671
20077SOL    HW261673   5.310   5.212  12.250 -1.3620 -0.2973 -0.3216
20078SOL     OW61674   7.411   5.612   2.103  0.5686  0.3890  0.3077
20078SOL    HW161675   7.417   5.537   2.044  1.7800 -0.8176  1.8644
20078SOL    HW261676   7.437   5.687   2.049 -1.2528 -0.1566 -1.4414
20079SOL     OW61677   6.365   3.233   1.011 -0.7026 -0.3438 -0.1150
20079SOL    HW161678   6.328   3.215   0.925 -1.8812  1.1791  0.0273
20079SOL    HW261679   6.456   3.257   0.994 -0.9079 -0.1269 -0.9255
20080SOL     OW61680   6.067   5.037   1.312  0.5568  0.2529 -0.4785
20080SOL    HW161681   6.138   4.983   1.347  0.7752  1.1070  0.4480
20080SOL    HW261682   6.109   5.096   1.251  0.3230 -0.5648 -1.4626
20081SOL     OW61683   6.051   5.032  12.496  0.4651  0.4974  0.0712
20081SOL    HW161684   5.984   5.088  12.455 -0.6046 -0.5441  0.3407
20081SOL    HW261685   6.128   5.045  12.441 -0.8857 -0.7940 -2.3310
20082SOL     OW61686   7.638   5.863   0.373 -0.3544  0.0097 -0.1751
20082SOL    HW161687   7.547   5.837   0.364 -0.9084  1.9271 -0.6718
20082SOL    HW261688   7.685   5.813   0.306 -0.9452 -1.3363  0.3995
20083SOL     OW61689   5.526   4.449   2.559 -0.3350 -0.5648 -0.1097
20083SOL    HW161690   5.458   4.508   2.591  0.3078  0.5179 -0.6757
20083SOL    HW261691   5.480   4.389   2.500 -0.7248  0.5163 -0.9470
20084SOL     OW61692   0.279   4.859   2.291  0.6892 -0.1264  0.5037
20084SOL    HW161693   0.349   4.849   2.227  0.2390  0.3426 -0.0886
20084SOL    HW261694   0.319   4.842   2.375  1.5198  0.1764  0.1745
20085SOL     OW61695   6.660   3.535   1.172 -0.1363  0.3229 -0.1690
20085SOL    HW161696   6.576   3.574   1.146 -0.8500 -0.9517  0.1508
20085SOL    HW261697   6.715   3.610   1.195 -1.3433  1.1602  0.0701
20086SOL     OW61698   5.649   3.356   0.630  0.1606 -0.3482  0.7714
20086SOL    HW161699   5.696   3.431   0.668 -0.6419  1.1772 -1.0648
20086SOL    HW261700   5.557   3.371   0.655 -0.2424  0.1956 -0.9373
20087SOL     OW61701   7.189   3.492   1.333  0.6058  0.0445 -0.0012
20087SOL    HW161702   7.151   3.558   1.275  0.0631 -0.4422 -0.2086
20087SOL    HW261703   7.278   3.478   1.299  0.5556  0.3152 -0.2450
20088SOL     OW61704   7.685   4.148   1.017  0.2364 -0.9499 -0.1293
20088SOL    HW161705   7.743   4.216   1.051 -0.3459 -0.7924  0.5557
20088SOL    HW261706   7.600   4.191   1.007  0.0273 -1.3973 -0.3308
20089SOL     OW61707   7.146   4.062   2.635 -0.4994  0.2860  0.1671
20089SOL    HW161708   7.163   3.981   2.683  1.5986 -0.1142 -1.1528
20089SOL    HW261709   7.118   4.124   2.702  0.7174 -0.7044  1.6452
20090SOL     OW61710   7.122   3.666   1.115  0.6560 -0.4313 -0.2217
20090SOL    HW161711   7.163   3.746   1.084 -0.8102  0.1809 -0.6592
20090SOL    HW261712   7.118   3.609   1.038  1.4883 -0.8609  0.0358
20091SOL     OW61713   6.567   5.792   0.816  0.3313  0.1814 -0.3463
20091SOL    HW161714   6.561   5.759   0.905  1.7326  0.5870 -0.0724
20091SOL    HW261715   6.604   5.720   0.766 -1.4411 -0.4254 -0.8613
20092SOL     OW61716   5.840   3.349   1.410  0.1050  0.1054 -0.2550
20092SOL    HW161717   5.901   3.396   1.468  0.5976 -1.7398  0.7904
20092SOL    HW261718   5.789   3.419   1.369  1.8904  1.6383 -0.0151
20093SOL     OW61719   6.886   4.822   0.811  0.6855 -0.0430  0.6900
20093SOL    HW161720   6.820   4.888   0.836  2.6864  2.3744 -0.0064
20093SOL    HW261721   6.961   4.840   0.868  2.4957  0.5227 -1.7256
20094SOL     OW61722   4.691   3.250   0.971 -0.3123  0.3127  0.0549
20094SOL    HW161723   4.686   3.160   1.003 -0.1256  0.0620 -0.6080
20094SOL    HW261724   4.613   3.262   0.918  0.0543  0.2821 -0.4994
20095SOL     OW61725   4.122   6.517  12.117  0.0111 -0.6950 -0.9977
20095SOL    HW161726   4.147   6.439  12.068 -3.5651 -1.4820 -1.8499
20095SOL    HW261727   4.047   6.552  12.069 -0.3009  1.6143  1.0061
20096SOL     OW61728   5.392   3.369   1.590  0.4488  0.1481  0.0213
20096SOL    HW161729   5.413   3.392   1.680  0.7474 -0.3998  0.0961
20096SOL    HW261730   5.446   3.426   1.536  1.3581 -0.5257  0.2023
20097SOL     OW61731   7.566   3.960   2.849  0.3596 -0.1257  0.1667
20097SOL    HW161732   7.575   4.043   2.895 -0.4502  0.8551 -1.3260
20097SOL    HW261733   7.626   3.967   2.775 -1.4836  0.2665 -1.4039
20098SOL     OW61734   7.791   5.553   0.852  0.6555  0.1863 -0.1351
20098SOL    HW161735   7.756   5.499   0.781 -2.3451  1.0443  0.5482
20098SOL    HW261736   7.750   5.638   0.840 -0.1743  0.3046  2.7306
20099SOL     OW61737   6.025   3.794  12.324  0.3310 -0.4905 -0.4421
20099SOL    HW161738   6.004   3.780  12.416  1.0401 -0.4167 -0.2605
20099SOL    HW261739   6.102   3.852  12.325  0.5263 -0.7240 -1.0706
20100SOL     OW61740   6.430   6.315   1.469 -0.1458  0.5499  0.2688
20100SOL    HW161741   6.393   6.254   1.532 -1.6431  1.1557  0.0143
20100SOL    HW261742   6.483   6.375   1.522  0.1068 -0.0405  0.7013
20101SOL     OW61743   6.617   4.202   1.704  0.0823 -0.1217 -0.0931
20101SOL    HW161744   6.624   4.170   1.794  3.2766  3.6668  1.3669
20101SOL    HW261745   6.533   4.247   1.701  0.0516 -0.0600  1.1304
20102SOL     OW61746   7.119   4.118  11.863 -0.5317  0.7000 -0.4830
20102SOL    HW161747   7.111   4.095  11.956 -1.4869  0.0951 -0.7060
20102SOL    HW261748   7.136   4.212  11.864  0.9772  0.4483  0.3540
20103SOL     OW61749   6.866   3.152   0.787 -0.3859  0.0293 -0.3882
20103SOL    HW161750   6.918   3.181   0.712  0.9090  0.6568  0.7058
20103SOL    HW261751   6.782   3.197   0.777  0.7342  2.3874 -0.0241
20104SOL     OW61752   4.762   4.330   1.245  0.2427 -0.3226  0.1415
20104SOL    HW161753   4.720   4.294   1.167  0.6668  0.7406 -0.5966
20104SOL    HW261754   4.838   4.274   1.260 -0.0764 -0.7828  0.0438
20105SOL     OW61755   6.882   4.395   1.324  0.3192 -0.3041  0.1811
20105SOL    HW161756   6.859   4.386   1.417 -0.0573  0.1866  0.1363
20105SOL    HW261757   6.802   4.426   1.282  0.2042 -1.4243 -0.4796
20106SOL     OW61758   0.297   3.349   2.489  0.0794 -0.0441  0.7673
20106SOL    HW161759   0.340   3.308   2.414 -1.2287  0.1315 -0.1131
20106SOL    HW261760   0.365   3.351   2.557  1.3384 -0.0862 -0.4390
20107SOL     OW61761   7.536   6.107  11.070  0.5063 -0.0510 -0.4703
20107SOL    HW161762   7.515   6.023  11.112  4.2362 -1.8167 -1.7107
20107SOL    HW261763   7.605   6.144  11.126 -0.0352  1.4697 -0.7830
20108SOL     OW61764   6.271   3.500   0.687  0.3649  0.0100  0.0906
20108SOL    HW161765   6.334   3.456   0.630 -1.0894 -1.6841 -0.2605
20108SOL    HW261766   6.210   3.543   0.628 -1.5879 -2.3671  0.2250
20109SOL     OW61767   6.637   2.735   0.022  0.4062 -0.0460  0.1822
20109SOL    HW161768   6.564   2.783   0.062  0.2135 -0.6960  0.6426
20109SOL    HW261769   6.597   2.686  -0.049  0.1693 -1.2275  1.0916
20110SOL     OW61770   6.668   5.343  11.831 -0.2225 -0.3118 -0.0697
20110SOL    HW161771   6.659   5.404  11.904 -0.5258 -1.0365  0.5091
20110SOL    HW261772   6.752   5.366  11.791  0.0232 -0.0099  0.6030
20111SOL     OW61773   6.161   4.847   0.485  0.3738  0.1483 -0.1141
20111SOL    HW161774   6.143   4.768   0.535  0.0082 -0.3242 -0.9588
20111SOL    HW261775   6.129   4.827   0.397 -1.3038  1.8269  0.0384
20112SOL     OW61776   7.519   3.688   0.715  0.2842  0.3249 -0.4062
20112SOL    HW161777   7.511   3.727   0.802  0.3924  0.6970 -0.5603
20112SOL    HW261778   7.492   3.597   0.727 -1.1536  0.7331 -0.2755
20113SOL     OW61779   5.734   5.990   2.765  0.3898 -0.1275  0.0502
20113SOL    HW161780   5.700   5.935   2.695 -0.3109  0.3117  0.0398
20113SOL    HW261781   5.724   6.080   2.733  1.2154  0.0294  0.2021
20114SOL     OW61782   6.413   2.731  11.372 -0.2671 -0.3179 -0.3205
20114SOL    HW161783   6.490   2.694  11.414 -0.5757 -0.6571 -0.0439
20114SOL    HW261784   6.339   2.686  11.414 -0.6178  0.1048 -0.4798
20115SOL     OW61785   6.249   1.771   2.400  0.3332 -0.1706  0.2290
20115SOL    HW161786   6.199   1.853   2.399  2.7158  1.4636  2.2253
20115SOL    HW261787   6.324   1.787   2.343  0.8593 -0.8996  0.6929
20116SOL     OW61788   6.567   5.098   1.730 -0.3151 -0.7338 -0.6153
20116SOL    HW161789   6.591   5.118   1.640  0.2620  1.8171  0.0337
20116SOL    HW261790   6.638   5.135   1.783 -1.3204 -0.9575  0.9547
20117SOL     OW61791   6.552   4.165   1.059 -0.1798 -0.0931 -0.0782
20117SOL    HW161792   6.577   4.162   0.966 -0.6148 -0.3875 -0.1895
20117SOL    HW261793   6.547   4.074   1.086 -0.7110 -0.0321  0.0520
20118SOL     OW61794   6.213   4.491   0.985  0.5955 -0.2387  0.0144
20118SOL    HW161795   6.254   4.431   1.047  1.1293  0.8326  0.7281
20118SOL    HW261796   6.134   4.523   1.029  0.5088 -0.1378 -0.2084
20119SOL     OW61797   5.361   4.201   1.801 -0.2351  0.2402  0.1440
20119SOL    HW161798   5.296   4.197   1.871  0.9459 -0.5249  1.2234
20119SOL    HW261799   5.434   4.251   1.838  1.9336 -3.1323  0.8444
20120SOL     OW61800   5.589   2.979   0.941  0.2257 -0.3732  0.7346
20120SOL    HW161801   5.617   3.043   1.007 -0.2023 -0.5838  1.1290
20120SOL    HW261802   5.500   3.006   0.919  0.5152 -0.0583 -0.0734
20121SOL     OW61803   6.659   4.910   0.950  0.4651  0.2842 -0.1852
20121SOL    HW161804   6.669   4.972   1.023  0.7113 -1.3586  1.2379
20121SOL    HW261805   6.568   4.921   0.922 -0.0319  0.0376  1.2487
20122SOL     OW61806   7.734   1.469   0.554  0.9007 -0.0062  0.0820
20122SOL    HW161807   7.750   1.393   0.498 -1.1278 -0.8427  0.5196
20122SOL    HW261808   7.818   1.513   0.560  1.6618 -1.0584 -1.8868
20123SOL     OW61809   7.056   5.129   0.410  0.1028  0.0679 -0.0171
20123SOL    HW161810   7.003   5.206   0.387 -0.8320 -0.2493  0.9923
20123SOL    HW261811   7.056   5.075   0.331  0.2935  0.8256 -0.5496
20124SOL     OW61812   5.682   4.549   1.600  0.2544 -0.2102  0.1324
20124SOL    HW161813   5.711   4.625   1.550  3.7655 -1.2750  0.2728
20124SOL    HW261814   5.689   4.577   1.691  1.4687 -0.6041  0.1814
20125SOL     OW61815   6.431   5.222   0.478  0.4360 -0.1659 -0.2357
20125SOL    HW161816   6.387   5.154   0.528  1.6192 -0.9052 -0.1420
20125SOL    HW261817   6.499   5.255   0.536  1.4524 -0.6312 -1.1057
20126SOL     OW61818   6.409   3.947   0.725 -0.4575 -0.1181 -0.4116
20126SOL    HW161819   6.318   3.963   0.702 -1.1421  2.1821  3.2124
20126SOL    HW261820   6.455   4.026   0.699  0.3351 -0.8398 -1.2574
20127SOL     OW61821   0.208   6.014   0.352 -0.4741  0.1935  0.2911
20127SOL    HW161822   0.160   5.958   0.291 -0.9787 -0.4627  1.2534
20127SOL    HW261823   0.207   5.965   0.435  1.3580  0.4351  0.4969
20128SOL     OW61824   7.821   4.929  11.304 -0.2601  0.0542  0.2021
20128SOL    HW161825   7.855   4.941  11.393  0.1557  0.1897  0.0294
20128SOL    HW261826   7.860   5.002  11.254  0.1071 -0.4531 -0.2587
20129SOL     OW61827   6.037   4.417   0.539  0.8353  0.1161  0.3471
20129SOL    HW161828   6.009   4.340   0.488  1.4499  0.1692 -0.0797
20129SOL    HW261829   5.975   4.485   0.513 -1.7956 -0.9721  3.0981
20130SOL     OW61830   5.488   3.983   1.607 -0.1447 -0.2423 -0.0063
20130SOL    HW161831   5.541   3.926   1.662  0.3575 -1.7312 -1.9045
20130SOL    HW261832   5.449   4.046   1.667  0.1653 -1.9110  2.0435
20131SOL     OW61833   7.065   3.466   2.254  0.4259  0.4490  0.1937
20131SOL    HW161834   7.124   3.406   2.299  1.0150  0.7422 -0.1804
20131SOL    HW261835   7.087   3.552   2.289  1.4073  0.7807 -1.1651
20132SOL     OW61836   7.471   4.194   0.433 -0.5553  0.2757 -0.5905
20132SOL    HW161837   7.415   4.266   0.462  1.0580  0.8357  1.3819
20132SOL    HW261838   7.506   4.224   0.349 -2.2545  0.4023 -1.2917
20133SOL     OW61839   7.173   5.353   0.601  0.1575 -0.3266  0.0678
20133SOL    HW161840   7.214   5.411   0.665 -0.0099  0.1240 -0.2253
20133SOL    HW261841   7.166   5.269   0.645  3.4725 -1.0893 -0.6059
20134SOL     OW61842   5.590   5.390   0.458 -0.6244 -0.2817 -0.3390
20134SOL    HW161843   5.576   5.333   0.534  0.3847  1.6907  1.4302
20134SOL    HW261844   5.512   5.445   0.456  0.6351  1.6956  1.2334
20135SOL     OW61845   1.296   7.834   0.715  0.5747 -0.0226  0.5458
20135SOL    HW161846   1.263   7.858   0.802  0.7280  0.0714  0.5799
20135SOL    HW261847   1.239   7.763   0.686  0.9371 -0.5184  1.0201
20136SOL     OW61848   6.133   5.850   1.312 -0.3426  0.1274  0.8799
20136SOL    HW161849   6.187   5.770   1.317 -0.1844  0.1893  0.2798
20136SOL    HW261850   6.187   5.911   1.262 -0.8877  0.2619  0.4499
20137SOL     OW61851   7.301   3.381  11.993 -0.5737  0.1173  0.6700
20137SOL    HW161852   7.394   3.372  12.013 -0.3389 -1.1775 -0.8188
20137SOL    HW261853   7.299   3.442  11.919 -0.5605 -2.1493 -1.3353
20138SOL     OW61854   0.488   2.826   0.739  0.0494  0.4530  0.1921
20138SOL    HW161855   0.397   2.852   0.748 -0.9950 -1.9180 -2.1503
20138SOL    HW261856   0.487   2.731   0.747  1.9905  0.1712 -1.7022
20139SOL     OW61857   5.823   4.547   2.668 -0.4167 -0.2790 -0.5982
20139SOL    HW161858   5.812   4.559   2.762  1.7658  0.1664 -0.3520
20139SOL    HW261859   5.747   4.495   2.641 -1.6737  0.5283  1.1855
20140SOL     OW61860   6.818   5.707  12.496  0.4137 -0.0258 -0.4499
20140SOL    HW161861   6.867   5.753  12.428  0.2829  0.5377 -0.1690
20140SOL    HW261862   6.811   5.617  12.464  0.0334  0.3153 -1.3552
20141SOL     OW61863   7.328   5.860   0.837  0.3841 -0.1848 -0.1900
20141SOL    HW161864   7.304   5.935   0.891 -0.9505 -0.3402 -0.5366
20141SOL    HW261865   7.378   5.898   0.764  1.5785  0.1016  0.7352
20142SOL     OW61866   0.346   3.949   0.723  0.1653  0.2888 -0.2072
20142SOL    HW161867   0.252   3.936   0.707  0.0774 -0.4162  0.7325
20142SOL    HW261868   0.351   4.033   0.769 -0.2766 -0.6667  1.6966
20143SOL     OW61869   5.513   3.035   1.727 -0.2665 -0.3386 -0.4562
20143SOL    HW161870   5.477   3.082   1.802 -0.0443 -0.4955 -0.2494
20143SOL    HW261871   5.537   3.104   1.665  0.8202 -0.1039  0.1758
20144SOL     OW61872   6.416   5.771   2.165  0.0436 -0.3124 -0.0891
20144SOL    HW161873   6.470   5.764   2.087 -1.1774 -1.2987 -0.9009
20144SOL    HW261874   6.368   5.688   2.168  0.0422 -0.2970  1.7147
20145SOL     OW61875   6.251   4.093   1.352  0.1491 -0.0871 -0.0881
20145SOL    HW161876   6.311   4.146   1.405  2.8072 -2.2423 -0.7023
20145SOL    HW261877   6.232   4.146   1.276  0.2551  1.1393  0.7172
20146SOL     OW61878   6.323   4.621   1.298  0.3416 -0.1530 -0.4582
20146SOL    HW161879   6.321   4.527   1.317 -1.2492 -0.0767 -0.0970
20146SOL    HW261880   6.350   4.627   1.206  0.3609 -0.9690 -0.5124
20147SOL     OW61881   0.306   2.648   1.026 -0.0241 -0.0020 -0.2450
20147SOL    HW161882   0.212   2.666   1.034  0.0871  0.5213 -0.0696
20147SOL    HW261883   0.347   2.735   1.025  0.4662 -0.2300 -0.2168
20148SOL     OW61884   4.922   5.736   0.377  0.0249 -0.0076 -0.3703
20148SOL    HW161885   4.915   5.748   0.282  1.3376 -0.9317 -0.6101
20148SOL    HW261886   5.004   5.779   0.401 -0.3459  0.2985  0.3611
20149SOL     OW61887   5.268   4.690   0.614  0.0732  0.0974 -0.3783
20149SOL    HW161888   5.260   4.639   0.534 -1.5571  0.9705 -0.8079
20149SOL    HW261889   5.181   4.688   0.653  0.3816  1.2096  0.4192
20150SOL     OW61890   6.064   3.421   0.879  0.7317  0.3812  0.2867
20150SOL    HW161891   5.975   3.438   0.846  0.7854 -0.7665 -0.5287
20150SOL    HW261892   6.122   3.465   0.817  0.7814 -0.6442 -0.4343
20151SOL     OW61893   7.108   3.745   0.380 -0.3791 -0.0527  0.0628
20151SOL    HW161894   7.045   3.811   0.411  0.8589  1.2091 -0.0177
20151SOL    HW261895   7.132   3.697   0.459  0.8547  1.4980  0.6938
20152SOL     OW61896   7.324   4.890   1.230 -0.4011  0.3627 -0.2413
20152SOL    HW161897   7.278   4.968   1.200 -2.2274 -0.0763  1.2539
20152SOL    HW261898   7.306   4.823   1.164 -0.2488  0.7436 -0.6666
20153SOL     OW61899   0.437   3.940  12.372  0.0486  0.0739 -0.1715
20153SOL    HW161900   0.478   4.024  12.391  0.3818 -0.3192  0.9209
20153SOL    HW261901   0.511   3.880  12.361 -0.1891 -0.1067 -0.8241
20154SOL     OW61902   4.956   5.057   1.423 -0.0769 -0.5685  0.4340
20154SOL    HW161903   4.956   5.023   1.513  0.6592  0.6105  0.8947
20154SOL    HW261904   4.981   4.982   1.370 -1.4414 -1.5416  1.0957
20155SOL     OW61905   7.258   5.498   3.381 -0.0425  0.5422  0.3122
20155SOL    HW161906   7.291   5.410   3.400 -2.6044 -0.2053  1.7038
20155SOL    HW261907   7.225   5.493   3.292  0.2686  0.2408  0.2117
20156SOL     OW61908   6.533   3.004  12.492 -0.9877  0.6239  0.0213
20156SOL    HW161909   6.483   2.935  12.536 -2.5683  1.0380 -1.0221
20156SOL    HW261910   6.531   3.078  12.553 -1.1125  0.4253  0.2595
20157SOL     OW61911   6.891   4.454   2.274 -0.5611  0.5365  0.3299
20157SOL    HW161912   6.905   4.428   2.365 -1.7860 -0.0035  0.3831
20157SOL    HW261913   6.802   4.425   2.254 -1.2702  2.8613 -0.2536
20158SOL     OW61914   6.525   1.831   2.650 -0.9407 -0.6367  0.3366
20158SOL    HW161915   6.582   1.834   2.726 -1.0889 -0.2102  0.4305
20158SOL    HW261916   6.456   1.896   2.667 -0.0877  0.6474 -0.8606
20159SOL     OW61917   6.438   4.366   1.409  0.2131 -0.3549 -0.5907
20159SOL    HW161918   6.431   4.372   1.505 -0.8464  1.2434 -0.7237
20159SOL    HW261919   6.526   4.398   1.390 -0.5674  2.2284 -0.2805
20160SOL     OW61920   6.876   3.766   1.164 -0.3434 -0.0507 -0.2996
20160SOL    HW161921   6.965   3.741   1.141 -0.7117 -0.7487 -1.0261
20160SOL    HW261922   6.846   3.816   1.088 -0.4098  0.6129  0.1527
20161SOL     OW61923   6.939   2.518   0.315 -0.0457  0.0775  0.0150
20161SOL    HW161924   7.025   2.527   0.356 -0.1361  1.6601 -0.0749
20161SOL    HW261925   6.901   2.440   0.356  1.1735 -0.3011  0.4911
20162SOL     OW61926   5.441   6.048   1.581 -0.0786  0.3850 -0.2398
20162SOL    HW161927   5.445   5.975   1.519  3.2469 -0.1589  0.4285
20162SOL    HW261928   5.478   6.122   1.534  0.1584  0.6299  0.3274
20163SOL     OW61929   7.179   1.940   1.923  0.6137  0.3615 -0.0365
20163SOL    HW161930   7.148   1.895   2.002 -1.6519  0.7747 -0.6233
20163SOL    HW261931   7.167   2.033   1.943 -1.7300  0.4343 -1.4587
20164SOL     OW61932   7.200   5.503   3.091  0.2702 -0.3157  0.1030
20164SOL    HW161933   7.138   5.550   3.036  1.7966  3.0037  0.9244
20164SOL    HW261934   7.153   5.425   3.120 -1.5614 -0.7517 -3.5026
20165SOL     OW61935   6.734   3.080  12.323 -0.2350 -0.2837  0.1432
20165SOL    HW161936   6.773   2.999  12.289  0.7844 -0.2034  1.0726
20165SOL    HW261937   6.669   3.051  12.386  0.4206 -0.3837  0.7810
20166SOL     OW61938   5.514   4.513   1.088  0.2767  0.0471  0.2511
20166SOL    HW161939   5.437   4.553   1.047  0.6697  0.0304 -0.5193
20166SOL    HW261940   5.532   4.436   1.034  0.0455 -0.7083  1.2137
20167SOL     OW61941   6.682   5.420   0.943  0.2926 -0.9813  0.1403
20167SOL    HW161942   6.760   5.413   0.997  1.4420 -0.7848 -1.4062
20167SOL    HW261943   6.627   5.485   0.987  1.5870 -0.1650  0.6084
20168SOL     OW61944   4.682   5.529   2.738 -0.1379 -0.5875 -0.5916
20168SOL    HW161945   4.758   5.572   2.699 -0.8940  0.0368 -1.4414
20168SOL    HW261946   4.608   5.563   2.688 -0.8852 -1.9538 -0.4502
20169SOL     OW61947   4.522   5.698  12.065 -0.3904  0.2630  0.1536
20169SOL    HW161948   4.553   5.615  12.101  0.3227  0.4747  0.0426
20169SOL    HW261949   4.532   5.761  12.137 -2.7417 -0.1013  0.8916
20170SOL     OW61950   5.602   3.769   0.504 -0.1190 -0.2098 -0.3075
20170SOL    HW161951   5.596   3.852   0.551 -1.3373 -0.3795 -0.1307
20170SOL    HW261952   5.673   3.722   0.547  0.7766  0.8337 -0.5840
20171SOL     OW61953   7.044   2.651   1.149  0.3245  0.0313 -0.2814
20171SOL    HW161954   7.111   2.634   1.082 -0.6450  0.9920 -1.5669
20171SOL    HW261955   6.969   2.598   1.121 -0.1806  0.6529 -0.1341
20172SOL     OW61956   6.936   3.551   0.774  0.1523  0.2909 -0.2303
20172SOL    HW161957   6.954   3.644   0.760 -1.6149  0.7840  0.5319
20172SOL    HW261958   6.866   3.530   0.713 -0.9707  0.0316  1.1118
20173SOL     OW61959   7.138   5.383   0.066  0.4135 -0.1978 -0.6033
20173SOL    HW161960   7.223   5.353   0.100 -0.3794 -1.0406  0.7131
20173SOL    HW261961   7.140   5.478   0.081  0.3842 -0.4506  1.2287
20174SOL     OW61962   6.314   4.494   0.373 -0.1943  0.4421  0.8002
20174SOL    HW161963   6.346   4.564   0.430 -2.3036  0.5350  2.0034
20174SOL    HW261964   6.251   4.446   0.427 -0.9584 -0.5879 -0.9067
20175SOL     OW61965   0.376   2.379   1.461 -0.0942 -0.2521 -0.2919
20175SOL    HW161966   0.295   2.415   1.426 -0.3596 -0.0025  0.5638
20175SOL    HW261967   0.416   2.452   1.508  0.9457 -0.1908 -1.2322
20176SOL     OW61968   5.704   4.781   1.451  0.4687  0.0648  0.2389
20176SOL    HW161969   5.648   4.722   1.400  0.3767  1.5243 -1.4241
20176SOL    HW261970   5.739   4.843   1.386  0.9643  1.5293  1.8411
20177SOL     OW61971   6.097   2.547   1.595  0.4329  0.5223 -0.6221
20177SOL    HW161972   6.016   2.586   1.561  0.4112  1.1948  0.1857
20177SOL    HW261973   6.095   2.565   1.689  1.5111  0.5183 -0.5913
20178SOL     OW61974   5.170   5.972   1.131  0.0492  0.3015 -0.6010
20178SOL    HW161975   5.265   5.959   1.123 -0.0712 -2.9398  1.4378
20178SOL    HW261976   5.158   6.003   1.221 -0.9063 -3.7995  0.9389
20179SOL     OW61977   4.282   7.463   1.189 -0.2058 -0.0350 -0.3084
20179SOL    HW161978   4.225   7.532   1.224 -0.4902 -0.3013 -0.2430
20179SOL    HW261979   4.244   7.441   1.104  0.9293  1.1517 -1.1526
20180SOL     OW61980   7.034   5.953   2.189 -0.3639 -0.1199 -0.6225
20180SOL    HW161981   7.068   5.890   2.125 -1.6913 -0.6352 -0.8433
20180SOL    HW261982   6.987   5.900   2.253 -0.6754  0.5596 -0.2756
20181SOL     OW61983   5.547   4.737   0.695 -0.2877  0.6747  0.2284
20181SOL    HW161984   5.558   4.764   0.786  1.0666  0.1850  0.2330
20181SOL    HW261985   5.456   4.707   0.690 -0.2169  0.1564  1.5605
20182SOL     OW61986   3.900   5.939   2.038 -0.0247  0.3946  0.0222
20182SOL    HW161987   3.931   5.855   2.003 -1.1971 -0.3236  0.6366
20182SOL    HW261988   3.977   5.977   2.081  1.7258  1.7074 -3.8408
20183SOL     OW61989   7.451   1.119   0.961 -0.2997 -1.2539  0.2361
20183SOL    HW161990   7.544   1.133   0.939  0.0673 -4.1067 -0.4164
20183SOL    HW261991   7.453   1.071   1.044 -1.2627 -0.5213  0.7027
20184SOL     OW61992   6.631   4.739   1.269 -0.3706 -0.0278 -0.1512
20184SOL    HW161993   6.606   4.783   1.351 -1.0481  1.3514 -1.0544
20184SOL    HW261994   6.548   4.712   1.229 -0.1928  0.8964 -1.2059
20185SOL     OW61995   6.374   2.629   1.427  0.4650  0.0157  0.0234
20185SOL    HW161996   6.298   2.622   1.485  0.6262  1.2697  0.4086
20185SOL    HW261997   6.381   2.723   1.408  1.1966 -0.2294 -0.9835
20186SOL     OW61998   5.861   4.947   0.424 -0.2297  0.0235  0.2986
20186SOL    HW161999   5.829   4.992   0.503 -0.9321 -0.7953  0.4963
20186SOL    HW262000   5.792   4.884   0.403  0.2002 -0.1462 -0.6617
20187SOL     OW62001   5.385   6.400   1.115  0.4179  0.2982  0.3466
20187SOL    HW162002   5.303   6.444   1.096  0.8059  0.0370 -2.3638
20187SOL    HW262003   5.449   6.471   1.124  0.4247  0.4193 -0.5951
20188SOL     OW62004   6.534   3.702   0.713  0.0215  0.2065  0.5149
20188SOL    HW162005   6.496   3.789   0.706  1.9112  1.0903  0.5695
20188SOL    HW262006   6.489   3.661   0.787 -0.3030  1.4573  1.0324
20189SOL     OW62007   4.815   5.639   1.342 -0.2221  0.3598  0.4383
20189SOL    HW162008   4.830   5.673   1.254  1.5763 -1.4732 -0.0381
20189SOL    HW262009   4.753   5.700   1.382  0.4479  2.3332 -1.4030
20190SOL     OW62010   6.047   5.330   1.293 -0.0874  0.2938  0.0976
20190SOL    HW162011   6.034   5.424   1.277 -0.5069  0.1666 -0.3422
20190SOL    HW262012   6.092   5.299   1.215  1.4105  0.4019  0.8822
20191SOL     OW62013   7.110   5.108   0.671 -0.1289  0.4875 -0.0905
20191SOL    HW162014   7.175   5.044   0.701 -0.4733  0.3171  0.2982
20191SOL    HW262015   7.094   5.084   0.580  1.7038  1.6440 -0.7767
20192SOL     OW62016   7.267   5.406   0.913 -0.0699  0.1868 -0.2978
20192SOL    HW162017   7.232   5.402   1.002 -1.8683 -2.3575 -1.0105
20192SOL    HW262018   7.317   5.325   0.903  1.3204  1.1121 -1.1704
20193SOL     OW62019   7.186   5.824   0.530  0.4432 -0.6073  0.1163
20193SOL    HW162020   7.219   5.913   0.516  0.9152 -0.7999  0.0001
20193SOL    HW262021   7.229   5.772   0.462 -0.5041 -0.7667 -0.3786
20194SOL     OW62022   4.950   5.691   1.613 -0.2669 -0.0958 -0.0175
20194SOL    HW162023   4.869   5.716   1.658 -0.0250  1.0865 -0.1899
20194SOL    HW262024   4.998   5.774   1.603  1.2168 -0.8475  0.5644
20195SOL     OW62025   6.664   4.485   3.501 -0.4574  0.0336 -0.2125
20195SOL    HW162026   6.665   4.392   3.481 -1.8652  0.1120 -0.7898
20195SOL    HW262027   6.665   4.488   3.597  1.5643 -0.4835 -0.1782
20196SOL     OW62028   7.332   2.881  11.160  0.4952  0.2544  0.3041
20196SOL    HW162029   7.260   2.944  11.150 -0.9151 -1.1151  1.4573
20196SOL    HW262030   7.299   2.815  11.220  1.8132 -1.8022 -1.1053
20197SOL     OW62031   6.778   1.958   0.376  0.4274  0.9011  0.1467
20197SOL    HW162032   6.846   1.891   0.388 -0.0962  0.2456 -0.4630
20197SOL    HW262033   6.754   1.985   0.465  0.6869  0.3209  0.3960
20198SOL     OW62034   6.280   5.332   3.508  0.0473  0.5117  0.4678
20198SOL    HW162035   6.204   5.277   3.489 -0.6763  1.5466  0.2857
20198SOL    HW262036   6.353   5.288   3.464 -0.4457 -0.4557  0.5864
20199SOL     OW62037   6.335   3.552   0.952  0.0001 -0.3146  0.5650
20199SOL    HW162038   6.311   3.533   0.861 -0.2407 -2.3281  1.0061
20199SOL    HW262039   6.278   3.496   1.004  1.3673 -0.5342  1.8816
20200SOL     OW62040   5.070   4.462   1.071  0.2870 -0.3619  0.1304
20200SOL    HW162041   4.984   4.469   1.030  0.9014  0.0423 -1.1223
20200SOL    HW262042   5.080   4.369   1.090 -0.8518 -0.2841  1.2856
20201SOL     OW62043   6.671   4.537  11.907 -0.1473  0.3889  0.4700
20201SOL    HW162044   6.588   4.579  11.883  0.4062  1.4991  0.4576
20201SOL    HW262045   6.645   4.453  11.944 -1.2494  0.4864 -0.0421
20202SOL     OW62046   5.784   6.295   1.628  0.0108  0.0796  0.0734
20202SOL    HW162047   5.789   6.283   1.723 -3.7811  0.7593  0.5011
20202SOL    HW262048   5.823   6.215   1.592  2.2881  0.1664  2.0921
20203SOL     OW62049   0.875   4.544   0.326  0.0035  0.4651 -0.4125
20203SOL    HW162050   0.961   4.539   0.368 -0.3702  0.6478  0.3822
20203SOL    HW262051   0.894   4.531   0.233  0.8066 -0.2573 -0.1657
20204SOL     OW62052   6.216   1.787  11.478 -0.7618 -0.4505 -0.7576
20204SOL    HW162053   6.288   1.727  11.460 -0.4692  0.3760 -2.6121
20204SOL    HW262054   6.141   1.749  11.433 -0.3052  1.0524 -2.9961
20205SOL     OW62055   5.766   5.480   1.109 -0.3188 -0.0267  0.1628
20205SOL    HW162056   5.814   5.543   1.055  0.0620 -0.4966 -0.0521
20205SOL    HW262057   5.832   5.443   1.168 -0.4707 -0.4732  0.0558
20206SOL     OW62058   6.694   4.639   1.607 -0.4830  0.1374 -0.2165
20206SOL    HW162059   6.783   4.626   1.638 -0.2399 -2.1194 -1.6124
20206SOL    HW262060   6.667   4.553   1.574 -2.5435  1.1586 -1.4317
20207SOL     OW62061   0.227   3.064   0.110 -0.2374  0.2921  0.4425
20207SOL    HW162062   0.263   3.018   0.186  0.9576  0.5714  0.0691
20207SOL    HW262063   0.219   2.996   0.043 -1.6052 -0.0223  0.9017
20208SOL     OW62064   6.743   3.946   0.966 -0.0443  0.1170  0.2878
20208SOL    HW162065   6.671   3.914   1.021  0.3162 -0.9946  0.1353
20208SOL    HW262066   6.768   4.029   1.005 -1.4395  0.5394  0.3213
20209SOL     OW62067   0.242   3.775   2.230 -0.2741  0.0195  0.0397
20209SOL    HW162068   0.265   3.838   2.298 -0.2050 -0.4562  0.4713
20209SOL    HW262069   0.290   3.696   2.255 -0.2339 -0.1539 -0.5776
20210SOL     OW62070   7.685   3.141   0.151  0.5152 -0.5619 -0.4152
20210SOL    HW162071   7.682   3.166   0.244  0.2042 -1.0730 -0.2837
20210SOL    HW262072   7.774   3.107   0.139  1.6002  2.1935 -1.0374
20211SOL     OW62073   7.392   4.287   2.121  0.0039 -0.3658 -0.3487
20211SOL    HW162074   7.461   4.323   2.065 -0.2923  1.4753  0.4232
20211SOL    HW262075   7.437   4.262   2.202 -0.1781  0.6195  0.0662
20212SOL     OW62076   0.354   5.298   2.223 -0.2666  0.3938  0.1634
20212SOL    HW162077   0.413   5.240   2.272  0.2170 -0.1634 -1.0353
20212SOL    HW262078   0.402   5.380   2.215  0.0924  0.1507 -0.2464
20213SOL     OW62079   6.564   2.371   1.143 -0.5127  0.0446 -0.0589
20213SOL    HW162080   6.559   2.312   1.067 -0.3683 -0.0154 -0.0217
20213SOL    HW262081   6.534   2.317   1.217 -0.2180 -0.0344  0.0043
20214SOL     OW62082   7.687   5.433   0.636  0.3531  0.3119 -0.5862
20214SOL    HW162083   7.673   5.437   0.541 -0.0100 -0.0719 -0.5507
20214SOL    HW262084   7.600   5.424   0.673  0.3667  1.9503 -0.1118
20215SOL     OW62085   6.281   4.286   0.668 -0.0113  0.1218  0.1816
20215SOL    HW162086   6.266   4.192   0.662  1.3326 -0.0966 -0.0784
20215SOL    HW262087   6.366   4.300   0.627 -0.3236  1.5018 -0.0765
20216SOL     OW62088   5.404   3.377   0.942  0.2428  0.2479 -0.8416
20216SOL    HW162089   5.425   3.401   0.852  1.8131  1.4655 -0.1972
20216SOL    HW262090   5.410   3.459   0.991 -1.3997 -0.2410  0.2566
20217SOL     OW62091   7.587   4.822   1.178 -0.2769 -0.0323  0.5598
20217SOL    HW162092   7.497   4.844   1.203 -0.4977 -0.7702  0.4356
20217SOL    HW262093   7.581   4.798   1.085 -0.2909 -1.9235  1.0209
20218SOL     OW62094   5.977   3.474   0.272  0.0802 -0.5513 -0.2856
20218SOL    HW162095   5.962   3.507   0.183  0.1270  0.6418  0.1234
20218SOL    HW262096   5.958   3.381   0.267 -1.9092 -0.1532 -1.0960
20219SOL     OW62097   6.142   4.272  12.224 -0.0406  0.2168 -0.0791
20219SOL    HW162098   6.142   4.259  12.130 -0.0223 -0.8868  0.0629
20219SOL    HW262099   6.227   4.239  12.253  0.2556  1.2320  0.2430
20220SOL     OW62100   4.831   3.074   1.776 -0.2947 -0.8845 -0.1945
20220SOL    HW162101   4.766   3.034   1.833 -2.6949  0.2556 -1.9368
20220SOL    HW262102   4.821   3.168   1.790  0.7608 -0.6725 -0.7497
20221SOL     OW62103   7.675   6.055  11.593 -0.0640 -0.0765 -0.3995
20221SOL    HW162104   7.767   6.079  11.585 -0.5918  1.6071 -2.3575
20221SOL    HW262105   7.647   6.093  11.676  0.8664 -0.1333 -0.0494
20222SOL     OW62106   5.704   3.523   2.233  0.1175  0.0274 -0.5789
20222SOL    HW162107   5.796   3.496   2.224  0.3082  0.4861 -0.0395
20222SOL    HW262108   5.707   3.618   2.237 -0.3511  0.0279 -0.1913
20223SOL     OW62109   6.653   5.441   1.344 -0.0002  0.0383 -0.1017
20223SOL    HW162110   6.572   5.398   1.317 -0.0562  0.9696 -1.5074
20223SOL    HW262111   6.717   5.416   1.277  0.6671 -0.0057  0.5369
20224SOL     OW62112   4.920   5.329   1.458 -0.3587  0.5538  0.0400
20224SOL    HW162113   4.825   5.342   1.464 -0.2213  2.4002 -1.0430
20224SOL    HW262114   4.929   5.236   1.434 -1.9643  0.5997 -0.9541
20225SOL     OW62115   2.054   4.574   0.751  0.4353 -0.3482  0.2754
20225SOL    HW162116   1.988   4.622   0.800  0.8945  0.0503  0.5157
20225SOL    HW262117   2.053   4.614   0.664  1.5834  0.8768  0.7897
20226SOL     OW62118   6.311   3.438   1.504 -0.1759  0.0481  0.2024
20226SOL    HW162119   6.383   3.402   1.453  0.5162  0.9796  0.4975
20226SOL    HW262120   6.277   3.510   1.450  0.5198  0.9972  0.9943
20227SOL     OW62121   6.713   2.494   1.872  0.6421  0.3245 -0.3512
20227SOL    HW162122   6.769   2.558   1.915 -1.1828  1.5196  0.3856
20227SOL    HW262123   6.702   2.528   1.783  0.0631  0.8203 -0.1021
20228SOL     OW62124   6.861   3.512   3.363 -0.3522  0.0072 -0.5822
20228SOL    HW162125   6.795   3.541   3.300  0.4011 -2.7371 -2.8566
20228SOL    HW262126   6.931   3.476   3.309  2.2902  1.2218  1.7920
20229SOL     OW62127   7.356   2.919   2.132 -0.2721  0.0195  0.5039
20229SOL    HW162128   7.361   2.940   2.225 -1.0466 -3.5019  1.4686
20229SOL    HW262129   7.446   2.893   2.109  0.0468  1.4220  0.0511
20230SOL     OW62130   6.877   5.783   0.877  0.5242 -0.2197 -0.2548
20230SOL    HW162131   6.942   5.717   0.853  1.5939  0.5880  0.3164
20230SOL    HW262132   6.896   5.804   0.968 -0.5875 -0.0006 -0.0522
20231SOL     OW62133   6.097   4.269   1.698 -0.2223 -0.0425 -0.6784
20231SOL    HW162134   6.022   4.274   1.638  0.4178 -0.3209 -1.5236
20231SOL    HW262135   6.072   4.324   1.772 -0.7052  0.9627 -1.5647
20232SOL     OW62136   7.126   5.656   0.720  1.0194 -0.2774  0.3126
20232SOL    HW162137   7.155   5.732   0.669 -1.1342 -1.0289 -2.3094
20232SOL    HW262138   7.079   5.602   0.656 -0.8882 -1.8996  2.9143
20233SOL     OW62139   7.906   3.928  11.720 -0.3698  0.0742  0.2011
20233SOL    HW162140   7.958   3.983  11.662 -0.8272  0.7515  0.4213
20233SOL    HW262141   7.815   3.953  11.703 -0.7080 -1.7246 -0.8093
20234SOL     OW62142   7.139   6.320   2.012  0.2393  0.1954 -0.0792
20234SOL    HW162143   7.091   6.394   2.049  0.0456  0.4154 -0.7577
20234SOL    HW262144   7.185   6.356   1.936 -0.5241 -0.5368 -0.9146
20235SOL     OW62145   6.055   5.521   2.158  0.2632 -0.9523 -0.1477
20235SOL    HW162146   6.013   5.577   2.223  0.3291 -0.4971 -0.4938
20235SOL    HW262147   6.016   5.547   2.074 -0.0189 -1.7199 -0.2606
20236SOL     OW62148   6.763   4.461  12.292 -0.1021  0.1450  0.6495
20236SOL    HW162149   6.859   4.461  12.295  0.0300  3.0242 -0.5240
20236SOL    HW262150   6.737   4.514  12.368 -0.6704  0.5271  0.1967
20237SOL     OW62151   5.193   5.495   1.585  0.0232  0.6677 -0.1064
20237SOL    HW162152   5.244   5.539   1.653  1.8151 -0.7497 -0.4401
20237SOL    HW262153   5.237   5.411   1.574  0.6252  1.2825 -3.8431
20238SOL     OW62154   0.519   2.605   2.862  0.0652  0.1436  0.9410
20238SOL    HW162155   0.528   2.581   2.954  0.0603  1.0010  1.1698
20238SOL    HW262156   0.434   2.568   2.837 -0.2358  0.4668  1.4633
20239SOL     OW62157   0.219   3.170   0.526 -0.9395  0.8880  0.4956
20239SOL    HW162158   0.225   3.154   0.432 -0.3433 -0.4068  0.7383
20239SOL    HW262159   0.225   3.266   0.534  0.8291  0.9205 -0.6744
20240SOL     OW62160   7.620   5.482   0.364  0.6323 -0.4977  0.1031
20240SOL    HW162161   7.678   5.550   0.329  0.6328 -0.1434  0.7889
20240SOL    HW262162   7.532   5.518   0.354  0.3138 -1.7524 -2.6040
20241SOL     OW62163   6.034   4.594   1.155 -0.0608  0.0161  0.4310
20241SOL    HW162164   6.054   4.675   1.202  0.2853 -0.3500  0.9283
20241SOL    HW262165   5.947   4.609   1.118  0.4096  0.9966 -0.3321
20242SOL     OW62166   7.248   6.380  11.528 -0.6055 -0.2472  0.8112
20242SOL    HW162167   7.174   6.346  11.579 -0.7012 -0.8752  0.2594
20242SOL    HW262168   7.250   6.327  11.449  0.1928  0.0296  0.6315
20243SOL     OW62169   0.405   3.213   1.566  0.4764 -0.2130  0.5760
20243SOL    HW162170   0.453   3.290   1.596 -0.4164  0.4839  0.2941
20243SOL    HW262171   0.442   3.193   1.480 -0.0526  0.6439  0.1226
20244SOL     OW62172   6.032   3.266   2.390 -0.1438  0.3523 -0.2322
20244SOL    HW162173   6.046   3.172   2.407 -0.4852  0.4381  0.6055
20244SOL    HW262174   5.943   3.282   2.420  0.8309  1.5175  2.3299
20245SOL     OW62175   6.438   4.893   0.431  0.3705 -0.4809 -0.0986
20245SOL    HW162176   6.463   4.942   0.352 -1.0987  0.1385 -0.2023
20245SOL    HW262177   6.343   4.895   0.432  0.3551 -0.1852  1.8761
20246SOL     OW62178   5.470   6.130   1.147  0.1608  0.3408  0.4765
20246SOL    HW162179   5.507   6.099   1.230 -0.4631 -2.1563 -0.1094
20246SOL    HW262180   5.470   6.226   1.156  1.4468  0.2111  2.7517
20247SOL     OW62181   5.490   3.110  11.010 -0.1520  0.4657 -0.4193
20247SOL    HW162182   5.470   3.187  10.957 -0.3627 -0.1965 -1.3276
20247SOL    HW262183   5.523   3.145  11.092 -1.6768  1.5395 -0.2266
20248SOL     OW62184   7.104   2.935   1.719  0.5147 -0.4946  0.4121
20248SOL    HW162185   7.117   3.030   1.721  0.3563 -0.4727  0.4473
20248SOL    HW262186   7.058   2.918   1.637 -0.9589 -0.3362  1.1779
20249SOL     OW62187   0.185   3.780   1.057  0.3016  0.0371 -0.1774
20249SOL    HW162188   0.198   3.874   1.070  0.5777  0.1548 -1.2404
20249SOL    HW262189   0.263   3.751   1.009 -0.1880 -0.5640 -0.6252
20250SOL     OW62190   5.029   4.387  11.557 -0.0114  0.1102  0.5987
20250SOL    HW162191   5.078   4.332  11.495 -0.3906  1.6246 -1.1208
20250SOL    HW262192   4.941   4.351  11.558 -0.2939  0.7261 -0.6298
20251SOL     OW62193   7.331   4.018  11.736  0.1808  0.7378  0.1239
20251SOL    HW162194   7.300   4.028  11.647  1.2693  0.0858 -0.3573
20251SOL    HW262195   7.267   4.063  11.790 -2.2348 -1.5015 -0.6795
20252SOL     OW62196   5.878   5.736   2.284  0.2201  0.8504 -0.4083
20252SOL    HW162197   5.800   5.735   2.228 -1.3791  0.4967  1.7069
20252SOL    HW262198   5.915   5.824   2.271 -0.5036  1.0239 -1.4584
20253SOL     OW62199   3.466   5.398   1.479 -0.2136 -0.6105  0.0933
20253SOL    HW162200   3.480   5.404   1.573 -0.4373 -0.5280  0.1223
20253SOL    HW262201   3.537   5.449   1.440  0.9398 -2.0998  0.1484
20254SOL     OW62202   4.273   4.747   3.160  0.1341 -0.3483  0.2414
20254SOL    HW162203   4.332   4.798   3.216 -1.8334  3.0131 -0.4718
20254SOL    HW262204   4.205   4.715   3.220  0.8127 -1.2799  0.5301
20255SOL     OW62205   7.684   4.603   2.849 -0.3386  0.1443  0.1135
20255SOL    HW162206   7.613   4.561   2.897 -0.8851  1.3387  0.3865
20255SOL    HW262207   7.640   4.646   2.775  0.0242  1.2142  0.4976
20256SOL     OW62208   6.461   5.138   2.256  0.0373 -0.4463  0.2821
20256SOL    HW162209   6.445   5.172   2.168  1.5326  1.4024  0.6684
20256SOL    HW262210   6.550   5.103   2.253  0.1418 -0.2656  1.0986
20257SOL     OW62211   6.957   3.363   1.426 -0.3067  0.1919  0.6193
20257SOL    HW162212   7.038   3.375   1.376 -0.3887 -1.1951  0.1266
20257SOL    HW262213   6.947   3.445   1.475  1.3990  0.3747  0.7075
20258SOL     OW62214   7.738   5.882   3.267 -0.0940 -0.0759  0.0542
20258SOL    HW162215   7.693   5.880   3.352 -0.7219  1.3631 -0.2159
20258SOL    HW262216   7.667   5.896   3.204  0.3869 -0.9882 -0.7180
20259SOL     OW62217   5.557   5.117   3.155 -0.4289  0.1259  0.3946
20259SOL    HW162218   5.610   5.184   3.199  0.7206  0.4658 -1.3951
20259SOL    HW262219   5.614   5.083   3.086 -1.9038 -0.8428 -0.4008
20260SOL     OW62220   5.944   4.434   1.900  0.1313  0.2647  0.1066
20260SOL    HW162221   5.996   4.514   1.901  0.6134 -0.0074 -1.1443
20260SOL    HW262222   5.966   4.389   1.982  0.7457  0.8493  0.2664
20261SOL     OW62223   7.520   5.603   3.381  0.4917 -0.1526 -0.0689
20261SOL    HW162224   7.426   5.582   3.382  0.6067 -0.9991 -2.1637
20261SOL    HW262225   7.546   5.589   3.290  2.1327  2.4553 -0.1119
20262SOL     OW62226   6.150   4.324   2.948 -0.3320 -0.2295  0.3091
20262SOL    HW162227   6.127   4.381   3.021 -0.5228  0.7612 -0.4959
20262SOL    HW262228   6.223   4.368   2.905 -0.4723 -0.5964 -0.3203
20263SOL     OW62229   0.610   6.380   4.391  0.3073  0.2875 -0.9047
20263SOL    HW162230   0.659   6.329   4.326  0.7780  0.3127 -0.5743
20263SOL    HW262231   0.664   6.376   4.470 -0.1756  0.4080 -0.5686
20264SOL     OW62232   6.022   3.095   1.324  0.6340  0.0588 -0.4789
20264SOL    HW162233   5.965   3.143   1.384  3.1698 -0.3669  2.5357
20264SOL    HW262234   6.043   3.158   1.255 -0.4345  1.4368  0.4035
20265SOL     OW62235   5.079   4.665   1.761 -0.8927 -0.3231  0.4478
20265SOL    HW162236   5.066   4.752   1.724  0.9960 -0.6369 -1.1478
20265SOL    HW262237   5.136   4.620   1.698 -2.8043 -3.1704  0.5428
20266SOL     OW62238   3.406   5.525   2.219  0.1539  0.1145  0.2411
20266SOL    HW162239   3.486   5.577   2.222 -1.4225  2.6212  2.0198
20266SOL    HW262240   3.412   5.467   2.295  0.5872 -0.2466 -0.0621
20267SOL     OW62241   4.452   5.554   2.366  0.7136 -0.0146  0.3414
20267SOL    HW162242   4.372   5.605   2.350 -0.1098 -1.2810  0.2896
20267SOL    HW262243   4.518   5.620   2.388 -0.5697  1.0098  1.3502
20268SOL     OW62244   5.437   4.912   3.010  0.4434  0.1935  0.7037
20268SOL    HW162245   5.466   4.969   2.939  0.6524  1.0494  1.4565
20268SOL    HW262246   5.469   4.955   3.089  0.8418 -1.1219  1.2798
20269SOL     OW62247   5.474   4.845   3.970 -0.0374 -0.0731  0.3768
20269SOL    HW162248   5.414   4.844   4.045  0.0274 -0.9327  0.4301
20269SOL    HW262249   5.561   4.854   4.008 -0.0051 -0.5017  0.4058
20270SOL     OW62250   6.533   6.664   3.581  0.0074  0.1199  0.4746
20270SOL    HW162251   6.579   6.619   3.651 -0.7287  2.1186  2.3502
20270SOL    HW262252   6.584   6.743   3.566 -0.9881  0.7337  0.2441
20271SOL     OW62253   5.492   4.623   2.971 -0.7047 -1.0427 -0.9234
20271SOL    HW162254   5.492   4.711   3.009  0.7549 -1.0572 -0.8295
20271SOL    HW262255   5.449   4.569   3.036  0.1839 -0.7427 -0.0584
20272SOL     OW62256   7.485   6.032   4.147  0.3340 -0.1557 -0.1451
20272SOL    HW162257   7.392   6.020   4.126  0.2460  1.9853 -1.2915
20272SOL    HW262258   7.488   6.033   4.242 -1.0828  1.2283 -0.0662
20273SOL     OW62259   6.514   4.855   1.507  1.0000 -0.6263  0.1854
20273SOL    HW162260   6.420   4.862   1.486  1.0547 -1.1049 -0.2301
20273SOL    HW262261   6.520   4.778   1.563  1.0242 -0.0562  0.9788
20274SOL     OW62262   0.805   6.987   2.827 -0.4190  0.1578 -0.6523
20274SOL    HW162263   0.791   7.063   2.884 -2.3355  0.8407 -1.9062
20274SOL    HW262264   0.824   7.025   2.741  2.9869 -0.8442 -0.4647
20275SOL     OW62265   5.371   5.177   1.293  0.2340 -0.1935  0.1927
20275SOL    HW162266   5.438   5.244   1.285  0.9971 -0.9959 -0.3639
20275SOL    HW262267   5.334   5.189   1.381  1.1626  0.2139  0.5366
20276SOL     OW62268   6.642   3.966   2.539 -0.0976 -0.5398 -0.4086
20276SOL    HW162269   6.664   3.876   2.514 -0.5033 -0.3935 -1.3329
20276SOL    HW262270   6.725   4.012   2.535  0.1388 -0.8942  0.2033
20277SOL     OW62271   0.312   4.094   2.512  0.3896  0.1573 -0.3852
20277SOL    HW162272   0.268   4.168   2.555 -0.5345 -1.0598  0.8508
20277SOL    HW262273   0.307   4.023   2.575  1.2878 -0.9700 -1.5297
20278SOL     OW62274   5.017   5.142   3.051 -0.1212  0.2283  0.3783
20278SOL    HW162275   5.042   5.114   3.140  0.6803 -0.0268  0.0833
20278SOL    HW262276   4.923   5.158   3.057 -0.0404  0.4342  1.3330
20279SOL     OW62277   5.882   5.695   2.794 -0.0714  0.2998 -0.1283
20279SOL    HW162278   5.825   5.660   2.862  0.3866  1.3937  0.8624
20279SOL    HW262279   5.864   5.789   2.793 -0.1233  0.3051 -1.5897
20280SOL     OW62280   6.636   3.797   3.349  0.0394  0.7885  0.4930
20280SOL    HW162281   6.708   3.834   3.399 -0.4756 -0.9039  2.6719
20280SOL    HW262282   6.559   3.848   3.376  0.1571  1.6023 -0.6612
20281SOL     OW62283   6.013   2.953   2.132 -0.2220  0.2042  0.1071
20281SOL    HW162284   6.072   3.016   2.090  1.7921 -2.5338 -1.5308
20281SOL    HW262285   5.976   2.903   2.059 -2.4305 -0.0167  1.2903
20282SOL     OW62286   5.635   2.418   4.627  0.6409  0.4719 -0.3708
20282SOL    HW162287   5.558   2.377   4.666  1.0027  0.2138  0.0886
20282SOL    HW262288   5.610   2.437   4.537  0.0589  0.3465 -0.2378
20283SOL     OW62289   6.839   6.146   1.830  0.5679 -0.4452 -0.2823
20283SOL    HW162290   6.806   6.114   1.914 -0.4186 -0.2830 -0.5913
20283SOL    HW262291   6.861   6.238   1.845  1.6798 -0.7621  0.1341
20284SOL     OW62292   0.232   5.904   1.943  0.2618 -0.2104 -0.0734
20284SOL    HW162293   0.320   5.872   1.963 -0.7143 -1.5185  2.5492
20284SOL    HW262294   0.235   5.998   1.964  0.8690 -0.3973  0.7289
20285SOL     OW62295   5.174   3.483   4.755 -0.2125  0.1156  0.5748
20285SOL    HW162296   5.234   3.522   4.818  0.3459  1.1072 -0.5332
20285SOL    HW262297   5.090   3.476   4.801  0.8706 -2.0369  2.4352
20286SOL     OW62298   6.759   4.781   1.889 -0.5778 -0.1095  0.1325
20286SOL    HW162299   6.758   4.812   1.799  1.1605 -2.4277 -0.8179
20286SOL    HW262300   6.713   4.697   1.886 -1.2378  0.1616  1.6096
20287SOL     OW62301   6.402   5.583   1.596 -0.2195 -0.1194  0.2599
20287SOL    HW162302   6.335   5.517   1.618 -0.9815  0.7316  0.5510
20287SOL    HW262303   6.381   5.607   1.506  1.5955 -2.0508 -0.7729
20288SOL     OW62304   6.658   4.376   2.212  0.1681 -0.6770 -0.1556
20288SOL    HW162305   6.575   4.422   2.223  1.1482  0.9598  0.8749
20288SOL    HW262306   6.637   4.284   2.225 -1.2143 -0.1333  1.8890
20289SOL     OW62307   7.120   5.486   2.670 -0.4061 -0.6861  0.1818
20289SOL    HW162308   7.066   5.558   2.637  0.0942 -1.1106 -1.6309
20289SOL    HW262309   7.062   5.410   2.669 -0.2086 -0.8330 -0.3546
20290SOL     OW62310   5.952   3.825   3.362 -0.3860  0.1702  0.2910
20290SOL    HW162311   5.869   3.862   3.332  0.0632  1.2709  0.3540
20290SOL    HW262312   6.013   3.843   3.290 -0.4791 -1.8448 -0.3643
20291SOL     OW62313   6.424   3.761   3.106  0.4686  0.7607 -0.4421
20291SOL    HW162314   6.403   3.750   3.198 -1.0787  1.5513 -0.6754
20291SOL    HW262315   6.453   3.852   3.098  2.6186  0.1461 -0.4196
20292SOL     OW62316   6.107   4.631   3.180  0.2244  0.3266 -0.6440
20292SOL    HW162317   6.110   4.641   3.275  0.1014 -2.1050 -0.3362
20292SOL    HW262318   6.027   4.581   3.163  2.3807 -3.1146 -1.5478
20293SOL     OW62319   6.119   2.205   4.060  0.7876 -0.2328 -0.5157
20293SOL    HW162320   6.101   2.147   3.986 -0.1151  0.6620 -1.0158
20293SOL    HW262321   6.140   2.289   4.021 -0.1534  0.3764  0.2254
20294SOL     OW62322   6.819   3.303   2.582  0.2726  0.4507 -0.3265
20294SOL    HW162323   6.826   3.344   2.496 -1.9836 -1.2259 -1.4114
20294SOL    HW262324   6.894   3.244   2.587  1.2363  1.6272 -0.4749
20295SOL     OW62325   6.094   4.689   1.639 -0.5963 -0.4126 -0.5804
20295SOL    HW162326   6.076   4.782   1.639 -0.3998 -0.3510 -2.1797
20295SOL    HW262327   6.099   4.665   1.732 -1.1870  1.0420 -0.1560
20296SOL     OW62328   5.272   5.509   3.401 -0.4891  0.4439  0.2382
20296SOL    HW162329   5.335   5.537   3.468 -1.0572 -0.7436  1.3053
20296SOL    HW262330   5.290   5.416   3.389 -1.0201  0.4446 -0.5840
20297SOL     OW62331   6.631   2.799   1.873 -0.6752  0.1718 -0.8335
20297SOL    HW162332   6.678   2.881   1.889 -0.0662 -0.2989 -0.1039
20297SOL    HW262333   6.621   2.796   1.778  0.3930  0.5156 -0.9796
20298SOL     OW62334   7.304   4.698   4.014  0.4625 -0.5804  0.3288
20298SOL    HW162335   7.225   4.746   3.990  1.2969  0.5056 -0.3105
20298SOL    HW262336   7.332   4.737   4.096 -0.7605 -2.3456  1.6792
20299SOL     OW62337   5.770   5.196   2.120 -0.0757 -0.4636 -0.6237
20299SOL    HW162338   5.842   5.150   2.164 -1.1592  0.8807  2.9439
20299SOL    HW262339   5.791   5.289   2.131 -2.3124 -0.0446  0.5954
20300SOL     OW62340   7.345   4.438   3.419  0.1200  1.4584 -0.4763
20300SOL    HW162341   7.435   4.431   3.452  0.0327  0.3977 -0.4187
20300SOL    HW262342   7.294   4.466   3.494 -0.0292 -0.6568  0.2695
20301SOL     OW62343   5.092   5.387   2.040 -0.1637 -0.1324 -0.4048
20301SOL    HW162344   5.060   5.422   1.957 -0.5344 -0.2635 -0.3180
20301SOL    HW262345   5.025   5.324   2.066  0.1787 -0.4288 -0.2374
20302SOL     OW62346   6.216   3.664   0.110  0.1885 -0.1540  0.2769
20302SOL    HW162347   6.137   3.717   0.118  1.3399  1.7114 -0.1671
20302SOL    HW262348   6.284   3.717   0.151  1.8031 -0.3222 -2.0261
20303SOL     OW62349   5.429   5.886   4.303 -0.1144  0.2286 -0.1895
20303SOL    HW162350   5.410   5.797   4.331  0.4444  0.5191  1.1787
20303SOL    HW262351   5.363   5.940   4.348 -1.1665  0.4215 -1.8802
20304SOL     OW62352   7.223   4.762   3.167 -0.1879  0.5327  0.4792
20304SOL    HW162353   7.255   4.833   3.111  0.4805  0.4888  0.7932
20304SOL    HW262354   7.303   4.720   3.200 -0.5188  1.5973  2.8079
20305SOL     OW62355   5.491   5.035   1.586 -0.4170  0.4545 -0.2526
20305SOL    HW162356   5.576   5.005   1.617 -0.2098 -2.6627 -3.1820
20305SOL    HW262357   5.429   5.007   1.654  0.5305 -0.9283  0.0868
20306SOL     OW62358   5.709   6.622   3.296 -0.3127 -0.3326  0.7169
20306SOL    HW162359   5.750   6.581   3.373  1.1571  0.0481  0.1699
20306SOL    HW262360   5.762   6.699   3.279  0.3267 -1.1824 -1.5471
20307SOL     OW62361   6.726   5.956   3.202 -0.3024 -0.6540  0.0280
20307SOL    HW162362   6.787   5.937   3.273 -0.4693 -0.0888  0.3258
20307SOL    HW262363   6.674   5.876   3.193 -0.6811 -0.5243  0.9481
20308SOL     OW62364   7.887   6.870   2.306 -0.8011 -0.1368 -0.7547
20308SOL    HW162365   7.904   6.950   2.257  1.3477 -0.6607 -0.9665
20308SOL    HW262366   7.877   6.802   2.239 -1.1427 -0.3001 -0.5402
20309SOL     OW62367   5.457   4.206   3.895 -0.2075  0.2160  0.4004
20309SOL    HW162368   5.550   4.210   3.871 -0.3169 -0.0428 -0.0977
20309SOL    HW262369   5.442   4.285   3.947  0.5156 -0.2357  1.3059
20310SOL     OW62370   7.476   5.800   1.163 -0.7343  0.0470 -0.0504
20310SOL    HW162371   7.444   5.890   1.156  1.3737  0.8405 -0.4283
20310SOL    HW262372   7.473   5.780   1.256 -3.5007 -0.4570 -0.1682
20311SOL     OW62373   4.998   5.511   3.966 -0.2504 -0.2248  0.0844
20311SOL    HW162374   4.953   5.588   4.002 -1.2208 -0.2377 -1.0626
20311SOL    HW262375   5.048   5.477   4.040 -0.6601  0.8734  0.9044
20312SOL     OW62376   5.135   6.125   2.118 -0.5441  0.7379 -0.0925
20312SOL    HW162377   5.060   6.167   2.159 -1.0608  1.2062 -1.4530
20312SOL    HW262378   5.100   6.087   2.037  0.7151  1.1832 -0.8734
20313SOL     OW62379   6.715   5.426   2.803 -0.2945 -0.7029  0.4734
20313SOL    HW162380   6.663   5.501   2.833 -0.0774 -0.0342 -0.7506
20313SOL    HW262381   6.711   5.364   2.875 -2.8158 -0.6916  0.4368
20314SOL     OW62382   5.268   3.846   3.602  0.2284  0.9942  1.0708
20314SOL    HW162383   5.293   3.927   3.646  1.0762  1.2831  0.1085
20314SOL    HW262384   5.265   3.870   3.509  1.7163 -0.3446  0.6334
20315SOL     OW62385   5.613   3.809   4.591  0.2798  0.3412 -0.0339
20315SOL    HW162386   5.668   3.861   4.649 -0.0974  1.2531 -0.4868
20315SOL    HW262387   5.634   3.840   4.504 -0.5331  0.2829 -0.2521
20316SOL     OW62388   6.303   3.155   2.928 -0.1189 -0.2750  0.1964
20316SOL    HW162389   6.346   3.195   2.853 -1.2334  1.0581  0.2067
20316SOL    HW262390   6.214   3.190   2.926 -0.4733 -1.0007  1.5577
20317SOL     OW62391   5.825   3.336   2.543 -0.8589  0.4526 -0.0672
20317SOL    HW162392   5.753   3.341   2.606 -0.5105  1.1279  0.2815
20317SOL    HW262393   5.904   3.346   2.595 -0.5336  0.2252 -0.5139
20318SOL     OW62394   6.814   4.464   2.844  0.0191 -0.6927  0.8668
20318SOL    HW162395   6.899   4.465   2.889 -0.0643 -1.6304  1.0741
20318SOL    HW262396   6.764   4.398   2.892 -0.7148 -0.3740  0.5383
20319SOL     OW62397   6.513   5.149   2.807 -0.0298  0.0729  0.2145
20319SOL    HW162398   6.451   5.116   2.741 -0.0157  1.0905 -0.3168
20319SOL    HW262399   6.578   5.079   2.814 -1.5447 -1.3118  1.2462
20320SOL     OW62400   6.984   4.291   2.523  0.0347  0.1051  0.4882
20320SOL    HW162401   6.941   4.208   2.500  0.2251 -0.0082  0.5400
20320SOL    HW262402   7.074   4.266   2.545 -0.3323  0.0891  2.1444
20321SOL     OW62403   5.703   3.935   3.288  0.1652 -0.5220 -0.2951
20321SOL    HW162404   5.633   3.972   3.342  0.1687  1.0100 -1.2760
20321SOL    HW262405   5.657   3.894   3.215  0.2481 -0.6417 -0.2802
20322SOL     OW62406   5.416   5.410   2.017  0.3011 -0.4038  0.1382
20322SOL    HW162407   5.361   5.447   2.087 -1.8162  0.0399 -1.6436
20322SOL    HW262408   5.450   5.328   2.054 -1.2965 -0.5294  1.4640
20323SOL     OW62409   6.132   4.057   3.356 -0.2740 -0.0961 -0.3438
20323SOL    HW162410   6.073   4.007   3.412 -0.9483  0.2692 -0.7228
20323SOL    HW262411   6.147   4.001   3.280  1.0606 -0.8184  0.4066
20324SOL     OW62412   6.174   4.639   1.904  0.2050  1.2512 -0.7186
20324SOL    HW162413   6.149   4.695   1.978  0.2214 -0.9967  1.1244
20324SOL    HW262414   6.260   4.605   1.928 -0.5253 -0.8785 -0.8648
20325SOL     OW62415   4.930   4.294   2.029  0.4938 -0.3609 -0.2827
20325SOL    HW162416   5.000   4.320   2.089  0.0347 -1.0547  0.5743
20325SOL    HW262417   4.852   4.291   2.084 -0.7014  2.4511 -1.6108
20326SOL     OW62418   7.246   5.767   3.191 -0.0286 -0.0612 -0.4323
20326SOL    HW162419   7.205   5.760   3.277 -1.2270 -0.1487 -0.9957
20326SOL    HW262420   7.250   5.677   3.159  0.6662 -0.0593 -0.3598
20327SOL     OW62421   5.782   5.483   5.025 -0.1764 -0.5492 -0.2040
20327SOL    HW162422   5.720   5.418   5.058 -1.9402  0.3705 -1.5005
20327SOL    HW262423   5.729   5.539   4.967  1.8749  0.3264 -1.3392
20328SOL     OW62424   7.636   5.769   0.764  0.1174  0.4344  0.6787
20328SOL    HW162425   7.599   5.745   0.849 -1.8559  0.5103 -0.1085
20328SOL    HW262426   7.580   5.840   0.732  0.3917 -0.0468 -0.9744
20329SOL     OW62427   6.807   4.359   1.573 -0.3511 -0.6062  0.7404
20329SOL    HW162428   6.745   4.309   1.625 -1.0371 -0.8752 -0.3105
20329SOL    HW262429   6.890   4.350   1.619 -1.0203 -0.5172  1.9859
20330SOL     OW62430   5.506   4.668   1.309 -0.4742  0.0498 -0.2616
20330SOL    HW162431   5.433   4.724   1.285 -0.8883 -0.7067 -0.8169
20330SOL    HW262432   5.516   4.608   1.235 -1.3380 -1.9210  1.1190
20331SOL     OW62433   6.057   3.883   3.112  0.0306 -0.0372 -0.3379
20331SOL    HW162434   6.046   3.952   3.046  2.4143 -0.1787 -0.9782
20331SOL    HW262435   6.039   3.802   3.065  2.5248 -0.2072 -1.1607
20332SOL     OW62436   4.398   3.746   2.776  0.0156  0.3915  0.3380
20332SOL    HW162437   4.431   3.743   2.686  0.3814 -2.0720  0.4816
20332SOL    HW262438   4.477   3.754   2.830 -0.0002 -0.3856  0.4920
20333SOL     OW62439   6.247   5.077   2.423  1.0170 -0.5319 -0.0125
20333SOL    HW162440   6.316   5.113   2.368  2.6030 -1.4074  1.3387
20333SOL    HW262441   6.193   5.153   2.446  1.8087  0.2555 -0.6650
20334SOL     OW62442   5.844   4.302   1.580  0.4018 -0.1034  0.0571
20334SOL    HW162443   5.784   4.236   1.546  1.2288 -1.7001  1.5251
20334SOL    HW262444   5.795   4.384   1.578 -1.1938 -1.0448 -0.4030
20335SOL     OW62445   7.708   4.932   3.624 -0.1835 -0.2929  0.5089
20335SOL    HW162446   7.770   4.867   3.591 -0.2701  0.1778 -0.6180
20335SOL    HW262447   7.648   4.882   3.680 -2.3054 -1.9359 -2.8745
20336SOL     OW62448   7.944   4.255   3.043  0.0001  0.2133  0.1311
20336SOL    HW162449   7.859   4.246   3.087  0.2642 -0.2395  0.5654
20336SOL    HW262450   8.004   4.285   3.112  0.0878  1.0342 -0.2943
20337SOL     OW62451   6.849   5.097   3.062  0.7115  0.2188 -0.0962
20337SOL    HW162452   6.797   5.038   3.007 -0.2562 -1.8876  2.7960
20337SOL    HW262453   6.806   5.182   3.055 -0.8582 -0.5849 -0.6940
20338SOL     OW62454   7.806   4.706   2.300  0.3971 -0.0282 -0.4438
20338SOL    HW162455   7.772   4.618   2.316 -0.4921 -0.1302 -2.6425
20338SOL    HW262456   7.893   4.692   2.262  0.8127  0.1028  0.4326
20339SOL     OW62457   0.648   3.848   1.175  0.2879 -0.4721 -0.0230
20339SOL    HW162458   0.718   3.783   1.170 -0.2124 -1.1895  1.6021
20339SOL    HW262459   0.581   3.807   1.230 -0.8438  0.7210 -0.4476
20340SOL     OW62460   6.007   3.861   2.645 -0.4150 -0.2987  0.1140
20340SOL    HW162461   5.984   3.780   2.600 -3.9786  1.1776 -1.0830
20340SOL    HW262462   5.937   3.875   2.708 -0.1858  2.0683 -0.0497
20341SOL     OW62463   6.987   6.029   2.942 -0.1964 -0.0480  0.2824
20341SOL    HW162464   6.948   6.092   2.881  0.8356 -2.1506 -2.7808
20341SOL    HW262465   6.917   5.968   2.962 -0.1222 -0.2762 -0.1425
20342SOL     OW62466   7.088   5.306   3.716  0.2311 -0.0280  0.1942
20342SOL    HW162467   7.046   5.343   3.794  0.0043 -1.2276  0.6523
20342SOL    HW262468   7.161   5.366   3.698 -0.9829  1.4468  0.0504
20343SOL     OW62469   6.937   4.730   3.022 -0.6195  0.1605 -0.3746
20343SOL    HW162470   6.998   4.661   3.047 -1.1639 -0.4934 -0.8294
20343SOL    HW262471   6.993   4.800   2.987  0.0055  0.3592  0.9592
20344SOL     OW62472   6.855   5.552   3.147  0.5709  0.5580  0.5495
20344SOL    HW162473   6.927   5.570   3.085 -0.2806 -0.0508 -0.6559
20344SOL    HW262474   6.896   5.557   3.233  2.1180 -0.0038 -0.1153
20345SOL     OW62475   6.045   4.309   2.122 -0.5700 -0.0194 -0.0507
20345SOL    HW162476   6.140   4.307   2.134 -0.7059 -0.3763  1.1085
20345SOL    HW262477   6.012   4.352   2.201 -1.4820 -1.4694  0.3898
20346SOL     OW62478   5.167   2.656   2.902 -0.0832 -0.1539 -0.5175
20346SOL    HW162479   5.125   2.687   2.822 -0.5438 -0.9015 -0.5781
20346SOL    HW262480   5.236   2.719   2.920  0.9240 -0.7103 -2.2537
20347SOL     OW62481   6.492   4.789   3.475 -0.7999 -0.1478  0.0732
20347SOL    HW162482   6.568   4.789   3.533 -0.9073 -2.8902  0.3555
20347SOL    HW262483   6.422   4.827   3.528 -0.3920 -0.6698  1.0132
20348SOL     OW62484   5.705   4.909   2.271  0.2694 -0.0765 -0.1607
20348SOL    HW162485   5.789   4.952   2.288 -0.0515  0.8529 -0.8223
20348SOL    HW262486   5.651   4.931   2.346  0.6813 -0.8756  0.3814
20349SOL     OW62487   5.438   3.398   2.941  0.3062  0.6136 -0.4007
20349SOL    HW162488   5.429   3.492   2.928 -1.8330  0.8524  1.8549
20349SOL    HW262489   5.367   3.360   2.889  0.3694  0.3809 -0.3161
20350SOL     OW62490   5.888   3.991   2.921  0.3947  0.3649  0.5033
20350SOL    HW162491   5.843   4.042   2.854  2.6913 -0.3877 -1.7434
20350SOL    HW262492   5.845   3.906   2.920 -0.1235  0.6179  0.6420
20351SOL     OW62493   6.301   3.803   4.535  0.0668 -0.3792  0.2045
20351SOL    HW162494   6.344   3.886   4.555  1.0125 -1.0239  0.9648
20351SOL    HW262495   6.213   3.813   4.569  0.5911 -0.1633  1.5652
20352SOL     OW62496   4.623   5.786   1.478  0.5545 -0.0712 -0.2591
20352SOL    HW162497   4.533   5.777   1.448  0.9757 -1.1088 -1.2962
20352SOL    HW262498   4.621   5.860   1.539 -0.9536  0.0208 -0.3833
20353SOL     OW62499   5.648   4.676   3.319 -0.2976 -0.0192 -0.6181
20353SOL    HW162500   5.678   4.587   3.304 -0.2107 -0.0135 -0.4807
20353SOL    HW262501   5.704   4.731   3.265  0.8587  0.1212  0.6788
20354SOL     OW62502   5.612   5.053   1.947  0.2911 -0.0334  0.1385
20354SOL    HW162503   5.678   5.117   1.975  0.0889 -0.2462  1.1289
20354SOL    HW262504   5.660   4.991   1.892  0.8396  0.0168  0.5590
20355SOL     OW62505   6.332   4.994   2.673 -0.6264  0.7703  0.2891
20355SOL    HW162506   6.379   4.911   2.664  0.0820  1.1673  0.2728
20355SOL    HW262507   6.319   5.025   2.583  0.7023  1.5455  0.3368
20356SOL     OW62508   5.820   4.080   1.760  0.4577  0.1007  0.1987
20356SOL    HW162509   5.862   4.100   1.844 -0.9474  1.2959  0.6577
20356SOL    HW262510   5.829   4.160   1.709 -2.2479  0.8922  0.7771
20357SOL     OW62511   7.431   5.927   3.402  0.3821  0.0522  0.0134
20357SOL    HW162512   7.472   5.847   3.434  0.3567  0.2632  0.5933
20357SOL    HW262513   7.439   5.989   3.475  1.3404  0.9177 -0.7901
20358SOL     OW62514   6.381   3.990   4.151 -0.2780  0.1836 -0.4549
20358SOL    HW162515   6.344   4.042   4.080 -0.7766  0.8846  0.3028
20358SOL    HW262516   6.442   4.049   4.195 -0.7309  0.0848  0.3150
20359SOL     OW62517   7.643   4.739   4.213  0.0163  0.3381  0.4033
20359SOL    HW162518   7.577   4.804   4.191 -0.1517  0.5278  1.4143
20359SOL    HW262519   7.694   4.779   4.283 -1.0237 -1.1570  2.0885
20360SOL     OW62520   5.897   2.934   5.617 -0.9660  0.1270  0.3782
20360SOL    HW162521   5.820   2.976   5.578 -0.9270  0.8355  1.0435
20360SOL    HW262522   5.972   2.982   5.582 -0.9553  1.0939  1.6916
20361SOL     OW62523   6.455   4.562   4.528 -0.4043 -0.3804 -0.3823
20361SOL    HW162524   6.392   4.491   4.515 -0.4831 -0.3808 -0.0099
20361SOL    HW262525   6.448   4.615   4.449 -2.5139  0.9016  0.5638
20362SOL     OW62526   6.655   5.145   2.509 -0.9323 -0.5273 -0.2122
20362SOL    HW162527   6.691   5.075   2.563  0.7767  0.2585 -0.2783
20362SOL    HW262528   6.686   5.127   2.421 -1.4084 -0.2803 -0.4361
20363SOL     OW62529   6.328   3.553   1.729 -0.0226 -0.2886  0.2886
20363SOL    HW162530   6.265   3.510   1.787 -1.0467  0.0084 -0.5748
20363SOL    HW262531   6.333   3.495   1.653  0.2698  0.0085  0.0808
20364SOL     OW62532   6.725   5.690   2.226  0.7651 -0.4380  0.2038
20364SOL    HW162533   6.774   5.752   2.280  1.1327 -0.3073 -0.2657
20364SOL    HW262534   6.681   5.632   2.288  0.3544  0.3398  0.6551
20365SOL     OW62535   5.030   4.958   2.693  0.4012  0.1975  0.3986
20365SOL    HW162536   5.063   5.035   2.740  0.5405  0.0403  0.5587
20365SOL    HW262537   5.047   4.885   2.752  1.8862 -0.2068 -0.4808
20366SOL     OW62538   5.692   5.213   3.567  0.0450 -0.1303  0.4009
20366SOL    HW162539   5.770   5.207   3.623  0.0519  0.5729  0.4842
20366SOL    HW262540   5.690   5.130   3.519  1.1464  0.0494  0.0097
20367SOL     OW62541   6.088   3.421   2.626 -0.1187  0.6175 -0.1451
20367SOL    HW162542   6.154   3.378   2.571  0.8841  1.2531  0.5191
20367SOL    HW262543   6.096   3.514   2.603 -1.7795  0.5653 -1.0692
20368SOL     OW62544   7.926   4.177   2.766  0.1805 -0.0702 -0.8547
20368SOL    HW162545   7.944   4.165   2.859 -0.4290 -1.7606 -0.9145
20368SOL    HW262546   7.891   4.265   2.759  2.9176  1.2104  0.0782
20369SOL     OW62547   6.822   5.484   3.928 -0.1830  0.5630 -0.2123
20369SOL    HW162548   6.859   5.547   3.990 -0.3863 -0.8912  1.4668
20369SOL    HW262549   6.734   5.516   3.911  0.1496  1.4072 -0.3708
20370SOL     OW62550   6.730   5.069   2.268  0.1247  0.2159 -0.2571
20370SOL    HW162551   6.742   5.098   2.178  0.2316  0.4759 -0.1587
20370SOL    HW262552   6.819   5.061   2.303  0.0635  0.8125  0.0455
20371SOL     OW62553   6.315   4.858   2.236 -0.5872 -1.4139  0.2260
20371SOL    HW162554   6.293   4.950   2.251 -2.0273 -1.3621 -1.7506
20371SOL    HW262555   6.394   4.862   2.182 -0.3096 -1.3540  0.6356
20372SOL     OW62556   7.090   6.548   3.716  0.8654  0.1296  0.3840
20372SOL    HW162557   7.165   6.528   3.660  1.8212  1.7966  0.9975
20372SOL    HW262558   7.127   6.596   3.790 -0.8593  1.6560  0.3490
20373SOL     OW62559   5.769   5.672   3.440 -0.2002  0.3003 -0.3105
20373SOL    HW162560   5.726   5.650   3.357  2.4789 -1.1744 -1.4012
20373SOL    HW262561   5.823   5.748   3.420  0.5958 -0.1695  0.0302
20374SOL     OW62562   6.782   4.698   3.885  0.9229  0.5520 -0.3404
20374SOL    HW162563   6.718   4.640   3.926  0.0901  0.5496 -1.5948
20374SOL    HW262564   6.781   4.777   3.941  1.7515 -0.4245  1.1206
20375SOL     OW62565   7.279   3.406   0.926  0.1372 -0.1486  0.0396
20375SOL    HW162566   7.323   3.368   1.002  0.3590  0.3556  0.1624
20375SOL    HW262567   7.187   3.381   0.937  0.3237 -0.9105 -0.0418
20376SOL     OW62568   6.957   2.617   1.953 -0.2862 -0.4295  0.0588
20376SOL    HW162569   6.970   2.615   2.048 -3.2221  0.0155  0.5767
20376SOL    HW262570   7.024   2.677   1.921  1.2341 -1.1407  1.7254
20377SOL     OW62571   6.419   4.168   2.425 -0.3664 -0.3859  1.2114
20377SOL    HW162572   6.461   4.206   2.502  1.3185 -1.9356  1.1366
20377SOL    HW262573   6.492   4.133   2.373 -1.6948 -2.6586  0.7611
20378SOL     OW62574   6.865   5.013   4.410 -0.5015 -1.1547 -0.0897
20378SOL    HW162575   6.959   5.016   4.390 -0.2258 -1.4938  1.1167
20378SOL    HW262576   6.824   4.982   4.329  0.4776 -1.5104 -0.4594
20379SOL     OW62577   7.373   4.803   3.762 -0.5164 -0.7486  0.0931
20379SOL    HW162578   7.387   4.756   3.845 -2.2211 -0.6997  0.4498
20379SOL    HW262579   7.365   4.895   3.787 -1.3405 -0.7688 -0.0891
20380SOL     OW62580   6.273   3.364   5.407  0.3352 -0.0395  0.4445
20380SOL    HW162581   6.275   3.268   5.418  3.5032 -0.2210 -0.5654
20380SOL    HW262582   6.307   3.398   5.490  0.7771  0.0876  0.2148
20381SOL     OW62583   5.200   4.418   2.238 -0.1612 -0.3952 -0.5207
20381SOL    HW162584   5.216   4.485   2.172  0.0907  1.0019  0.9327
20381SOL    HW262585   5.132   4.455   2.294 -0.2893 -1.5166  0.0967
20382SOL     OW62586   4.940   4.877   2.393 -0.5944 -0.0752  0.1183
20382SOL    HW162587   4.896   4.901   2.474 -1.6822 -0.0064 -0.4810
20382SOL    HW262588   4.877   4.896   2.324  0.2558 -0.2778 -0.7436
20383SOL     OW62589   5.758   4.438   2.358  0.4987 -0.0777 -0.3230
20383SOL    HW162590   5.733   4.349   2.334  2.3581 -1.0366  1.0322
20383SOL    HW262591   5.684   4.470   2.410  0.1249 -1.1313 -0.1868
20384SOL     OW62592   5.978   4.871   5.127 -0.2571 -0.0841  0.1675
20384SOL    HW162593   6.069   4.852   5.106 -0.0493  1.2808 -0.2639
20384SOL    HW262594   5.977   4.889   5.221  0.5186  2.8821 -0.3021
20385SOL     OW62595   6.002   4.519   2.311  0.1918  0.1591 -0.9327
20385SOL    HW162596   6.073   4.465   2.345  0.1618 -0.4191 -1.7658
20385SOL    HW262597   5.922   4.473   2.336  0.1578 -0.0371 -1.3969
20386SOL     OW62598   7.054   4.369   3.299  0.1802 -0.4287  0.5685
20386SOL    HW162599   6.984   4.425   3.332 -1.7419 -2.9080  1.0231
20386SOL    HW262600   7.119   4.368   3.369  1.1398  2.4901 -0.1591
20387SOL     OW62601   3.730   5.699   3.386 -0.0898 -0.4314 -0.0999
20387SOL    HW162602   3.714   5.653   3.468  0.1543 -3.9494 -1.8130
20387SOL    HW262603   3.650   5.684   3.335  0.6897 -0.4432 -1.3583
20388SOL     OW62604   5.285   4.826   1.560 -0.2966 -0.3270 -0.3300
20388SOL    HW162605   5.333   4.847   1.640 -0.6868  0.5918 -0.3281
20388SOL    HW262606   5.339   4.861   1.489 -0.7086  0.2337 -0.3640
20389SOL     OW62607   6.997   5.005   2.341  0.1062  0.7184  0.3073
20389SOL    HW162608   7.036   4.997   2.254 -0.2649  1.5875  0.0482
20389SOL    HW262609   7.006   4.918   2.380  0.0648  0.2555 -0.6924
20390SOL     OW62610   4.845   6.301   2.162  0.3301 -0.2933 -0.1769
20390SOL    HW162611   4.798   6.384   2.167 -0.6115 -0.8351  0.3127
20390SOL    HW262612   4.894   6.306   2.080  0.5133  0.8554 -0.0126
20391SOL     OW62613   0.048   4.391   4.162  0.6173 -0.4298 -0.0500
20391SOL    HW162614   0.099   4.461   4.122 -0.6410 -0.8500 -2.5940
20391SOL    HW262615  -0.009   4.436   4.224  1.4246  0.4860  0.0576
20392SOL     OW62616   7.729   5.641   4.409  0.5127 -0.0291 -0.5511
20392SOL    HW162617   7.658   5.579   4.424  0.2748  0.4467  0.3834
20392SOL    HW262618   7.699   5.722   4.450  1.3812  0.3185 -0.5805
20393SOL     OW62619   4.978   5.972   1.523 -0.5531 -0.2496  0.2040
20393SOL    HW162620   4.913   5.973   1.453 -0.9125  0.2599  0.5351
20393SOL    HW262621   4.932   6.006   1.599  0.2198  0.5313  0.3397
20394SOL     OW62622   4.516   4.638   1.768 -0.3655  0.1607  0.1826
20394SOL    HW162623   4.533   4.571   1.702 -0.1023  0.7577 -0.3677
20394SOL    HW262624   4.500   4.589   1.849 -3.7505 -0.7982 -0.8895
20395SOL     OW62625   5.720   4.626   2.170 -0.1204 -0.1833  0.0689
20395SOL    HW162626   5.748   4.703   2.219  1.7878 -0.6484 -0.1927
20395SOL    HW262627   5.750   4.552   2.222  1.6786 -0.6958 -1.5465
20396SOL     OW62628   5.799   3.786   2.222  0.3688 -0.0028 -0.1220
20396SOL    HW162629   5.874   3.821   2.174  0.8060 -0.3724  0.2771
20396SOL    HW262630   5.823   3.797   2.314  0.2313 -0.7321  0.0097
20397SOL     OW62631   0.212   6.844   1.702 -0.6062 -0.2219  0.4290
20397SOL    HW162632   0.231   6.938   1.713 -0.4003 -0.0469 -1.2422
20397SOL    HW262633   0.136   6.829   1.758 -0.7324  0.9743  0.6048
20398SOL     OW62634   6.997   4.861   2.044 -0.1126 -0.0995  0.4154
20398SOL    HW162635   7.016   4.954   2.032 -0.9058  0.1588  1.0898
20398SOL    HW262636   6.909   4.849   2.009  0.4488 -0.8808 -0.8381
20399SOL     OW62637   5.019   4.682   3.300 -0.0884 -0.3945  0.0809
20399SOL    HW162638   4.936   4.696   3.345 -0.4048 -0.3099 -0.5169
20399SOL    HW262639   5.036   4.764   3.254 -0.6187 -1.0266 -1.2962
20400SOL     OW62640   5.721   7.717   4.539  0.2437  0.8630 -0.4892
20400SOL    HW162641   5.742   7.637   4.587 -2.8109 -1.9159 -3.2314
20400SOL    HW262642   5.799   7.734   4.486  1.1218 -0.0410  0.4618
20401SOL     OW62643   0.466   5.494   2.900 -0.1382 -0.2825  0.1341
20401SOL    HW162644   0.441   5.424   2.839  1.0216 -2.1669  1.6820
20401SOL    HW262645   0.419   5.473   2.981  0.6104  0.4456  0.7668
20402SOL     OW62646   6.439   4.015   2.068  0.0705  0.1701  0.3204
20402SOL    HW162647   6.427   3.936   2.015 -0.0706  0.0499  0.5294
20402SOL    HW262648   6.525   4.049   2.041 -0.3743  0.5855 -0.6011
20403SOL     OW62649   4.257   7.098   3.474 -0.4014 -0.6231 -0.2798
20403SOL    HW162650   4.241   7.039   3.400  0.6010  0.2365 -1.2078
20403SOL    HW262651   4.171   7.111   3.513 -1.0148 -0.7834 -1.5302
20404SOL     OW62652   7.314   5.228   1.514  0.6117  0.0642 -0.3673
20404SOL    HW162653   7.375   5.171   1.467 -1.2945 -0.8662 -1.8612
20404SOL    HW262654   7.263   5.270   1.446 -0.6296  0.5689  0.8275
20405SOL     OW62655   6.571   5.971   2.305 -0.1771 -0.0404 -0.5737
20405SOL    HW162656   6.530   5.897   2.260 -1.0018  1.1389 -1.8322
20405SOL    HW262657   6.501   6.010   2.356  0.2178 -0.0209 -0.0367
20406SOL     OW62658   4.796   4.870   1.030  0.2596 -0.3387 -0.2882
20406SOL    HW162659   4.785   4.949   0.977  0.0911 -0.8970 -1.0985
20406SOL    HW262660   4.855   4.815   0.979 -0.6725 -1.2956 -0.3604
20407SOL     OW62661   0.410   6.941   4.467 -0.1372  0.4730 -0.0009
20407SOL    HW162662   0.417   6.968   4.375  1.9019  1.1730  0.3216
20407SOL    HW262663   0.451   7.012   4.516  2.1475 -1.4980  1.1686
20408SOL     OW62664   0.678   3.187   2.822  0.2015  0.1862  0.0319
20408SOL    HW162665   0.725   3.104   2.810 -0.0340 -0.0965  0.9761
20408SOL    HW262666   0.641   3.181   2.910  0.4703  1.4470  0.2414
20409SOL     OW62667   5.205   5.512   3.071 -0.2491  0.2722 -0.4829
20409SOL    HW162668   5.261   5.435   3.060 -0.6689  0.1191 -1.7203
20409SOL    HW262669   5.265   5.584   3.090  0.2240 -0.1929 -0.2262
20410SOL     OW62670   6.244   5.493   0.635  0.3501  0.5897 -0.1488
20410SOL    HW162671   6.176   5.547   0.674 -0.2826 -0.7165  0.6472
20410SOL    HW262672   6.224   5.492   0.541  0.1428  1.3954 -0.1123
20411SOL     OW62673   6.402   4.662   1.057 -0.9010  0.9905 -0.2608
20411SOL    HW162674   6.373   4.587   1.005  1.3128 -0.0344 -0.1428
20411SOL    HW262675   6.377   4.738   1.004 -0.7165  0.0634 -1.7581
20412SOL     OW62676   6.538   4.884   2.069  0.2407  0.2813  0.0930
20412SOL    HW162677   6.618   4.924   2.104  0.9252 -0.2370 -0.8286
20412SOL    HW262678   6.569   4.810   2.017 -0.9043 -0.4330  0.3998
20413SOL     OW62679   7.673   7.293   3.738  0.3145 -0.5484  0.0911
20413SOL    HW162680   7.688   7.383   3.709 -1.1495  0.0381  0.9922
20413SOL    HW262681   7.729   7.284   3.815 -1.2278  0.4427  1.4003
20414SOL     OW62682   7.012   6.145   3.814  0.4579 -0.5727  0.3994
20414SOL    HW162683   6.996   6.207   3.885  0.2429 -0.0927 -0.0634
20414SOL    HW262684   6.939   6.084   3.818  1.0855 -1.2993  1.3712
20415SOL     OW62685   0.476   4.969   3.422  0.2116 -0.1043 -0.2636
20415SOL    HW162686   0.547   5.029   3.401 -0.7111  1.1339 -0.0049
20415SOL    HW262687   0.429   5.012   3.493 -1.5089 -0.2846 -1.2320
20416SOL     OW62688   7.104   5.089   2.586  0.0513  0.1630  0.1044
20416SOL    HW162689   7.030   5.143   2.615  0.3597  0.3041  0.6400
20416SOL    HW262690   7.078   5.059   2.499 -0.6743  0.1462  0.3151
20417SOL     OW62691   6.394   4.549   2.498 -0.1239  0.2047  0.0003
20417SOL    HW162692   6.433   4.471   2.539  1.2772  0.8809  0.0146
20417SOL    HW262693   6.302   4.547   2.525 -0.3305 -1.8825 -0.6809
20418SOL     OW62694   7.327   5.338   2.032  0.3588 -0.1770 -0.0739
20418SOL    HW162695   7.340   5.360   1.939 -0.6350  0.7905 -0.0056
20418SOL    HW262696   7.250   5.281   2.033 -0.2142  0.5861  0.2280
20419SOL     OW62697   7.404   4.826   2.440 -0.1096  0.8071 -0.1167
20419SOL    HW162698   7.417   4.902   2.383 -2.9956  0.9340 -0.7757
20419SOL    HW262699   7.363   4.761   2.384  1.0253 -0.7600  0.7976
20420SOL     OW62700   5.299   7.217   0.812 -0.0331  0.1085  0.3973
20420SOL    HW162701   5.264   7.189   0.728 -0.3662  2.0355 -0.1714
20420SOL    HW262702   5.365   7.284   0.790  1.3230 -0.7585  1.6019
20421SOL     OW62703   6.254   4.149   5.069  0.6473 -0.6450  0.7778
20421SOL    HW162704   6.336   4.183   5.104  0.7034  0.5982 -0.4419
20421SOL    HW262705   6.209   4.227   5.036  0.0364 -1.5673 -0.6651
20422SOL     OW62706   7.469   5.598   4.122 -0.2637  0.0007 -0.2463
20422SOL    HW162707   7.468   5.625   4.213  1.0422  0.4427 -0.3514
20422SOL    HW262708   7.380   5.618   4.091 -1.4712 -2.2580  1.4847
20423SOL     OW62709   6.403   4.338   1.678 -0.2881 -0.3859 -0.2699
20423SOL    HW162710   6.313   4.306   1.674 -0.8406  0.9253  0.7340
20423SOL    HW262711   6.408   4.386   1.761  1.9212 -2.0720  0.6699
20424SOL     OW62712   7.448   4.594   3.227 -0.1845 -0.0417 -0.3179
20424SOL    HW162713   7.447   4.535   3.152 -0.8035  0.9387 -1.1168
20424SOL    HW262714   7.399   4.548   3.295  1.6108 -1.5543  0.0007
20425SOL     OW62715   6.400   5.199   3.201 -0.0521  0.1719 -0.0533
20425SOL    HW162716   6.459   5.266   3.168  0.7049 -0.2183  0.4634
20425SOL    HW262717   6.401   5.131   3.133 -1.7802  1.1974 -1.1508
20426SOL     OW62718   5.229   4.561   1.498  0.2616 -0.2960 -0.1662
20426SOL    HW162719   5.231   4.657   1.495  0.5533 -0.2195  1.5283
20426SOL    HW262720   5.174   4.536   1.424 -3.2421  1.3668  1.6290
20427SOL     OW62721   5.874   3.780   3.890 -0.4901  0.1668 -0.1330
20427SOL    HW162722   5.874   3.855   3.830 -1.0777  1.3978  1.3541
20427SOL    HW262723   5.786   3.780   3.929  0.4294  0.5428  2.0773
20428SOL     OW62724   7.339   5.376   1.719  0.4017  0.1835  0.1284
20428SOL    HW162725   7.317   5.307   1.657 -0.8439  1.4326 -0.8788
20428SOL    HW262726   7.412   5.423   1.679 -0.4041  0.9915 -0.4279
20429SOL     OW62727   7.880   3.279   4.555 -0.3850  0.5031 -0.3857
20429SOL    HW162728   7.838   3.364   4.567  0.9624  1.3367 -1.3812
20429SOL    HW262729   7.862   3.256   4.464  0.4214  0.3808 -0.5207
20430SOL     OW62730   6.069   5.251   2.502  0.7433  0.5597 -0.1186
20430SOL    HW162731   6.078   5.312   2.574  1.0097  1.4602 -0.9008
20430SOL    HW262732   5.979   5.218   2.509  0.6844  0.8382  0.4578
20431SOL     OW62733   0.076   5.495   2.921  0.2082  0.1352  0.4938
20431SOL    HW162734   0.046   5.467   2.834 -2.2495 -0.1989  1.3576
20431SOL    HW262735   0.069   5.590   2.920  0.0815  0.1247  0.3384
20432SOL     OW62736   7.835   5.729   3.676 -0.1584 -0.7389 -0.3141
20432SOL    HW162737   7.873   5.661   3.730  0.3781  0.1747  0.4979
20432SOL    HW262738   7.850   5.700   3.586 -0.1706 -1.7921  0.0138
20433SOL     OW62739   7.015   4.176   2.875  0.3837 -0.1163  0.1449
20433SOL    HW162740   6.930   4.149   2.841 -0.2355 -1.1967  2.3527
20433SOL    HW262741   7.028   4.122   2.954  1.4548  2.4644  1.8884
20434SOL     OW62742   5.407   3.664   2.868  0.2578 -0.2945  0.1089
20434SOL    HW162743   5.371   3.657   2.780 -0.5094  0.1265  0.3765
20434SOL    HW262744   5.497   3.692   2.855 -0.5079  2.1197 -0.5086
20435SOL     OW62745   6.941   3.545   5.121  0.5100 -0.1075 -0.3285
20435SOL    HW162746   6.976   3.626   5.158  0.2695  0.4057 -1.2026
20435SOL    HW262747   6.934   3.563   5.027 -1.6591 -0.3521 -0.2496
20436SOL     OW62748   6.821   5.614   2.638 -0.2267  0.1258  0.2952
20436SOL    HW162749   6.776   5.546   2.688 -2.4727 -0.5675 -2.4518
20436SOL    HW262750   6.789   5.696   2.676 -1.5335 -0.3787  0.3463
20437SOL     OW62751   7.074   5.505   0.402  0.8694  0.3129 -0.1459
20437SOL    HW162752   7.088   5.442   0.473 -0.8283 -2.1390 -1.8421
20437SOL    HW262753   7.160   5.517   0.363  1.3303 -0.4389  0.6114
20438SOL     OW62754   5.241   6.251   1.750  0.4396  0.0284 -0.0487
20438SOL    HW162755   5.316   6.295   1.708  1.2798 -0.0216  1.3462
20438SOL    HW262756   5.253   6.268   1.843  0.0678 -2.0730  0.4162
20439SOL     OW62757   6.299   3.416   3.099  0.0699  0.2703 -0.0412
20439SOL    HW162758   6.228   3.353   3.107  0.8985 -0.7131 -0.1486
20439SOL    HW262759   6.320   3.417   3.005  1.2483 -0.6804  0.1857
20440SOL     OW62760   6.196   3.426   1.937 -0.1708  0.1000 -0.0429
20440SOL    HW162761   6.143   3.456   2.010 -0.1937 -0.5862  0.2309
20440SOL    HW262762   6.277   3.395   1.978 -0.3262 -0.6195 -0.2617
20441SOL     OW62763   6.903   6.892   2.086 -0.2125 -0.4441  0.0769
20441SOL    HW162764   6.847   6.877   2.010  0.2413  0.1985 -0.3905
20441SOL    HW262765   6.991   6.874   2.055  0.0932  0.8365  0.1437
20442SOL     OW62766   4.904   5.772   2.957 -0.3524 -0.1051  0.5021
20442SOL    HW162767   4.920   5.866   2.950 -1.6553  0.0134 -2.1433
20442SOL    HW262768   4.969   5.732   2.899 -1.5379 -0.5594 -0.5735
20443SOL     OW62769   4.616   5.960   3.234 -0.1025  0.0994  0.2118
20443SOL    HW162770   4.605   5.976   3.328 -0.1718  0.1992  0.1863
20443SOL    HW262771   4.629   6.047   3.196 -0.7882  0.1311  0.0311
20444SOL     OW62772   7.988   6.495   3.699 -0.3946 -0.2063 -0.4471
20444SOL    HW162773   7.948   6.419   3.656  2.3782 -0.8972 -2.0745
20444SOL    HW262774   7.998   6.559   3.629  0.1642  0.4305  0.2078
20445SOL     OW62775   5.195   3.637   2.116  0.3007  0.3255  0.2894
20445SOL    HW162776   5.233   3.617   2.202  3.6720  1.4675 -0.7548
20445SOL    HW262777   5.271   3.650   2.059 -1.7823  1.1561 -2.5355
20446SOL     OW62778   7.011   4.753   1.456  0.1520  0.4378  0.1261
20446SOL    HW162779   6.959   4.725   1.382 -0.4076  1.5223  0.0911
20446SOL    HW262780   7.069   4.679   1.475 -0.9225 -0.5152 -0.2604
20447SOL     OW62781   4.663   5.288   2.872  0.1421 -0.4927  0.1851
20447SOL    HW162782   4.732   5.318   2.931 -1.6502 -0.4249  2.3972
20447SOL    HW262783   4.645   5.364   2.816  2.3103 -0.7606 -0.9752
20448SOL     OW62784   3.380   6.754   1.810  0.2394 -0.4142  0.1853
20448SOL    HW162785   3.379   6.823   1.876 -1.1793  0.1913 -0.4123
20448SOL    HW262786   3.299   6.767   1.761  1.9766  0.2382 -2.7908
20449SOL     OW62787   6.433   4.435   3.191  0.1399 -0.0095 -0.4864
20449SOL    HW162788   6.362   4.371   3.202  0.0516 -0.0897 -1.4564
20449SOL    HW262789   6.498   4.389   3.137  1.2932 -0.2074  0.9975
20450SOL     OW62790   7.540   4.185   2.323 -0.2301 -0.2986 -0.0717
20450SOL    HW162791   7.621   4.183   2.375  1.1029  0.5418 -1.9980
20450SOL    HW262792   7.481   4.126   2.369  1.1969 -0.3446  1.8436
20451SOL     OW62793   5.707   4.266   2.931  0.3364  0.4933 -0.0197
20451SOL    HW162794   5.725   4.357   2.953 -0.8225  0.4879  1.0057
20451SOL    HW262795   5.752   4.216   2.999  0.1448  0.3385 -0.0065
20452SOL     OW62796   6.733   4.888   2.591 -0.1992 -0.3811  0.1594
20452SOL    HW162797   6.644   4.857   2.605 -0.3884 -0.2887 -0.7643
20452SOL    HW262798   6.770   4.827   2.526  1.3828 -2.1571  2.5630
20453SOL     OW62799   7.214   3.156   2.145  0.1690  0.2642  0.4101
20453SOL    HW162800   7.150   3.086   2.152  1.2604 -0.8168 -0.0200
20453SOL    HW262801   7.254   3.144   2.059  0.4062  1.4037  0.3371
20454SOL     OW62802   7.321   4.618   2.795 -0.0818 -0.6297  0.2665
20454SOL    HW162803   7.324   4.564   2.874  1.0994  0.9357  1.3719
20454SOL    HW262804   7.231   4.650   2.791  0.2873  0.7976  2.1159
20455SOL     OW62805   0.264   4.076   2.253 -0.5374  0.5817 -0.1456
20455SOL    HW162806   0.170   4.093   2.260 -0.7706 -0.8165  0.5229
20455SOL    HW262807   0.296   4.081   2.344 -0.0141  0.7976 -0.3388
20456SOL     OW62808   5.337   4.058   1.100  0.2779  0.2465 -0.9238
20456SOL    HW162809   5.342   3.999   1.176  0.9620  2.3280  0.7575
20456SOL    HW262810   5.420   4.105   1.100 -0.9148  2.5315 -0.9909
20457SOL     OW62811   6.023   5.271   2.240 -0.0147  0.2888 -0.3181
20457SOL    HW162812   6.064   5.330   2.177 -2.1649  2.0375 -0.2082
20457SOL    HW262813   6.052   5.305   2.325  1.5215 -1.0333 -0.2563
20458SOL     OW62814   5.293   5.974   2.895  1.0351  0.4297  0.0072
20458SOL    HW162815   5.320   6.066   2.902  1.1055  0.6276 -2.1663
20458SOL    HW262816   5.298   5.955   2.802 -1.4452 -1.0430  0.0898
20459SOL     OW62817   4.922   3.933   5.859  0.0121 -0.3849  0.5759
20459SOL    HW162818   4.898   3.966   5.772 -1.6236 -1.4399  0.5830
20459SOL    HW262819   4.891   3.842   5.860  0.0675 -0.4223  2.2196
20460SOL     OW62820   6.071   3.841   5.738  0.4436  0.5794 -0.1617
20460SOL    HW162821   6.048   3.804   5.653  2.7025 -0.2043 -0.5086
20460SOL    HW262822   6.086   3.934   5.721  1.8831  0.2447 -0.8944
20461SOL     OW62823   5.367   5.131   5.805 -0.1382  0.5623  0.1058
20461SOL    HW162824   5.403   5.118   5.893 -0.3365  1.0251  0.2572
20461SOL    HW262825   5.280   5.090   5.807 -0.1225  0.5296  0.1100
20462SOL     OW62826   6.304   5.115   1.678  0.3236  0.3512  0.3070
20462SOL    HW162827   6.285   5.208   1.685 -0.6128  0.2677 -0.7623
20462SOL    HW262828   6.400   5.110   1.682  0.5229  1.5854 -1.6457
20463SOL     OW62829   6.898   2.974   4.505  0.6608 -0.0017  0.3887
20463SOL    HW162830   6.935   2.891   4.476  0.0989  0.0150 -0.4210
20463SOL    HW262831   6.840   2.951   4.578  1.9369 -0.0688  1.4268
20464SOL     OW62832   7.094   3.404   3.265 -0.3635 -0.2517  0.6810
20464SOL    HW162833   7.099   3.329   3.325  1.5236 -0.6781  0.0612
20464SOL    HW262834   7.175   3.452   3.281 -0.6726  0.6070 -0.2859
20465SOL     OW62835   7.543   5.116   4.235 -0.4897  0.5097 -0.1670
20465SOL    HW162836   7.604   5.077   4.172 -0.5287 -1.5407  0.9834
20465SOL    HW262837   7.483   5.167   4.181  2.0588  2.5007 -1.3701
20466SOL     OW62838   0.379   3.439   4.850 -0.1696 -0.1780 -0.5833
20466SOL    HW162839   0.293   3.408   4.820  0.0381 -1.1816 -0.2050
20466SOL    HW262840   0.438   3.366   4.833  0.5211  0.3258 -0.4039
20467SOL     OW62841   6.659   2.912   6.090 -0.0420  0.0486 -0.0562
20467SOL    HW162842   6.726   2.945   6.029  2.3266  0.1455  2.3843
20467SOL    HW262843   6.619   2.992   6.126  0.5708  0.0969  0.5428
20468SOL     OW62844   5.906   5.854   7.153 -0.2271  0.0270 -0.3007
20468SOL    HW162845   6.000   5.840   7.164  0.0331  1.1016 -1.0560
20468SOL    HW262846   5.866   5.793   7.216  0.8807 -2.2661 -1.6660
20469SOL     OW62847   6.751   6.167   3.975 -0.3822  0.4751  0.0907
20469SOL    HW162848   6.782   6.078   3.960 -0.4701  0.6130 -0.9984
20469SOL    HW262849   6.686   6.159   4.045 -0.6828 -0.3674 -0.2757
20470SOL     OW62850   6.673   5.109   6.379 -0.2978  0.0269  0.4598
20470SOL    HW162851   6.750   5.092   6.433 -1.0809  0.5167  1.7668
20470SOL    HW262852   6.699   5.080   6.292  0.2879 -2.8455  1.4665
20471SOL     OW62853   5.306   4.653   5.457 -0.0959  0.2916  0.2120
20471SOL    HW162854   5.375   4.714   5.481 -0.8387  1.5776 -0.8123
20471SOL    HW262855   5.264   4.692   5.381 -1.9469 -0.4526  0.7778
20472SOL     OW62856   7.103   5.288   3.228  0.1764 -0.3483  0.3791
20472SOL    HW162857   7.060   5.216   3.183 -0.7757  0.3545  0.1352
20472SOL    HW262858   7.082   5.275   3.320  1.9709 -1.6809  0.6589
20473SOL     OW62859   4.683   7.684   4.756 -0.5366  0.2304  0.1175
20473SOL    HW162860   4.601   7.699   4.803 -0.1060  0.5832  0.7711
20473SOL    HW262861   4.711   7.772   4.728 -0.9513 -0.0051 -1.0977
20474SOL     OW62862   7.047   3.831   4.969 -0.3825 -0.0659  0.0274
20474SOL    HW162863   7.129   3.871   4.942  0.1090 -1.2384 -0.2866
20474SOL    HW262864   7.046   3.746   4.925 -2.1923  0.2940 -0.7026
20475SOL     OW62865   6.433   4.591   5.034  0.1899  0.4473  0.4992
20475SOL    HW162866   6.473   4.542   5.105  0.5651 -0.6956 -0.4568
20475SOL    HW262867   6.380   4.526   4.988  2.8288  0.1097 -2.4492
20476SOL     OW62868   6.216   4.864   3.587  0.1639  0.9418 -0.1403
20476SOL    HW162869   6.176   4.919   3.655 -0.3276  1.5577 -0.9042
20476SOL    HW262870   6.229   4.924   3.513 -1.2044 -0.1257 -1.3188
20477SOL     OW62871   6.344   5.017   5.271  0.1190 -0.0557 -0.1770
20477SOL    HW162872   6.402   5.093   5.260 -0.6721  0.4605 -0.9321
20477SOL    HW262873   6.264   5.054   5.309  0.3565 -0.8013  1.0960
20478SOL     OW62874   6.239   3.634   3.940  0.0239  0.4994  0.6218
20478SOL    HW162875   6.180   3.708   3.952 -0.1501  0.5698 -0.5008
20478SOL    HW262876   6.183   3.566   3.901  0.4361  0.1857  0.5690
20479SOL     OW62877   7.963   4.659   7.020 -0.1513  0.3100 -0.0948
20479SOL    HW162878   8.011   4.722   7.073 -0.8911  1.2640 -0.5245
20479SOL    HW262879   7.928   4.597   7.083 -4.0340  3.3581  1.1552
20480SOL     OW62880   6.507   5.417   5.560  0.0181  0.9566 -0.6649
20480SOL    HW162881   6.499   5.457   5.474  2.2535 -0.6458 -1.6941
20480SOL    HW262882   6.598   5.390   5.566 -0.8800 -2.1909  0.7313
20481SOL     OW62883   7.004   5.242   3.474  0.4955  0.2109  0.1019
20481SOL    HW162884   7.008   5.256   3.569 -0.7470  0.3954  0.1453
20481SOL    HW262885   6.984   5.148   3.465  1.2161  0.0629  0.0011
20482SOL     OW62886   5.494   5.368   3.655 -0.1359 -0.4125 -0.0209
20482SOL    HW162887   5.579   5.330   3.632  0.5979  0.8987  0.3978
20482SOL    HW262888   5.500   5.459   3.625 -0.2356  0.5519  2.6377
20483SOL     OW62889   0.385   4.270   3.659  0.2469  0.5614 -0.0266
20483SOL    HW162890   0.415   4.305   3.743  0.0357  0.3582  0.1366
20483SOL    HW262891   0.436   4.190   3.646 -1.0326 -0.4422  0.8340
20484SOL     OW62892   6.072   5.237   5.128  0.5583  0.1537 -0.3573
20484SOL    HW162893   6.166   5.249   5.118  0.2971  1.8443 -1.0535
20484SOL    HW262894   6.043   5.202   5.044  0.9988 -3.9736  0.9743
20485SOL     OW62895   5.247   6.015   6.204 -0.0967 -0.0114 -0.4495
20485SOL    HW162896   5.267   5.921   6.209 -1.3526 -0.4017 -2.1220
20485SOL    HW262897   5.194   6.025   6.125  0.5222  2.2255 -0.6590
20486SOL     OW62898   6.646   5.060   4.218  0.8504  0.2087 -0.1799
20486SOL    HW162899   6.602   5.141   4.194  0.8615 -0.2700 -1.9189
20486SOL    HW262900   6.582   5.012   4.271  0.0679  0.4449 -0.8956
20487SOL     OW62901   6.109   4.388   4.970 -1.0081 -0.2732 -1.3599
20487SOL    HW162902   6.052   4.447   5.019 -0.4945 -0.8748 -0.0099
20487SOL    HW262903   6.063   4.373   4.888 -2.0437  0.4905 -0.9333
20488SOL     OW62904   6.977   4.647   3.374  0.9000  0.2953 -0.1507
20488SOL    HW162905   6.962   4.614   3.463  0.8097  1.5251  0.3125
20488SOL    HW262906   6.891   4.644   3.333  1.0897 -1.0352 -0.4788
20489SOL     OW62907   5.924   4.550   5.106 -0.1490  0.5233  0.5615
20489SOL    HW162908   5.855   4.504   5.059 -1.0364 -0.0649  2.3597
20489SOL    HW262909   5.880   4.623   5.148  0.5665  0.8546  0.7434
20490SOL     OW62910   7.990   4.983   4.163 -0.2714  0.3253  0.4972
20490SOL    HW162911   8.057   5.017   4.222  0.7505 -0.5385 -0.1394
20490SOL    HW262912   7.979   5.051   4.097  1.7516 -0.4880 -0.7647
20491SOL     OW62913   7.162   5.018   5.869  0.4497 -0.3677 -0.2842
20491SOL    HW162914   7.220   4.966   5.925  1.4304 -0.0820 -0.9982
20491SOL    HW262915   7.117   4.953   5.814  0.2566 -0.5784  0.1211
20492SOL     OW62916   5.031   3.167   6.432 -0.5201  0.1316 -0.0182
20492SOL    HW162917   4.940   3.185   6.411 -0.8018  0.6137  1.5280
20492SOL    HW262918   5.040   3.072   6.419 -0.9393  0.2455 -1.2109
20493SOL     OW62919   0.440   4.906   4.237 -0.4283  0.3458 -0.3281
20493SOL    HW162920   0.427   4.934   4.328  0.1004 -1.0686  0.2167
20493SOL    HW262921   0.442   4.810   4.242 -3.5910  0.0331 -2.2805
20494SOL     OW62922   6.116   5.499   4.016 -0.1483 -0.3939 -0.5529
20494SOL    HW162923   6.110   5.403   4.012  0.1793 -0.4864  0.6826
20494SOL    HW262924   6.032   5.530   3.984  0.0135 -1.0715 -1.6790
20495SOL     OW62925   6.692   2.864   4.694  0.1993 -0.1122 -0.0946
20495SOL    HW162926   6.693   2.789   4.753  1.2061  0.1835  0.2635
20495SOL    HW262927   6.636   2.928   4.738  1.0576  0.1630  0.6133
20496SOL     OW62928   6.556   4.557   5.573  0.3940 -0.4162  0.1318
20496SOL    HW162929   6.492   4.619   5.608  2.1226  2.5684 -1.5738
20496SOL    HW262930   6.508   4.474   5.567 -2.2191  0.8013  2.0581
20497SOL     OW62931   0.837   6.321   4.541  0.3401  0.4033 -0.0986
20497SOL    HW162932   0.829   6.289   4.631  0.4419  0.1783 -0.1674
20497SOL    HW262933   0.924   6.362   4.538 -0.7916  3.1154  0.7341
20498SOL     OW62934   7.224   3.832   4.307 -0.6312 -0.2881 -0.0285
20498SOL    HW162935   7.153   3.889   4.336 -0.7176  0.3246 -1.3790
20498SOL    HW262936   7.278   3.887   4.251 -0.3457 -1.3598 -0.8423
20499SOL     OW62937   5.401   4.470   5.023 -0.6056 -0.0117 -0.1795
20499SOL    HW162938   5.384   4.464   4.929 -0.5153  0.1696 -0.2082
20499SOL    HW262939   5.343   4.540   5.053 -0.9775 -0.3830 -0.0153
20500SOL     OW62940   5.688   4.170   4.823  0.8630  0.0340 -0.1084
20500SOL    HW162941   5.643   4.212   4.896  1.6603 -0.8463  0.9233
20500SOL    HW262942   5.619   4.150   4.760 -0.5462 -2.6835  2.0822
20501SOL     OW62943   7.675   4.437   4.476 -0.6692 -1.0104 -0.1191
20501SOL    HW162944   7.627   4.371   4.426  0.8559 -0.4419 -2.5110
20501SOL    HW262945   7.618   4.514   4.476 -0.5053 -0.8708 -1.4593
20502SOL     OW62946   7.361   3.216   4.778 -0.2068 -0.1455  0.1106
20502SOL    HW162947   7.446   3.257   4.763 -1.4205  2.3452 -0.5649
20502SOL    HW262948   7.375   3.123   4.759  2.1851  0.2868 -0.5573
20503SOL     OW62949   6.002   2.713   5.484 -0.0210  0.0670 -0.0154
20503SOL    HW162950   5.976   2.790   5.533 -0.4561  0.0750 -0.2569
20503SOL    HW262951   5.925   2.656   5.485 -0.3681  0.4757 -1.4984
20504SOL     OW62952   5.710   4.062   3.812  0.4236  0.0006  0.0356
20504SOL    HW162953   5.743   4.104   3.732 -0.8009 -1.3254 -1.2414
20504SOL    HW262954   5.656   3.990   3.780  0.1852 -0.8046  2.0965
20505SOL     OW62955   6.262   4.474   3.793 -0.0415 -0.5853 -0.4456
20505SOL    HW162956   6.278   4.554   3.843  1.3731 -0.6150 -0.8192
20505SOL    HW262957   6.180   4.440   3.829 -0.4379  0.7837  0.0250
20506SOL     OW62958   0.344   3.828   6.654  0.3231 -0.0490  0.1720
20506SOL    HW162959   0.281   3.756   6.660  2.8829 -2.5096 -0.6809
20506SOL    HW262960   0.352   3.860   6.744 -0.3053 -1.3416  0.7070
20507SOL     OW62961   7.341   7.546   2.514  0.1028  0.1011 -0.5972
20507SOL    HW162962   7.334   7.566   2.421  2.7178 -1.2533 -1.1959
20507SOL    HW262963   7.298   7.461   2.524 -1.6607  0.9917 -0.1631
20508SOL     OW62964   4.911   2.432   6.256  0.3987 -0.2559 -0.9324
20508SOL    HW162965   4.901   2.343   6.223  1.1382  0.3307 -2.8893
20508SOL    HW262966   4.825   2.472   6.241  0.8319  0.1167 -2.6263
20509SOL     OW62967   7.552   5.078   4.801 -0.4114 -0.2029 -0.0982
20509SOL    HW162968   7.460   5.107   4.806 -0.3649  0.2165 -1.3210
20509SOL    HW262969   7.563   5.050   4.710  0.6888 -0.1877  0.0222
20510SOL     OW62970   4.533   5.734   5.154  0.1078  0.0749 -0.0410
20510SOL    HW162971   4.486   5.704   5.076 -0.1383 -1.7062  0.7449
20510SOL    HW262972   4.496   5.821   5.173 -1.8565 -0.6612 -0.2857
20511SOL     OW62973   6.187   4.968   4.117  0.0432  0.1339  0.1473
20511SOL    HW162974   6.170   4.962   4.023  0.5602  0.0061  0.0597
20511SOL    HW262975   6.228   4.885   4.139  1.7184  0.9233  0.0992
20512SOL     OW62976   6.642   5.064   4.563 -0.1641  0.4587 -0.2438
20512SOL    HW162977   6.735   5.059   4.543  0.0019 -0.7879  0.7439
20512SOL    HW262978   6.602   4.997   4.507 -0.3033  0.1576  0.2156
20513SOL     OW62979   5.887   4.794   2.576  0.2634 -0.0975 -0.9370
20513SOL    HW162980   5.875   4.705   2.610  0.2291  0.0326 -0.5992
20513SOL    HW262981   5.959   4.787   2.513 -0.2175 -0.5002 -1.4505
20514SOL     OW62982   7.022   4.343   4.559 -0.0081  0.0734  0.2409
20514SOL    HW162983   7.006   4.427   4.602 -0.3532  0.0031  0.2542
20514SOL    HW262984   6.937   4.318   4.522 -0.1051 -0.6483  0.9060
20515SOL     OW62985   6.395   5.672   4.989 -0.6521 -0.0430  0.5839
20515SOL    HW162986   6.476   5.661   5.037  1.0283 -0.4775 -2.1290
20515SOL    HW262987   6.376   5.585   4.952 -1.5485  0.3682  0.0282
20516SOL     OW62988   7.528   4.746   2.676  0.4518  0.3056  0.3991
20516SOL    HW162989   7.457   4.712   2.731 -1.2014  0.0817 -1.7080
20516SOL    HW262990   7.482   4.789   2.603  2.4846 -0.0798 -1.1908
20517SOL     OW62991   4.875   2.997   6.053 -0.0525  0.2064 -0.5045
20517SOL    HW162992   4.812   2.949   6.000 -0.0719  0.2483 -0.5199
20517SOL    HW262993   4.827   3.020   6.133 -0.8094  2.2287 -1.4493
20518SOL     OW62994   6.668   6.772   2.614 -0.1246 -0.2286  0.2641
20518SOL    HW162995   6.629   6.717   2.546 -1.5040 -0.7460  1.4045
20518SOL    HW262996   6.741   6.721   2.648 -0.6279 -0.8295  0.4626
20519SOL     OW62997   5.174   4.919   3.254 -0.3799 -1.1910 -0.1646
20519SOL    HW162998   5.247   4.906   3.314 -0.5268 -0.7813  0.1050
20519SOL    HW262999   5.205   4.883   3.171  0.4630 -0.2348 -0.2913
20520SOL     OW63000   4.579   6.321   4.187  0.1971  0.0289 -0.1233
20520SOL    HW163001   4.607   6.363   4.269  1.0548  1.5134 -1.1299
20520SOL    HW263002   4.525   6.388   4.144 -2.1127 -1.5334  0.1871
20521SOL     OW63003   7.406   6.166   2.800 -0.7600  0.1755  0.3470
20521SOL    HW163004   7.400   6.259   2.819  1.7249  0.6579 -0.7721
20521SOL    HW263005   7.492   6.140   2.832 -1.0442 -1.5465 -0.1397
20522SOL     OW63006   7.955   2.106   5.552 -0.5177  0.0980 -0.0283
20522SOL    HW163007   7.972   2.200   5.545 -1.2540  0.2540  0.2340
20522SOL    HW263008   7.965   2.073   5.463 -1.3565  0.6166 -0.3227
20523SOL     OW63009   6.041   2.726   7.852 -0.9953  0.0726 -0.2819
20523SOL    HW163010   6.083   2.759   7.931 -2.0237 -0.6761  0.6025
20523SOL    HW263011   6.048   2.798   7.789  2.2373 -0.2360 -0.4809
20524SOL     OW63012   5.560   2.624   5.194  0.3021  0.2687 -0.1430
20524SOL    HW163013   5.509   2.569   5.135  0.2223 -0.2195  0.3753
20524SOL    HW263014   5.639   2.573   5.212  0.5885  0.6620 -0.2808
20525SOL     OW63015   5.862   3.410   5.764 -0.4562  0.2476  0.1488
20525SOL    HW163016   5.855   3.332   5.819  0.4765  0.0701  0.0320
20525SOL    HW263017   5.831   3.481   5.819 -2.0877 -0.3110 -0.0161
20526SOL     OW63018   5.013   6.663   4.769 -0.2748 -0.0877 -0.1916
20526SOL    HW163019   4.998   6.571   4.750  0.4458  0.3346 -3.3830
20526SOL    HW263020   5.106   6.669   4.790 -0.5608 -0.2068  1.1861
20527SOL     OW63021   6.007   4.907   6.328 -0.6472 -0.2525  0.0271
20527SOL    HW163022   6.033   4.998   6.311  0.6810 -0.1147  2.3768
20527SOL    HW263023   6.035   4.860   6.250  2.4183  0.7528  0.3604
20528SOL     OW63024   0.001   3.165   5.108 -0.0765  0.1062 -0.0453
20528SOL    HW163025   0.038   3.213   5.182 -0.5395  1.8463 -0.8736
20528SOL    HW263026  -0.072   3.116   5.145 -0.3029  0.9506  0.6601
20529SOL     OW63027   0.632   3.702   4.922 -0.0461  0.1054 -0.3339
20529SOL    HW163028   0.638   3.624   4.977  1.6794  0.8319  0.6033
20529SOL    HW263029   0.674   3.677   4.840 -0.6331 -0.3135 -0.5142
20530SOL     OW63030   7.033   4.501   5.130 -0.4819  0.0221  0.1369
20530SOL    HW163031   7.033   4.574   5.191 -3.9510  0.5332 -0.2854
20530SOL    HW263032   6.963   4.443   5.161 -0.3873 -1.1748 -1.6960
20531SOL     OW63033   7.949   5.773   4.002 -0.1390 -0.3688  0.2051
20531SOL    HW163034   7.922   5.682   4.018 -0.0729 -0.5694 -0.7399
20531SOL    HW263035   7.867   5.821   3.989 -0.1360 -0.5658 -0.6036
20532SOL     OW63036   6.624   6.046   4.906  0.0749  0.0801 -0.3886
20532SOL    HW163037   6.577   6.009   4.831  0.8317  0.7631 -1.2120
20532SOL    HW263038   6.596   5.992   4.980 -0.7127 -0.5840 -1.1446
20533SOL     OW63039   6.733   3.582   4.422 -0.7110 -0.6634  0.3245
20533SOL    HW163040   6.783   3.596   4.342 -0.3547 -2.3207  0.2203
20533SOL    HW263041   6.668   3.653   4.422  2.3715  2.4441  1.1701
20534SOL     OW63042   7.956   5.361   3.174  0.7882 -0.3875 -0.0542
20534SOL    HW163043   8.028   5.330   3.228  1.6040  0.7724 -0.4262
20534SOL    HW263044   7.997   5.420   3.111 -0.5094  0.4839 -0.1271
20535SOL     OW63045   5.842   6.454   4.520 -0.0649 -0.4024 -0.1524
20535SOL    HW163046   5.772   6.460   4.585 -1.3807  2.0096 -1.6603
20535SOL    HW263047   5.828   6.368   4.479 -0.0659 -1.3588  1.7111
20536SOL     OW63048   7.069   5.666   2.932  0.5978  0.1312 -0.6903
20536SOL    HW163049   7.032   5.714   2.857  0.9657 -1.9888 -2.3170
20536SOL    HW263050   7.163   5.676   2.922  0.6545 -0.3230 -0.6236
20537SOL     OW63051   0.316   4.948   4.013 -0.8793 -0.4647 -0.1959
20537SOL    HW163052   0.283   5.032   4.046 -1.5070 -0.8749  0.2444
20537SOL    HW263053   0.369   4.913   4.084 -1.0241 -0.6714 -0.1901
20538SOL     OW63054   5.615   2.827   6.064 -0.3501 -0.0867 -0.2641
20538SOL    HW163055   5.682   2.862   6.005 -0.3534 -1.7459 -1.3200
20538SOL    HW263056   5.559   2.902   6.084  1.1834  1.0804 -0.2375
20539SOL     OW63057   5.534   2.971   4.446  0.3803 -0.3431  0.1800
20539SOL    HW163058   5.477   2.902   4.413  1.7722 -1.5674  0.2028
20539SOL    HW263059   5.563   2.940   4.532  2.8955 -0.9560 -0.7805
20540SOL     OW63060   6.396   4.791   4.672 -0.0736  0.3168  0.1924
20540SOL    HW163061   6.384   4.725   4.604  0.3171  0.9204 -0.4655
20540SOL    HW263062   6.315   4.786   4.724 -1.8325  1.9789 -2.1651
20541SOL     OW63063   6.270   4.368   4.182  0.2295  0.0780 -0.1280
20541SOL    HW163064   6.248   4.452   4.143 -0.6388  0.2084  0.6131
20541SOL    HW263065   6.289   4.311   4.107 -1.5650  0.2726 -0.7606
20542SOL     OW63066   7.418   4.168   5.012  0.5177  0.2713 -0.2753
20542SOL    HW163067   7.453   4.115   5.084  2.0065  0.7800 -0.6123
20542SOL    HW263068   7.351   4.112   4.973  1.9353 -1.3210 -0.5173
20543SOL     OW63069   6.518   3.353   5.224  0.1349  0.5634  0.0278
20543SOL    HW163070   6.606   3.355   5.262  0.7108 -0.2374 -1.1960
20543SOL    HW263071   6.460   3.377   5.296  1.1837 -0.6780  1.3346
20544SOL     OW63072   5.503   4.822   4.305  0.3640  0.1912 -0.1197
20544SOL    HW163073   5.580   4.861   4.263  0.4390  0.1565 -0.0134
20544SOL    HW263074   5.434   4.887   4.295  0.8147  0.8938  1.1846
20545SOL     OW63075   5.855   3.480   1.907 -0.0073 -0.2354 -0.3753
20545SOL    HW163076   5.891   3.466   1.995  1.1625  2.3456 -0.3482
20545SOL    HW263077   5.929   3.514   1.856 -0.9468 -0.6241 -2.0604
20546SOL     OW63078   5.848   4.736   3.134 -0.0659 -0.1139 -0.6011
20546SOL    HW163079   5.828   4.802   3.068 -0.6348 -0.3420 -0.6592
20546SOL    HW263080   5.900   4.783   3.199  1.7699 -0.2133 -1.9033
20547SOL     OW63081   5.001   3.110   5.668  0.3390  0.1925 -0.0130
20547SOL    HW163082   4.908   3.120   5.646  0.3788  2.0088  0.4255
20547SOL    HW263083   5.033   3.200   5.675  2.4292 -0.3603 -1.3255
20548SOL     OW63084   7.252   4.245   4.698  0.3654  0.0413 -0.1411
20548SOL    HW163085   7.170   4.240   4.649  1.0159 -0.7521 -1.1856
20548SOL    HW263086   7.231   4.300   4.774 -0.5795  1.6955 -1.5051
20549SOL     OW63087   6.934   5.154   6.269 -0.0437  0.2501  0.0150
20549SOL    HW163088   7.006   5.215   6.253 -2.1874  2.4600 -2.0638
20549SOL    HW263089   6.977   5.074   6.297  3.0280  2.2811  1.7268
20550SOL     OW63090   0.455   4.812   5.598 -0.7595 -0.6823  0.0114
20550SOL    HW163091   0.476   4.827   5.690  1.2837 -1.2119 -0.3089
20550SOL    HW263092   0.538   4.785   5.559 -1.4644 -0.0264 -2.0842
20551SOL     OW63093   0.084   3.998   4.748  0.4033 -0.4840  0.6841
20551SOL    HW163094   0.020   3.928   4.756 -1.5909  0.9950 -1.0165
20551SOL    HW263095   0.087   4.017   4.654  0.8799  1.6418  1.0737
20552SOL     OW63096   1.097   6.963   4.169  0.1100  0.1080 -0.5788
20552SOL    HW163097   1.129   6.956   4.079 -0.6030 -0.8589 -0.7698
20552SOL    HW263098   1.010   7.001   4.160  0.0070 -0.0604 -0.3048
20553SOL     OW63099   5.797   3.285   3.966 -0.6636  0.3467  0.4990
20553SOL    HW163100   5.884   3.326   3.972 -1.4603  2.2667 -0.2701
20553SOL    HW263101   5.815   3.191   3.973  1.5331  0.6492 -0.1844
20554SOL     OW63102   0.905   5.135   5.758  0.4165 -0.2221 -0.1695
20554SOL    HW163103   0.839   5.112   5.823 -0.8270 -0.0040 -1.2960
20554SOL    HW263104   0.911   5.057   5.703  1.9755 -0.6660  0.5939
20555SOL     OW63105   5.417   3.648   5.635  0.3419  0.0775 -0.2216
20555SOL    HW163106   5.329   3.614   5.650 -0.3631  1.2723 -1.4198
20555SOL    HW263107   5.468   3.614   5.708 -1.5159  0.8049  1.5304
20556SOL     OW63108   5.645   3.548   6.178 -0.2218  0.0697 -0.1636
20556SOL    HW163109   5.639   3.452   6.186  0.6778 -0.0066 -0.3010
20556SOL    HW263110   5.678   3.563   6.090  1.0121  0.4408  0.3418
20557SOL     OW63111   7.906   3.629   4.815 -0.3033  0.2522  0.0758
20557SOL    HW163112   7.823   3.664   4.782 -2.0717 -2.4790  1.2955
20557SOL    HW263113   7.934   3.692   4.881 -1.0931  1.5081 -0.7381
20558SOL     OW63114   6.333   4.167   3.962 -0.0247 -0.1290 -0.4849
20558SOL    HW163115   6.373   4.182   3.876 -1.5382  0.1979 -1.1632
20558SOL    HW263116   6.239   4.170   3.945 -0.3705 -1.8494  0.8854
20559SOL     OW63117   6.240   6.315   4.710 -0.4477 -0.2916 -0.1714
20559SOL    HW163118   6.320   6.275   4.677 -1.1706 -1.3024 -0.7494
20559SOL    HW263119   6.216   6.379   4.643  0.1004  0.3346  0.2158
20560SOL     OW63120   5.796   3.270   5.291 -0.0465 -0.6020 -0.0995
20560SOL    HW163121   5.707   3.298   5.267  0.7535  1.0044 -1.4008
20560SOL    HW263122   5.835   3.348   5.331  0.8845 -1.2046  0.1922
20561SOL     OW63123   5.546   5.170   2.524 -0.5814 -0.4228 -0.2531
20561SOL    HW163124   5.589   5.084   2.525 -2.0976 -1.2880 -2.3025
20561SOL    HW263125   5.618   5.233   2.526  0.7685 -1.7889 -2.4092
20562SOL     OW63126   7.206   4.591   5.886 -0.6610 -0.3844 -0.0911
20562SOL    HW163127   7.283   4.564   5.837 -0.3103 -0.5692  0.5479
20562SOL    HW263128   7.202   4.530   5.960 -1.4350 -0.3959 -0.1384
20563SOL     OW63129   6.930   2.386   3.322 -0.3388 -0.0121  0.1844
20563SOL    HW163130   6.936   2.293   3.299  1.2744  0.3538 -1.0513
20563SOL    HW263131   7.021   2.415   3.327 -0.6601  0.8193  3.7319
20564SOL     OW63132   3.486   6.049   6.240 -0.1243  0.2836  0.2581
20564SOL    HW163133   3.448   6.135   6.256 -0.6377  1.0389 -3.8870
20564SOL    HW263134   3.573   6.054   6.278 -0.0770  2.7450 -0.0115
20565SOL     OW63135   5.356   3.925   5.671  0.2792 -0.3193 -0.0715
20565SOL    HW163136   5.378   3.839   5.636 -0.4015 -0.2400 -0.7208
20565SOL    HW263137   5.281   3.909   5.729  0.6915 -0.2832  0.4824
20566SOL     OW63138   7.902   4.442   2.786 -0.7645 -0.1873  0.7621
20566SOL    HW163139   7.829   4.500   2.805  0.6469  3.3596 -3.1053
20566SOL    HW263140   7.974   4.474   2.839 -0.7780 -0.5396  0.9991
20567SOL     OW63141   5.406   3.879   6.099  0.0562  0.4771 -0.1069
20567SOL    HW163142   5.379   3.791   6.074 -0.0960  0.5046 -0.0416
20567SOL    HW263143   5.379   3.888   6.191 -0.7931  0.9306 -0.3918
20568SOL     OW63144   6.439   4.696   5.341 -0.4483 -0.1881  0.0458
20568SOL    HW163145   6.491   4.765   5.381  0.3036 -0.5122 -0.3376
20568SOL    HW263146   6.427   4.631   5.410 -1.3761  0.4359  0.4799
20569SOL     OW63147   7.366   4.804   4.267 -0.3050 -0.5573  0.3092
20569SOL    HW163148   7.299   4.739   4.288 -1.2468  0.8925  2.0655
20569SOL    HW263149   7.320   4.888   4.268  1.6681  0.5990  2.5273
20570SOL     OW63150   7.144   6.105   3.582  0.1141 -0.5395  0.1852
20570SOL    HW163151   7.067   6.109   3.638 -0.9719 -0.1864 -1.2611
20570SOL    HW263152   7.136   6.180   3.523  1.6414 -0.4144  0.0825
20571SOL     OW63153   5.329   4.087   3.674 -0.1547  0.3365 -0.2886
20571SOL    HW163154   5.282   4.170   3.670 -0.5632  0.1334  0.1721
20571SOL    HW263155   5.378   4.090   3.756  0.9125  0.6816 -0.9246
20572SOL     OW63156   4.806   6.181   4.372 -0.1368  0.6073  0.2887
20572SOL    HW163157   4.784   6.205   4.282  0.1768  2.2540  0.6285
20572SOL    HW263158   4.789   6.260   4.423 -1.4607 -0.6565  1.8878
20573SOL     OW63159   5.772   3.193   5.554 -0.1243  0.2929  0.2157
20573SOL    HW163160   5.743   3.279   5.581 -1.0558  0.1725 -0.3491
20573SOL    HW263161   5.800   3.205   5.463  0.5840  0.1787  0.4129
20574SOL     OW63162   7.885   5.237   3.460 -0.5748  0.5005 -0.2530
20574SOL    HW163163   7.792   5.212   3.464 -0.4004 -0.0922  0.1453
20574SOL    HW263164   7.913   5.212   3.372 -1.1895  2.1363 -0.9610
20575SOL     OW63165   6.648   4.231   4.127 -0.3643  0.1367  0.0820
20575SOL    HW163166   6.662   4.139   4.106  0.6861  0.0089  1.2702
20575SOL    HW263167   6.627   4.232   4.220  1.7619  1.2490  0.6208
20576SOL     OW63168   5.864   5.521   3.940 -0.2857  0.1197  0.2256
20576SOL    HW163169   5.804   5.447   3.928 -0.9243  0.7600 -0.7497
20576SOL    HW263170   5.886   5.548   3.851 -0.5328  1.4691  0.5506
20577SOL     OW63171   5.772   5.015   5.047  0.1198 -0.2449  0.5584
20577SOL    HW163172   5.852   4.963   5.041  0.7454  0.7653 -0.0360
20577SOL    HW263173   5.703   4.957   5.014  1.1237 -0.0103 -2.2078
20578SOL     OW63174   6.969   3.829   5.271  0.3136 -0.7435  0.2354
20578SOL    HW163175   6.990   3.842   5.178  1.7803 -1.4474  0.4376
20578SOL    HW263176   7.053   3.807   5.311 -0.4019 -1.0026  1.6387
20579SOL     OW63177   0.342   6.312   4.359 -0.1318 -0.0950 -0.0922
20579SOL    HW163178   0.435   6.325   4.377 -0.5358  1.2139  1.1488
20579SOL    HW263179   0.296   6.370   4.420 -1.8105 -1.5697  0.1373
20580SOL     OW63180   6.134   3.567   6.359 -0.5517 -0.2735 -0.1584
20580SOL    HW163181   6.169   3.646   6.316 -1.9747  0.8432  0.6407
20580SOL    HW263182   6.143   3.498   6.293  2.0186  0.1841 -0.4156
20581SOL     OW63183   6.706   6.260   3.718 -0.5927 -0.6601 -0.1903
20581SOL    HW163184   6.725   6.234   3.808  0.5105  1.4328  0.2421
20581SOL    HW263185   6.793   6.265   3.676 -0.7260  1.8224 -0.3217
20582SOL     OW63186   6.491   5.381   4.666 -0.5242  0.3805  0.3859
20582SOL    HW163187   6.490   5.285   4.669 -0.7551  0.3944  0.9299
20582SOL    HW263188   6.555   5.402   4.598 -0.2048 -0.1598  0.5093
20583SOL     OW63189   5.862   4.471   6.162  0.1158 -0.0075 -0.2521
20583SOL    HW163190   5.796   4.457   6.093 -1.3409 -1.5808  1.3647
20583SOL    HW263191   5.921   4.396   6.154 -0.1086 -0.2393  0.2603
20584SOL     OW63192   5.791   3.668   5.210 -0.5331  0.0001 -0.3918
20584SOL    HW163193   5.735   3.741   5.237 -0.0192  0.9314 -1.7433
20584SOL    HW263194   5.763   3.649   5.120 -0.9321 -1.7562  0.0625
20585SOL     OW63195   6.051   4.690   4.277 -0.8809 -0.2139  0.2311
20585SOL    HW163196   6.017   4.631   4.343 -0.1004  0.0840  0.9079
20585SOL    HW263197   6.011   4.775   4.297 -1.6532 -0.4014 -0.4708
20586SOL     OW63198   5.579   5.940   3.635  0.0783 -0.0860  0.4506
20586SOL    HW163199   5.561   5.879   3.706 -1.7040 -0.9221 -0.6481
20586SOL    HW263200   5.672   5.962   3.644  0.0931 -0.8443  2.4737
20587SOL     OW63201   6.303   5.339   4.309  0.5797  0.2000 -0.0649
20587SOL    HW163202   6.267   5.405   4.368  0.4665 -1.2500  1.5831
20587SOL    HW263203   6.239   5.268   4.310  0.7878 -0.0363 -1.6414
20588SOL     OW63204   6.422   6.003   3.701  0.4642  0.5250 -0.3362
20588SOL    HW163205   6.450   5.925   3.653 -1.1409 -0.3583  0.0623
20588SOL    HW263206   6.349   6.038   3.650  2.1068  2.7095 -1.3232
20589SOL     OW63207   7.340   2.730   5.367 -0.3259 -0.0165 -0.1087
20589SOL    HW163208   7.321   2.816   5.328  0.6542 -0.2051 -1.0419
20589SOL    HW263209   7.406   2.748   5.434 -0.9071  0.0937  0.4470
20590SOL     OW63210   5.096   3.789   5.525 -0.0077  0.4271  0.2408
20590SOL    HW163211   5.003   3.794   5.546  0.0750 -2.1131  1.6091
20590SOL    HW263212   5.115   3.872   5.480 -3.2145  0.4262 -1.3923
20591SOL     OW63213   5.245   2.784   7.809 -0.5060 -0.1865  0.3776
20591SOL    HW163214   5.225   2.855   7.869 -0.6391 -0.4182  0.6059
20591SOL    HW263215   5.198   2.807   7.728  0.4504  0.6192  0.0276
20592SOL     OW63216   0.038   5.772   2.870  0.1937  0.4678  0.0823
20592SOL    HW163217   0.131   5.778   2.890  0.3344 -0.6269 -0.1894
20592SOL    HW263218   0.002   5.857   2.897  1.0907  0.5490  1.0829
20593SOL     OW63219   6.548   3.674   5.615  0.1514  0.1102 -0.0264
20593SOL    HW163220   6.490   3.680   5.538 -1.0210 -2.9249  0.4898
20593SOL    HW263221   6.632   3.708   5.584 -0.7533  0.6030 -2.1201
20594SOL     OW63222   0.493   3.291   4.483 -0.0372  0.1734 -0.1258
20594SOL    HW163223   0.544   3.260   4.557 -1.2836  0.1467  0.7540
20594SOL    HW263224   0.456   3.212   4.444 -0.0178  0.2500 -0.3017
20595SOL     OW63225   6.560   4.531   4.775  0.2195  0.4362 -0.3746
20595SOL    HW163226   6.524   4.529   4.686  0.7459  2.8648 -0.7181
20595SOL    HW263227   6.563   4.440   4.802 -2.1220 -0.1959 -1.9581
20596SOL     OW63228   4.237   1.325   6.326 -0.1530 -0.7837 -0.5843
20596SOL    HW163229   4.259   1.418   6.323 -0.6225 -0.6111  0.6450
20596SOL    HW263230   4.241   1.303   6.419 -0.2155 -1.9517 -0.8501
20597SOL     OW63231   7.011   6.040   6.200 -0.1839 -0.1722  0.1305
20597SOL    HW163232   6.920   6.011   6.201 -0.4250  0.5575  0.4785
20597SOL    HW263233   7.005   6.133   6.178  0.6336 -0.6255 -2.4000
20598SOL     OW63234   5.287   4.736   2.494 -0.1227  0.2160  0.5437
20598SOL    HW163235   5.319   4.697   2.413  0.2830  0.2345  0.6960
20598SOL    HW263236   5.310   4.672   2.562  0.8401  0.8725  0.8422
20599SOL     OW63237   4.666   5.147   6.441 -0.2068 -0.2794 -0.0284
20599SOL    HW163238   4.761   5.132   6.439 -0.0971 -0.1493  2.0772
20599SOL    HW263239   4.628   5.059   6.435  0.0554 -0.3933 -0.0435
20600SOL     OW63240   7.566   4.351   5.718  0.4269  0.3734 -0.5664
20600SOL    HW163241   7.514   4.427   5.744 -0.8669 -0.6282 -0.1092
20600SOL    HW263242   7.646   4.388   5.680  0.3216  1.9399  0.6485
20601SOL     OW63243   6.724   5.690   3.521 -0.2295  0.3193  0.3487
20601SOL    HW163244   6.790   5.633   3.481  0.0211  0.9614 -0.1885
20601SOL    HW263245   6.745   5.689   3.615  0.2271  0.1071  0.2490
20602SOL     OW63246   7.752   4.411   5.475 -0.1796  0.1944 -0.4553
20602SOL    HW163247   7.821   4.344   5.482 -1.2941 -0.8465  1.4731
20602SOL    HW263248   7.700   4.383   5.399  1.3001  0.8477 -1.7777
20603SOL     OW63249   6.379   5.811   4.260 -0.0998 -0.5579 -0.2141
20603SOL    HW163250   6.326   5.882   4.222 -2.2207 -1.5380  0.7634
20603SOL    HW263251   6.342   5.731   4.223 -0.0762 -1.3388  1.4024
20604SOL     OW63252   5.968   4.938   4.709 -0.1693  0.3263  0.4385
20604SOL    HW163253   5.895   4.884   4.677 -1.2367  0.8643  1.8726
20604SOL    HW263254   6.002   4.981   4.630 -0.3482 -1.1551 -0.4964
20605SOL     OW63255   5.534   4.224   6.057 -0.2021 -0.7667 -0.3247
20605SOL    HW163256   5.502   4.162   5.992  0.4745 -1.9068  0.3907
20605SOL    HW263257   5.573   4.169   6.126 -1.0139  0.3801  1.1187
20606SOL     OW63258   6.696   4.842   3.640  0.1009  0.2515 -0.8207
20606SOL    HW163259   6.703   4.808   3.729  0.7780 -2.4330 -1.7825
20606SOL    HW263260   6.778   4.814   3.598 -0.7886  0.2180 -2.6346
20607SOL     OW63261   7.155   5.589   4.642 -0.1288  0.3682 -0.2706
20607SOL    HW163262   7.108   5.637   4.574  1.4384  2.4255 -0.0178
20607SOL    HW263263   7.202   5.520   4.596 -0.1351  0.8980 -1.0832
20608SOL     OW63264   6.385   6.364   2.711 -0.9281  0.1408  0.3534
20608SOL    HW163265   6.360   6.446   2.754 -0.5830 -0.6512  2.1552
20608SOL    HW263266   6.306   6.309   2.715 -1.4029  0.6267 -1.5550
20609SOL     OW63267   6.569   4.242   4.868 -0.5223  0.5072 -0.2449
20609SOL    HW163268   6.528   4.261   4.952 -0.7092 -0.9873  0.0390
20609SOL    HW263269   6.663   4.243   4.887 -0.3837  3.1663 -0.7268
20610SOL     OW63270   6.373   6.760   5.213  0.0164  0.0677  0.3012
20610SOL    HW163271   6.446   6.818   5.193 -0.6487  0.8866  0.1549
20610SOL    HW263272   6.389   6.682   5.160  0.4427  0.5149 -0.2475
20611SOL     OW63273   6.304   7.319   5.407  0.1084  0.0093 -0.2531
20611SOL    HW163274   6.292   7.310   5.313 -0.7684  2.3905 -0.4368
20611SOL    HW263275   6.345   7.405   5.418 -0.1878 -0.0431  1.5647
20612SOL     OW63276   6.804   6.346   3.166  0.1077 -0.5929  0.4325
20612SOL    HW163277   6.843   6.382   3.087 -0.0662 -0.2448  0.4998
20612SOL    HW263278   6.740   6.282   3.135 -1.3684  0.9234  0.1881
20613SOL     OW63279   6.952   5.500   4.315 -0.5582 -0.7792 -0.5411
20613SOL    HW163280   6.915   5.461   4.394  0.7727 -1.5591 -0.2634
20613SOL    HW263281   7.046   5.505   4.333 -0.5633  1.9483 -0.8577
20614SOL     OW63282   5.450   3.525   7.573  0.0552 -1.3207  0.0092
20614SOL    HW163283   5.382   3.541   7.638 -0.0921 -2.1708  0.0742
20614SOL    HW263284   5.532   3.539   7.620  0.0369  2.6133 -0.7585
20615SOL     OW63285   5.550   6.430   2.954 -0.1154 -0.3971  0.8142
20615SOL    HW163286   5.525   6.470   3.037  1.3893  0.9762  0.6479
20615SOL    HW263287   5.634   6.387   2.971  0.8362  0.9631 -0.2590
20616SOL     OW63288   6.581   4.586   5.951 -0.0510 -0.2631  0.1009
20616SOL    HW163289   6.525   4.611   5.877 -0.5464 -1.6982 -0.0428
20616SOL    HW263290   6.560   4.650   6.019  0.4611  1.1205 -0.9959
20617SOL     OW63291   6.357   4.746   4.287  0.0151 -0.2171 -0.0550
20617SOL    HW163292   6.394   4.707   4.207 -1.8833  3.7729 -3.2546
20617SOL    HW263293   6.266   4.718   4.288 -0.3097  0.7867 -0.1124
20618SOL     OW63294   6.423   6.105   4.630  0.1971 -0.4782  0.4709
20618SOL    HW163295   6.398   6.074   4.543  2.9493  0.3966 -0.7278
20618SOL    HW263296   6.451   6.026   4.676  1.4096 -0.6249 -0.4654
20619SOL     OW63297   5.038   3.648   4.294  0.1585 -0.4361  0.0795
20619SOL    HW163298   5.024   3.718   4.231 -0.8169  0.5822  1.3722
20619SOL    HW263299   4.997   3.571   4.255  1.0820 -0.2770 -1.2721
20620SOL     OW63300   7.670   6.898   3.837  0.0491  0.3255 -0.2337
20620SOL    HW163301   7.763   6.911   3.857 -0.0941  1.2691 -0.1268
20620SOL    HW263302   7.667   6.889   3.742  0.4620 -1.7837 -0.0951
20621SOL     OW63303   6.580   5.166   5.205  0.3691  0.1582  0.1174
20621SOL    HW163304   6.624   5.247   5.230  0.6913 -0.3555  1.2967
20621SOL    HW263305   6.606   5.103   5.272 -0.4351 -0.7375 -0.3840
20622SOL     OW63306   7.464   4.481   4.710  0.4476 -0.0785 -0.2517
20622SOL    HW163307   7.406   4.406   4.702  0.7223 -0.2638 -0.5038
20622SOL    HW263308   7.409   4.551   4.746  0.3945 -0.6391  0.7864
20623SOL     OW63309   6.457   5.522   5.328  0.2526 -0.3151  1.1010
20623SOL    HW163310   6.482   5.614   5.319 -3.3908  1.1478  3.6330
20623SOL    HW263311   6.382   5.512   5.270 -0.8659 -0.9354  2.6000
20624SOL     OW63312   5.478   4.542   4.433 -0.7224 -0.3197  0.3651
20624SOL    HW163313   5.537   4.501   4.369  0.2334  0.2813  0.8445
20624SOL    HW263314   5.467   4.632   4.402 -0.8941 -0.2525  0.6165
20625SOL     OW63315   5.874   4.249   3.708 -0.0779 -0.6285 -0.9009
20625SOL    HW163316   5.875   4.311   3.635  0.5531  1.1979  0.5848
20625SOL    HW263317   5.809   4.285   3.769 -3.3434 -3.9996 -1.9754
20626SOL     OW63318   4.559   2.513   7.545 -0.3607  0.1232 -0.3978
20626SOL    HW163319   4.487   2.554   7.593 -0.5638 -0.0521 -0.5460
20626SOL    HW263320   4.621   2.585   7.528  0.2154 -0.0234  1.0168
20627SOL     OW63321   5.242   5.632   3.948  0.5686  0.0725  0.1070
20627SOL    HW163322   5.295   5.589   4.016  2.0618 -1.3446 -1.7954
20627SOL    HW263323   5.168   5.573   3.935  1.2631 -0.6668 -0.7076
20628SOL     OW63324   7.079   4.840   4.030  0.3039  0.0505 -0.8745
20628SOL    HW163325   7.102   4.910   4.092 -1.7110 -0.3705  0.4407
20628SOL    HW263326   6.985   4.829   4.041  0.4995 -2.5876 -1.3660
20629SOL     OW63327   6.936   3.776   4.581 -0.0623 -0.3135  0.4329
20629SOL    HW163328   6.975   3.855   4.619  2.0303  0.0317 -2.1613
20629SOL    HW263329   6.849   3.804   4.550  0.7345  1.0920 -0.6481
20630SOL     OW63330   6.226   5.175   3.887 -0.0032 -0.1988 -0.1337
20630SOL    HW163331   6.165   5.174   3.960  0.2719  0.6092  0.1178
20630SOL    HW263332   6.176   5.211   3.814  0.2399  0.7022  0.1392
20631SOL     OW63333   6.040   5.332   3.717  0.2594 -0.2383  0.1880
20631SOL    HW163334   5.981   5.399   3.684 -0.3030 -0.6290  0.3815
20631SOL    HW263335   6.065   5.281   3.640 -0.1337 -0.4365  0.1879
20632SOL     OW63336   6.240   7.002   5.506 -0.4353  0.3184  0.1928
20632SOL    HW163337   6.230   7.018   5.412 -0.4490 -1.5920 -0.1727
20632SOL    HW263338   6.283   7.081   5.539 -0.8675  1.2371 -1.3207
20633SOL     OW63339   4.938   3.695   6.990 -0.1151  0.4836 -0.0682
20633SOL    HW163340   4.844   3.711   6.992 -0.0217  1.0016  0.7714
20633SOL    HW263341   4.972   3.757   6.926 -0.2038  1.1637  0.5291
20634SOL     OW63342   0.129   5.625   4.632  0.4986  0.1137  0.4005
20634SOL    HW163343   0.053   5.567   4.624  0.6952 -0.0961  0.0165
20634SOL    HW263344   0.092   5.713   4.636  0.2692  0.0641 -0.5428
20635SOL     OW63345   5.550   5.584   5.136  0.1693  0.0167  0.2275
20635SOL    HW163346   5.582   5.528   5.207 -0.1814  0.6545  0.9001
20635SOL    HW263347   5.510   5.659   5.180  1.5609  1.3357 -0.6598
20636SOL     OW63348   7.711   3.806   4.225 -0.0476 -0.7942  0.7982
20636SOL    HW163349   7.755   3.724   4.206  0.5381 -0.3869  0.3662
20636SOL    HW263350   7.769   3.874   4.190 -0.8169 -0.2271  0.5903
20637SOL     OW63351   5.840   3.228   4.930 -0.1118 -0.3561 -0.1399
20637SOL    HW163352   5.852   3.211   4.836 -1.9448  0.1192 -0.4992
20637SOL    HW263353   5.796   3.313   4.933 -1.6683 -1.1692  1.0703
20638SOL     OW63354   7.017   5.107   4.676 -0.5228  0.5618  0.1074
20638SOL    HW163355   7.013   5.021   4.634  1.7279  0.1342  0.6406
20638SOL    HW263356   7.011   5.088   4.770  0.6051  0.8941  0.2610
20639SOL     OW63357   7.638   4.295   4.926 -0.0027 -0.0576 -0.1071
20639SOL    HW163358   7.661   4.345   5.004  0.9140 -0.3861 -0.1459
20639SOL    HW263359   7.556   4.253   4.947  0.0609  0.1373  0.5498
20640SOL     OW63360   6.363   4.230   3.691 -0.3531  0.5630 -0.3475
20640SOL    HW163361   6.338   4.323   3.699  2.4509  1.3428  0.2537
20640SOL    HW263362   6.458   4.231   3.682 -0.2828 -2.2765 -0.7145
20641SOL     OW63363   6.766   4.670   2.434  0.1610  0.5241 -0.3738
20641SOL    HW163364   6.812   4.653   2.352  1.1079 -0.2084  0.2839
20641SOL    HW263365   6.760   4.584   2.476  0.5464  1.0195  0.7483
20642SOL     OW63366   5.636   7.028   4.411  0.0521 -0.0699  0.3867
20642SOL    HW163367   5.636   7.004   4.318  0.0140 -1.6971  0.7726
20642SOL    HW263368   5.709   6.977   4.448  0.1591  0.6765  1.2263
20643SOL     OW63369   6.616   5.888   5.226  0.0274  0.4332 -0.3449
20643SOL    HW163370   6.546   5.952   5.237 -0.0203  0.0992  1.5645
20643SOL    HW263371   6.696   5.937   5.248  0.2651  0.4443 -1.1899
20644SOL     OW63372   6.591   5.192   1.478  0.0708  0.3637  0.0778
20644SOL    HW163373   6.620   5.283   1.465  0.1160  0.4584  0.7919
20644SOL    HW263374   6.583   5.157   1.390 -2.0899  1.7325 -0.3386
20645SOL     OW63375   7.246   4.537   4.372  0.3158  0.0582  0.1083
20645SOL    HW163376   7.203   4.596   4.434  1.5976 -0.7949  1.9091
20645SOL    HW263377   7.337   4.535   4.401  0.7284 -1.2200 -1.1826
20646SOL     OW63378   5.731   4.951   5.682 -0.2374  1.1405  0.4318
20646SOL    HW163379   5.731   4.892   5.757 -0.2760  1.9570  1.0817
20646SOL    HW263380   5.657   4.921   5.628  1.5167 -1.3007 -0.8051
20647SOL     OW63381   4.904   4.078   5.213  0.4363 -0.1659 -0.1976
20647SOL    HW163382   4.904   4.047   5.122 -1.0346  0.9747 -0.6209
20647SOL    HW263383   4.879   4.170   5.207 -0.2143 -0.2032  1.4068
20648SOL     OW63384   6.862   5.095   5.103 -0.5513  0.2212 -0.1761
20648SOL    HW163385   6.881   5.065   5.191  0.3710  0.0153 -0.4333
20648SOL    HW263386   6.768   5.081   5.092 -0.6092 -0.0642  0.6469
20649SOL     OW63387   6.666   4.828   4.697  0.6071 -0.7107 -0.1149
20649SOL    HW163388   6.658   4.916   4.660  2.9517 -0.9264 -1.3073
20649SOL    HW263389   6.582   4.786   4.678 -0.8629  1.4642  1.1804
20650SOL     OW63390   6.055   3.082   3.899 -0.1592  0.4508  0.0107
20650SOL    HW163391   6.066   3.165   3.944  2.3269 -1.2544  2.9396
20650SOL    HW263392   5.968   3.052   3.925  0.1024  0.8367  1.3818
20651SOL     OW63393   7.792   5.167   2.667  0.0929  0.0309  0.0863
20651SOL    HW163394   7.710   5.190   2.710 -0.2709 -1.4113  0.2161
20651SOL    HW263395   7.794   5.071   2.667  1.9139  0.0245  0.3455
20652SOL     OW63396   6.256   5.767   5.251 -0.2182 -0.6360  0.3713
20652SOL    HW163397   6.223   5.690   5.296 -0.7057 -0.1773  0.8233
20652SOL    HW263398   6.313   5.810   5.316  0.5271 -0.9242 -0.0810
20653SOL     OW63399   7.137   6.109   3.199  0.2986 -0.2130 -0.3622
20653SOL    HW163400   7.072   6.165   3.242  0.8008 -0.3721  0.6336
20653SOL    HW263401   7.086   6.058   3.136 -0.2323  1.0528 -1.0002
20654SOL     OW63402   7.395   2.960   5.250 -0.0401 -0.3355  0.2900
20654SOL    HW163403   7.350   3.028   5.299 -0.9398 -1.8200  1.6485
20654SOL    HW263404   7.372   2.976   5.159 -0.4478  0.9850  0.6117
20655SOL     OW63405   6.248   4.230   5.966 -0.3155 -0.1074  0.4584
20655SOL    HW163406   6.219   4.203   5.878 -2.4223 -1.9499  1.6263
20655SOL    HW263407   6.284   4.149   6.004  1.3825  0.8705  1.0540
20656SOL     OW63408   6.334   4.493   3.498  0.4862 -0.3110 -0.1074
20656SOL    HW163409   6.286   4.535   3.569 -0.1220 -2.0291  0.5326
20656SOL    HW263410   6.279   4.420   3.471  1.8407 -1.1495 -0.7002
20657SOL     OW63411   5.920   5.737   4.694 -0.3408  0.2397  0.7352
20657SOL    HW163412   5.938   5.689   4.613 -0.3061  0.4771  0.5984
20657SOL    HW263413   5.835   5.779   4.678 -1.7643 -2.0328  1.9252
20658SOL     OW63414   0.010   2.849   5.155  0.4588 -0.5817 -0.4213
20658SOL    HW163415   0.014   2.822   5.063 -0.2800 -0.6396 -0.4403
20658SOL    HW263416  -0.082   2.838   5.180  0.4077  0.5824 -0.0258
20659SOL     OW63417   6.387   3.728   5.358 -0.1104 -0.2206 -0.9437
20659SOL    HW163418   6.307   3.682   5.332  0.1415 -1.6056  0.5593
20659SOL    HW263419   6.432   3.747   5.275 -2.5304  1.7542 -1.9364
20660SOL     OW63420   7.331   5.207   4.456  0.7420 -0.1518 -0.4579
20660SOL    HW163421   7.256   5.159   4.420  0.0636  2.6709 -3.2613
20660SOL    HW263422   7.406   5.178   4.403  0.3368  1.6139 -2.1353
20661SOL     OW63423   4.833   4.724   5.466 -0.2852 -0.6041 -0.0742
20661SOL    HW163424   4.742   4.751   5.481 -0.2548 -1.7864  2.9267
20661SOL    HW263425   4.834   4.631   5.489  1.0188 -1.5956 -3.5483
20662SOL     OW63426   6.562   4.807   6.112 -0.2664  0.0968 -0.0192
20662SOL    HW163427   6.636   4.867   6.099 -0.6954  0.7125  0.3374
20662SOL    HW263428   6.484   4.861   6.098 -0.6938 -0.0499  1.5787
20663SOL     OW63429   6.805   5.763   4.877 -0.5866 -0.0722 -0.1654
20663SOL    HW163430   6.895   5.734   4.888 -0.8178 -1.7547 -2.0660
20663SOL    HW263431   6.810   5.859   4.881  0.7680 -0.1612  2.7521
20664SOL     OW63432   7.505   2.475   6.642  0.3377  0.0192  0.2744
20664SOL    HW163433   7.426   2.422   6.639  0.3331 -0.0123  0.8012
20664SOL    HW263434   7.534   2.481   6.551  0.1910 -0.6626  0.1746
20665SOL     OW63435   5.176   3.955   7.233 -0.4159 -0.1766  0.1961
20665SOL    HW163436   5.104   3.997   7.185 -0.2549 -1.7672 -1.5098
20665SOL    HW263437   5.156   3.862   7.231  0.7462 -0.4849  1.3562
20666SOL     OW63438   5.985   5.010   6.795  0.0958  0.0340  0.0854
20666SOL    HW163439   6.043   5.011   6.871  0.6761  1.0738 -0.3352
20666SOL    HW263440   6.016   5.084   6.741 -0.7151 -0.2769 -0.8359
20667SOL     OW63441   7.932   4.804   6.715 -0.0859  0.0323  0.5690
20667SOL    HW163442   7.992   4.803   6.790  0.2284  0.1843  0.3224
20667SOL    HW263443   7.988   4.789   6.639 -0.4520 -0.4531  0.3929
20668SOL     OW63444   6.535   5.552   7.361  0.2398 -0.0996 -0.1373
20668SOL    HW163445   6.556   5.511   7.277  0.8402  0.1947 -0.1386
20668SOL    HW263446   6.469   5.495   7.400  0.1639 -0.3944 -0.6810
20669SOL     OW63447   7.498   4.959   5.171 -0.0191  0.4481  0.3633
20669SOL    HW163448   7.559   4.922   5.235 -0.7130  0.2111  0.9045
20669SOL    HW263449   7.490   5.051   5.198  2.1817  1.2458 -1.3469
20670SOL     OW63450   6.269   5.038   5.855 -0.5291  0.1201 -0.1832
20670SOL    HW163451   6.318   5.120   5.848 -1.0847  0.5761  0.9390
20670SOL    HW263452   6.280   4.996   5.770  1.6878  0.2410 -0.0025
20671SOL     OW63453   7.856   5.725   8.520  0.1122 -0.1918  0.7799
20671SOL    HW163454   7.875   5.818   8.525  1.7836 -0.3955 -0.6975
20671SOL    HW263455   7.761   5.719   8.520 -0.0081  1.4751  1.3750
20672SOL     OW63456   5.925   4.964   7.374  0.0602 -0.0162  0.4111
20672SOL    HW163457   5.835   4.954   7.404 -0.2917  3.1033  0.7884
20672SOL    HW263458   5.977   4.959   7.455 -0.1417  1.2497  0.6414
20673SOL     OW63459   6.454   6.375   8.251  0.8772  0.0614  0.2095
20673SOL    HW163460   6.456   6.389   8.156  0.8514 -1.4488 -0.0325
20673SOL    HW263461   6.537   6.412   8.283  0.4195  1.5483 -0.2275
20674SOL     OW63462   5.575   4.844   5.901 -0.7480 -0.2162 -0.2396
20674SOL    HW163463   5.531   4.901   5.965 -0.5904  0.7555 -0.9735
20674SOL    HW263464   5.648   4.806   5.950 -1.8010 -1.0778  0.7131
20675SOL     OW63465   7.435   5.347   4.946 -0.3633 -0.6376 -0.2763
20675SOL    HW163466   7.468   5.308   5.027 -1.9859 -0.1407  0.6645
20675SOL    HW263467   7.440   5.277   4.881  1.2311 -0.9554  0.1589
20676SOL     OW63468   6.171   4.477   5.983 -0.2728  0.4181  0.0362
20676SOL    HW163469   6.184   4.383   5.972  2.4272  0.7137 -0.0275
20676SOL    HW263470   6.086   4.495   5.942 -1.0777 -2.0246  0.4788
20677SOL     OW63471   0.132   6.108   5.401  0.2878 -0.2942  0.1341
20677SOL    HW163472   0.110   6.099   5.493 -0.3149  1.8329  0.2664
20677SOL    HW263473   0.205   6.170   5.400 -1.0464  1.3669 -0.8677
20678SOL     OW63474   5.948   4.693   7.620  0.1108  0.2441  0.6745
20678SOL    HW163475   5.937   4.687   7.715  1.2253 -1.5871  0.7400
20678SOL    HW263476   5.879   4.637   7.585 -0.6392  1.3404  0.3453
20679SOL     OW63477   5.295   5.058   6.287  0.2808  0.4241 -0.0279
20679SOL    HW163478   5.221   4.997   6.292 -0.5183  1.2466 -1.2284
20679SOL    HW263479   5.299   5.099   6.373  0.2273 -0.6075  0.4884
20680SOL     OW63480   4.630   5.923   5.802 -0.0885 -0.0225  0.2062
20680SOL    HW163481   4.549   5.880   5.831 -1.0839  1.6616  0.1042
20680SOL    HW263482   4.629   6.007   5.849  1.7173 -0.0470  0.3417
20681SOL     OW63483   7.336   5.848   6.180  0.1378 -0.1749 -0.1416
20681SOL    HW163484   7.356   5.922   6.122 -0.2585  0.6346  0.7341
20681SOL    HW263485   7.241   5.838   6.174  0.2270 -0.9140 -0.5818
20682SOL     OW63486   5.540   3.291   5.980  0.2230  0.1082  0.0501
20682SOL    HW163487   5.515   3.206   6.017  0.7877 -0.5385 -0.9947
20682SOL    HW263488   5.635   3.284   5.967 -0.1119 -0.3038 -2.8828
20683SOL     OW63489   5.909   2.213   6.587  0.7042  0.0364 -0.5113
20683SOL    HW163490   5.863   2.130   6.575  3.9110 -1.7341 -1.6795
20683SOL    HW263491   5.973   2.195   6.656  0.5545  2.0088  0.1950
20684SOL     OW63492   6.048   4.321   6.398 -0.1720  0.6273  0.9451
20684SOL    HW163493   5.990   4.275   6.459 -1.3208 -0.6468 -1.0050
20684SOL    HW263494   6.026   4.285   6.313  2.7629  0.9014 -0.0305
20685SOL     OW63495   1.321   6.449   5.731 -1.0273  0.3958 -0.2479
20685SOL    HW163496   1.361   6.372   5.691 -0.0074  0.3932  0.7207
20685SOL    HW263497   1.346   6.444   5.824 -1.7368  1.3945  0.0188
20686SOL     OW63498   5.604   6.729   4.540 -0.1061  0.2889  0.5742
20686SOL    HW163499   5.510   6.718   4.523 -0.2105  1.3775  0.3595
20686SOL    HW263500   5.646   6.713   4.456 -0.0888 -0.2702  0.6865
20687SOL     OW63501   6.886   5.986   5.212  0.1784  0.3977  1.0512
20687SOL    HW163502   6.946   5.949   5.147 -0.3857 -0.2177  0.8651
20687SOL    HW263503   6.942   6.040   5.268  0.9767 -0.4608  1.1148
20688SOL     OW63504   6.150   5.570   6.368  0.2819  0.0267 -0.0256
20688SOL    HW163505   6.242   5.561   6.392  0.1141 -1.2306  0.1923
20688SOL    HW263506   6.146   5.539   6.278  0.3451  1.7101 -0.6496
20689SOL     OW63507   6.174   6.204   6.593  0.3116  0.8335 -0.4078
20689SOL    HW163508   6.209   6.265   6.658  0.6637  2.1743 -1.7974
20689SOL    HW263509   6.244   6.140   6.580 -0.7108 -1.0970  2.3839
20690SOL     OW63510   6.464   3.795   6.002 -0.0988 -0.0247  0.0490
20690SOL    HW163511   6.495   3.861   5.940 -0.3411 -0.4216 -0.5065
20690SOL    HW263512   6.512   3.813   6.083  0.5137  0.2511 -0.3746
20691SOL     OW63513   7.467   4.279   7.668 -0.4252  0.0506 -0.0216
20691SOL    HW163514   7.544   4.273   7.612 -0.7189 -1.6793 -0.2956
20691SOL    HW263515   7.447   4.373   7.671  2.0627  0.6482  0.6113
20692SOL     OW63516   5.169   2.101   6.739 -0.1872  0.0190  0.6267
20692SOL    HW163517   5.213   2.018   6.720  0.1178  0.2253  0.4255
20692SOL    HW263518   5.076   2.078   6.747  0.0214 -0.5190  1.6433
20693SOL     OW63519   5.788   4.141   7.960  0.0994  0.0312 -0.0869
20693SOL    HW163520   5.855   4.090   8.007  0.6129 -2.0935 -2.9090
20693SOL    HW263521   5.711   4.085   7.960 -0.8429  1.2776  0.6995
20694SOL     OW63522   7.267   5.434   5.718 -0.1524 -0.6777 -0.3267
20694SOL    HW163523   7.346   5.467   5.675 -0.0099  0.6630  0.8919
20694SOL    HW263524   7.285   5.342   5.734  1.4923 -0.2335  0.5973
20695SOL     OW63525   1.841   6.181   5.486  0.2945  0.5037 -0.2957
20695SOL    HW163526   1.864   6.094   5.518 -0.5843 -0.5351 -2.2732
20695SOL    HW263527   1.830   6.234   5.565 -3.0936 -2.1889  1.3236
20696SOL     OW63528   5.846   3.944   8.719 -0.1632  0.4217  0.2355
20696SOL    HW163529   5.790   3.905   8.651  0.7645 -0.8974  0.1964
20696SOL    HW263530   5.804   3.920   8.801 -1.0168  1.6012  0.1706
20697SOL     OW63531   1.048   5.607   7.243 -0.0770  0.4618  0.4227
20697SOL    HW163532   1.120   5.671   7.245  0.2493  0.1325 -0.2893
20697SOL    HW263533   1.022   5.597   7.334  0.7893  0.5883  0.6925
20698SOL     OW63534   7.351   5.748   4.409  0.1292  0.7976  0.0192
20698SOL    HW163535   7.360   5.777   4.500 -1.4883 -0.6928  0.6971
20698SOL    HW263536   7.259   5.764   4.387 -0.6976 -2.9487  0.1995
20699SOL     OW63537   6.328   5.562   8.422 -0.1019 -0.5297 -0.2225
20699SOL    HW163538   6.417   5.574   8.388 -0.1575  0.6269 -0.0184
20699SOL    HW263539   6.338   5.502   8.496  0.3498 -1.2331 -0.8371
20700SOL     OW63540   6.984   4.453   5.521 -0.3595  0.0765 -0.0976
20700SOL    HW163541   6.912   4.490   5.470  0.0899 -0.5092 -1.1763
20700SOL    HW263542   6.991   4.510   5.598 -3.1980 -0.9130  1.0211
20701SOL     OW63543   6.696   4.681   4.306  0.7537  0.1544  0.0664
20701SOL    HW163544   6.745   4.607   4.272 -1.2383 -1.1034 -0.2227
20701SOL    HW263545   6.619   4.687   4.249 -0.5758  0.5990  1.8323
20702SOL     OW63546   7.275   6.189   6.392  0.4017 -0.0914 -0.5166
20702SOL    HW163547   7.350   6.245   6.370 -0.5465  1.2988 -0.3622
20702SOL    HW263548   7.203   6.223   6.338 -0.1864 -1.2306 -0.4757
20703SOL     OW63549   6.675   5.447   6.858 -0.7335 -0.4479 -0.1702
20703SOL    HW163550   6.665   5.542   6.866 -0.3633 -0.2383 -1.7725
20703SOL    HW263551   6.769   5.434   6.850 -0.7094 -1.0560  0.9591
20704SOL     OW63552   6.475   6.215   6.439  0.1228  0.1774  0.2007
20704SOL    HW163553   6.559   6.249   6.471 -0.5569  1.3316  0.8404
20704SOL    HW263554   6.460   6.136   6.492  1.3321 -0.7015 -0.7219
20705SOL     OW63555   6.706   3.871   6.834  0.3642 -1.1019  0.3783
20705SOL    HW163556   6.669   3.891   6.920  0.0120 -1.0380  0.2138
20705SOL    HW263557   6.777   3.935   6.823 -0.5483 -0.1230 -0.0048
20706SOL     OW63558   7.076   4.846   6.097 -0.3193 -0.6029 -0.5142
20706SOL    HW163559   7.029   4.794   6.031 -1.3788 -0.7433  0.3122
20706SOL    HW263560   7.100   4.782   6.164  0.6065 -0.4352 -0.6763
20707SOL     OW63561   5.469   5.064   6.059 -0.1311 -0.3976  1.0967
20707SOL    HW163562   5.431   5.084   6.145  0.3245 -0.6222  1.3507
20707SOL    HW263563   5.548   5.117   6.055  0.2558 -0.9625  1.1356
20708SOL     OW63564   5.017   6.748   6.340  0.0068 -0.7161 -0.0973
20708SOL    HW163565   5.018   6.839   6.367 -0.8243 -0.8134  0.2869
20708SOL    HW263566   5.002   6.699   6.421 -1.9651 -1.0424 -0.6056
20709SOL     OW63567   0.647   3.688   5.455  0.3962 -0.0428  0.1384
20709SOL    HW163568   0.663   3.674   5.548  1.1846 -1.8320 -0.2436
20709SOL    HW263569   0.734   3.697   5.416  0.1594 -1.0130 -0.6603
20710SOL     OW63570   7.505   5.004   8.054  0.3835 -0.1298  1.0766
20710SOL    HW163571   7.410   5.017   8.051  0.2454 -1.0959  0.7703
20710SOL    HW263572   7.541   5.090   8.073 -0.5482  0.2824  1.0155
20711SOL     OW63573   7.122   5.632   3.582  0.0522 -0.1789 -0.0646
20711SOL    HW163574   7.182   5.706   3.592 -1.6430  1.2837 -0.1618
20711SOL    HW263575   7.163   5.578   3.515  1.2945  0.7230 -0.0848
20712SOL     OW63576   6.408   3.079   5.679  0.4284  0.4996 -0.2614
20712SOL    HW163577   6.420   3.172   5.694 -0.7455  0.8476 -1.3338
20712SOL    HW263578   6.411   3.069   5.584 -0.8889 -0.3128 -0.2483
20713SOL     OW63579   7.000   4.366   3.936 -0.0328 -0.5824  0.7506
20713SOL    HW163580   7.043   4.355   3.852 -0.9548 -2.3303  0.4745
20713SOL    HW263581   7.026   4.454   3.965 -0.6736  0.5670 -1.8946
20714SOL     OW63582   5.809   4.611   4.050 -0.3507 -0.2226 -0.8983
20714SOL    HW163583   5.770   4.698   4.061 -1.3879 -0.6119 -1.3860
20714SOL    HW263584   5.895   4.628   4.012 -0.6361  0.5722 -1.2074
20715SOL     OW63585   6.506   5.688   6.715  0.0765 -0.0655 -0.0090
20715SOL    HW163586   6.585   5.692   6.770  1.0643  2.4196 -1.4296
20715SOL    HW263587   6.434   5.710   6.775  0.8526  0.5225  0.7402
20716SOL     OW63588   6.401   6.563   7.010  0.0900  0.5230  0.0689
20716SOL    HW163589   6.464   6.519   7.067 -1.6744 -1.3918  0.6423
20716SOL    HW263590   6.383   6.646   7.053  0.9008  0.3265  0.8045
20717SOL     OW63591   5.994   5.167   4.863  0.5163 -0.5310 -0.1811
20717SOL    HW163592   5.915   5.146   4.914  0.7471 -0.4224  0.2265
20717SOL    HW263593   6.005   5.093   4.803 -0.4045 -0.1422 -0.8677
20718SOL     OW63594   7.672   3.796   5.303 -0.4411  0.0332 -0.0397
20718SOL    HW163595   7.663   3.701   5.297 -0.6046  0.0872 -0.7380
20718SOL    HW263596   7.766   3.810   5.315 -0.0842 -0.1370 -2.2337
20719SOL     OW63597   6.811   4.765   8.041  0.0053 -0.1580 -0.1117
20719SOL    HW163598   6.825   4.688   8.096 -1.1554  0.6910  1.4531
20719SOL    HW263599   6.895   4.812   8.043  0.3569 -0.7815 -0.0960
20720SOL     OW63600   6.239   6.508   6.071  0.1544 -0.0477  0.2631
20720SOL    HW163601   6.247   6.451   6.148  0.5093 -2.3437 -1.3548
20720SOL    HW263602   6.302   6.578   6.086 -0.0302 -0.2310  2.1870
20721SOL     OW63603   5.409   4.954   6.920 -0.2378 -0.2234  0.0076
20721SOL    HW163604   5.464   4.877   6.935 -1.8358 -1.1777  1.3634
20721SOL    HW263605   5.420   5.007   6.999 -0.3487  0.1677 -0.2370
20722SOL     OW63606   7.157   3.105   5.754  0.1927  0.0468  0.2050
20722SOL    HW163607   7.180   3.013   5.737  1.6550 -0.0831  2.5059
20722SOL    HW263608   7.128   3.106   5.845 -2.0267  1.5466 -0.4382
20723SOL     OW63609   6.758   5.728   6.349 -0.2627 -0.2410 -0.0431
20723SOL    HW163610   6.683   5.753   6.403  0.6799 -0.3222  1.3273
20723SOL    HW263611   6.768   5.800   6.287  0.1922  1.1032  1.5232
20724SOL     OW63612   6.988   3.454   5.383  0.1550  0.3720  0.0165
20724SOL    HW163613   6.963   3.453   5.291 -1.3437  0.0401  0.4006
20724SOL    HW263614   6.915   3.411   5.428  2.4178 -2.8263  0.9904
20725SOL     OW63615   5.593   6.191   7.051 -0.5363  0.0348  0.0848
20725SOL    HW163616   5.675   6.178   7.098 -0.3270 -0.0628 -0.3042
20725SOL    HW263617   5.617   6.187   6.958 -1.0046 -0.1555 -0.0330
20726SOL     OW63618   6.786   5.762   5.936 -0.2828 -0.0560  0.2134
20726SOL    HW163619   6.758   5.854   5.934  1.1947  0.4079 -1.1279
20726SOL    HW263620   6.727   5.717   5.876  0.0615  0.3800 -0.4666
20727SOL     OW63621   5.301   4.497   6.322 -0.1020  0.6424 -0.1826
20727SOL    HW163622   5.379   4.518   6.373  0.6857 -0.1574 -1.0155
20727SOL    HW263623   5.318   4.410   6.287 -1.1603  0.6585 -0.7836
20728SOL     OW63624   7.421   4.243   7.945 -0.1650  0.5516  0.1961
20728SOL    HW163625   7.446   4.246   7.852 -0.6048  1.0105  0.0878
20728SOL    HW263626   7.431   4.333   7.975  0.2319  0.3516  0.6651
20729SOL     OW63627   4.924   3.412   4.876 -0.3565 -0.0100 -0.0261
20729SOL    HW163628   4.894   3.408   4.785 -0.8352 -0.1466  0.1326
20729SOL    HW263629   4.890   3.495   4.909  0.7355  0.5534 -0.2801
20730SOL     OW63630   4.675   2.241   9.778 -0.0742 -0.3033  0.4023
20730SOL    HW163631   4.749   2.238   9.839 -0.0912 -0.5826  0.4118
20730SOL    HW263632   4.714   2.222   9.692  0.9141  5.0204 -0.6737
20731SOL     OW63633   6.356   7.474   6.687 -0.2704 -0.6052  0.0872
20731SOL    HW163634   6.274   7.490   6.641 -1.5537 -0.0242  2.4149
20731SOL    HW263635   6.410   7.550   6.667 -1.6388  0.7139  1.2231
20732SOL     OW63636   6.438   3.852   7.234  0.4305 -0.4590 -0.5048
20732SOL    HW163637   6.482   3.847   7.319  1.8179  0.7517 -1.1074
20732SOL    HW263638   6.368   3.787   7.239  0.0628  0.0434  1.7966
20733SOL     OW63639   7.310   5.313   6.678  0.1814  0.0493 -0.2867
20733SOL    HW163640   7.378   5.379   6.692 -1.7148  2.1273 -0.4092
20733SOL    HW263641   7.229   5.363   6.671 -1.8457 -2.4458  2.6487
20734SOL     OW63642   6.798   4.381   5.962  0.1812 -0.0554 -0.3644
20734SOL    HW163643   6.735   4.453   5.951 -0.0036 -0.0967  0.3955
20734SOL    HW263644   6.743   4.303   5.969  0.3124 -0.0830  0.3835
20735SOL     OW63645   6.334   2.549   6.792  0.1434  0.0877 -0.3554
20735SOL    HW163646   6.347   2.600   6.872 -1.1058 -0.6966  0.3818
20735SOL    HW263647   6.246   2.573   6.763  0.3681 -0.0686 -1.1804
20736SOL     OW63648   7.327   5.781   6.921 -0.8500 -0.6307 -0.5218
20736SOL    HW163649   7.353   5.860   6.969 -1.6365 -0.1959 -0.7972
20736SOL    HW263650   7.236   5.765   6.947 -1.0536 -0.8046 -1.3022
20737SOL     OW63651   6.147   4.105   5.697 -0.2445 -0.0033  0.3301
20737SOL    HW163652   6.188   4.096   5.611 -0.4749  1.6608  0.0148
20737SOL    HW263653   6.061   4.142   5.679 -0.2333  0.5198  1.2840
20738SOL     OW63654   6.140   5.707   5.810 -0.4043 -0.1818 -0.1089
20738SOL    HW163655   6.174   5.646   5.745  0.0324  0.3447 -0.3802
20738SOL    HW263656   6.203   5.704   5.882 -0.5562 -0.2988  0.0186
20739SOL     OW63657   7.573   3.408   5.039  0.0640  0.4322 -0.3107
20739SOL    HW163658   7.575   3.468   4.964 -2.2352  1.0853  0.0517
20739SOL    HW263659   7.479   3.392   5.053  0.5262 -1.1259  1.2944
20740SOL     OW63660   0.630   5.182   7.271 -0.0640 -0.0050  0.1815
20740SOL    HW163661   0.599   5.224   7.191  0.0530 -0.4297 -0.0933
20740SOL    HW263662   0.600   5.091   7.263  4.2456 -1.5015 -1.8289
20741SOL     OW63663   5.115   3.404   6.287  0.7321 -0.1323 -0.7650
20741SOL    HW163664   5.123   3.393   6.192 -1.2144 -1.0649 -0.8611
20741SOL    HW263665   5.089   3.317   6.319 -0.1356  0.5442  0.4327
20742SOL     OW63666   6.652   4.582   6.766 -0.1448  0.4850  0.2835
20742SOL    HW163667   6.623   4.535   6.844  0.6258  1.3057  1.0898
20742SOL    HW263668   6.731   4.536   6.738  0.5149  1.1544  0.9758
20743SOL     OW63669   6.282   3.980   6.927 -0.2465 -0.7315 -0.0167
20743SOL    HW163670   6.229   3.933   6.992 -0.1065 -0.5461  0.2348
20743SOL    HW263671   6.340   4.035   6.979  1.9861 -2.7780 -0.1481
20744SOL     OW63672   7.452   5.583   6.772  0.1305 -0.5526  0.3932
20744SOL    HW163673   7.404   5.644   6.827  0.1277  0.4419 -0.6660
20744SOL    HW263674   7.536   5.571   6.817  0.2000  0.3864  0.5357
20745SOL     OW63675   6.109   4.680   7.030 -0.1802  0.1734 -1.3842
20745SOL    HW163676   6.018   4.696   7.056 -0.1804 -2.6796  0.8235
20745SOL    HW263677   6.159   4.750   7.070 -1.1007  0.0572  0.0088
20746SOL     OW63678   0.081   5.636   6.450  0.2583  0.2839  0.2501
20746SOL    HW163679   0.096   5.569   6.384 -2.1816  0.8799 -1.0128
20746SOL    HW263680  -0.009   5.623   6.479  0.3889  1.7503  1.4808
20747SOL     OW63681   5.718   3.735   6.649 -0.5328  0.2917  0.1278
20747SOL    HW163682   5.704   3.650   6.689 -0.4408  0.7214  1.1027
20747SOL    HW263683   5.673   3.730   6.564  0.2264 -1.0148 -0.2146
20748SOL     OW63684   6.559   3.795   5.136 -0.4526 -1.0518  0.4083
20748SOL    HW163685   6.604   3.868   5.093 -1.0692 -0.3547  0.9035
20748SOL    HW263686   6.493   3.767   5.073 -1.6457  0.2534  1.0152
20749SOL     OW63687   0.130   4.337   6.625  0.0488 -0.1246  0.1485
20749SOL    HW163688   0.194   4.339   6.553  0.7592 -0.3888  0.7517
20749SOL    HW263689   0.059   4.283   6.592 -1.5147  2.8541 -1.8353
20750SOL     OW63690   6.708   3.361   6.635  0.3473  0.3993 -0.5066
20750SOL    HW163691   6.754   3.333   6.556  2.4802 -1.7544  1.3613
20750SOL    HW263692   6.777   3.376   6.699 -1.3865  0.5233  1.4444
20751SOL     OW63693   7.796   5.818   6.825 -0.1883 -0.3522  0.3840
20751SOL    HW163694   7.889   5.800   6.841  0.5472 -1.2313 -3.7758
20751SOL    HW263695   7.750   5.757   6.882  1.6934  0.3686  2.8487
20752SOL     OW63696   7.837   4.482   7.193  0.6501 -0.0420 -0.0222
20752SOL    HW163697   7.798   4.488   7.106 -1.0579  0.4065  0.7378
20752SOL    HW263698   7.844   4.388   7.210 -0.1199 -0.1283 -0.1725
20753SOL     OW63699   7.987   4.287   5.580 -0.0756  0.1220 -0.1633
20753SOL    HW163700   7.935   4.365   5.602 -0.8443 -0.3595 -0.2559
20753SOL    HW263701   8.078   4.315   5.593 -0.3189  1.1774 -0.6337
20754SOL     OW63702   0.027   2.846   6.603  0.5818  0.5008 -0.3696
20754SOL    HW163703  -0.007   2.831   6.692 -0.7867  0.7466 -0.8208
20754SOL    HW263704   0.010   2.763   6.557  1.1301  0.4320 -0.4515
20755SOL     OW63705   7.378   4.710   8.901  0.0050  0.0511 -0.3212
20755SOL    HW163706   7.398   4.622   8.869 -3.2185 -1.0725  0.3811
20755SOL    HW263707   7.286   4.722   8.882 -0.2813  2.2455  1.9232
20756SOL     OW63708   0.347   6.256   7.472  0.4737 -0.0773 -0.5995
20756SOL    HW163709   0.347   6.160   7.473  1.1321 -0.0824 -0.5567
20756SOL    HW263710   0.388   6.281   7.555  0.2304  0.2429 -0.5755
20757SOL     OW63711   0.435   6.220   5.683  0.1651 -0.3373 -0.0470
20757SOL    HW163712   0.405   6.255   5.600 -0.5162 -0.4992  0.1229
20757SOL    HW263713   0.354   6.197   5.730  0.5354 -0.1330  0.7024
20758SOL     OW63714   0.722   4.398   7.614 -0.3870  0.1247  0.5167
20758SOL    HW163715   0.638   4.375   7.654 -1.0255  0.9351 -0.3054
20758SOL    HW263716   0.776   4.427   7.688 -1.0036  0.0936  0.9942
20759SOL     OW63717   0.407   4.446   6.746  0.0192 -0.3223 -0.1211
20759SOL    HW163718   0.322   4.404   6.761 -0.5391  0.4679 -0.9820
20759SOL    HW263719   0.423   4.434   6.653  0.1231  0.8629 -0.2651
20760SOL     OW63720   6.538   4.248   5.967 -0.0979 -0.2850 -0.0856
20760SOL    HW163721   6.557   4.251   6.060  0.2902 -1.8717 -0.0780
20760SOL    HW263722   6.457   4.298   5.957 -0.3931 -0.4797  1.1699
20761SOL     OW63723   6.054   4.885   5.900  0.8605 -0.8199 -0.0445
20761SOL    HW163724   6.043   4.848   5.812  2.9319 -3.0092  0.5090
20761SOL    HW263725   6.132   4.940   5.893  0.3720 -0.0856  0.1832
20762SOL     OW63726   6.242   4.494   5.647  0.0550 -0.2855 -0.6472
20762SOL    HW163727   6.295   4.418   5.622 -2.3341 -0.9030 -4.7985
20762SOL    HW263728   6.173   4.458   5.702 -0.5697 -1.0783 -1.8873
20763SOL     OW63729   5.623   4.531   8.242  0.0246  0.0855  1.0911
20763SOL    HW163730   5.555   4.542   8.175 -0.2048  0.8699  1.4435
20763SOL    HW263731   5.663   4.446   8.222  0.2143  0.4830 -0.2559
20764SOL     OW63732   5.633   2.488   6.032  0.4491 -0.6033 -0.0457
20764SOL    HW163733   5.618   2.394   6.035  0.3234 -0.6497 -1.4721
20764SOL    HW263734   5.620   2.512   5.940  1.7095  0.6003  0.0454
20765SOL     OW63735   5.126   4.918   6.894  0.1232 -0.2698  0.5183
20765SOL    HW163736   5.089   4.865   6.824 -0.0825  0.3449  0.1508
20765SOL    HW263737   5.211   4.947   6.860 -0.0990  0.2610  0.4017
20766SOL     OW63738   5.456   5.814   5.678 -0.7518  0.0745 -0.2922
20766SOL    HW163739   5.538   5.776   5.644 -1.7212  0.1784 -2.8939
20766SOL    HW263740   5.426   5.750   5.743  1.0386 -0.2721  0.2530
20767SOL     OW63741   7.363   4.081   6.602 -0.2499  0.6125 -0.3293
20767SOL    HW163742   7.308   4.052   6.676 -2.4811  1.1974 -1.6451
20767SOL    HW263743   7.451   4.085   6.638 -1.1975  0.6395  2.2441
20768SOL     OW63744   5.902   5.175   5.732 -0.0630  0.5870  0.0876
20768SOL    HW163745   5.870   5.087   5.712  1.3028 -0.2573  1.4796
20768SOL    HW263746   5.823   5.222   5.759 -0.6849 -0.4244  0.1128
20769SOL     OW63747   0.947   6.549   7.364  0.2158 -0.5287  0.1270
20769SOL    HW163748   0.991   6.566   7.447 -0.1183  0.6617  0.0747
20769SOL    HW263749   0.964   6.626   7.311 -2.8653  0.5681  0.5077
20770SOL     OW63750   7.655   3.107   5.599  0.0063  0.3276 -0.2978
20770SOL    HW163751   7.622   3.017   5.606  0.6978  0.1085  0.2669
20770SOL    HW263752   7.578   3.162   5.613 -0.3261 -0.1722 -0.1219
20771SOL     OW63753   5.795   4.766   7.088 -0.0998 -0.1911 -0.5849
20771SOL    HW163754   5.709   4.757   7.048 -0.7890  1.4696  0.4449
20771SOL    HW263755   5.779   4.806   7.174  1.6875  0.2466 -0.3971
20772SOL     OW63756   6.190   4.439   8.176 -0.5521  0.0090  0.5310
20772SOL    HW163757   6.122   4.430   8.109 -0.3622 -0.9161  0.4572
20772SOL    HW263758   6.157   4.508   8.234 -0.0580  1.8715 -1.2893
20773SOL     OW63759   5.986   3.635   7.588  0.1761  0.0064 -0.1326
20773SOL    HW163760   5.946   3.569   7.645 -1.5293  0.2190 -1.0250
20773SOL    HW263761   6.061   3.590   7.548 -0.2633 -1.0030  0.1513
20774SOL     OW63762   6.384   5.004   6.098 -0.3110  0.2844  0.2323
20774SOL    HW163763   6.356   5.012   6.006  1.3101  0.5006 -0.2785
20774SOL    HW263764   6.304   5.010   6.148 -1.0782  1.7674 -1.0997
20775SOL     OW63765   5.960   4.310   7.263 -0.1056 -0.1315  0.3480
20775SOL    HW163766   5.945   4.267   7.347 -0.6616  0.6505  0.6610
20775SOL    HW263767   5.912   4.392   7.269  0.6193  0.3585 -0.3916
20776SOL     OW63768   6.317   5.731   6.050  0.3911  0.2830 -0.5839
20776SOL    HW163769   6.369   5.809   6.072  0.0104  1.0040 -2.0717
20776SOL    HW263770   6.369   5.658   6.082  1.2966  1.0967 -0.1260
20777SOL     OW63771   7.440   4.910   6.289 -0.1036 -0.0196  0.2518
20777SOL    HW163772   7.529   4.929   6.258 -0.4717  0.7261 -0.3724
20777SOL    HW263773   7.431   4.961   6.370  0.2693 -0.6457  0.6995
20778SOL     OW63774   6.853   4.502   6.301  0.0687 -0.0797  0.1900
20778SOL    HW163775   6.768   4.510   6.343 -0.3572 -0.8212 -0.4960
20778SOL    HW263776   6.913   4.481   6.372 -0.5019 -0.5641  0.5354
20779SOL     OW63777   6.359   4.221   6.562 -0.3532  0.0981 -0.1821
20779SOL    HW163778   6.395   4.249   6.646  0.8731  0.3080 -0.7627
20779SOL    HW263779   6.389   4.131   6.551  0.4052  0.4309 -0.8895
20780SOL     OW63780   5.909   5.426   5.265 -0.1063  0.2236 -0.3021
20780SOL    HW163781   5.955   5.342   5.261 -2.0239 -0.9278  0.2126
20780SOL    HW263782   5.875   5.438   5.176  0.2118  0.4858 -0.3888
20781SOL     OW63783   7.939   4.152   6.475  0.6744  0.3767 -0.8133
20781SOL    HW163784   7.974   4.129   6.389 -0.2115  0.9655 -1.3574
20781SOL    HW263785   7.845   4.134   6.468  0.3410  1.8502 -0.4808
20782SOL     OW63786   1.096   5.941   6.016  0.6076  0.2193 -0.4047
20782SOL    HW163787   1.044   5.977   6.088 -0.1590  1.0729 -1.3648
20782SOL    HW263788   1.153   6.013   5.989  0.6791 -0.0050 -0.8585
20783SOL     OW63789   5.821   3.885   4.765 -0.2592  0.3121  0.4654
20783SOL    HW163790   5.849   3.846   4.848 -0.5995  0.1619  0.5131
20783SOL    HW263791   5.836   3.979   4.776  2.2074  0.0744 -0.2835
20784SOL     OW63792   0.706   4.642   5.064  0.3756 -0.1274  0.0164
20784SOL    HW163793   0.670   4.658   4.977  0.1040 -2.4437 -0.3589
20784SOL    HW263794   0.631   4.648   5.123  0.5334  1.2912  0.0969
20785SOL     OW63795   7.285   4.165   7.413  0.2156 -0.4563  0.3814
20785SOL    HW163796   7.208   4.128   7.371  0.0863  1.0607 -0.7604
20785SOL    HW263797   7.251   4.212   7.489  0.1573 -0.8020  0.5731
20786SOL     OW63798   6.551   7.065   6.634  0.3272 -0.1478  0.0482
20786SOL    HW163799   6.608   7.101   6.702  0.7251  0.0208 -0.3742
20786SOL    HW263800   6.486   7.133   6.618  0.1683 -0.2316  0.3400
20787SOL     OW63801   0.136   5.143   7.609 -0.3639  0.2094  0.0956
20787SOL    HW163802   0.115   5.168   7.519 -2.1553 -1.3144  0.0468
20787SOL    HW263803   0.057   5.163   7.659  0.1211 -0.2320  1.0684
20788SOL     OW63804   6.934   4.739   6.954  0.0864  0.3917 -0.3825
20788SOL    HW163805   7.021   4.741   6.995  0.6835  1.0453 -1.6350
20788SOL    HW263806   6.949   4.704   6.866 -0.7978  1.1866 -0.8710
20789SOL     OW63807   6.989   3.582   6.619  0.3119  0.9595 -0.4540
20789SOL    HW163808   6.894   3.586   6.612  0.3234  1.1345 -0.5085
20789SOL    HW263809   7.011   3.639   6.692  0.1866 -0.9336  1.1515
20790SOL     OW63810   6.186   5.422   6.139  0.4207  0.0129 -0.8235
20790SOL    HW163811   6.276   5.400   6.160 -0.1811 -1.0745  0.8513
20790SOL    HW263812   6.174   5.396   6.048  1.4518 -0.9901 -0.6843
20791SOL     OW63813   1.070   5.723   5.690 -0.7550  0.4979  0.1593
20791SOL    HW163814   1.133   5.773   5.638 -1.2186 -0.2522 -1.1891
20791SOL    HW263815   1.018   5.789   5.735  1.1261  1.1416  1.5250
20792SOL     OW63816   7.337   4.297   5.941 -0.2023 -0.2406 -0.0324
20792SOL    HW163817   7.254   4.258   5.912 -0.6285  1.2972 -1.0457
20792SOL    HW263818   7.393   4.295   5.863  0.7116 -1.1735  0.6159
20793SOL     OW63819   7.424   5.052   8.654 -0.2609  0.2329 -0.4161
20793SOL    HW163820   7.470   5.128   8.688 -0.4071  0.1744 -0.0858
20793SOL    HW263821   7.419   5.067   8.559  0.5554  0.1697 -0.4727
20794SOL     OW63822   0.697   4.809   6.285  0.7096  0.3812  0.3534
20794SOL    HW163823   0.652   4.747   6.226  0.3860 -1.7549  2.6815
20794SOL    HW263824   0.782   4.824   6.243 -0.4071  0.9216 -1.8588
20795SOL     OW63825   4.727   5.289   5.386  0.5905  0.1195  0.4266
20795SOL    HW163826   4.687   5.206   5.412 -1.9152  0.8035 -0.8404
20795SOL    HW263827   4.764   5.325   5.466 -0.2989 -1.1978  1.4682
20796SOL     OW63828   5.658   4.746   7.372 -0.0942 -0.0371 -0.4967
20796SOL    HW163829   5.572   4.781   7.349 -0.0742  0.0493 -0.4395
20796SOL    HW263830   5.661   4.749   7.467  0.5216  1.3106 -0.5382
20797SOL     OW63831   6.541   5.821   6.499  0.0045 -0.4283  0.2180
20797SOL    HW163832   6.464   5.825   6.442  1.0051 -1.9134 -1.3613
20797SOL    HW263833   6.519   5.755   6.565 -0.2302 -0.5740 -0.0034
20798SOL     OW63834   6.693   5.131   6.747 -0.0484 -0.3003 -0.1206
20798SOL    HW163835   6.647   5.208   6.781 -1.2629 -0.4672 -1.3196
20798SOL    HW263836   6.629   5.060   6.752  1.8405 -2.0668  3.6316
20799SOL     OW63837   6.127   4.760   5.381 -0.2564  0.4176 -0.2336
20799SOL    HW163838   6.102   4.668   5.371  0.5811  0.1661 -0.0778
20799SOL    HW263839   6.172   4.782   5.300 -0.8617  0.8376 -0.4681
20800SOL     OW63840   6.932   4.369   6.850  0.2423 -0.3996  0.6700
20800SOL    HW163841   6.891   4.402   6.930  2.0611  0.8595  1.1470
20800SOL    HW263842   6.986   4.296   6.879  0.3753 -0.3720  0.4943
20801SOL     OW63843   7.443   6.351   7.958 -0.5150  0.4668 -0.3314
20801SOL    HW163844   7.352   6.333   7.981  0.0391 -2.1881  0.0014
20801SOL    HW263845   7.458   6.302   7.878  0.7444  0.5565 -0.1664
20802SOL     OW63846   7.592   3.144   6.010 -0.0522  0.5038  0.1131
20802SOL    HW163847   7.549   3.220   5.971  0.3479  0.4553 -0.4454
20802SOL    HW263848   7.607   3.085   5.936 -0.3648 -0.1218  0.5436
20803SOL     OW63849   0.024   3.699   6.079  0.4455 -0.2776 -0.1980
20803SOL    HW163850   0.108   3.653   6.088 -0.5399 -1.9135  1.0914
20803SOL    HW263851  -0.018   3.691   6.164 -0.0804  2.5686 -0.0837
20804SOL     OW63852   6.165   4.986   7.029  0.1261  0.2756  0.0511
20804SOL    HW163853   6.098   5.046   7.061 -0.6905 -0.2929 -0.5491
20804SOL    HW263854   6.222   4.970   7.104 -0.3223  0.8925  0.5223
20805SOL     OW63855   6.672   4.284   8.279 -0.1085 -0.5330 -0.1386
20805SOL    HW163856   6.637   4.250   8.361 -0.7389 -0.4283 -0.3584
20805SOL    HW263857   6.717   4.209   8.239 -1.8690 -1.2611 -0.8348
20806SOL     OW63858   7.105   5.723   7.055 -0.2685 -0.2537 -0.0325
20806SOL    HW163859   7.142   5.638   7.082 -0.1020  0.2735  1.4734
20806SOL    HW263860   7.011   5.705   7.045 -0.5235 -0.2704  1.9561
20807SOL     OW63861   4.981   3.031   4.260  0.5974  0.1732  0.1389
20807SOL    HW163862   5.061   3.083   4.269  0.2914  0.8392 -0.8355
20807SOL    HW263863   4.942   3.032   4.348  1.1855  0.6134  0.4061
20808SOL     OW63864   7.010   5.178   8.626  0.3366 -0.0205 -0.1169
20808SOL    HW163865   7.061   5.097   8.615  2.5466  1.2555  0.0849
20808SOL    HW263866   7.038   5.234   8.554  0.4128  1.3206  0.9229
20809SOL     OW63867   7.597   3.328   6.210  0.9141 -0.1895  0.0636
20809SOL    HW163868   7.627   3.285   6.291  0.0272 -2.4898 -0.7280
20809SOL    HW263869   7.557   3.257   6.160 -0.3676  1.5800 -1.5306
20810SOL     OW63870   7.586   4.786   4.665 -0.2414 -0.3396  0.2656
20810SOL    HW163871   7.610   4.821   4.751 -0.2899  0.5927 -0.0985
20810SOL    HW263872   7.597   4.859   4.605 -2.6349 -0.2288 -0.1314
20811SOL     OW63873   0.096   6.372   7.702  0.8539 -0.3078 -0.1553
20811SOL    HW163874   0.001   6.378   7.689  0.7710 -1.9600 -0.4937
20811SOL    HW263875   0.133   6.399   7.618  0.6639 -0.2570 -0.2243
20812SOL     OW63876   7.953   6.112   6.868  0.8313  0.3929  0.1269
20812SOL    HW163877   8.017   6.074   6.808  1.4947  0.4340  0.7924
20812SOL    HW263878   7.982   6.203   6.880  0.6774  0.3977  0.4780
20813SOL     OW63879   5.259   5.990   4.493 -0.5385 -0.2015  0.0414
20813SOL    HW163880   5.180   6.043   4.488 -0.3169  0.2582  1.2193
20813SOL    HW263881   5.238   5.921   4.556 -0.5710 -1.1125 -0.9253
20814SOL     OW63882   6.340   4.877   6.695  0.4473 -0.1065  0.0306
20814SOL    HW163883   6.401   4.853   6.765 -0.0799 -1.3947  0.0784
20814SOL    HW263884   6.259   4.901   6.740  0.1851 -0.6958 -0.1193
20815SOL     OW63885   6.870   3.269   7.050  0.2714 -0.0438  0.2884
20815SOL    HW163886   6.872   3.186   7.098  0.7623  0.6935  1.5910
20815SOL    HW263887   6.904   3.334   7.112 -1.6809  1.4509 -0.1047
20816SOL     OW63888   5.406   5.717   4.650 -0.2738  0.6284  0.0149
20816SOL    HW163889   5.377   5.628   4.669 -1.6902  0.9298 -0.5734
20816SOL    HW263890   5.454   5.710   4.567  0.9131  0.2043  0.7179
20817SOL     OW63891   5.635   3.788   7.236  0.4601 -0.1711  0.1525
20817SOL    HW163892   5.596   3.801   7.149  0.9922  2.0207  0.1761
20817SOL    HW263893   5.571   3.736   7.284 -0.1508 -0.8486 -1.3334
20818SOL     OW63894   6.866   3.725   7.045 -0.1191  0.6040 -0.1338
20818SOL    HW163895   6.799   3.788   7.019 -1.0380  0.1822  1.1325
20818SOL    HW263896   6.920   3.772   7.108 -0.3876  0.3498  0.2901
20819SOL     OW63897   6.264   4.486   6.927  0.0672  0.1099 -0.1195
20819SOL    HW163898   6.217   4.479   6.845  1.0091  0.9578 -0.7550
20819SOL    HW263899   6.216   4.550   6.979  0.4259  0.8729 -0.7119
20820SOL     OW63900   1.104   5.431   5.691 -0.2196  0.0518  0.1551
20820SOL    HW163901   1.086   5.523   5.713 -0.3554 -0.0798  0.5937
20820SOL    HW263902   1.147   5.436   5.606 -0.7710  0.4889 -0.1114
20821SOL     OW63903   7.292   5.965   7.700 -0.1185 -0.0237  0.4787
20821SOL    HW163904   7.351   5.906   7.652 -1.0504  0.4310 -1.3490
20821SOL    HW263905   7.230   5.906   7.744  0.5786 -0.4549  0.8986
20822SOL     OW63906   0.017   4.409   6.866  0.0542  0.3085  0.2901
20822SOL    HW163907   0.039   4.417   6.773 -1.0420  0.6539  0.0389
20822SOL    HW263908   0.001   4.500   6.894 -2.1978  0.0211  0.1227
20823SOL     OW63909   6.295   3.378   6.165  0.4216 -0.7025 -0.6312
20823SOL    HW163910   6.200   3.371   6.175  0.5793 -1.8693  0.2510
20823SOL    HW263911   6.307   3.424   6.082 -0.9146  0.6801 -0.1137
20824SOL     OW63912   7.213   5.472   4.378 -0.2823  0.1939  0.0601
20824SOL    HW163913   7.298   5.517   4.384 -0.0459 -0.2926  0.4512
20824SOL    HW263914   7.236   5.379   4.376 -0.7818  0.0798 -0.4211
20825SOL     OW63915   7.085   5.250   5.970 -0.1319 -0.2173  0.2496
20825SOL    HW163916   7.000   5.277   5.936 -0.5941 -0.7777  0.9322
20825SOL    HW263917   7.109   5.173   5.917 -0.0904 -0.1146  0.1189
20826SOL     OW63918   4.327   4.411   6.130 -0.3174  0.9815  0.1613
20826SOL    HW163919   4.400   4.359   6.096 -0.7197 -1.0155  2.0712
20826SOL    HW263920   4.258   4.401   6.064 -0.1868 -0.5227  0.2055
20827SOL     OW63921   7.607   5.950   7.018 -0.2371 -0.5548  0.1431
20827SOL    HW163922   7.581   5.978   7.106  2.4397 -0.8095  1.0872
20827SOL    HW263923   7.600   5.854   7.021 -0.1671 -0.5618  0.0720
20828SOL     OW63924   7.666   6.989   5.187 -0.2741  0.0131 -0.1686
20828SOL    HW163925   7.608   7.018   5.117  0.1032  0.4363 -0.3131
20828SOL    HW263926   7.731   6.933   5.144 -0.4603 -0.3071 -0.0386
20829SOL     OW63927   5.694   4.532   7.580  0.5875 -0.5412 -0.2192
20829SOL    HW163928   5.600   4.544   7.589  0.4505 -1.4501 -0.3593
20829SOL    HW263929   5.704   4.443   7.547  1.3633  0.5209 -3.1087
20830SOL     OW63930   6.426   4.564   6.545  0.7744 -0.3626 -0.1367
20830SOL    HW163931   6.431   4.646   6.496 -1.2700  0.5467  1.0561
20830SOL    HW263932   6.465   4.584   6.630  1.5262 -1.0485 -0.3074
20831SOL     OW63933   7.675   4.798   7.029  0.5503 -0.0324 -0.1517
20831SOL    HW163934   7.649   4.720   6.981  0.7200  0.7950 -1.6487
20831SOL    HW263935   7.764   4.816   7.001  0.3788  0.9196 -0.1332
20832SOL     OW63936   6.872   3.883   6.236  0.1042  0.1687 -0.9615
20832SOL    HW163937   6.918   3.826   6.298 -1.7930 -0.4661 -0.0392
20832SOL    HW263938   6.940   3.937   6.197  1.5148 -0.1870  0.8788
20833SOL     OW63939   5.379   4.767   6.212  0.2470  0.4171 -0.3230
20833SOL    HW163940   5.452   4.743   6.268 -1.7928 -0.1696  2.2913
20833SOL    HW263941   5.377   4.863   6.214 -0.7061  0.4091  2.0241
20834SOL     OW63942   6.956   5.211   7.224  0.7281 -0.0501 -0.0428
20834SOL    HW163943   6.964   5.141   7.159 -0.4760 -0.6124  0.3958
20834SOL    HW263944   6.913   5.283   7.178  1.8773  0.3875 -0.4657
20835SOL     OW63945   5.948   4.946   4.352  0.3264  0.5334 -0.5629
20835SOL    HW163946   5.896   4.887   4.407 -0.1415  0.7294 -0.7945
20835SOL    HW263947   5.904   4.945   4.267  2.3507 -1.6581 -1.7370
20836SOL     OW63948   6.817   3.638   8.009  0.0478  0.5284  0.7501
20836SOL    HW163949   6.800   3.685   7.927  1.1284 -1.9296 -1.0424
20836SOL    HW263950   6.735   3.643   8.057  0.3262  4.8091  1.1386
20837SOL     OW63951   4.810   3.759   5.189 -0.8661  0.1922  0.0931
20837SOL    HW163952   4.803   3.837   5.243 -1.6463 -0.1070  0.4380
20837SOL    HW263953   4.802   3.791   5.099 -1.0565  0.5166  0.2246
20838SOL     OW63954   6.978   4.553   6.574 -0.0054  0.7332 -0.4986
20838SOL    HW163955   7.008   4.508   6.653 -2.1901  0.6711  0.3652
20838SOL    HW263956   7.058   4.569   6.524  1.5650  1.4384  2.0523
20839SOL     OW63957   7.846   4.114   7.949  0.6975 -0.6385 -0.2185
20839SOL    HW163958   7.815   4.073   7.869  1.2063 -1.3992 -0.0377
20839SOL    HW263959   7.803   4.066   8.019  0.2072  0.0629 -0.0325
20840SOL     OW63960   7.199   5.146   6.900 -0.3032 -0.0075 -0.3064
20840SOL    HW163961   7.253   5.071   6.876  0.8748  1.2748 -1.8900
20840SOL    HW263962   7.215   5.210   6.831  0.7546  2.7246  2.2645
20841SOL     OW63963   7.328   4.917   7.809 -0.2364 -0.2353  0.5583
20841SOL    HW163964   7.313   4.838   7.861  2.1517 -0.3223  1.2419
20841SOL    HW263965   7.254   4.920   7.748 -1.9896 -1.3163  2.4943
20842SOL     OW63966   5.469   4.934   7.238 -0.5242 -0.3034  0.4806
20842SOL    HW163967   5.439   5.022   7.260  0.1927  0.0649  0.0467
20842SOL    HW263968   5.401   4.899   7.180 -0.5392  0.1958  0.1881
20843SOL     OW63969   6.665   6.341   5.924 -0.0799 -0.2760 -0.1302
20843SOL    HW163970   6.721   6.346   5.846 -0.6952 -0.9593 -0.6242
20843SOL    HW263971   6.677   6.426   5.967  1.2886 -0.3842 -0.2451
20844SOL     OW63972   6.956   4.176   7.524 -0.0128 -0.0100 -0.1054
20844SOL    HW163973   6.989   4.262   7.551 -0.6646  0.3702 -0.5096
20844SOL    HW263974   6.862   4.179   7.543 -0.6865  0.5705 -3.1022
20845SOL     OW63975   6.567   5.584   3.898 -0.2710 -0.1077 -0.0303
20845SOL    HW163976   6.503   5.516   3.877 -0.1457 -0.9288  2.0407
20845SOL    HW263977   6.514   5.661   3.920 -0.4203  0.3709 -1.8954
20846SOL     OW63978   1.060   4.263   7.430  0.3762 -0.0565 -0.1900
20846SOL    HW163979   0.983   4.309   7.465  0.6712  0.4627 -0.2172
20846SOL    HW263980   1.087   4.206   7.502 -0.8714 -1.2999 -0.6672
20847SOL     OW63981   6.480   4.216   8.019  0.5596  0.1525  0.0046
20847SOL    HW163982   6.402   4.196   7.968  2.5471 -0.5004 -2.9886
20847SOL    HW263983   6.504   4.132   8.058  1.0332 -0.1765 -0.9753
20848SOL     OW63984   5.666   3.565   7.728 -0.5878  0.7326  0.6138
20848SOL    HW163985   5.658   3.532   7.817 -0.9491  1.7593  0.9835
20848SOL    HW263986   5.697   3.655   7.739  1.8465  0.1043 -0.4042
20849SOL     OW63987   6.928   4.199   5.611 -0.0562 -0.3150  0.5938
20849SOL    HW163988   6.836   4.190   5.585 -0.0435 -0.4265  0.5860
20849SOL    HW263989   6.962   4.268   5.555 -0.4113  0.4769  1.3361
20850SOL     OW63990   6.761   5.084   7.383 -0.0060 -0.4273 -0.4905
20850SOL    HW163991   6.836   5.132   7.347  0.5611 -1.8024 -1.2379
20850SOL    HW263992   6.694   5.089   7.315  0.2352 -1.0714 -0.7919
20851SOL     OW63993   5.981   5.172   4.059 -0.7660 -0.0575 -0.0622
20851SOL    HW163994   5.995   5.193   4.152 -0.1682 -0.1437 -0.1315
20851SOL    HW263995   5.950   5.081   4.060 -0.3557 -0.1976  0.0265
20852SOL     OW63996   7.405   4.895   5.986  0.0522  0.1202 -0.0499
20852SOL    HW163997   7.470   4.857   5.927  1.1908 -0.4800  1.5008
20852SOL    HW263998   7.356   4.820   6.020  0.2643  0.3139  0.7094
20853SOL     OW63999   6.117   4.824   7.253 -0.4186  0.4039  0.8522
20853SOL    HW164000   6.144   4.764   7.322  0.2611  0.0293  0.2811
20853SOL    HW264001   6.034   4.861   7.284  0.7756  1.6635  2.7226
20854SOL     OW64002   7.118   5.292   4.148  0.3599  0.2347  0.2554
20854SOL    HW164003   7.050   5.335   4.200  2.3047  1.7592  1.6570
20854SOL    HW264004   7.127   5.206   4.188 -0.0459  0.3860  0.6917
20855SOL     OW64005   7.149   5.176   7.408 -0.1343 -0.3485  0.6749
20855SOL    HW164006   7.083   5.205   7.345 -0.6157 -2.5492  0.0844
20855SOL    HW264007   7.208   5.120   7.357  2.0515  1.2609  1.2667
20856SOL     OW64008   7.013   3.085   6.313  0.0690  0.3299  0.4630
20856SOL    HW164009   7.069   3.074   6.390 -0.3079 -0.0159  0.6959
20856SOL    HW264010   7.012   2.998   6.272 -0.8882  0.1274  0.8808
20857SOL     OW64011   5.107   3.350   6.008  0.0825  0.0707 -0.1539
20857SOL    HW164012   5.064   3.397   5.936  0.5151  0.0030 -0.4611
20857SOL    HW264013   5.115   3.260   5.977 -1.1131 -0.3133  0.5994
20858SOL     OW64014   6.264   2.934   7.212 -0.2525  0.3163  0.1674
20858SOL    HW164015   6.194   2.898   7.158  0.7076  1.3305 -1.8328
20858SOL    HW264016   6.314   2.990   7.153  1.6224  0.4682  1.8054
20859SOL     OW64017   6.217   4.242   7.146  0.3364 -0.8735  0.3540
20859SOL    HW164018   6.125   4.252   7.172  0.4383 -1.5349  1.0036
20859SOL    HW264019   6.250   4.332   7.142 -0.9963 -0.3917 -2.4818
20860SOL     OW64020   7.059   3.210   7.363  0.1883 -0.0381 -0.1309
20860SOL    HW164021   7.095   3.296   7.384  0.6129 -0.2035 -0.1727
20860SOL    HW264022   7.084   3.155   7.437  0.6870 -0.3364 -0.5094
20861SOL     OW64023   6.618   4.133   5.479 -0.2086  0.4721  0.1796
20861SOL    HW164024   6.593   4.059   5.535  0.5306  1.1276  1.4446
20861SOL    HW264025   6.640   4.094   5.395 -1.2911 -0.5679  0.3618
20862SOL     OW64026   0.603   4.463   6.955  0.3269 -0.3552  0.2094
20862SOL    HW164027   0.561   4.408   7.021  0.9009 -0.0322  0.8661
20862SOL    HW264028   0.537   4.475   6.887  0.0676 -1.5194  0.2414
20863SOL     OW64029   6.719   4.459   7.361  0.3325 -0.2626  0.3998
20863SOL    HW164030   6.680   4.386   7.408  0.2181  0.2218  1.0622
20863SOL    HW264031   6.645   4.507   7.325  0.4419 -1.0705 -0.9692
20864SOL     OW64032   7.581   4.209   4.341 -0.0523  0.4152  0.6043
20864SOL    HW164033   7.649   4.245   4.285 -1.7479  0.1784 -1.7680
20864SOL    HW264034   7.628   4.152   4.402  1.9256  0.7418 -0.5202
20865SOL     OW64035   7.310   3.981   5.809 -0.3907 -0.3299 -0.2020
20865SOL    HW164036   7.366   3.947   5.739  0.0333 -0.3783  0.1613
20865SOL    HW264037   7.228   4.003   5.764  0.3277  0.9200 -0.9683
20866SOL     OW64038   4.460   4.666   5.900  0.4190 -0.2205  0.2757
20866SOL    HW164039   4.454   4.686   5.993 -0.6933 -1.5521  0.5214
20866SOL    HW264040   4.444   4.571   5.895 -0.7409  0.0220 -1.3724
20867SOL     OW64041   7.406   5.440   5.358 -0.2930  0.3380  0.1702
20867SOL    HW164042   7.420   5.483   5.442 -0.0304 -0.1615  0.3853
20867SOL    HW264043   7.381   5.511   5.299  2.0026  1.1360  0.0507
20868SOL     OW64044   6.516   4.950   8.176  0.0501 -0.0607 -0.2489
20868SOL    HW164045   6.462   4.929   8.100 -0.0592  0.5829 -0.3544
20868SOL    HW264046   6.604   4.963   8.139  0.2362 -0.8583 -0.1107
20869SOL     OW64047   5.117   2.909   6.422 -0.0569  0.7619 -0.6795
20869SOL    HW164048   5.210   2.908   6.402  0.5229  0.6461  1.6667
20869SOL    HW264049   5.082   2.830   6.381  1.2212 -0.0242 -0.3079
20870SOL     OW64050   5.486   2.663   8.075  0.8107  0.4799  0.3930
20870SOL    HW164051   5.581   2.652   8.076  0.8776  0.9113 -0.5687
20870SOL    HW264052   5.472   2.757   8.068  0.2905  0.5104  1.5993
20871SOL     OW64053   6.914   4.924   7.783  0.9803 -0.9513  0.3320
20871SOL    HW164054   6.978   4.935   7.712 -0.1323  1.8448 -0.3516
20871SOL    HW264055   6.833   4.898   7.737  0.4763  0.0259  0.6543
20872SOL     OW64056   5.611   7.875   6.945  0.0444  0.0766 -0.0735
20872SOL    HW164057   5.646   7.921   7.021  0.3368  0.0504 -0.1903
20872SOL    HW264058   5.542   7.819   6.981  1.8416 -1.8523  0.5842
20873SOL     OW64059   7.766   4.387   7.884 -0.2901  0.2887  0.0699
20873SOL    HW164060   7.678   4.424   7.893 -0.2352  0.0405  1.8752
20873SOL    HW264061   7.753   4.292   7.884 -0.2913  0.1643 -3.1527
20874SOL     OW64062   7.526   2.908   7.401  0.0597 -0.0885 -0.0133
20874SOL    HW164063   7.611   2.901   7.444 -0.2012 -1.5882  0.3386
20874SOL    HW264064   7.465   2.867   7.462 -1.1195  1.8633  0.1944
20875SOL     OW64065   5.617   4.725   9.355  0.1028 -0.2912  0.2674
20875SOL    HW164066   5.550   4.793   9.369  0.4488  0.2738 -0.7256
20875SOL    HW264067   5.653   4.709   9.442 -1.0473 -0.3156  0.7615
20876SOL     OW64068   5.915   3.494   9.228 -0.0711  0.0354 -0.5534
20876SOL    HW164069   5.874   3.577   9.252 -0.3699  0.1011 -1.2761
20876SOL    HW264070   5.899   3.486   9.134  1.4115 -0.0229 -0.8246
20877SOL     OW64071   5.613   3.609   5.448 -0.4211 -0.3715  0.3272
20877SOL    HW164072   5.537   3.615   5.507 -1.5158  0.1789 -1.0890
20877SOL    HW264073   5.577   3.624   5.361  1.2503 -0.6399 -0.4430
20878SOL     OW64074   5.391   3.309   8.998 -0.3268 -0.2180  0.0474
20878SOL    HW164075   5.425   3.374   8.936  0.4862  1.2918  1.9727
20878SOL    HW264076   5.450   3.235   8.990 -0.4044 -0.1648 -1.1663
20879SOL     OW64077   5.418   5.136   8.081  0.0349 -0.4599 -0.2081
20879SOL    HW164078   5.433   5.169   7.992 -0.0918  0.1973  0.0090
20879SOL    HW264079   5.348   5.072   8.071  1.3446 -1.8468 -0.8754
20880SOL     OW64080   6.426   6.103   8.434 -0.0024  0.2734  0.3142
20880SOL    HW164081   6.493   6.035   8.428  0.8241  0.9188  1.7346
20880SOL    HW264082   6.434   6.152   8.353 -0.9881 -1.6197 -0.9968
20881SOL     OW64083   4.190   4.234   8.931 -0.5299 -0.0393 -0.2316
20881SOL    HW164084   4.187   4.220   8.837 -0.1497 -0.6092 -0.1642
20881SOL    HW264085   4.105   4.272   8.953  0.3706  2.7725 -1.2151
20882SOL     OW64086   0.220   3.845   8.239 -0.2385  0.1071  0.4449
20882SOL    HW164087   0.136   3.887   8.258 -0.4683 -0.7041  1.2655
20882SOL    HW264088   0.198   3.753   8.228  0.3071  0.1365 -1.0399
20883SOL     OW64089   6.534   5.382   8.029  0.3658 -0.1323 -0.3394
20883SOL    HW164090   6.538   5.313   7.963  0.7854 -0.4136 -0.0288
20883SOL    HW264091   6.459   5.435   8.004  1.7924  1.0956 -2.3145
20884SOL     OW64092   6.023   5.252   8.259 -0.0493 -0.7671 -0.6923
20884SOL    HW164093   6.036   5.211   8.174  0.1551 -1.2399 -0.4329
20884SOL    HW264094   6.043   5.184   8.323 -0.6194 -0.5486 -0.2635
20885SOL     OW64095   7.178   4.517   9.155 -0.3567  0.2670 -0.0065
20885SOL    HW164096   7.130   4.434   9.158  0.4184 -0.1650  1.2882
20885SOL    HW264097   7.180   4.548   9.245  1.5618  0.3768 -0.0273
20886SOL     OW64098   5.323   3.729   8.856 -0.3450 -0.1374 -0.3306
20886SOL    HW164099   5.338   3.795   8.788  1.1245 -1.2665 -1.1669
20886SOL    HW264100   5.233   3.743   8.883 -1.0632  0.2475 -2.6750
20887SOL     OW64101   5.804   4.777   8.259  0.0153  0.0745 -0.2753
20887SOL    HW164102   5.748   4.700   8.258  0.0242  0.0091  1.3620
20887SOL    HW264103   5.816   4.796   8.352  3.1025 -0.2117 -0.5249
20888SOL     OW64104   6.560   4.705   7.942  0.1014  0.2034 -0.5954
20888SOL    HW164105   6.511   4.778   7.904 -0.1927 -0.6422 -1.9102
20888SOL    HW264106   6.648   4.739   7.955 -0.1891  0.9783 -0.6043
20889SOL     OW64107   7.041   1.652  10.417 -0.1644 -0.4317  0.3606
20889SOL    HW164108   6.980   1.650  10.491 -1.4211 -0.1176 -0.6215
20889SOL    HW264109   7.017   1.576  10.364 -1.0594  0.7534 -1.0337
20890SOL     OW64110   6.411   5.831   9.713 -0.1684 -0.5824 -0.2153
20890SOL    HW164111   6.376   5.852   9.799  1.8081 -2.4807  1.1505
20890SOL    HW264112   6.413   5.735   9.710  1.0605 -0.5570 -1.8321
20891SOL     OW64113   7.623   7.205   7.713 -0.4901 -0.1427 -0.5713
20891SOL    HW164114   7.623   7.225   7.619  0.5147 -0.3196 -0.6183
20891SOL    HW264115   7.622   7.109   7.717 -0.0649 -0.1425 -0.4100
20892SOL     OW64116   6.976   5.717   5.710  0.2020 -0.6742  0.2843
20892SOL    HW164117   6.979   5.705   5.805 -0.9037  1.1436  0.6115
20892SOL    HW264118   6.956   5.631   5.675 -0.0778 -1.2337  1.7534
20893SOL     OW64119   7.071   3.658   8.121  0.4661 -0.3550 -0.0607
20893SOL    HW164120   7.043   3.693   8.206  0.7927  0.2979 -0.2186
20893SOL    HW264121   6.989   3.638   8.077  0.2650  0.2520  0.0218
20894SOL     OW64122   7.813   4.829   5.715 -0.1748 -0.9553  0.5406
20894SOL    HW164123   7.734   4.865   5.674  0.5242 -0.0729 -0.0730
20894SOL    HW264124   7.842   4.760   5.655  1.7254  1.3613 -1.3979
20895SOL     OW64125   4.325   4.883   9.646  0.4768  0.0742 -0.0428
20895SOL    HW164126   4.376   4.804   9.662 -0.4263 -0.6354 -0.5472
20895SOL    HW264127   4.390   4.952   9.630  1.2853 -0.3919  1.1432
20896SOL     OW64128   5.693   3.933   8.950 -0.4151 -0.2352  0.1400
20896SOL    HW164129   5.633   3.864   8.978  0.9004 -2.0219 -1.2264
20896SOL    HW264130   5.644   3.981   8.883 -0.4165 -1.6175 -0.9081
20897SOL     OW64131   6.769   6.535   7.831 -0.1020  0.0239  0.3762
20897SOL    HW164132   6.810   6.490   7.906 -1.9034  0.5721  1.7617
20897SOL    HW264133   6.736   6.465   7.776  1.9292 -0.4148 -0.3820
20898SOL     OW64134   0.069   4.201   9.691 -0.0506  0.7580  0.4369
20898SOL    HW164135   0.075   4.249   9.608 -1.0211  2.0231  1.0712
20898SOL    HW264136  -0.011   4.150   9.683  1.2027 -1.1878 -0.4123
20899SOL     OW64137   6.319   5.039   9.043 -0.1268 -0.5625  0.2502
20899SOL    HW164138   6.317   5.096   9.120  1.3057 -0.2620  0.0925
20899SOL    HW264139   6.231   5.000   9.040 -0.9292  1.0948  0.7554
20900SOL     OW64140   7.055   3.658   6.357  0.5254  0.6176 -0.4778
20900SOL    HW164141   7.030   3.631   6.446 -0.1478  0.2866 -0.7671
20900SOL    HW264142   7.145   3.690   6.367  1.1261 -1.0749  0.0145
20901SOL     OW64143   6.494   5.130   8.858 -0.1524  0.2743  0.5703
20901SOL    HW164144   6.431   5.104   8.926  0.6109 -0.7505  0.9086
20901SOL    HW264145   6.543   5.202   8.898  1.0577 -1.0535  1.5997
20902SOL     OW64146   4.980   3.525   8.410 -0.4078 -0.0879  0.5990
20902SOL    HW164147   4.925   3.490   8.480 -0.0152 -1.5267  0.2182
20902SOL    HW264148   5.046   3.578   8.457  0.4198 -1.7819  1.4523
20903SOL     OW64149   7.220   5.243   7.875  0.0782  0.6548  0.1110
20903SOL    HW164150   7.218   5.168   7.934 -0.7495  1.2617  0.8799
20903SOL    HW264151   7.313   5.267   7.870  0.0936  1.0832  1.8301
20904SOL     OW64152   6.078   4.600   8.349  0.1617  0.7407 -0.1974
20904SOL    HW164153   6.112   4.528   8.402  0.4443 -1.2639 -2.8976
20904SOL    HW264154   5.983   4.594   8.359  0.2034  0.3081 -0.0333
20905SOL     OW64155   5.695   3.966   9.233 -0.3610  0.2237  0.2484
20905SOL    HW164156   5.735   4.053   9.233  0.8210 -0.2878 -0.4325
20905SOL    HW264157   5.667   3.952   9.142  0.5629 -0.5641  0.0669
20906SOL     OW64158   0.436   6.808   6.408  0.5245 -0.0969  0.0625
20906SOL    HW164159   0.435   6.862   6.486 -1.6664 -0.6145  0.4415
20906SOL    HW264160   0.529   6.796   6.388  1.1603 -0.4373  2.9208
20907SOL     OW64161   7.666   4.680   8.825  0.1655 -0.5787  0.4656
20907SOL    HW164162   7.686   4.590   8.799  0.7710 -0.2692 -0.1717
20907SOL    HW264163   7.742   4.731   8.796 -1.0201  0.4571 -0.9662
20908SOL     OW64164   7.070   4.795   8.111 -0.1610 -0.2630  0.0832
20908SOL    HW164165   7.110   4.774   8.195  0.8165 -1.1664 -0.5752
20908SOL    HW264166   7.131   4.760   8.046  0.6890  3.0426 -1.1250
20909SOL     OW64167   7.376   4.829   9.172 -0.6733 -0.0259  0.1695
20909SOL    HW164168   7.442   4.761   9.159  0.3313  1.0121 -0.4849
20909SOL    HW264169   7.403   4.873   9.253 -0.8770  0.0439  0.1991
20910SOL     OW64170   7.150   4.763   9.041  0.3159  0.4175 -0.4046
20910SOL    HW164171   7.231   4.800   9.076  1.2571 -0.7697 -1.2509
20910SOL    HW264172   7.133   4.687   9.095  0.7344 -0.3304 -1.2980
20911SOL     OW64173   0.159   4.896   8.923  0.8172  0.0488 -0.1679
20911SOL    HW164174   0.221   4.827   8.900 -0.4976 -1.0634 -0.5087
20911SOL    HW264175   0.185   4.970   8.869  3.3817  0.4887  1.5055
20912SOL     OW64176   4.537   5.601   9.259  0.6899 -1.2177 -0.3890
20912SOL    HW164177   4.526   5.507   9.277  1.8525 -0.9938  1.7440
20912SOL    HW264178   4.615   5.626   9.307 -0.7617  1.3218  0.8549
20913SOL     OW64179   7.180   4.485   7.277 -0.4020 -0.2104 -0.5418
20913SOL    HW164180   7.169   4.460   7.368  4.3543 -3.0813 -0.4127
20913SOL    HW264181   7.156   4.406   7.227 -0.1272  0.3264 -1.5573
20914SOL     OW64182   7.457   4.398   9.613  0.0400 -0.0863  0.1954
20914SOL    HW164183   7.485   4.352   9.533  0.9598  1.9098 -0.6894
20914SOL    HW264184   7.524   4.376   9.677  0.0883 -0.5361 -0.0006
20915SOL     OW64185   7.758   5.601   7.631  0.1207 -0.2683 -0.1023
20915SOL    HW164186   7.748   5.683   7.583 -1.6529 -0.1394  0.4124
20915SOL    HW264187   7.737   5.533   7.567 -0.1534 -0.2097 -0.0780
20916SOL     OW64188   6.434   2.617   8.281 -0.2308  0.5132 -0.1532
20916SOL    HW164189   6.415   2.575   8.197 -1.2237  0.9883 -0.1725
20916SOL    HW264190   6.392   2.702   8.276  1.9045  1.6372 -0.1803
20917SOL     OW64191   0.061   6.018   7.334 -0.0550  0.5719  0.4989
20917SOL    HW164192   0.051   5.989   7.243  1.1932 -0.4247  0.6481
20917SOL    HW264193   0.068   5.938   7.384  0.5482  1.1148  1.3132
20918SOL     OW64194   6.943   6.452   8.513  0.4590 -0.1238  0.3340
20918SOL    HW164195   6.853   6.484   8.504  0.5043  0.0355  0.4367
20918SOL    HW264196   6.994   6.507   8.454  0.1573 -1.7135 -1.5296
20919SOL     OW64197   0.104   6.000   8.251  0.2586 -0.3585  0.6188
20919SOL    HW164198   0.114   5.977   8.343 -2.8808 -0.8738  0.9513
20919SOL    HW264199   0.116   6.095   8.248  0.7209 -0.3872  1.4898
20920SOL     OW64200   6.930   6.558   8.202  0.3407 -0.4764  0.0008
20920SOL    HW164201   6.845   6.598   8.186  0.5908 -0.1197 -0.4558
20920SOL    HW264202   6.928   6.476   8.152  0.0932 -0.6977  0.3685
20921SOL     OW64203   0.154   4.729   8.319  0.4435 -0.0382 -0.3980
20921SOL    HW164204   0.063   4.701   8.314  0.4812 -1.5780  3.7410
20921SOL    HW264205   0.151   4.823   8.300 -2.1876  0.1609  0.5760
20922SOL     OW64206   6.717   4.440   8.678  0.3711 -0.4057 -0.0192
20922SOL    HW164207   6.662   4.370   8.643 -0.0435 -0.0549 -0.0803
20922SOL    HW264208   6.805   4.402   8.683  0.4385 -0.4790 -1.3877
20923SOL     OW64209   5.920   4.519   9.410  0.3055 -0.2092  0.0268
20923SOL    HW164210   5.874   4.497   9.329  0.2749  0.2677 -0.0909
20923SOL    HW264211   5.856   4.566   9.462  0.1854 -0.9169  0.5290
20924SOL     OW64212   0.923   7.007   5.458 -0.0941  0.0451 -0.3406
20924SOL    HW164213   0.862   6.999   5.385 -1.4990 -0.5055  0.8204
20924SOL    HW264214   0.914   6.924   5.505  1.8521 -0.1921 -0.3246
20925SOL     OW64215   6.968   2.784   9.092 -0.0480 -0.9426  0.6776
20925SOL    HW164216   7.040   2.725   9.072 -0.5358 -0.9463 -1.3453
20925SOL    HW264217   6.916   2.786   9.012 -1.3865  0.3458  1.5158
20926SOL     OW64218   5.849   4.091   7.424 -0.0746 -0.5457 -0.6134
20926SOL    HW164219   5.843   3.999   7.452  3.1481 -0.6461  0.1002
20926SOL    HW264220   5.871   4.086   7.331 -1.2254 -0.4207 -0.9084
20927SOL     OW64221   5.767   6.542   8.455  0.2474 -0.2616 -0.3708
20927SOL    HW164222   5.810   6.479   8.513 -0.0201  0.7439  0.9784
20927SOL    HW264223   5.818   6.539   8.374  1.0398 -1.2455  0.1452
20928SOL     OW64224   6.968   5.452   8.698 -0.4754  0.1370  0.0022
20928SOL    HW164225   6.985   5.473   8.606 -0.1622 -0.1232  0.0011
20928SOL    HW264226   6.991   5.360   8.707  0.9178  0.5321  0.6841
20929SOL     OW64227   7.619   5.625   7.853 -0.1837  0.0507 -0.1032
20929SOL    HW164228   7.661   5.603   7.770  0.1832  1.4059 -0.3098
20929SOL    HW264229   7.592   5.716   7.842 -3.6238 -0.8288 -0.1425
20930SOL     OW64230   6.493   4.793   9.071  0.4826  0.1543  0.3851
20930SOL    HW164231   6.457   4.875   9.039 -1.2537  0.1850  2.2393
20930SOL    HW264232   6.442   4.725   9.028 -0.7023  0.1651  1.7089
20931SOL     OW64233   5.017   3.993   6.972  0.1953 -0.2141 -0.6111
20931SOL    HW164234   5.016   4.081   7.010 -1.3673 -0.8509  0.9488
20931SOL    HW264235   5.066   4.003   6.891  0.4243  2.0054 -0.2685
20932SOL     OW64236   6.007   3.621   9.656  0.0192 -0.2620 -0.0580
20932SOL    HW164237   6.014   3.550   9.719  1.4204 -2.2573 -2.2834
20932SOL    HW264238   6.073   3.601   9.589 -0.4549  2.4206 -1.4987
20933SOL     OW64239   5.561   4.172   8.797 -0.5440  0.2606  0.3163
20933SOL    HW164240   5.561   4.129   8.711 -1.1177  1.0389 -0.0758
20933SOL    HW264241   5.498   4.243   8.789 -0.7265  0.2452  1.4421
20934SOL     OW64242   5.758   4.429   9.194  0.3187 -0.3495 -0.1315
20934SOL    HW164243   5.758   4.395   9.104  1.0123 -0.0080 -0.2662
20934SOL    HW264244   5.670   4.465   9.206 -0.1604 -1.4005 -0.2826
20935SOL     OW64245   7.322   5.844   8.618 -0.2590 -0.0896 -0.5022
20935SOL    HW164246   7.397   5.820   8.672 -1.5723  2.4045  2.7552
20935SOL    HW264247   7.360   5.876   8.536  2.2963  1.3521  1.1097
20936SOL     OW64248   6.739   3.591   8.785 -0.1544 -0.1950  0.5279
20936SOL    HW164249   6.740   3.518   8.848 -0.8740 -1.0113 -0.3763
20936SOL    HW264250   6.801   3.565   8.717 -0.5917 -0.0824  0.0792
20937SOL     OW64251   5.919   3.125   8.569 -0.4077  0.3967 -0.0074
20937SOL    HW164252   5.962   3.114   8.484  0.3499 -0.8310  0.5097
20937SOL    HW264253   5.849   3.061   8.569 -0.6590  0.6708  0.1438
20938SOL     OW64254   0.612   4.615   6.084 -0.0250  0.0318 -0.2034
20938SOL    HW164255   0.576   4.527   6.075 -0.5593  0.1028  0.9948
20938SOL    HW264256   0.706   4.605   6.068  0.2242 -1.1138  1.6621
20939SOL     OW64257   6.202   3.238   8.268  0.6082  0.1236 -0.1006
20939SOL    HW164258   6.236   3.156   8.303 -0.9396 -0.6587 -0.3487
20939SOL    HW264259   6.253   3.253   8.188  1.2156 -0.3438  0.1947
20940SOL     OW64260   6.093   3.126   8.800 -0.5122 -0.3333  0.0812
20940SOL    HW164261   6.064   3.146   8.711 -0.5565  0.4334  0.2636
20940SOL    HW264262   6.069   3.034   8.813 -2.8666  0.2402  0.1990
20941SOL     OW64263   5.762   4.368  10.985 -0.2835 -0.0208 -0.4041
20941SOL    HW164264   5.681   4.317  10.995 -0.7391  0.9015  0.9636
20941SOL    HW264265   5.745   4.425  10.910 -1.4778  1.0867  0.6302
20942SOL     OW64266   1.898   6.168   7.454  0.3351  0.0535  0.0851
20942SOL    HW164267   1.820   6.120   7.427 -1.1324  1.7488  1.0552
20942SOL    HW264268   1.940   6.194   7.372 -2.6360  2.9550 -0.7499
20943SOL     OW64269   7.960   4.316   9.071 -0.2089 -0.1059 -0.0658
20943SOL    HW164270   8.044   4.293   9.111  0.4447  1.0778 -0.7011
20943SOL    HW264271   7.972   4.295   8.978  0.1675  2.0467 -0.5406
20944SOL     OW64272   6.584   4.648   7.579 -0.2247 -0.3446 -0.3015
20944SOL    HW164273   6.498   4.691   7.579 -0.3369 -0.5609 -0.7276
20944SOL    HW264274   6.646   4.719   7.563 -0.2506 -0.0648  0.7617
20945SOL     OW64275   7.297   3.725   6.400 -0.4234  0.1420  0.6218
20945SOL    HW164276   7.379   3.684   6.371 -0.2970  0.2917  0.7665
20945SOL    HW264277   7.301   3.814   6.365 -0.9661 -0.1432 -0.1904
20946SOL     OW64278   5.745   3.587   8.944  0.1070 -0.1152  0.2530
20946SOL    HW164279   5.712   3.608   8.857  1.0305 -0.1815 -0.1326
20946SOL    HW264280   5.705   3.652   9.001 -0.5345 -0.0920 -0.2135
20947SOL     OW64281   7.467   4.088   8.662  0.1342 -0.2826 -0.3383
20947SOL    HW164282   7.433   4.002   8.636 -1.2704  0.1884 -0.1601
20947SOL    HW264283   7.390   4.134   8.697  1.1798  0.4987  0.9937
20948SOL     OW64284   6.377   4.056   7.603  0.7717 -0.5952  0.0064
20948SOL    HW164285   6.346   4.079   7.515  0.6345 -1.4927 -0.1914
20948SOL    HW264286   6.447   4.118   7.620  0.3601  0.0181 -0.4663
20949SOL     OW64287   7.088   6.815   6.665 -1.1075 -0.2900  0.2649
20949SOL    HW164288   7.035   6.854   6.595  2.5722 -0.1194 -2.7456
20949SOL    HW264289   7.114   6.729   6.631  2.3882  0.5753  0.3524
20950SOL     OW64290   0.453   4.978   8.614  0.3609 -0.2600  0.5676
20950SOL    HW164291   0.492   4.891   8.605 -0.2030 -0.6362  1.5290
20950SOL    HW264292   0.528   5.038   8.614  0.8503 -0.8565  1.1171
20951SOL     OW64293   6.224   5.303   8.484  0.2417 -0.0291 -0.6937
20951SOL    HW164294   6.246   5.312   8.391 -0.1016 -0.1689 -0.7915
20951SOL    HW264295   6.130   5.320   8.488  0.4360  0.9843 -0.2191
20952SOL     OW64296   7.997   4.596   7.606 -0.0947 -0.1648 -0.2808
20952SOL    HW164297   7.906   4.572   7.588 -0.0873 -0.8593  0.5061
20952SOL    HW264298   8.002   4.597   7.702  0.0920  2.3726 -0.2487
20953SOL     OW64299   6.061   3.386   6.559 -0.3019  0.4743  0.1832
20953SOL    HW164300   6.065   3.469   6.512 -2.2452  1.7375  2.0483
20953SOL    HW264301   5.993   3.336   6.514  0.8261 -0.1429 -0.9023
20954SOL     OW64302   6.011   4.571  10.209 -0.1581 -0.0848  0.9134
20954SOL    HW164303   5.984   4.515  10.136 -3.2689  0.0311  1.8259
20954SOL    HW264304   5.930   4.615  10.236  0.8932  0.0489  4.2648
20955SOL     OW64305   6.096   5.783   9.236  0.0994  0.1239 -0.2232
20955SOL    HW164306   6.021   5.841   9.248 -0.5242 -0.8095  0.5349
20955SOL    HW264307   6.079   5.708   9.293  0.8428 -0.8506 -1.2147
20956SOL     OW64308   5.170   6.633   9.757 -0.1510  0.5163 -0.1351
20956SOL    HW164309   5.224   6.602   9.684 -0.6952  1.4767 -0.9668
20956SOL    HW264310   5.176   6.729   9.752  2.4555  0.7081  3.0590
20957SOL     OW64311   6.806   5.554   9.788  0.2647 -0.0673 -0.4808
20957SOL    HW164312   6.779   5.462   9.784 -1.9370  0.5576 -1.1294
20957SOL    HW264313   6.747   5.593   9.852  2.1934  0.6423  0.9741
20958SOL     OW64314   6.552   4.793   8.389 -0.3037 -0.4356 -0.2020
20958SOL    HW164315   6.534   4.855   8.318  0.6644 -0.4050 -0.4367
20958SOL    HW264316   6.488   4.814   8.457  1.2223  2.1503  0.5501
20959SOL     OW64317   7.723   4.906   8.669 -0.3333 -0.1262 -0.3969
20959SOL    HW164318   7.733   4.859   8.587  1.4569  0.0086 -0.2904
20959SOL    HW264319   7.790   4.974   8.666  0.8140 -1.0678  1.8206
20960SOL     OW64320   7.953   1.989   8.568  0.3589  0.0668 -0.1351
20960SOL    HW164321   7.949   1.896   8.589 -1.1879  0.1429  0.0026
20960SOL    HW264322   8.005   2.027   8.639  0.3914 -0.5778  0.1947
20961SOL     OW64323   6.954   5.015  10.653  0.6389  0.4750 -0.6178
20961SOL    HW164324   6.973   5.038  10.744  1.0131 -0.5246 -0.4250
20961SOL    HW264325   6.872   5.060  10.634  0.3293  0.3682  0.3579
20962SOL     OW64326   6.343   5.898   5.474 -0.0790  0.1051 -0.1019
20962SOL    HW164327   6.400   5.873   5.546 -0.2584  2.7133  1.0526
20962SOL    HW264328   6.265   5.933   5.516 -0.4930  1.0402 -1.5536
20963SOL     OW64329   5.493   4.402   8.456  0.6965 -0.3886 -0.3892
20963SOL    HW164330   5.544   4.322   8.464  0.4573 -0.3552  1.8953
20963SOL    HW264331   5.535   4.449   8.384  0.6275 -2.6487 -2.0270
20964SOL     OW64332   0.358   3.142  10.346 -0.6933  0.1577  0.6756
20964SOL    HW164333   0.443   3.183  10.331 -1.1790  0.8752 -0.2363
20964SOL    HW264334   0.379   3.050  10.363  0.4734  0.8518  3.5297
20965SOL     OW64335   6.639   6.070   8.655  0.3521 -0.1952  0.0630
20965SOL    HW164336   6.732   6.091   8.659  0.1764  0.5410  0.5656
20965SOL    HW264337   6.596   6.155   8.640 -0.2220 -0.5505 -0.3442
20966SOL     OW64338   7.198   6.206   8.219 -0.0139  0.3133 -0.2109
20966SOL    HW164339   7.165   6.248   8.140  1.5682 -1.2991 -1.8244
20966SOL    HW264340   7.127   6.148   8.247 -2.0701  3.4937  1.8271
20967SOL     OW64341   5.708   3.309   8.757  0.8274  0.2352  1.0695
20967SOL    HW164342   5.615   3.323   8.775  0.4694 -0.0116 -0.4620
20967SOL    HW264343   5.728   3.224   8.796  0.1558 -0.1555  0.5770
20968SOL     OW64344   5.547   4.166   7.224  0.0543 -0.7573 -0.1728
20968SOL    HW164345   5.473   4.180   7.283 -0.4104 -1.9607 -0.4486
20968SOL    HW264346   5.596   4.249   7.227  0.5529 -1.0779  2.5771
20969SOL     OW64347   6.714   6.667   9.298 -0.1487  0.0930 -0.0037
20969SOL    HW164348   6.807   6.670   9.317  0.1166 -0.6749 -1.0671
20969SOL    HW264349   6.671   6.675   9.383  0.8442  1.6407  0.3868
20970SOL     OW64350   6.796   3.988   8.556  0.1140 -0.1486  0.4972
20970SOL    HW164351   6.882   3.962   8.522  0.9863  2.8395  0.0469
20970SOL    HW264352   6.811   4.007   8.648  0.9721  3.5949 -0.2270
20971SOL     OW64353   0.290   4.913   7.651 -0.0047 -0.3542 -0.4372
20971SOL    HW164354   0.231   4.987   7.668 -1.6200 -1.6971  0.0250
20971SOL    HW264355   0.314   4.881   7.738 -1.5313 -2.0489 -0.6039
20972SOL     OW64356   5.697   4.658   9.646 -0.5448 -0.6863  0.2124
20972SOL    HW164357   5.674   4.567   9.627 -1.3065 -0.4230 -0.1692
20972SOL    HW264358   5.615   4.699   9.673 -0.1443 -0.1868  0.7118
20973SOL     OW64359   7.675   5.934   8.181 -0.5579  0.4746  0.1434
20973SOL    HW164360   7.643   5.845   8.171 -0.5483  0.4258  0.5234
20973SOL    HW264361   7.752   5.939   8.125  0.4652 -0.2852  1.4308
20974SOL     OW64362   0.010   3.293   9.725  0.6822  0.3380  0.3089
20974SOL    HW164363   0.022   3.198   9.734 -0.1966  0.2774  1.0315
20974SOL    HW264364  -0.081   3.303   9.699  0.7199  0.9883  0.4198
20975SOL     OW64365   5.908   4.036   9.530 -0.3394 -0.0651  0.2140
20975SOL    HW164366   5.948   3.985   9.460  0.0991 -1.7985  1.6242
20975SOL    HW264367   5.945   4.124   9.521  1.7012 -0.9084 -0.1942
20976SOL     OW64368   5.351   3.589   7.902 -0.3210  0.1110 -0.2335
20976SOL    HW164369   5.358   3.651   7.830 -2.5792  1.7839  0.8606
20976SOL    HW264370   5.270   3.540   7.884  0.2676 -1.0193  0.0589
20977SOL     OW64371   6.500   2.452   8.771 -0.5805  0.5373 -0.1777
20977SOL    HW164372   6.465   2.541   8.770  1.7425  1.5173  0.5336
20977SOL    HW264373   6.550   2.445   8.690 -1.1481 -0.3275 -0.4700
20978SOL     OW64374   5.956   5.689   9.547 -0.3843  0.2606 -0.3564
20978SOL    HW164375   6.021   5.649   9.605 -0.0021  0.3433 -0.7248
20978SOL    HW264376   5.886   5.719   9.606  0.4773  1.2839  0.1758
20979SOL     OW64377   7.429   4.700   8.595 -0.5995 -0.2360  0.4776
20979SOL    HW164378   7.421   4.686   8.501 -0.2993  0.3437  0.3614
20979SOL    HW264379   7.484   4.628   8.626  0.1103  0.1183  0.0535
20980SOL     OW64380   0.892   4.341   8.231 -0.0369  0.0731 -0.7170
20980SOL    HW164381   0.870   4.348   8.324 -2.4317  0.2553 -1.2290
20980SOL    HW264382   0.905   4.431   8.203  0.0843  0.0660 -0.6832
20981SOL     OW64383   6.258   3.842   9.078  0.2083  0.3524  0.2896
20981SOL    HW164384   6.347   3.811   9.097  0.5192  1.0220 -0.0735
20981SOL    HW264385   6.213   3.764   9.045  1.0539  0.3079 -0.8369
20982SOL     OW64386   7.518   4.987   8.964  0.3292  0.2381 -0.3754
20982SOL    HW164387   7.575   5.037   9.022  0.6664  0.8918 -1.2398
20982SOL    HW264388   7.471   4.927   9.022  1.6527 -0.0912  0.3967
20983SOL     OW64389   7.565   4.266   8.198 -0.4924 -0.0812 -0.3038
20983SOL    HW164390   7.522   4.259   8.113 -2.6075  0.7964  0.6276
20983SOL    HW264391   7.500   4.236   8.261  0.2906  1.1350  1.1647
20984SOL     OW64392   6.557   5.525   8.248 -0.3027 -0.4533  0.1096
20984SOL    HW164393   6.542   5.448   8.192 -0.7552  0.0499 -0.4787
20984SOL    HW264394   6.536   5.599   8.192  3.0585  0.3015 -0.3672
20985SOL     OW64395   5.529   5.335   9.430  0.2315  0.2905 -0.1553
20985SOL    HW164396   5.517   5.425   9.460  0.0978  0.0309  0.5945
20985SOL    HW264397   5.605   5.304   9.479  2.6104  1.1274 -3.0258
20986SOL     OW64398   5.812   3.514   9.985  0.8897 -0.0391 -0.1897
20986SOL    HW164399   5.858   3.439   9.948  1.4729 -0.0518  0.5231
20986SOL    HW264400   5.752   3.543   9.916  1.1238 -0.7576 -0.7014
20987SOL     OW64401   6.561   3.139   8.321  0.6454 -0.0795 -0.1068
20987SOL    HW164402   6.655   3.123   8.316  0.3380 -1.7136 -2.4666
20987SOL    HW264403   6.540   3.187   8.241 -0.7784 -1.4462 -0.6058
20988SOL     OW64404   0.038   6.725   8.248 -0.0300 -0.0170  0.2169
20988SOL    HW164405   0.035   6.742   8.153 -0.5113  1.3028  0.4435
20988SOL    HW264406  -0.028   6.657   8.262  1.0774 -1.3143 -0.5723
20989SOL     OW64407   6.619   3.047   8.793 -0.2434 -0.2922  0.0517
20989SOL    HW164408   6.576   3.002   8.866  0.6517 -1.5675 -0.1693
20989SOL    HW264409   6.712   3.027   8.805 -0.2290 -1.9858 -2.3790
20990SOL     OW64410   5.951   4.686   9.815  0.3008 -0.1279  0.5191
20990SOL    HW164411   5.930   4.772   9.851 -0.0435  0.1730 -0.3816
20990SOL    HW264412   5.899   4.679   9.735  0.5681 -1.0399  0.4073
20991SOL     OW64413   6.776   4.815   9.067  0.0581 -0.5910  0.5475
20991SOL    HW164414   6.793   4.898   9.111  0.4437  0.1235 -0.9055
20991SOL    HW264415   6.681   4.803   9.076  0.1728 -0.6591  1.8749
20992SOL     OW64416   6.170   4.247   9.146 -0.1179 -0.1809  0.6867
20992SOL    HW164417   6.241   4.213   9.200 -1.3205 -0.7302  2.0000
20992SOL    HW264418   6.164   4.186   9.073  2.0876  1.0411 -0.6273
20993SOL     OW64419   6.189   3.839   8.721 -0.3201  0.1670  0.3560
20993SOL    HW164420   6.279   3.809   8.738  0.7259  3.2172  0.8000
20993SOL    HW264421   6.158   3.781   8.651  1.4308 -1.8950  1.1514
20994SOL     OW64422   6.537   5.340   9.035 -0.0365  0.3608 -0.2350
20994SOL    HW164423   6.531   5.427   8.997  0.7649  0.1147 -0.9564
20994SOL    HW264424   6.579   5.353   9.119 -0.6321  0.7560  0.0086
20995SOL     OW64425   6.624   5.082   7.145  0.7936  0.2066 -0.1851
20995SOL    HW164426   6.585   4.998   7.172  0.8790  0.0409 -0.5687
20995SOL    HW264427   6.591   5.096   7.056 -1.1467  1.7516  0.6975
20996SOL     OW64428   6.203   4.626   7.449 -0.3430 -0.1234  0.1402
20996SOL    HW164429   6.122   4.614   7.499 -0.6585 -1.2029 -0.6032
20996SOL    HW264430   6.264   4.564   7.489 -0.4431 -0.6227 -0.4734
20997SOL     OW64431   5.666   4.268   8.207 -0.4617  0.1329  0.2864
20997SOL    HW164432   5.722   4.241   8.134 -0.2029  1.1508  0.0906
20997SOL    HW264433   5.651   4.187   8.256 -1.4991 -0.8042 -1.4472
20998SOL     OW64434   6.849   4.523   8.362 -0.4435 -0.0906 -0.0125
20998SOL    HW164435   6.806   4.502   8.445 -0.9796  1.1872  0.0625
20998SOL    HW264436   6.801   4.472   8.297 -0.5964 -0.4287  0.3604
20999SOL     OW64437   6.535   4.124   8.816 -0.1803 -0.0329 -0.6714
20999SOL    HW164438   6.538   4.152   8.907 -1.5999 -1.3589 -0.1646
20999SOL    HW264439   6.626   4.128   8.786  0.2351  0.8873  0.6404
21000SOL     OW64440   6.403   2.511   8.041 -0.0993  0.1682  0.2065
21000SOL    HW164441   6.390   2.582   7.978  2.4659 -0.6613 -1.4206
21000SOL    HW264442   6.380   2.431   7.993 -4.1592 -0.2407  2.3720
21001SOL     OW64443   6.199   4.838   8.287  0.0101  0.0980  0.4738
21001SOL    HW164444   6.170   4.754   8.323  2.2746 -0.2119  1.8095
21001SOL    HW264445   6.294   4.837   8.300  0.3086  2.1338 -1.1246
21002SOL     OW64446   2.668   6.074   9.804  0.4130  0.4819 -0.1382
21002SOL    HW164447   2.672   6.105   9.894 -0.5856  2.1571 -0.6126
21002SOL    HW264448   2.758   6.050   9.782  0.5860 -0.4335  1.4361
21003SOL     OW64449   6.161   3.598   8.975 -0.4094 -0.0820  0.0003
21003SOL    HW164450   6.224   3.591   8.904 -0.2347 -0.9290  0.2305
21003SOL    HW264451   6.084   3.550   8.945 -0.7442  0.4831 -0.0566
21004SOL     OW64452   7.320   4.965   8.327 -0.8366 -0.1744 -0.2869
21004SOL    HW164453   7.320   4.870   8.311 -2.0557 -0.0339 -1.2591
21004SOL    HW264454   7.262   4.976   8.402  1.2908 -0.3860  1.5220
21005SOL     OW64455   7.212   4.062   7.963 -0.1981 -0.5686 -0.4070
21005SOL    HW164456   7.234   4.032   8.052 -2.4698  2.0688  1.2132
21005SOL    HW264457   7.269   4.137   7.948 -0.1078 -0.7562 -1.0069
21006SOL     OW64458   5.292   5.911   8.516 -0.3949  0.1245 -0.2114
21006SOL    HW164459   5.303   5.821   8.487  2.8511 -0.2830  1.8415
21006SOL    HW264460   5.266   5.904   8.608 -1.5662  1.3595 -0.3996
21007SOL     OW64461   6.676   5.748   9.551 -0.2646  0.0653 -0.2828
21007SOL    HW164462   6.604   5.769   9.611 -0.2130  0.0394 -0.2106
21007SOL    HW264463   6.633   5.714   9.473 -0.3733  0.8664 -0.5798
21008SOL     OW64464   7.894   4.282   8.188  0.4292 -0.2338 -0.6149
21008SOL    HW164465   7.809   4.319   8.210  0.8202  1.0761 -1.2137
21008SOL    HW264466   7.875   4.224   8.114  0.0542  0.1006 -0.7894
21009SOL     OW64467   6.492   7.053   7.543 -0.4103  0.0589 -0.5251
21009SOL    HW164468   6.551   7.006   7.603  2.0869  2.1233 -1.1458
21009SOL    HW264469   6.426   6.988   7.519  1.6426 -2.5053  0.1840
21010SOL     OW64470   6.533   6.045   9.073  0.2500  0.5208 -0.6634
21010SOL    HW164471   6.475   5.983   9.027 -0.1980  0.6265 -0.2490
21010SOL    HW264472   6.619   6.003   9.070 -0.5381 -1.6047  2.1461
21011SOL     OW64473   6.383   5.452   7.721 -0.4336  0.1231 -0.2430
21011SOL    HW164474   6.320   5.449   7.793  2.4887 -0.9769  2.5148
21011SOL    HW264475   6.443   5.379   7.738  1.5694  1.0226 -2.7319
21012SOL     OW64476   4.336   4.675   8.898  0.2598 -0.1221 -0.2820
21012SOL    HW164477   4.364   4.682   8.807 -1.3868 -0.4450 -0.8407
21012SOL    HW264478   4.369   4.590   8.927  0.5245 -0.1527 -0.6715
21013SOL     OW64479   6.946   5.273   9.256  0.4527  0.3130  0.3544
21013SOL    HW164480   6.961   5.338   9.186  1.5972  0.1234  0.4102
21013SOL    HW264481   7.007   5.298   9.325  0.0709 -0.1428  0.8597
21014SOL     OW64482   7.199   6.352   7.092 -0.6417 -0.2144  0.5361
21014SOL    HW164483   7.203   6.416   7.021 -2.2471 -1.4442 -0.7480
21014SOL    HW264484   7.267   6.288   7.070  0.8249  0.8568  1.7121
21015SOL     OW64485   4.841   4.453  11.289 -0.0925 -0.2836 -0.4046
21015SOL    HW164486   4.859   4.483  11.200 -0.5309 -2.1171 -1.1652
21015SOL    HW264487   4.801   4.528  11.333  1.5746  1.1583 -1.2411
21016SOL     OW64488   6.954   5.042   8.901  0.3324  0.0289 -0.6834
21016SOL    HW164489   6.921   5.118   8.853  0.4312 -0.6428 -1.8692
21016SOL    HW264490   7.039   5.023   8.860  0.7050 -0.2080  0.1778
21017SOL     OW64491   5.934   4.203   6.601  0.6812  0.1590 -0.5032
21017SOL    HW164492   5.863   4.225   6.661  1.0172  1.6091 -0.6093
21017SOL    HW264493   5.981   4.132   6.645 -2.8536 -3.4928 -1.9958
21018SOL     OW64494   6.005   5.508   5.510 -0.5489 -0.1921 -0.4286
21018SOL    HW164495   5.992   5.490   5.417 -1.3003 -0.8795 -0.2114
21018SOL    HW264496   6.038   5.425   5.545  3.2859  1.0318 -0.6670
21019SOL     OW64497   7.447   5.602   8.801  0.5573 -0.4198 -0.2848
21019SOL    HW164498   7.535   5.640   8.792  1.0807 -1.8091 -1.3231
21019SOL    HW264499   7.453   5.547   8.879  0.6263 -0.5526 -0.3837
21020SOL     OW64500   7.686   3.461   6.758  0.0037 -0.7402 -0.0729
21020SOL    HW164501   7.737   3.459   6.677  0.5140 -1.4736  0.2624
21020SOL    HW264502   7.607   3.411   6.738  0.3369 -1.3033  0.0196
21021SOL     OW64503   5.341   3.656   8.179  0.4306  0.0977 -0.0931
21021SOL    HW164504   5.322   3.660   8.086  0.8455  1.1307 -0.1435
21021SOL    HW264505   5.390   3.736   8.198 -0.0821  0.1618  1.1085
21022SOL     OW64506   7.592   5.730   8.419 -0.1399  0.2407 -0.2213
21022SOL    HW164507   7.627   5.690   8.340  0.6866 -0.1330  0.3139
21022SOL    HW264508   7.517   5.781   8.390  0.4655  0.5317 -1.3142
21023SOL     OW64509   4.765   5.013   8.729  0.4285 -0.1032 -0.5717
21023SOL    HW164510   4.794   4.922   8.723  1.9785  0.4129 -1.2072
21023SOL    HW264511   4.720   5.028   8.646 -1.3729 -0.7655  0.2293
21024SOL     OW64512   6.346   6.072   8.068 -0.5581 -0.0683 -0.0555
21024SOL    HW164513   6.382   6.025   8.143  0.0651 -0.0791 -0.3468
21024SOL    HW264514   6.280   6.013   8.031  0.4585 -0.8877 -0.6234
21025SOL     OW64515   7.497   5.527   5.613  0.3350  0.1374  0.1766
21025SOL    HW164516   7.521   5.619   5.610  0.0715  0.2749  1.5703
21025SOL    HW264517   7.550   5.491   5.684 -0.2521 -0.5690  0.2653
21026SOL     OW64518   5.597   4.705  10.538  0.5663 -0.2995  0.6357
21026SOL    HW164519   5.514   4.676  10.577 -0.9832  4.0783  1.1992
21026SOL    HW264520   5.635   4.763  10.605  2.5539  0.1250 -0.7959
21027SOL     OW64521   0.436   6.581   8.538  0.8315 -0.1274  0.1025
21027SOL    HW164522   0.387   6.601   8.458 -0.1084  0.1923  0.7483
21027SOL    HW264523   0.520   6.547   8.506  0.1186 -0.8980 -1.0271
21028SOL     OW64524   7.701   4.277   7.533  0.4954 -0.1529 -0.1614
21028SOL    HW164525   7.695   4.372   7.530 -0.7447 -0.2335 -1.5597
21028SOL    HW264526   7.794   4.259   7.548  0.8970  1.2696 -0.8188
21029SOL     OW64527   4.759   4.254  10.013 -0.0057  0.5878  0.0965
21029SOL    HW164528   4.803   4.172  10.034  0.9831  1.1198  0.1199
21029SOL    HW264529   4.669   4.242  10.045  0.0487 -0.5842 -0.1542
21030SOL     OW64530   6.097   5.936   8.077 -0.0770  0.6632  0.0698
21030SOL    HW164531   6.032   5.867   8.063  0.0302  0.3797  0.9040
21030SOL    HW264532   6.140   5.912   8.160 -0.2064  1.8592  0.4990
21031SOL     OW64533   6.468   5.457   9.626 -0.2921 -0.3698  0.5354
21031SOL    HW164534   6.539   5.404   9.663 -1.1961 -2.0986 -0.0604
21031SOL    HW264535   6.400   5.455   9.694 -1.5763 -2.7468 -0.6737
21032SOL     OW64536   5.171   4.950   5.778  0.6229  0.1690  0.0524
21032SOL    HW164537   5.089   4.942   5.730 -0.0518  2.9453  0.5826
21032SOL    HW264538   5.147   4.938   5.870  0.7045  1.3350  0.2414
21033SOL     OW64539   4.851   3.913   8.658  0.1994  0.4323  0.3386
21033SOL    HW164540   4.903   3.850   8.707 -0.9254  0.1031  1.1406
21033SOL    HW264541   4.776   3.932   8.714  0.3337  2.2443 -0.0293
21034SOL     OW64542   1.165   3.143   9.580 -0.4663 -0.2824  0.0470
21034SOL    HW164543   1.239   3.090   9.609 -1.3974 -0.6821  1.8817
21034SOL    HW264544   1.196   3.233   9.588  0.0768 -0.4683  0.0559
21035SOL     OW64545   3.600   0.006   7.515 -0.5229  0.3909 -0.4066
21035SOL    HW164546   3.630   0.031   7.428  1.4875 -0.4224  0.0084
21035SOL    HW264547   3.666   0.042   7.575 -0.3823 -1.3606  0.5651
21036SOL     OW64548   5.825   5.082   9.318 -0.0948 -0.2444 -0.8157
21036SOL    HW164549   5.891   5.018   9.343  1.5927  1.4800 -0.6825
21036SOL    HW264550   5.753   5.067   9.381  1.0045 -0.8202  0.3588
21037SOL     OW64551   6.543   4.437   6.994  0.0744 -0.2270 -0.2656
21037SOL    HW164552   6.550   4.446   7.089  0.1367  1.9984 -0.4164
21037SOL    HW264553   6.449   4.444   6.976  0.0446 -0.8349 -0.3668
21038SOL     OW64554   7.354   6.114   8.715  0.7743  0.3734 -0.1352
21038SOL    HW164555   7.307   6.031   8.708  0.5408  0.4782  0.1920
21038SOL    HW264556   7.436   6.099   8.668  1.1620 -0.3617  0.7534
21039SOL     OW64557   7.555   3.528   9.658  0.0161  0.0109 -0.2430
21039SOL    HW164558   7.576   3.612   9.618  1.0683 -0.0185  0.1858
21039SOL    HW264559   7.542   3.549   9.751  0.8021 -0.3465 -0.0368
21040SOL     OW64560   6.163   6.746   8.213  0.1155 -0.5887  0.0501
21040SOL    HW164561   6.186   6.737   8.120  0.0543  1.8000 -0.2432
21040SOL    HW264562   6.231   6.695   8.258  1.2920 -0.2380 -1.2260
21041SOL     OW64563   7.720   4.003   8.710 -0.4894  0.2128  0.9715
21041SOL    HW164564   7.717   4.042   8.798 -0.3175  0.8266  0.7086
21041SOL    HW264565   7.640   4.032   8.668  0.4706  1.8159  0.1485
21042SOL     OW64566   6.971   5.299   9.591 -0.2431 -0.1822 -0.0295
21042SOL    HW164567   6.900   5.334   9.646 -2.3529  0.1491 -2.7817
21042SOL    HW264568   6.968   5.205   9.606 -0.1018 -0.0261  1.1253
21043SOL     OW64569   4.321   5.829   9.937  0.1136  0.3635  0.0948
21043SOL    HW164570   4.325   5.924   9.951 -1.2379  0.8698 -2.3237
21043SOL    HW264571   4.268   5.797  10.011 -2.0643  1.9924 -0.6211
21044SOL     OW64572   7.923   5.612  10.456 -0.1458 -0.1689 -0.1389
21044SOL    HW164573   7.951   5.613  10.547 -0.6760  2.0239  0.0483
21044SOL    HW264574   7.976   5.678  10.413 -1.0912  0.0506 -1.0262
21045SOL     OW64575   7.245   3.731   9.038  0.1298  0.1434 -0.2805
21045SOL    HW164576   7.218   3.805   8.984  1.1981  0.6745 -0.1048
21045SOL    HW264577   7.316   3.689   8.990  0.3046 -0.0809  0.1596
21046SOL     OW64578   6.381   2.715   8.840 -0.0365  0.2907  0.4404
21046SOL    HW164579   6.413   2.740   8.926 -0.9395 -0.8280  1.1332
21046SOL    HW264580   6.344   2.796   8.804 -0.2081  0.6381  1.3626
21047SOL     OW64581   7.266   4.217   9.781 -0.4118  0.2089  0.4539
21047SOL    HW164582   7.329   4.174   9.724 -0.8211 -1.2896  1.0783
21047SOL    HW264583   7.281   4.310   9.768  1.2549 -0.1110 -0.1369
21048SOL     OW64584   5.983   6.168   8.807  0.5321 -0.7755  0.1451
21048SOL    HW164585   6.012   6.120   8.885  2.1629 -1.5465 -0.9011
21048SOL    HW264586   6.019   6.256   8.818 -0.6417 -0.3734  1.0229
21049SOL     OW64587   0.808   5.640   6.857  0.0979  0.2712  0.0985
21049SOL    HW164588   0.786   5.705   6.924 -3.7329 -1.8076  1.1273
21049SOL    HW264589   0.899   5.618   6.873 -0.5839 -0.0216  4.6626
21050SOL     OW64590   5.407   6.452   7.833  0.0052  0.4551  0.4866
21050SOL    HW164591   5.426   6.368   7.791  0.4525  0.9417 -0.2992
21050SOL    HW264592   5.425   6.517   7.766  0.1071  1.2111  1.2314
21051SOL     OW64593   6.865   5.036   9.168  0.0105  0.0936 -0.0358
21051SOL    HW164594   6.889   5.116   9.214 -3.1119  1.5760 -0.7680
21051SOL    HW264595   6.900   5.047   9.080  3.3439 -1.4176  0.9240
21052SOL     OW64596   7.128   5.975   7.096 -0.6397  0.6176 -0.3933
21052SOL    HW164597   7.097   5.999   7.008  1.6712 -0.4866 -1.6079
21052SOL    HW264598   7.124   5.879   7.098 -0.6191  0.6250  0.7073
21053SOL     OW64599   7.010   6.121   7.288 -0.5253  0.3520  0.0862
21053SOL    HW164600   7.048   6.088   7.206  1.1090  1.2722  0.4260
21053SOL    HW264601   6.970   6.204   7.264  0.9127  1.1578  0.3944
21054SOL     OW64602   5.608   6.032  11.076  0.2313 -0.3484  0.0933
21054SOL    HW164603   5.625   5.999  11.164  0.6432  0.1249  0.1950
21054SOL    HW264604   5.626   5.958  11.019 -0.9080 -0.9389  0.4625
21055SOL     OW64605   7.711   6.567   8.123  0.7729 -0.0740 -0.5914
21055SOL    HW164606   7.635   6.594   8.174  0.8880  0.1595 -0.5414
21055SOL    HW264607   7.740   6.647   8.079  1.6546  0.0920  0.2483
21056SOL     OW64608   5.473   6.170   9.265 -0.1515 -0.9113  0.2055
21056SOL    HW164609   5.394   6.126   9.295 -0.2450 -1.0616 -0.2425
21056SOL    HW264610   5.448   6.211   9.182 -0.0291 -0.1160  0.5494
21057SOL     OW64611   7.842   3.746   9.812  0.3520  0.1346 -0.0224
21057SOL    HW164612   7.805   3.740   9.724  0.4539  0.6224 -0.1001
21057SOL    HW264613   7.766   3.746   9.871  0.2657  0.2414 -0.1346
21058SOL     OW64614   4.981   3.764   8.158  0.6342  0.0767  0.3956
21058SOL    HW164615   4.992   3.810   8.074 -1.4210  1.2623  0.7067
21058SOL    HW264616   5.025   3.821   8.221  2.4485 -0.9665  0.1496
21059SOL     OW64617   7.762   6.768   8.467  1.0136  0.1262  0.1887
21059SOL    HW164618   7.682   6.775   8.520  0.5337  0.6247 -0.5959
21059SOL    HW264619   7.767   6.676   8.443  0.5060  0.1518 -0.0169
21060SOL     OW64620   5.590   3.609   9.450 -0.1648  0.9416  0.4488
21060SOL    HW164621   5.576   3.703   9.463  1.1101  1.4048 -1.1885
21060SOL    HW264622   5.680   3.603   9.416 -0.8178 -0.6841 -1.1600
21061SOL     OW64623   5.776   3.855   6.911 -0.5117 -0.1333  0.1915
21061SOL    HW164624   5.691   3.815   6.931  0.7689 -2.5237  1.2415
21061SOL    HW264625   5.779   3.858   6.816 -0.8959 -2.0985  0.0875
21062SOL     OW64626   7.399   4.134   8.388 -0.3543 -0.5715  0.1377
21062SOL    HW164627   7.455   4.118   8.464 -1.7583 -3.7986  0.6727
21062SOL    HW264628   7.311   4.141   8.425 -0.7994  0.2309 -1.0336
21063SOL     OW64629   7.703   3.487   8.839 -0.0354  0.7751  0.1927
21063SOL    HW164630   7.709   3.401   8.879 -1.5461  0.1961 -0.7397
21063SOL    HW264631   7.629   3.529   8.883  0.0986  1.2254 -0.0079
21064SOL     OW64632   7.078   4.975   7.571  0.2911 -0.6474 -0.4072
21064SOL    HW164633   7.089   4.919   7.494 -1.0057 -0.0658 -1.0667
21064SOL    HW264634   7.110   5.061   7.542  0.0081 -0.4814 -0.2310
21065SOL     OW64635   5.465   6.595   8.718 -0.2445 -0.1735  0.2975
21065SOL    HW164636   5.421   6.515   8.745 -1.0281  0.8104  2.1502
21065SOL    HW264637   5.470   6.648   8.798  0.0655  1.6962 -0.8871
21066SOL     OW64638   6.972   3.580   7.779 -0.7881  0.0169 -0.3015
21066SOL    HW164639   6.882   3.610   7.764 -0.8554  0.3740  0.6889
21066SOL    HW264640   7.017   3.656   7.815 -0.8944 -0.9206  2.0477
21067SOL     OW64641   7.025   2.176   8.899  0.0001  0.3021  0.5978
21067SOL    HW164642   7.014   2.229   8.978 -1.7466  0.5586  0.2351
21067SOL    HW264643   7.078   2.102   8.927  1.9043  1.8422  1.2880
21068SOL     OW64644   7.773   2.491   8.396 -0.4698 -0.1684  0.3357
21068SOL    HW164645   7.682   2.459   8.396 -0.4957 -0.0951  0.5577
21068SOL    HW264646   7.807   2.466   8.310  0.0983 -2.5051  1.1343
21069SOL     OW64647   7.355   5.883   8.334 -0.2091 -0.4050  0.2126
21069SOL    HW164648   7.269   5.923   8.320  0.4503  0.4734 -1.6784
21069SOL    HW264649   7.349   5.797   8.294 -0.5252 -0.7782  1.0494
21070SOL     OW64650   7.874   6.451   5.664 -0.1866 -0.3376 -0.2625
21070SOL    HW164651   7.948   6.444   5.723 -1.1121 -2.8732  0.7285
21070SOL    HW264652   7.818   6.518   5.704  1.4677  1.6298 -1.0415
21071SOL     OW64653   4.696   5.041   9.890  0.2054  0.1945  0.1826
21071SOL    HW164654   4.670   5.133   9.881 -0.7603  0.0004  0.7838
21071SOL    HW264655   4.791   5.042   9.888  0.2275  1.3176  1.1165
21072SOL     OW64656   6.021   3.270  11.092 -0.6554 -0.0244  0.0130
21072SOL    HW164657   6.055   3.253  11.180  0.5692  0.9454 -0.2441
21072SOL    HW264658   5.975   3.189  11.068  1.0055 -1.2078  0.6196
21073SOL     OW64659   6.030   3.009   9.924 -0.1430 -1.1709 -0.2093
21073SOL    HW164660   5.965   2.956   9.877 -0.3077 -0.9064 -0.2806
21073SOL    HW264661   6.112   2.993   9.877 -0.1452 -1.5349 -0.0973
21074SOL     OW64662   7.443   4.647   0.176  0.1405  0.4643 -0.6076
21074SOL    HW164663   7.458   4.670   0.084 -1.2062 -0.4101 -1.0669
21074SOL    HW264664   7.496   4.569   0.191  0.7362  0.8841 -0.4911
21075SOL     OW64665   6.763   4.896  10.299  0.0712  0.1361  0.0836
21075SOL    HW164666   6.684   4.931  10.256  0.3352  2.3686  1.2716
21075SOL    HW264667   6.829   4.964  10.287  1.5741 -1.2973 -0.0744
21076SOL     OW64668   6.105   4.889   8.922  0.0305 -0.3031  0.1129
21076SOL    HW164669   6.091   4.838   9.001  0.2966 -1.7415 -0.7274
21076SOL    HW264670   6.058   4.841   8.853 -0.3477  1.0051 -0.5829
21077SOL     OW64671   7.285   3.417   8.765 -0.5512  0.2232  0.1777
21077SOL    HW164672   7.340   3.462   8.701 -0.0736  0.3848  0.6983
21077SOL    HW264673   7.201   3.404   8.720 -0.5142  1.1345 -0.1736
21078SOL     OW64674   6.194   5.402  11.115  0.0992 -0.0604 -0.0494
21078SOL    HW164675   6.195   5.498  11.118 -1.0081 -0.0003 -0.7740
21078SOL    HW264676   6.218   5.381  11.025 -0.8206 -0.4116 -0.2216
21079SOL     OW64677   5.981   4.930   9.951 -0.4366 -0.6780 -0.0600
21079SOL    HW164678   6.038   4.898  10.021 -0.1825 -0.2179 -0.0482
21079SOL    HW264679   5.896   4.944   9.994 -0.3387 -0.5973  0.1119
21080SOL     OW64680   6.286   4.598  10.987 -0.2755  0.3619 -0.6787
21080SOL    HW164681   6.243   4.610  11.072  0.8607  0.0128 -0.0416
21080SOL    HW264682   6.268   4.679  10.939 -1.1568  0.4495 -0.2142
21081SOL     OW64683   7.098   5.400  11.418  0.2770  0.3124  0.1365
21081SOL    HW164684   7.046   5.322  11.399 -0.8393  0.3615  2.6225
21081SOL    HW264685   7.040   5.456  11.469  1.5961  2.0660 -0.2073
21082SOL     OW64686   6.126   5.069   9.392 -0.0560  0.2486  0.2250
21082SOL    HW164687   6.219   5.044   9.394  0.8490  3.1580 -0.4013
21082SOL    HW264688   6.100   5.073   9.484  0.6679  0.1155  0.4398
21083SOL     OW64689   5.826   7.074  10.516 -0.2741  0.1618 -0.1371
21083SOL    HW164690   5.804   7.165  10.497  1.7104  0.9371  0.9843
21083SOL    HW264691   5.913   7.078  10.555  0.8253 -2.4161 -2.0354
21084SOL     OW64692   7.145   4.702   9.656  0.0273 -0.0954  0.2921
21084SOL    HW164693   7.050   4.711   9.669 -0.1163  0.8455 -1.1504
21084SOL    HW264694   7.179   4.791   9.672  0.4742 -0.0963 -0.6379
21085SOL     OW64695   5.196   4.660   9.600  0.3398  0.1233  0.3383
21085SOL    HW164696   5.200   4.566   9.583  0.5995  0.4834 -1.7663
21085SOL    HW264697   5.158   4.666   9.688 -0.1662 -1.9206  0.3141
21086SOL     OW64698   5.531   4.335  10.361  0.0678 -0.4037 -0.3877
21086SOL    HW164699   5.584   4.259  10.335  0.2117 -0.7024  0.7178
21086SOL    HW264700   5.478   4.355  10.284 -2.1988 -3.5002  0.1860
21087SOL     OW64701   7.259   4.894  10.664  0.5265 -0.7758  0.2810
21087SOL    HW164702   7.197   4.902  10.592 -0.6516 -0.0277  1.3483
21087SOL    HW264703   7.282   4.801  10.666  0.2761 -0.8721 -0.7880
21088SOL     OW64704   6.657   5.394   9.269  0.2222  0.1480  0.0563
21088SOL    HW164705   6.702   5.478   9.260  1.3945 -0.0343  3.2134
21088SOL    HW264706   6.725   5.328   9.258 -0.4290 -0.4046 -0.9268
21089SOL     OW64707   7.163   5.366  10.103  0.5547 -0.0397 -0.1869
21089SOL    HW164708   7.254   5.336  10.107  0.7228  0.2276 -1.5449
21089SOL    HW264709   7.134   5.366  10.194  1.7310 -0.6822  0.2133
21090SOL     OW64710   5.510   3.302  11.238  0.3195 -0.2865 -0.2409
21090SOL    HW164711   5.430   3.342  11.272 -0.6341 -2.5634  0.3998
21090SOL    HW264712   5.575   3.318  11.307  0.0205  0.2731 -0.0752
21091SOL     OW64713   7.160   5.204   9.862 -0.0400 -0.2873  0.0038
21091SOL    HW164714   7.149   5.267   9.934  0.9782  2.2096 -1.8558
21091SOL    HW264715   7.088   5.225   9.802  0.1399 -1.1460 -0.5142
21092SOL     OW64716   7.045   4.206  10.638 -0.0462  0.8474  0.7780
21092SOL    HW164717   7.055   4.250  10.553  0.8757  0.6148  0.7477
21092SOL    HW264718   6.969   4.248  10.678  0.2565  1.8334  0.3615
21093SOL     OW64719   6.315   4.658   8.868  0.4698 -0.2422 -0.2652
21093SOL    HW164720   6.238   4.625   8.914  1.6942 -1.5365  0.9621
21093SOL    HW264721   6.372   4.581   8.860  1.2115  0.4477 -2.0656
21094SOL     OW64722   6.323   5.388  10.225 -0.1031  0.2721 -0.5625
21094SOL    HW164723   6.299   5.423  10.140  0.5344 -0.0829 -0.8944
21094SOL    HW264724   6.418   5.374  10.220 -0.0475  0.3069  0.2233
21095SOL     OW64725   4.256   5.223   9.959  0.0228  0.9782  0.6613
21095SOL    HW164726   4.198   5.255   9.890 -0.2280 -1.6337 -0.4730
21095SOL    HW264727   4.344   5.234   9.923  0.0410  1.6934  0.9060
21096SOL     OW64728   7.543   5.405  10.712 -0.1683  0.3442 -0.0151
21096SOL    HW164729   7.547   5.443  10.799 -0.0329 -0.1062  0.1813
21096SOL    HW264730   7.614   5.446  10.663 -0.1938  0.5359  0.1119
21097SOL     OW64731   7.741   5.764  10.294 -0.2189 -0.2408 -0.1491
21097SOL    HW164732   7.782   5.692  10.341  0.1442 -0.5028 -0.8502
21097SOL    HW264733   7.767   5.842  10.342  2.4198 -0.2348 -1.4021
21098SOL     OW64734   6.252   3.524   9.536 -0.5816  0.3922  0.3821
21098SOL    HW164735   6.249   3.494   9.445  1.1154 -0.6357  0.6188
21098SOL    HW264736   6.286   3.449   9.585 -2.5868  0.4974  2.1007
21099SOL     OW64737   0.000   5.243   8.680  0.3566  0.2003  0.1719
21099SOL    HW164738  -0.039   5.294   8.751  0.0514  1.2879 -0.7534
21099SOL    HW264739  -0.029   5.286   8.600 -0.6683 -1.9922 -0.6984
21100SOL     OW64740   5.997   4.766  12.329 -0.2219  0.1752  0.1877
21100SOL    HW164741   6.011   4.770  12.235 -0.3687 -0.8042  0.1129
21100SOL    HW264742   5.991   4.858  12.357 -1.0756  0.4545 -0.8804
21101SOL     OW64743   4.914   3.721   9.843  0.2485 -0.5539  0.5251
21101SOL    HW164744   4.902   3.633   9.879 -1.4272  0.1668  1.8872
21101SOL    HW264745   4.833   3.738   9.795  0.8545 -0.0071 -0.3285
21102SOL     OW64746   5.834   4.733   8.865  0.1911  0.2120  0.4728
21102SOL    HW164747   5.816   4.824   8.841  0.4998 -0.0668 -0.9049
21102SOL    HW264748   5.837   4.733   8.960  2.0592  2.0179  0.4639
21103SOL     OW64749   7.737   4.228   9.194  0.4372  0.2871  0.6939
21103SOL    HW164750   7.737   4.287   9.269  0.9588  1.2889 -0.0572
21103SOL    HW264751   7.813   4.255   9.143 -0.4618  0.2844 -0.6960
21104SOL     OW64752   7.103   5.232  12.250 -0.4062  0.4445  0.2257
21104SOL    HW164753   7.194   5.259  12.266 -0.2598  0.4634 -0.5592
21104SOL    HW264754   7.051   5.309  12.270 -0.1766  0.6671 -0.0177
21105SOL     OW64755   5.322   4.447  11.591 -0.2270  0.2879  0.0881
21105SOL    HW164756   5.313   4.418  11.501 -0.1812 -0.1405  0.2219
21105SOL    HW264757   5.360   4.372  11.637 -1.8143 -0.1017  0.8120
21106SOL     OW64758   5.670   6.319   8.936  0.7757 -0.0781  0.0152
21106SOL    HW164759   5.713   6.306   8.852 -0.3468 -0.1910 -0.5677
21106SOL    HW264760   5.576   6.315   8.915  0.4378 -2.5784  1.6280
21107SOL     OW64761   4.497   4.913  10.028 -0.0318 -0.8305  0.3813
21107SOL    HW164762   4.539   4.930   9.943 -1.5640  0.6432 -0.1432
21107SOL    HW264763   4.527   4.985  10.083  0.2520 -1.2894  0.8322
21108SOL     OW64764   7.434   3.949   9.262 -0.0403 -0.6199 -0.0050
21108SOL    HW164765   7.473   3.971   9.178  0.5614 -2.2190 -0.1728
21108SOL    HW264766   7.340   3.944   9.245 -0.2790  1.8493  0.0950
21109SOL     OW64767   6.669   4.956   8.699  0.0412 -0.1911  0.2166
21109SOL    HW164768   6.652   5.009   8.622 -2.3927 -3.3394 -1.7014
21109SOL    HW264769   6.616   4.995   8.768  0.3892  1.3122 -0.3404
21110SOL     OW64770   6.240   6.469   8.951 -0.0145 -0.4297 -0.4291
21110SOL    HW164771   6.274   6.553   8.983 -0.2107 -0.6766  0.4636
21110SOL    HW264772   6.148   6.469   8.977  0.0923 -1.1001 -0.0381
21111SOL     OW64773   5.841   5.567  11.110  0.3137  0.5168 -0.2514
21111SOL    HW164774   5.931   5.598  11.096  0.8264 -1.3271 -1.3977
21111SOL    HW264775   5.850   5.472  11.121 -1.2163  0.5884  2.6175
21112SOL     OW64776   0.241   4.957  11.215 -0.0229  0.5747  0.7055
21112SOL    HW164777   0.289   4.877  11.238 -0.1842 -0.1848 -1.4281
21112SOL    HW264778   0.173   4.929  11.155  1.0294  2.4745 -1.5811
21113SOL     OW64779   6.611   4.714  11.344  0.2131  0.7522  0.2181
21113SOL    HW164780   6.580   4.624  11.335 -0.3207  1.0317 -0.8740
21113SOL    HW264781   6.577   4.743  11.429 -0.5154  0.2785  0.0916
21114SOL     OW64782   5.986   4.670  10.798  0.1768  0.2553 -0.4360
21114SOL    HW164783   6.000   4.765  10.793 -0.5311  0.5182  1.6398
21114SOL    HW264784   5.903   4.656  10.754  0.0803  0.6552 -0.3887
21115SOL     OW64785   6.850   4.263  10.417 -0.7688  0.0148 -0.5859
21115SOL    HW164786   6.888   4.186  10.375  3.0335  2.3767 -2.0003
21115SOL    HW264787   6.808   4.311  10.346 -0.3457  0.7535 -0.3411
21116SOL     OW64788   4.501   4.328  10.043  0.0931  0.0934  0.0140
21116SOL    HW164789   4.509   4.424  10.045 -1.2086  0.2218  0.5225
21116SOL    HW264790   4.406   4.313  10.050  0.1420 -1.1988 -1.6293
21117SOL     OW64791   5.308   5.764   0.073 -0.2565 -0.1986 -0.1395
21117SOL    HW164792   5.318   5.849   0.029 -0.6297 -0.2498 -0.3207
21117SOL    HW264793   5.255   5.712   0.013 -0.9173 -0.2097  0.4519
21118SOL     OW64794   6.849   4.767   8.720  0.1391  0.3825 -0.0870
21118SOL    HW164795   6.808   4.689   8.682  0.0053  0.4188 -0.0161
21118SOL    HW264796   6.787   4.837   8.703 -2.2056 -0.3472  4.2347
21119SOL     OW64797   0.142   5.344  11.642 -0.6443  0.0127 -0.1448
21119SOL    HW164798   0.087   5.389  11.578 -1.4929 -0.7227  0.0516
21119SOL    HW264799   0.228   5.385  11.633 -0.4290 -0.8032 -2.5353
21120SOL     OW64800   5.723   4.340   8.938  0.2994 -0.2168  0.1559
21120SOL    HW164801   5.753   4.397   8.867 -2.1354  1.4239  0.3110
21120SOL    HW264802   5.668   4.275   8.894 -1.3864  0.9280  0.4610
21121SOL     OW64803   6.833   3.057   9.140  0.1434 -0.0319 -0.1839
21121SOL    HW164804   6.903   2.992   9.135 -0.0546 -0.2089 -0.6847
21121SOL    HW264805   6.757   3.015   9.101 -0.2270  0.1924  0.2715
21122SOL     OW64806   6.941   6.228   9.461  0.2865  0.2547  0.2873
21122SOL    HW164807   6.920   6.155   9.519 -0.4574  0.4931  0.3323
21122SOL    HW264808   7.035   6.219   9.443  0.1586 -0.8553  0.0863
21123SOL     OW64809   7.289   4.660  10.391 -0.1939  0.3000 -0.3823
21123SOL    HW164810   7.243   4.716  10.328  1.6121  1.9518 -0.2896
21123SOL    HW264811   7.315   4.583  10.339  2.9919  2.4713 -2.3600
21124SOL     OW64812   6.198   4.337   9.872  0.2938  0.0992  0.2793
21124SOL    HW164813   6.111   4.363   9.903 -0.2524  1.6322 -2.2637
21124SOL    HW264814   6.259   4.387   9.927 -0.4590  0.2443  1.0017
21125SOL     OW64815   7.200   4.825  10.945 -0.0995  0.0699  0.0974
21125SOL    HW164816   7.185   4.886  11.017  1.1580 -0.3216  0.7133
21125SOL    HW264817   7.236   4.879  10.875 -2.6980  0.7435 -0.8651
21126SOL     OW64818   4.146   4.099  10.441  0.4171  0.2524 -0.5216
21126SOL    HW164819   4.206   4.159  10.397 -0.3412  2.0319  0.7314
21126SOL    HW264820   4.059   4.129  10.416  0.0106 -0.5973 -0.1864
21127SOL     OW64821   0.513   6.143   9.937  0.5493  0.6141 -0.4124
21127SOL    HW164822   0.530   6.134  10.031  0.6823  0.9715 -0.3980
21127SOL    HW264823   0.552   6.066   9.897 -0.2444  0.0346 -0.0825
21128SOL     OW64824   6.868   4.798  11.916 -0.5362 -0.1307 -0.2450
21128SOL    HW164825   6.936   4.747  11.960 -0.1216 -1.6228 -2.4197
21128SOL    HW264826   6.813   4.733  11.873 -1.7902  1.1637 -0.6984
21129SOL     OW64827   5.821   6.883  10.120 -0.1110 -0.6905 -0.1221
21129SOL    HW164828   5.829   6.856  10.029 -2.6570 -0.7011 -0.3897
21129SOL    HW264829   5.732   6.859  10.145 -0.2164  1.3090  1.7067
21130SOL     OW64830   6.314   4.226  11.374 -0.5616 -0.5518 -0.0538
21130SOL    HW164831   6.271   4.240  11.289 -0.0065 -0.3108 -0.3045
21130SOL    HW264832   6.266   4.155  11.414  0.7747 -2.5216 -1.7264
21131SOL     OW64833   6.993   5.848   9.475  0.3671 -0.6086  0.0685
21131SOL    HW164834   6.971   5.898   9.396  1.3272 -1.9445 -1.1029
21131SOL    HW264835   7.075   5.887   9.507  0.4461 -0.6224 -0.1162
21132SOL     OW64836   5.468   6.393   8.443  0.1154  0.4218 -0.0562
21132SOL    HW164837   5.448   6.319   8.500 -2.1869 -1.5436 -3.1081
21132SOL    HW264838   5.537   6.361   8.385  0.2854  1.2902 -0.3512
21133SOL     OW64839   6.641   3.762   8.955  0.2050 -0.1305  0.5491
21133SOL    HW164840   6.671   3.704   8.884  1.7856  0.4806  0.6723
21133SOL    HW264841   6.659   3.713   9.035 -0.4299 -0.3169  0.5814
21134SOL     OW64842   5.268   5.941  12.004  0.1676 -0.0998  0.4489
21134SOL    HW164843   5.327   5.999  12.052 -0.0795 -0.2906  0.9968
21134SOL    HW264844   5.216   5.999  11.949 -0.5599  0.2782  1.5023
21135SOL     OW64845   5.235   4.833  10.840 -0.1054 -0.8190  0.1769
21135SOL    HW164846   5.153   4.882  10.852  0.9218  1.2389 -0.7176
21135SOL    HW264847   5.265   4.858  10.753  0.1080 -3.7408 -0.6845
21136SOL     OW64848   7.259   4.931   9.746  0.4140  0.8166 -0.2570
21136SOL    HW164849   7.286   4.999   9.807 -1.8623  0.0388  1.7715
21136SOL    HW264850   7.332   4.868   9.745  0.8439  1.2666  1.0380
21137SOL     OW64851   0.707   3.602   9.464 -0.0470  0.2338  0.2892
21137SOL    HW164852   0.613   3.613   9.454  0.1041  0.6201 -0.8660
21137SOL    HW264853   0.734   3.676   9.519 -0.3345  0.4778  0.1066
21138SOL     OW64854   6.149   4.474   8.975 -0.0633 -0.6426  0.5898
21138SOL    HW164855   6.169   4.405   9.038  1.5135  0.6840  1.6144
21138SOL    HW264856   6.081   4.526   9.016 -0.7098 -1.1231  0.1468
21139SOL     OW64857   6.789   3.269  10.147 -0.0119  0.0280 -0.0412
21139SOL    HW164858   6.697   3.287  10.127 -0.3846 -0.7256  0.9050
21139SOL    HW264859   6.829   3.355  10.155 -0.7215  0.3711 -0.0833
21140SOL     OW64860   6.076   3.625  10.931  0.3266 -0.3275  0.2648
21140SOL    HW164861   6.059   3.568  10.856  2.1479 -2.8729  1.6382
21140SOL    HW264862   6.170   3.641  10.929  0.1491  1.0402  1.0537
21141SOL     OW64863   6.252   5.324  11.776  0.0134 -0.4209 -0.4517
21141SOL    HW164864   6.318   5.297  11.840 -1.8573  0.4124  1.9500
21141SOL    HW264865   6.200   5.245  11.761 -1.0642 -0.0397  1.0524
21142SOL     OW64866   5.094   4.657   9.878  0.5126  0.0418  0.0779
21142SOL    HW164867   5.018   4.614   9.917  0.0455  1.0722  0.3633
21142SOL    HW264868   5.160   4.657   9.948  0.2759  0.3680  0.3080
21143SOL     OW64869   6.533   3.642  11.549 -0.1360  0.5137 -0.6915
21143SOL    HW164870   6.486   3.723  11.532  0.4430  0.9165 -0.4025
21143SOL    HW264871   6.619   3.655  11.508  0.1038  0.2106 -0.2906
21144SOL     OW64872   7.615   6.693   9.080  0.3354 -0.2838  0.1131
21144SOL    HW164873   7.570   6.754   9.139 -1.0203  0.4333 -1.5824
21144SOL    HW264874   7.687   6.746   9.043  0.5737 -0.4327  0.3571
21145SOL     OW64875   5.799   5.009   8.753  0.0603  0.4493 -0.0549
21145SOL    HW164876   5.808   5.041   8.843  1.0067  0.0460  0.0042
21145SOL    HW264877   5.787   5.089   8.701  1.7737  0.8918  0.1663
21146SOL     OW64878   4.932   4.234   8.906 -0.1893 -0.5820  0.2996
21146SOL    HW164879   4.870   4.221   8.978 -0.7990  0.0706 -0.0825
21146SOL    HW264880   4.971   4.149   8.892  0.6846 -0.5099  2.0614
21147SOL     OW64881   5.463   3.904   9.983  0.5887  0.0556  0.2004
21147SOL    HW164882   5.407   3.941  10.051 -0.5596 -1.9889  0.4528
21147SOL    HW264883   5.551   3.908  10.019  0.1376  0.0854  1.3330
21148SOL     OW64884   6.531   4.406  11.006 -0.1975  0.6254  0.3648
21148SOL    HW164885   6.539   4.500  10.992 -1.6460  0.5869 -1.1863
21148SOL    HW264886   6.535   4.369  10.918  0.7556 -0.8098  0.9909
21149SOL     OW64887   6.347   4.885  12.130 -0.5874 -0.0907 -0.4127
21149SOL    HW164888   6.330   4.881  12.036 -1.1634  0.0970 -0.3200
21149SOL    HW264889   6.441   4.902  12.137 -0.5155 -0.2539 -0.9522
21150SOL     OW64890   5.168   6.058  11.274 -0.4633  0.2220  0.3833
21150SOL    HW164891   5.117   5.992  11.322  1.7344 -0.1297  2.3824
21150SOL    HW264892   5.178   6.020  11.187 -0.0247 -1.7182  1.2205
21151SOL     OW64893   7.024   5.040   9.634  0.0975 -0.0537  0.1079
21151SOL    HW164894   7.110   5.010   9.663  0.1322 -0.6124 -0.5318
21151SOL    HW264895   7.013   5.000   9.547 -1.0769 -0.5179  0.4504
21152SOL     OW64896   6.869   4.709  10.059 -0.1999  0.3876  0.1572
21152SOL    HW164897   6.858   4.690   9.966  1.2496  0.2403  0.0017
21152SOL    HW264898   6.885   4.803  10.063 -2.6264  0.8638  0.5127
21153SOL     OW64899   6.732   2.744   9.815 -0.2609  0.1267 -0.3819
21153SOL    HW164900   6.669   2.812   9.793  0.2124  0.5953 -0.3018
21153SOL    HW264901   6.817   2.788   9.816 -0.0075 -0.3432  0.1922
21154SOL     OW64902   5.880   3.212   9.634 -0.3727  0.3304 -0.2676
21154SOL    HW164903   5.835   3.269   9.572 -0.6982 -0.7617 -1.0737
21154SOL    HW264904   5.945   3.165   9.580 -0.3035 -0.2491  0.3117
21155SOL     OW64905   7.581   5.025  10.707 -0.0547 -0.3086  0.5368
21155SOL    HW164906   7.528   4.964  10.656 -2.3390  0.7689  1.5251
21155SOL    HW264907   7.655   5.046  10.649  0.4124 -3.3064 -0.1394
21156SOL     OW64908   5.822   4.713  10.354  0.2971 -0.0542 -0.5827
21156SOL    HW164909   5.846   4.806  10.351  2.9765 -0.6225  0.2680
21156SOL    HW264910   5.754   4.707  10.420 -0.0512  1.3145 -0.7898
21157SOL     OW64911   6.152   5.397   9.276  0.2327 -0.0557 -0.1184
21157SOL    HW164912   6.091   5.401   9.350 -0.6598 -1.2640 -0.7589
21157SOL    HW264913   6.238   5.392   9.316 -0.2948 -1.7186  0.8807
21158SOL     OW64914   7.397   5.367   8.562  0.1003 -0.4300  0.1141
21158SOL    HW164915   7.489   5.347   8.581  0.1798  0.4998  0.7685
21158SOL    HW264916   7.390   5.462   8.572 -0.8120 -0.4184 -0.4854
21159SOL     OW64917   6.884   4.763   9.707 -0.2710 -0.2366 -0.0884
21159SOL    HW164918   6.885   4.835   9.770  1.2302 -0.8842  0.6792
21159SOL    HW264919   6.803   4.775   9.658 -0.6002  1.3145  0.7765
21160SOL     OW64920   7.461   5.100  11.068 -0.1250 -0.8824 -0.3852
21160SOL    HW164921   7.529   5.111  11.134 -0.0524  1.4438 -0.7506
21160SOL    HW264922   7.383   5.072  11.118  0.5622 -1.6230  0.2994
21161SOL     OW64923   7.373   4.918  10.054  0.0816  0.3093  0.1768
21161SOL    HW164924   7.351   4.826  10.039 -1.4077  0.7695 -0.5784
21161SOL    HW264925   7.358   4.931  10.148  0.0706 -0.1576  0.2403
21162SOL     OW64926   4.114   4.533   9.400  0.0121 -0.1418 -0.2704
21162SOL    HW164927   4.191   4.518   9.346 -1.8944 -2.6118 -2.5173
21162SOL    HW264928   4.053   4.463   9.377 -1.8179 -0.1104  3.5819
21163SOL     OW64929   7.388   5.927   9.372 -0.1566 -0.1636  0.0382
21163SOL    HW164930   7.426   5.840   9.362 -1.2635 -0.6889  0.2059
21163SOL    HW264931   7.335   5.921   9.452 -1.2291  0.2730 -0.6141
21164SOL     OW64932   6.494   5.066  10.805  0.5364 -0.0663  0.0154
21164SOL    HW164933   6.439   4.989  10.816  1.7169 -1.1359 -1.2119
21164SOL    HW264934   6.540   5.052  10.723  1.4224  1.5584  0.1765
21165SOL     OW64935   7.481   4.138  11.394 -0.3362  0.3535 -0.2574
21165SOL    HW164936   7.457   4.142  11.302  1.2992  1.8159 -0.6739
21165SOL    HW264937   7.566   4.183  11.399 -0.3527  0.2607  1.9449
21166SOL     OW64938   5.928   5.363  11.592 -0.0477  0.1218  0.6127
21166SOL    HW164939   5.890   5.449  11.575  0.5031  0.3910  0.6999
21166SOL    HW264940   6.005   5.360  11.535 -0.5691 -0.6754 -0.0486
21167SOL     OW64941   0.083   3.890  10.540  0.6077 -0.0838  0.3217
21167SOL    HW164942   0.152   3.866  10.478  0.2473  0.6515 -0.3696
21167SOL    HW264943   0.045   3.971  10.506 -0.3254 -0.2449  0.9153
21168SOL     OW64944   6.513   3.428  11.890 -0.0255  0.3105 -0.2175
21168SOL    HW164945   6.535   3.511  11.933  0.3209 -0.7013  1.6878
21168SOL    HW264946   6.419   3.415  11.908  0.2316 -0.3597  0.7490
21169SOL     OW64947   5.470   5.164  10.274  1.2136  0.0868 -0.5688
21169SOL    HW164948   5.493   5.235  10.215 -1.0426  0.7635 -0.7087
21169SOL    HW264949   5.450   5.090  10.217  1.1480  0.0798 -0.5365
21170SOL     OW64950   6.290   5.789   8.660 -1.1059  0.1635 -0.1376
21170SOL    HW164951   6.247   5.747   8.585  0.0724 -0.9646 -0.2060
21170SOL    HW264952   6.259   5.880   8.657 -2.5391 -0.3167 -0.8735
21171SOL     OW64953   5.877   5.303  11.056  0.2147  0.5482 -0.4804
21171SOL    HW164954   5.967   5.278  11.076 -0.4634 -1.3796  0.4880
21171SOL    HW264955   5.867   5.282  10.963  0.6294  0.2546 -0.4627
21172SOL     OW64956   5.330   4.610  11.181  0.4694  0.0187  0.4001
21172SOL    HW164957   5.247   4.607  11.229 -0.2532 -0.6949 -0.8305
21172SOL    HW264958   5.393   4.568  11.239 -0.1267  0.1573  1.1658
21173SOL     OW64959   5.801   5.861   8.868 -0.2464  0.0752 -0.4964
21173SOL    HW164960   5.771   5.787   8.920 -0.0003  1.1690  1.2911
21173SOL    HW264961   5.897   5.855   8.869 -0.2445  0.0424 -0.8993
21174SOL     OW64962   7.128   4.538   9.421 -0.3047 -0.3832  0.0349
21174SOL    HW164963   7.155   4.454   9.459  0.9511  0.7037  1.6452
21174SOL    HW264964   7.142   4.602   9.490  0.5737  1.4581 -1.7275
21175SOL     OW64965   6.074   4.276   9.478 -0.6836  0.2086 -0.9152
21175SOL    HW164966   6.169   4.292   9.477 -0.3314 -1.6656 -1.7189
21175SOL    HW264967   6.035   4.362   9.461  0.8097  1.2354  0.4836
21176SOL     OW64968   7.444   5.112  11.845 -0.3618  0.3029 -0.5140
21176SOL    HW164969   7.507   5.145  11.780  1.3201 -1.3661  0.1770
21176SOL    HW264970   7.498   5.084  11.919 -1.7965 -2.1973 -0.2934
21177SOL     OW64971   7.221   5.014   8.829  0.1051 -0.2544  0.7343
21177SOL    HW164972   7.266   4.953   8.888  0.0525 -2.8538 -1.7151
21177SOL    HW264973   7.286   5.038   8.764  0.2133  2.7188  1.7523
21178SOL     OW64974   5.384   6.056  10.765 -0.8594  0.0138  0.4441
21178SOL    HW164975   5.359   6.056  10.857 -2.3348  1.1488  0.0970
21178SOL    HW264976   5.302   6.035  10.718 -0.1161 -0.6513 -0.6034
21179SOL     OW64977   5.578   3.873   9.475 -0.0284  0.0161 -0.8583
21179SOL    HW164978   5.622   3.903   9.395  1.2315 -0.5636 -0.4079
21179SOL    HW264979   5.642   3.885   9.544 -1.4664  1.5310  0.3036
21180SOL     OW64980   7.587   4.521  11.369 -0.1777  0.0196 -0.6678
21180SOL    HW164981   7.523   4.571  11.419 -1.6304 -1.7141 -0.7075
21180SOL    HW264982   7.649   4.489  11.435  0.6461  1.6337 -0.6201
21181SOL     OW64983   6.607   3.023  10.978 -0.4153  0.2132 -0.1780
21181SOL    HW164984   6.673   3.006  10.910 -1.0625  0.5124 -0.8892
21181SOL    HW264985   6.659   3.041  11.056  0.3382 -2.1578 -0.0438
21182SOL     OW64986   6.957   3.593  12.047  0.1068 -0.0362  0.2355
21182SOL    HW164987   6.944   3.501  12.020 -1.3257  0.2818 -0.2665
21182SOL    HW264988   6.985   3.637  11.967  2.7653 -0.3689  0.9177
21183SOL     OW64989   6.462   4.495  11.266 -0.1686 -0.2756 -0.2116
21183SOL    HW164990   6.385   4.535  11.308  0.3401 -0.1210  0.5981
21183SOL    HW264991   6.427   4.451  11.189 -1.0365  0.0032  0.0094
21184SOL     OW64992   7.170   4.597   8.581  0.1519 -0.0952 -0.2711
21184SOL    HW164993   7.256   4.628   8.610  0.0359  0.3115 -0.3568
21184SOL    HW264994   7.179   4.586   8.487 -0.4112  1.7104 -0.5726
21185SOL     OW64995   5.094   4.457   8.755  0.3508 -0.7731  0.2281
21185SOL    HW164996   5.003   4.485   8.761  0.5134 -0.0403 -0.5638
21185SOL    HW264997   5.113   4.457   8.661  0.5367 -2.9888  0.2036
21186SOL     OW64998   6.129   3.561  10.192 -0.5208 -0.3987  0.2587
21186SOL    HW164999   6.195   3.589  10.128 -1.3334  1.4861  0.1623
21186SOL    HW265000   6.057   3.623  10.181 -0.2033  0.8875  3.8193
21187SOL     OW65001   5.455   6.184  11.414  0.3964  0.5360  0.3221
21187SOL    HW165002   5.538   6.148  11.383  0.6618  1.0919  0.3653
21187SOL    HW265003   5.435   6.133  11.493  0.3568 -0.0399 -0.0603
21188SOL     OW65004   5.607   5.479   8.959 -0.0979 -0.3815  0.0344
21188SOL    HW165005   5.621   5.565   9.000 -2.0031  0.4455 -0.9011
21188SOL    HW265006   5.646   5.416   9.020  2.2876  1.1731  0.2720
21189SOL     OW65007   7.328   6.042  11.501  0.5411 -0.5719 -0.0914
21189SOL    HW165008   7.334   6.107  11.431  0.3180 -0.4354  0.0171
21189SOL    HW265009   7.269   5.975  11.467 -0.5706  0.1060  0.4483
21190SOL     OW65010   6.494   2.503  10.228  0.1870  0.2834  0.4456
21190SOL    HW165011   6.427   2.555  10.271  1.1955  1.2888  0.8262
21190SOL    HW265012   6.577   2.543  10.253  0.8362  0.8876 -2.3467
21191SOL     OW65013   5.954   3.046   9.400  0.0049  0.4290 -0.1666
21191SOL    HW165014   5.999   2.965   9.425 -0.0972  0.5848  0.5210
21191SOL    HW265015   5.861   3.023   9.403 -0.2654  1.4672  3.4440
21192SOL     OW65016   6.082   5.828   8.928  0.3337  0.0686  0.1582
21192SOL    HW165017   6.127   5.762   8.979  0.3784 -0.2037 -0.2350
21192SOL    HW265018   6.109   5.911   8.968  1.3108 -0.0749 -0.1696
21193SOL     OW65019   6.661   7.383  11.438 -0.3070  0.2662 -0.0941
21193SOL    HW165020   6.670   7.447  11.368 -0.0757  1.2202  0.7774
21193SOL    HW265021   6.695   7.301  11.401  0.5933  0.9501 -0.8213
21194SOL     OW65022   0.327   4.488  12.148 -0.4225 -0.3896  0.5902
21194SOL    HW165023   0.372   4.403  12.149 -0.0005 -0.1679  1.9866
21194SOL    HW265024   0.383   4.546  12.198 -0.7636  0.7106 -0.2607
21195SOL     OW65025   5.697   4.288  11.801 -0.6036  0.2803  0.0202
21195SOL    HW165026   5.790   4.277  11.821 -0.6517 -1.6653 -0.5628
21195SOL    HW265027   5.693   4.367  11.747  1.0040 -0.6589 -1.5833
21196SOL     OW65028   5.486   3.644  10.446 -0.3035 -0.4680 -0.7231
21196SOL    HW165029   5.404   3.633  10.398 -0.1672 -1.1467 -0.8005
21196SOL    HW265030   5.524   3.557  10.449  0.1981 -0.2373 -0.2888
21197SOL     OW65031   6.707   4.426  10.207  0.5587  0.0693  0.4419
21197SOL    HW165032   6.712   4.370  10.129 -2.9761  0.1043  0.0355
21197SOL    HW265033   6.772   4.495  10.191  0.2650 -0.1736 -2.2678
21198SOL     OW65034   5.976   5.267  10.758 -0.4412 -0.1345  0.0307
21198SOL    HW165035   5.954   5.175  10.743  0.0404  0.0945 -2.6127
21198SOL    HW265036   6.068   5.266  10.784 -0.9248 -0.4802  1.8324
21199SOL     OW65037   5.133   4.798   8.281 -0.4462 -0.0994 -0.0120
21199SOL    HW165038   5.110   4.707   8.263 -1.7347  0.4686 -1.3969
21199SOL    HW265039   5.229   4.799   8.279 -0.4216 -0.9533 -2.6682
21200SOL     OW65040   7.652   3.928  11.550  0.5609 -0.6489 -0.0254
21200SOL    HW165041   7.609   3.846  11.572 -0.7423  0.6103  2.6010
21200SOL    HW265042   7.583   3.983  11.513  1.3406 -0.5880 -1.4435
21201SOL     OW65043   5.062   4.694   9.326  0.4697  0.1251  0.5867
21201SOL    HW165044   5.126   4.688   9.397  1.3573 -0.9082 -0.2584
21201SOL    HW265045   4.982   4.655   9.361  0.7034  0.2204  1.2309
21202SOL     OW65046   5.125   6.212   9.772  0.2940 -0.7139 -0.6523
21202SOL    HW165047   5.173   6.224   9.854  0.2370 -0.4783 -0.6529
21202SOL    HW265048   5.066   6.287   9.767 -1.2900 -1.8415  0.1703
21203SOL     OW65049   5.084   6.542   9.992 -0.2204 -0.7352  0.2335
21203SOL    HW165050   5.147   6.549  10.063 -0.5908  1.5989  0.4208
21203SOL    HW265051   5.133   6.572   9.914 -1.0406  1.2095  0.4025
21204SOL     OW65052   6.046   4.120  10.308  0.0659  0.5513  0.1211
21204SOL    HW165053   6.133   4.104  10.272 -0.0951 -1.1961  0.4321
21204SOL    HW265054   6.004   4.034  10.310 -1.6498  1.3377  0.0706
21205SOL     OW65055   6.898   4.016  10.275  0.2371  0.1344  0.0585
21205SOL    HW165056   6.876   4.071  10.200  1.1822  0.7047  0.1838
21205SOL    HW265057   6.985   3.981  10.256  0.9412  1.1042  1.3112
21206SOL     OW65058   6.970   3.610   9.497 -0.4591 -0.2237 -0.1606
21206SOL    HW165059   6.961   3.552   9.421 -0.8426  0.7145 -0.8578
21206SOL    HW265060   7.062   3.637   9.496 -0.3458 -0.5973  0.0052
21207SOL     OW65061   6.741   5.190  10.885  0.7078  0.0436 -0.0418
21207SOL    HW165062   6.675   5.124  10.866  0.9419 -0.4291  0.7274
21207SOL    HW265063   6.822   5.140  10.895  0.5749  0.1732  2.3946
21208SOL     OW65064   4.475   3.409   8.378  0.3546 -0.1235 -0.3960
21208SOL    HW165065   4.518   3.370   8.453  1.1072 -2.6360 -2.0037
21208SOL    HW265066   4.382   3.397   8.393  0.5121 -0.8006  0.0368
21209SOL     OW65067   7.622   5.290   9.700 -0.5659  0.0624 -0.2955
21209SOL    HW165068   7.693   5.277   9.763 -0.6289  1.8293  0.1969
21209SOL    HW265069   7.602   5.203   9.668  0.4023 -0.7201  1.1275
21210SOL     OW65070   6.469   5.163  11.110 -0.2302 -0.7586 -0.6864
21210SOL    HW165071   6.529   5.217  11.161 -1.6748  0.7926 -0.5369
21210SOL    HW265072   6.511   5.155  11.024  0.3939 -0.0554 -0.4561
21211SOL     OW65073   5.497   6.761  11.402  0.7194  0.5373 -0.3785
21211SOL    HW165074   5.459   6.842  11.366  1.0214  0.5707 -0.6251
21211SOL    HW265075   5.461   6.691  11.349 -0.8174  0.3423  0.8433
21212SOL     OW65076   4.333   4.578   9.172  0.2394  0.4990 -0.2855
21212SOL    HW165077   4.303   4.650   9.116  0.9028  0.6697 -0.4349
21212SOL    HW265078   4.374   4.516   9.111 -0.3263 -0.0058 -0.1579
21213SOL     OW65079   6.670   5.095   9.495 -0.0552  0.0998 -0.1610
21213SOL    HW165080   6.685   5.156   9.567  1.6143  0.3112 -0.6482
21213SOL    HW265081   6.744   5.109   9.436 -2.1200  1.0717 -2.7436
21214SOL     OW65082   6.984   4.860  11.285 -0.5934 -0.1433 -0.0290
21214SOL    HW165083   7.046   4.904  11.227 -2.0085 -0.2451 -1.6993
21214SOL    HW265084   6.952   4.928  11.344  0.1931  0.1686  0.0421
21215SOL     OW65085   7.109   4.741  10.184 -0.0379 -0.0785  0.0217
21215SOL    HW165086   7.030   4.711  10.139 -1.2538  0.9927  1.3463
21215SOL    HW265087   7.077   4.804  10.249  1.8871  0.1886  0.7720
21216SOL     OW65088   7.134   6.070   9.809 -0.0491 -0.4644  0.0101
21216SOL    HW165089   7.153   6.087   9.901  0.1187 -1.3258  0.1463
21216SOL    HW265090   7.089   6.149   9.778  1.3199  0.4913  0.3905
21217SOL     OW65091   6.592   5.024  11.460 -0.2872  0.2176  0.7638
21217SOL    HW165092   6.538   5.018  11.381  2.0286 -1.1192 -0.8820
21217SOL    HW265093   6.548   4.969  11.524 -2.1234  1.1552  0.3668
21218SOL     OW65094   4.791   3.550  10.285 -0.4243 -0.0828  0.5124
21218SOL    HW165095   4.848   3.567  10.210  0.7026  0.0382  1.3631
21218SOL    HW265096   4.721   3.614  10.277  0.9150  1.5000  0.7786
21219SOL     OW65097   7.423   4.409   9.093  0.3352  0.3534 -0.2828
21219SOL    HW165098   7.337   4.449   9.084 -1.0045 -2.3537 -0.7092
21219SOL    HW265099   7.483   4.482   9.111 -2.4530  2.1058  3.0359
21220SOL     OW65100   6.178   4.885  10.608 -0.5531 -0.1658  0.0362
21220SOL    HW165101   6.085   4.901  10.622 -0.6282 -2.5295  3.6303
21220SOL    HW265102   6.181   4.813  10.545 -1.1747 -0.1123 -0.0557
21221SOL     OW65103   5.668   6.419  11.375  0.6264  0.2052 -0.1317
21221SOL    HW165104   5.712   6.449  11.295  0.8365 -0.7484 -0.3841
21221SOL    HW265105   5.580   6.457  11.370  1.2290  1.7124  0.1258
21222SOL     OW65106   7.025   3.321   8.677 -0.1522 -0.4184  0.0594
21222SOL    HW165107   6.979   3.309   8.760  0.4784 -0.7414  0.3740
21222SOL    HW265108   6.990   3.402   8.641  1.2420  1.0482  1.8067
21223SOL     OW65109   5.565   5.109  10.782  0.3857  0.5334 -0.4670
21223SOL    HW165110   5.521   5.146  10.706 -2.4562 -0.4029  0.5924
21223SOL    HW265111   5.613   5.033  10.749 -1.6649 -0.4842 -1.2270
21224SOL     OW65112   6.163   5.241   8.868  0.2882  0.4243 -0.4308
21224SOL    HW165113   6.107   5.314   8.895  0.5910  0.8346 -0.8774
21224SOL    HW265114   6.150   5.174   8.935  0.8483  1.3116  0.5917
21225SOL     OW65115   7.979   6.193  10.867 -0.2691  0.0868 -0.7802
21225SOL    HW165116   7.938   6.280  10.864  0.0361  0.2754  0.1827
21225SOL    HW265117   7.946   6.154  10.948  1.3740  0.2125 -0.0156
21226SOL     OW65118   6.757   4.177   9.707 -0.1307  0.4773 -0.3530
21226SOL    HW165119   6.681   4.233   9.721  0.1041  0.3706  1.6048
21226SOL    HW265120   6.828   4.239   9.688 -0.6413  0.5793 -2.1328
21227SOL     OW65121   6.076   5.173   9.147  0.4475  0.4918 -0.3521
21227SOL    HW165122   6.087   5.115   9.222  2.5787  0.5141 -0.5788
21227SOL    HW265123   6.092   5.260   9.182  1.8871  0.4615 -0.8771
21228SOL     OW65124   6.588   5.690   7.589 -0.1124  0.3347  0.1043
21228SOL    HW165125   6.600   5.667   7.497  0.2130  2.8344 -0.5596
21228SOL    HW265126   6.499   5.662   7.610 -0.0959 -0.5030 -0.8872
21229SOL     OW65127   7.579   5.049   9.587  0.2564  0.2538 -0.0757
21229SOL    HW165128   7.527   4.969   9.593  1.9732 -0.9017  0.2269
21229SOL    HW265129   7.570   5.077   9.496 -1.6516  0.6673  0.2016
21230SOL     OW65130   7.580   5.102   8.360  0.2293 -0.0768  0.7426
21230SOL    HW165131   7.505   5.043   8.351  0.2843 -0.2767  1.5288
21230SOL    HW265132   7.652   5.055   8.319 -0.1268  0.2498 -0.3059
21231SOL     OW65133   6.367   4.270  11.641  0.1803  0.1116  0.3929
21231SOL    HW165134   6.355   4.242  11.551  0.1191  1.5192 -0.0633
21231SOL    HW265135   6.405   4.195  11.685  0.0370 -0.6555 -0.7617
21232SOL     OW65136   7.676   6.807   9.934 -0.2102 -0.2507 -0.0307
21232SOL    HW165137   7.589   6.831   9.965  0.8098 -0.0188  2.9776
21232SOL    HW265138   7.660   6.757   9.854 -3.1165 -0.4658  0.5721
21233SOL     OW65139   6.619   5.296  10.229 -0.2005  0.3174 -0.3748
21233SOL    HW165140   6.617   5.205  10.197  1.0369 -0.0113  0.4013
21233SOL    HW265141   6.712   5.318  10.231 -0.1960  0.4275  2.6150
21234SOL     OW65142   7.921   3.083  11.356  0.0517 -0.7857  0.0508
21234SOL    HW165143   7.837   3.125  11.375 -0.9487 -2.4170 -0.5775
21234SOL    HW265144   7.898   3.003  11.308  2.0207 -0.7880 -1.0153
21235SOL     OW65145   5.089   3.288   9.957  0.3689 -0.0553  0.7023
21235SOL    HW165146   5.067   3.213  10.013 -0.6041  0.0244  0.4460
21235SOL    HW265147   5.120   3.248   9.876 -0.7729 -0.2114  0.3191
21236SOL     OW65148   5.853   5.089  11.939  0.3238 -0.2729  0.3371
21236SOL    HW165149   5.912   5.017  11.918 -0.1884 -0.7260  0.4152
21236SOL    HW265150   5.910   5.165  11.951  0.6789  0.1352 -2.9351
21237SOL     OW65151   5.704   5.310  11.809  0.3489 -0.0453  0.0146
21237SOL    HW165152   5.708   5.240  11.874 -0.4730  0.4757  0.6402
21237SOL    HW265153   5.783   5.298  11.756  0.3833 -1.2529  0.3052
21238SOL     OW65154   6.261   4.684   9.905  0.2326  0.3546  0.5223
21238SOL    HW165155   6.317   4.714   9.833  1.0900 -2.2890  0.0091
21238SOL    HW265156   6.175   4.671   9.864  0.0204  1.3747  0.6087
21239SOL     OW65157   6.360   4.278   9.472 -1.0003  0.0426 -0.0748
21239SOL    HW165158   6.411   4.199   9.488  0.2529  0.6555 -0.8278
21239SOL    HW265159   6.426   4.346   9.454 -1.9733  1.5700  1.7520
21240SOL     OW65160   7.061   4.991  11.869 -0.4027  0.4171  0.2319
21240SOL    HW165161   7.007   4.912  11.874  1.0462 -0.7637 -1.3009
21240SOL    HW265162   7.023   5.042  11.798  0.3446 -0.3460 -0.7509
21241SOL     OW65163   4.371   4.380   9.474  0.6630 -0.1219 -0.2124
21241SOL    HW165164   4.336   4.291   9.465  0.6460 -0.3118  1.3443
21241SOL    HW265165   4.328   4.415   9.552  0.9000  1.1504 -0.6327
21242SOL     OW65166   6.793   4.016   8.845  0.1446  0.0374 -0.1856
21242SOL    HW165167   6.768   3.930   8.879 -0.8257  0.3686 -0.0133
21242SOL    HW265168   6.886   4.024   8.866  0.3049 -1.0439 -0.3792
21243SOL     OW65169   6.164   3.098  11.682  0.1637  0.8117 -0.1243
21243SOL    HW165170   6.167   3.164  11.751 -2.1578  0.7500  0.1137
21243SOL    HW265171   6.134   3.019  11.726  0.4407  0.2684 -0.8880
21244SOL     OW65172   5.317   7.026   8.974 -0.1224  0.8984  0.3101
21244SOL    HW165173   5.363   7.098   8.932  0.2379  0.8652  0.6424
21244SOL    HW265174   5.304   6.962   8.905  0.9720  0.5949  0.3676
21245SOL     OW65175   7.645   4.592  11.005  0.2964  0.2127 -0.0902
21245SOL    HW165176   7.591   4.522  10.968 -2.9821  1.6449  1.5955
21245SOL    HW265177   7.656   4.655  10.934 -0.0773 -0.2115 -0.5320
21246SOL     OW65178   7.706   5.962   9.997 -0.1997  0.0943 -0.1879
21246SOL    HW165179   7.698   5.961   9.901 -1.1062 -0.0181 -0.1220
21246SOL    HW265180   7.754   6.043  10.015  0.3777 -0.1115 -0.7620
21247SOL     OW65181   5.032   5.313  11.005  0.1161 -0.2350  0.0594
21247SOL    HW165182   5.020   5.383  10.940  1.7411  0.3081  0.2929
21247SOL    HW265183   5.127   5.302  11.011  0.1218  0.4968  3.1122
21248SOL     OW65184   0.565   5.318   8.076  0.3804 -0.2247  0.3099
21248SOL    HW165185   0.502   5.389   8.086 -0.2245 -0.6537 -0.3173
21248SOL    HW265186   0.535   5.270   7.999  0.0659 -1.8788  1.4171
21249SOL     OW65187   6.790   4.322   9.012 -0.2870 -0.2120 -0.3779
21249SOL    HW165188   6.725   4.277   9.065 -0.5903  0.3079 -0.3025
21249SOL    HW265189   6.866   4.264   9.013 -0.4091 -0.3638  0.3445
21250SOL     OW65190   7.719   3.756   0.208 -0.2782  0.8730 -0.3935
21250SOL    HW165191   7.777   3.755   0.132  0.5877  1.9931  0.2406
21250SOL    HW265192   7.708   3.848   0.229 -1.8448  0.6658 -0.1338
21251SOL     OW65193   5.450   3.955  11.411 -0.4648 -0.1951  0.2471
21251SOL    HW165194   5.452   3.956  11.316 -1.7302 -0.0073  0.2023
21251SOL    HW265195   5.475   4.044  11.436  2.0027 -0.8016  0.1998
21252SOL     OW65196   5.451   4.769   9.677 -0.1446 -0.4716 -0.0146
21252SOL    HW165197   5.418   4.735   9.760 -0.6954 -2.0549 -0.8350
21252SOL    HW265198   5.374   4.770   9.619  0.2099  0.6982 -0.4935
21253SOL     OW65199   6.406   4.997   9.390  0.1269  0.1628  0.2729
21253SOL    HW165200   6.445   4.911   9.368 -0.8083 -0.5670  1.3636
21253SOL    HW265201   6.480   5.048   9.422  0.8620  0.0782 -1.1701
21254SOL     OW65202   7.205   3.202  10.236  0.3013 -0.5146  0.1322
21254SOL    HW165203   7.285   3.186  10.285  0.8246 -2.3933 -1.2203
21254SOL    HW265204   7.136   3.162  10.289  0.4217  0.0537  0.7260
21255SOL     OW65205   5.050   5.003   8.102 -0.6510 -0.2220 -0.1753
21255SOL    HW165206   5.076   4.924   8.150  2.3805  1.1371  0.6485
21255SOL    HW265207   5.083   4.989   8.013  0.3981  0.2920  0.1151
21256SOL     OW65208   6.828   5.313  11.284 -0.5433  0.0331  0.2253
21256SOL    HW165209   6.739   5.345  11.294 -0.4427  0.8135 -1.1576
21256SOL    HW265210   6.843   5.313  11.189  0.4098 -1.5236  0.3399
21257SOL     OW65211   5.391   4.664   9.974  0.5612 -0.8294  0.1691
21257SOL    HW165212   5.411   4.571   9.975  0.9844 -0.7402  0.6129
21257SOL    HW265213   5.344   4.679  10.057  2.4719 -0.2461  1.2186
21258SOL     OW65214   6.724   5.796   8.483  0.5838 -0.1496 -0.3603
21258SOL    HW165215   6.728   5.843   8.400  0.3231 -0.9991 -0.8680
21258SOL    HW265216   6.653   5.837   8.531  0.3007 -0.0865 -0.8328
21259SOL     OW65217   5.699   5.272   9.661  0.2262  0.0899 -0.3807
21259SOL    HW165218   5.748   5.297   9.739 -1.7449  0.8755  0.6833
21259SOL    HW265219   5.648   5.195   9.687  1.2272 -1.0341 -1.6150
21260SOL     OW65220   7.717   5.006   9.941 -0.3420 -0.5487 -0.2667
21260SOL    HW165221   7.716   4.983  10.034  1.3781 -1.2444 -0.3675
21260SOL    HW265222   7.645   4.957   9.903 -1.9517  0.7875  0.8706
21261SOL     OW65223   5.936   3.909  10.652 -0.9379 -0.2059 -0.2061
21261SOL    HW165224   5.989   3.886  10.576 -1.6799 -2.8256 -0.0334
21261SOL    HW265225   5.873   3.973  10.619 -0.6860 -0.6327 -1.5833
21262SOL     OW65226   6.867   5.105  11.677  0.0472  0.7814  0.3570
21262SOL    HW165227   6.884   5.089  11.584  1.1043 -1.5803  0.8813
21262SOL    HW265228   6.884   5.198  11.688  0.3469  1.0371 -1.7277
21263SOL     OW65229   7.028   4.097   9.819  0.1806  0.2824  0.5179
21263SOL    HW165230   7.108   4.145   9.800  0.5475 -0.5794 -0.1835
21263SOL    HW265231   7.056   4.005   9.824 -0.9348 -0.1661 -0.8950
21264SOL     OW65232   7.284   4.507   9.780 -0.3896  0.7148  0.2575
21264SOL    HW165233   7.244   4.587   9.748 -1.9929 -0.0359  0.3118
21264SOL    HW265234   7.341   4.478   9.708 -2.6069 -0.0110 -1.2923
21265SOL     OW65235   6.975   2.829   9.765  0.5765  0.0974  0.2197
21265SOL    HW165236   7.023   2.840   9.848  0.4311 -0.6354  0.4078
21265SOL    HW265237   7.007   2.900   9.710  1.1142  0.2427  0.7020
21266SOL     OW65238   6.780   2.638   8.889  0.0886  0.0412  0.3460
21266SOL    HW165239   6.715   2.708   8.889  0.6757  0.6447  2.1636
21266SOL    HW265240   6.769   2.596   8.975  0.5459 -1.3397 -0.2528
21267SOL     OW65241   6.421   4.814  10.178 -0.3610 -0.3937  0.1894
21267SOL    HW165242   6.422   4.738  10.236 -0.8186 -0.0292  0.6822
21267SOL    HW265243   6.492   4.798  10.116 -0.2544 -1.0720  0.4849
21268SOL     OW65244   6.171   6.462  10.105 -0.3287 -0.4795 -0.1820
21268SOL    HW165245   6.184   6.475  10.011 -0.8981 -0.1017 -0.2170
21268SOL    HW265246   6.242   6.510  10.147 -0.3537 -0.2460 -0.4074
21269SOL     OW65247   0.078   4.306   9.439 -0.6975  0.3546  0.1558
21269SOL    HW165248   0.132   4.383   9.427  0.2514 -0.4935 -1.3505
21269SOL    HW265249  -0.006   4.329   9.400  0.2622 -0.0507 -2.3174
21270SOL     OW65250   7.269   3.674   8.415  0.2961  0.4627 -0.0570
21270SOL    HW165251   7.176   3.700   8.417  0.1799  0.0510  1.5627
21270SOL    HW265252   7.285   3.648   8.324 -1.5164 -0.6268 -0.1118
21271SOL     OW65253   6.486   3.227   9.168 -0.0531 -0.5974  0.0916
21271SOL    HW165254   6.538   3.308   9.166 -1.5489  0.4872  1.9888
21271SOL    HW265255   6.542   3.164   9.213  0.8957 -0.4635 -0.8672
21272SOL     OW65256   5.838   5.068   9.007  0.6330  0.1088 -0.3402
21272SOL    HW165257   5.927   5.103   9.007  0.4573  0.5725 -0.6577
21272SOL    HW265258   5.796   5.107   9.084 -0.3206  2.6540 -1.9989
21273SOL     OW65259   5.526   5.221  10.536 -0.6135  0.1735 -0.3681
21273SOL    HW165260   5.595   5.286  10.525  0.6140 -0.7386  1.5320
21273SOL    HW265261   5.490   5.209  10.448 -0.1016  2.5333 -0.9531
21274SOL     OW65262   6.908   5.708   0.421 -0.6415 -0.4995  0.3553
21274SOL    HW165263   6.973   5.778   0.418 -1.9389  0.7096 -0.3491
21274SOL    HW265264   6.960   5.628   0.410  0.6072  0.5091 -1.8466
21275SOL     OW65265   6.429   4.505   0.120 -0.5439 -0.1883  0.9295
21275SOL    HW165266   6.524   4.491   0.119 -0.6291 -0.7685  0.9157
21275SOL    HW265267   6.400   4.467   0.203 -0.5942  1.1636  1.5643
21276SOL     OW65268   7.205   4.567   0.308  0.0978 -1.1947 -0.1328
21276SOL    HW165269   7.292   4.594   0.276 -1.2812  0.6236 -2.7669
21276SOL    HW265270   7.174   4.642   0.359 -0.2685 -1.4452  0.0102
21277SOL     OW65271   7.746   4.201  11.406 -0.0338 -0.0240 -0.1170
21277SOL    HW165272   7.807   4.273  11.391 -1.4539  1.3369  0.3809
21277SOL    HW265273   7.790   4.144  11.469  0.3172  1.5022  1.0701
21278SOL     OW65274   6.346   3.061   1.680 -0.4438 -0.0779  0.2829
21278SOL    HW165275   6.258   3.090   1.705 -1.1032 -2.5856  1.2612
21278SOL    HW265276   6.403   3.134   1.704 -2.0912  1.0259  1.0617
21279SOL     OW65277   7.113   3.363  10.044  0.0462  0.6205  0.2027
21279SOL    HW165278   7.104   3.293   9.979 -1.2958  0.6519  0.3249
21279SOL    HW265279   7.148   3.319  10.122 -1.2524 -0.0443  0.4432
21280SOL     OW65280   6.267   3.899  11.887  0.5939  0.3128 -0.1746
21280SOL    HW165281   6.261   3.803  11.883  0.5812  0.2884  0.2788
21280SOL    HW265282   6.348   3.920  11.840 -0.6244  0.2842 -2.4090
21281SOL     OW65283   5.356   5.830  11.269  0.0445  0.0660 -0.1232
21281SOL    HW165284   5.299   5.825  11.192  1.6928 -1.2342 -1.3138
21281SOL    HW265285   5.345   5.920  11.300 -0.8704  0.5424 -1.6998
21282SOL     OW65286   7.437   2.396  11.465 -0.1501 -0.3968  0.0797
21282SOL    HW165287   7.452   2.318  11.411  0.3233 -0.1486 -0.1544
21282SOL    HW265288   7.478   2.467  11.416 -2.2310  0.3619 -0.6769
21283SOL     OW65289   5.677   6.012  11.382  0.3987  0.1402 -0.0427
21283SOL    HW165290   5.725   6.089  11.413 -0.8628  0.9761 -0.1308
21283SOL    HW265291   5.657   5.963  11.462 -0.1616  0.7168  0.1790
21284SOL     OW65292   6.849   4.604  11.192 -0.4311 -0.3221  0.5195
21284SOL    HW165293   6.880   4.665  11.258 -0.0465 -0.2904  0.3101
21284SOL    HW265294   6.772   4.647  11.154  1.0171  0.9835 -1.0473
21285SOL     OW65295   4.665   5.372   1.519 -0.0827 -0.2100  0.3223
21285SOL    HW165296   4.670   5.437   1.590  0.4525 -1.1238  1.1577
21285SOL    HW265297   4.583   5.390   1.475  0.2582  1.3124  0.2586
21286SOL     OW65298   6.625   6.258  10.692  0.3371 -0.9022 -0.3358
21286SOL    HW165299   6.639   6.264  10.787  1.6770 -0.7712 -0.5238
21286SOL    HW265300   6.618   6.349  10.663  0.1372 -0.9371 -0.4001
21287SOL     OW65301   7.105   4.074  12.148  0.0910 -0.4714  0.3920
21287SOL    HW165302   7.086   4.024  12.227 -1.4458 -0.0731  0.3045
21287SOL    HW265303   7.078   4.163  12.169  0.1227 -0.2661 -0.4038
21288SOL     OW65304   0.687   6.000  11.624  0.0838  0.2651 -1.0085
21288SOL    HW165305   0.766   5.955  11.653  0.2037  1.2718  0.3342
21288SOL    HW265306   0.618   5.935  11.632  0.3146  0.1560  0.5433
21289SOL     OW65307   7.127   5.884  11.694  0.2731 -0.7120 -0.1886
21289SOL    HW165308   7.209   5.836  11.682  0.4806 -1.2794  2.7272
21289SOL    HW265309   7.154   5.975  11.704  0.5007 -0.8122  0.1361
21290SOL     OW65310   0.399   4.571  11.612  0.1622  0.0266  0.6295
21290SOL    HW165311   0.347   4.524  11.547 -1.0355  0.6464  1.1095
21290SOL    HW265312   0.412   4.508  11.683 -0.5998  0.1148  0.8470
21291SOL     OW65313   6.607   5.740  11.120  0.7512  0.3757  0.1931
21291SOL    HW165314   6.653   5.815  11.158  1.1578  0.8854 -1.2302
21291SOL    HW265315   6.554   5.705  11.192  0.9454  1.7101  1.0174
21292SOL     OW65316   5.925   4.254   0.860 -0.3604 -0.3493 -0.4095
21292SOL    HW165317   5.920   4.186   0.793 -3.9826 -0.8173  0.1755
21292SOL    HW265318   5.973   4.212   0.932 -1.1204 -1.7195 -0.6760
21293SOL     OW65319   4.236   4.399  11.967  0.1599  0.1504 -0.7217
21293SOL    HW165320   4.226   4.357  12.053 -1.8371  1.5381 -0.2155
21293SOL    HW265321   4.237   4.493  11.986  2.0788  0.4668 -2.0597
21294SOL     OW65322   6.049   3.622   0.521 -0.4772  0.4827  0.4109
21294SOL    HW165323   5.965   3.621   0.567 -0.3306  0.4213  0.6804
21294SOL    HW265324   6.040   3.557   0.452  0.0952 -1.1154  1.7778
21295SOL     OW65325   5.340   4.229  10.747 -0.2875  0.1915  0.4766
21295SOL    HW165326   5.346   4.136  10.723 -1.8906  0.0779  0.4054
21295SOL    HW265327   5.246   4.248  10.746  0.0350  1.9482  0.0068
21296SOL     OW65328   7.310   5.451  11.672 -0.4684 -0.0144 -0.6103
21296SOL    HW165329   7.402   5.432  11.687 -0.1616  0.8698 -1.2936
21296SOL    HW265330   7.295   5.428  11.580 -1.1201 -0.8315 -0.3207
21297SOL     OW65331   7.019   4.918  12.203 -0.3991  0.6693  0.3454
21297SOL    HW165332   7.034   4.837  12.154  2.0104  1.1183  0.2330
21297SOL    HW265333   6.941   4.900  12.255 -1.0274 -1.0375 -1.0868
21298SOL     OW65334   0.182   5.975  11.485  0.0671  0.2226 -0.3676
21298SOL    HW165335   0.108   6.033  11.466 -0.2606  0.2853  1.0007
21298SOL    HW265336   0.149   5.916  11.553  1.3919  0.5371  0.5994
21299SOL     OW65337   7.236   5.245  11.927  0.1518 -0.9740  0.7954
21299SOL    HW165338   7.209   5.272  11.839 -0.0075  0.5612  1.3068
21299SOL    HW265339   7.312   5.188  11.911  0.1781 -0.6477 -0.3318
21300SOL     OW65340   0.065   3.734  12.210  0.6037  0.3072 -0.3111
21300SOL    HW165341   0.143   3.697  12.169 -0.0976 -2.0635  0.2864
21300SOL    HW265342  -0.007   3.710  12.151 -0.0798 -0.8190  0.9134
21301SOL     OW65343   0.208   4.978  12.271 -0.2725  0.0020 -0.4492
21301SOL    HW165344   0.269   5.038  12.229 -0.5207 -0.0109 -0.8351
21301SOL    HW265345   0.150   5.034  12.322 -0.9242  0.1601 -1.3404
21302SOL     OW65346   6.199   4.692  11.824  0.3216 -0.1483 -0.6872
21302SOL    HW165347   6.276   4.655  11.868  0.4869 -0.2683 -1.0711
21302SOL    HW265348   6.224   4.697  11.732 -0.1577 -0.2591 -0.8288
21303SOL     OW65349   7.832   2.926  12.075  0.2165  0.1016  0.2744
21303SOL    HW165350   7.892   2.861  12.039  0.2618  0.6705 -0.7172
21303SOL    HW265351   7.812   2.983  12.001  3.1223  3.5044  1.7737
21304SOL     OW65352   6.300   3.877  10.759 -0.2049  0.1310  0.0879
21304SOL    HW165353   6.321   3.796  10.805  2.2171  0.2252 -0.7278
21304SOL    HW265354   6.337   3.865  10.672 -2.0139  1.1733 -0.8913
21305SOL     OW65355   6.573   3.423  12.377 -0.5381 -0.1769 -0.6029
21305SOL    HW165356   6.665   3.452  12.374  0.3405 -2.4864  1.2317
21305SOL    HW265357   6.526   3.489  12.326  2.1183  1.1195 -1.5750
21306SOL     OW65358   5.085   6.790  11.780 -0.3110  0.1816 -0.0700
21306SOL    HW165359   5.080   6.695  11.780 -0.5855  0.1861  1.0107
21306SOL    HW265360   5.173   6.810  11.749  0.2411 -0.4725  1.0270
21307SOL     OW65361   4.965   4.480  12.001 -0.6434  0.1657 -0.0567
21307SOL    HW165362   5.008   4.397  11.980 -0.4560  0.2670 -0.0776
21307SOL    HW265363   4.957   4.525  11.916  1.6380  1.3082  0.2576
21308SOL     OW65364   5.978   5.631   0.960  0.0267  0.0160 -0.4029
21308SOL    HW165365   5.998   5.723   0.943 -2.2984  0.6720  0.0486
21308SOL    HW265366   5.998   5.586   0.877  1.7657  0.7557 -0.4401
21309SOL     OW65367   7.951   6.473  11.604 -0.4440  1.2217 -0.2016
21309SOL    HW165368   7.880   6.523  11.564 -1.0991  0.8193  0.4339
21309SOL    HW265369   7.912   6.434  11.682  0.3987  0.7491 -0.0026
21310SOL     OW65370   5.900   4.178  11.186 -0.0820  0.6857  0.0855
21310SOL    HW165371   5.971   4.240  11.201  0.1578  0.4967 -0.2438
21310SOL    HW265372   5.821   4.232  11.184 -0.0142  0.8309  0.9840
21311SOL     OW65373   6.839   5.068  11.415  0.2488 -0.2091  0.0812
21311SOL    HW165374   6.830   5.156  11.379  0.9396 -0.1734 -0.0092
21311SOL    HW265375   6.752   5.047  11.448  0.4562  1.1394  1.5633
21312SOL     OW65376   7.185   5.560  12.328  0.6249 -0.1626 -0.4195
21312SOL    HW165377   7.092   5.536  12.327  0.7285 -0.6807 -2.5473
21312SOL    HW265378   7.188   5.648  12.289  1.1462 -0.7837 -1.8276
21313SOL     OW65379   7.715   5.672   9.693 -0.5691 -0.0564 -0.4435
21313SOL    HW165380   7.760   5.634   9.617 -0.7173 -1.4083  0.1219
21313SOL    HW265381   7.767   5.749   9.715  2.8392 -2.6339  1.4750
21314SOL     OW65382   5.840   5.190  12.383  0.0419 -0.4767 -0.0002
21314SOL    HW165383   5.811   5.132  12.312  0.2076 -1.1088  0.4377
21314SOL    HW265384   5.770   5.254  12.392 -0.7944 -1.4298  0.4276
21315SOL     OW65385   7.260   4.622  10.643 -0.4360  0.4900  0.0453
21315SOL    HW165386   7.269   4.615  10.548 -1.3350 -2.1863  0.0985
21315SOL    HW265387   7.322   4.557  10.678 -0.6948  0.8745  1.2699
21316SOL     OW65388   6.365   4.475  12.216  0.0362  0.2782 -0.2669
21316SOL    HW165389   6.335   4.527  12.291 -0.5542 -0.7269  0.2210
21316SOL    HW265390   6.297   4.408  12.206  1.4177 -1.1946 -0.0441
21317SOL     OW65391   5.765   4.966  11.369 -0.6853 -0.2280 -0.3482
21317SOL    HW165392   5.792   4.874  11.366  0.8242  0.2078 -1.0296
21317SOL    HW265393   5.801   5.000  11.451 -1.2437 -0.2246 -0.0956
21318SOL     OW65394   5.276   3.759   0.897 -0.3694  0.4062 -0.4824
21318SOL    HW165395   5.365   3.772   0.866 -0.3818  2.2264  0.1383
21318SOL    HW265396   5.283   3.760   0.993 -0.9682 -0.1605 -0.4223
21319SOL     OW65397   6.547   3.370  10.123 -0.0600 -1.1749 -0.1218
21319SOL    HW165398   6.542   3.431  10.197  0.0423 -0.6326 -0.5492
21319SOL    HW265399   6.562   3.427  10.047  0.9906 -1.8187 -0.4092
21320SOL     OW65400   6.128   6.232  11.376 -0.4066 -0.6535  0.3761
21320SOL    HW165401   6.210   6.268  11.411 -0.3070  1.7312 -1.9825
21320SOL    HW265402   6.153   6.148  11.337  0.8068 -0.2404  0.2237
21321SOL     OW65403   5.341   4.387   0.734 -0.2203  0.0095 -0.4699
21321SOL    HW165404   5.365   4.414   0.645 -2.3002  0.5964 -0.9090
21321SOL    HW265405   5.334   4.291   0.729 -0.2860  0.0369 -0.9350
21322SOL     OW65406   6.857   3.998   1.353  0.2644  0.1774 -0.0407
21322SOL    HW165407   6.765   4.018   1.370  0.0687 -0.5341 -0.2348
21322SOL    HW265408   6.854   3.927   1.288  0.9551  1.1631 -1.1920
21323SOL     OW65409   7.704   4.856  11.603 -0.6541  0.5632  0.5445
21323SOL    HW165410   7.766   4.916  11.643 -0.5342 -0.3338  1.7554
21323SOL    HW265411   7.738   4.768  11.622 -1.9195  0.0612  0.6596
21324SOL     OW65412   6.073   4.942  11.742 -0.2399  0.1219 -0.0409
21324SOL    HW165413   6.159   4.913  11.774  0.7906  1.5149 -1.3784
21324SOL    HW265414   6.036   4.865  11.700  0.1835 -0.5959  0.8613
21325SOL     OW65415   5.954   3.543  11.273  0.2055  0.5079  0.0808
21325SOL    HW165416   5.973   3.566  11.182 -2.4113  1.2596 -0.3453
21325SOL    HW265417   5.979   3.621  11.323  1.6148  0.1063  0.0570
21326SOL     OW65418   6.448   4.661   0.591 -0.3680  0.2931 -0.2049
21326SOL    HW165419   6.437   4.741   0.540 -2.0126 -0.1444 -0.5772
21326SOL    HW265420   6.543   4.656   0.606 -0.1942  2.1633 -0.3714
21327SOL     OW65421   5.912   4.577   0.825  0.0111  0.2876 -0.4869
21327SOL    HW165422   5.961   4.659   0.827  0.2441  0.1446 -0.3107
21327SOL    HW265423   5.856   4.579   0.902 -0.2396  0.4373 -0.6715
21328SOL     OW65424   7.627   4.682  12.007 -0.1162  0.4131 -0.3705
21328SOL    HW165425   7.697   4.735  11.969  0.6039  0.4208  0.9121
21328SOL    HW265426   7.664   4.647  12.088 -1.9129  1.2416  0.8761
21329SOL     OW65427   4.914   5.479  10.397  0.7473  0.0292 -0.3288
21329SOL    HW165428   4.943   5.425  10.323  0.7331 -1.2439  0.5556
21329SOL    HW265429   4.861   5.548  10.357 -0.6620 -1.5880 -1.4120
21330SOL     OW65430   6.246   4.861   0.904 -0.0343 -0.3668  0.2009
21330SOL    HW165431   6.221   4.945   0.867 -2.0276 -0.9690  0.0322
21330SOL    HW265432   6.258   4.879   0.998 -2.3733 -0.1973  0.5298
21331SOL     OW65433   4.491   4.023   0.083  0.6099 -0.2093 -0.1643
21331SOL    HW165434   4.416   3.978   0.043 -0.2411 -0.0109  1.1466
21331SOL    HW265435   4.543   3.952   0.121 -0.9408 -0.1394  2.2557
21332SOL     OW65436   7.210   2.728   0.695  0.1868  0.1303 -0.3340
21332SOL    HW165437   7.184   2.808   0.649  0.8453 -0.2188 -1.3460
21332SOL    HW265438   7.301   2.743   0.720 -0.1364  0.2744  0.7772
21333SOL     OW65439   7.747   6.410   0.795 -0.0887  0.2701 -0.1559
21333SOL    HW165440   7.809   6.402   0.868 -2.4876 -0.6110  1.9478
21333SOL    HW265441   7.677   6.467   0.830 -2.1698 -1.5864 -1.0718
21334SOL     OW65442   0.180   3.811  11.460 -0.1933 -0.4037  0.2416
21334SOL    HW165443   0.194   3.808  11.555  1.6247 -1.5806 -0.0233
21334SOL    HW265444   0.192   3.721  11.432 -0.4318 -0.0152 -1.1599
21335SOL     OW65445   0.244   4.063  11.260 -0.0388 -0.4435 -0.3185
21335SOL    HW165446   0.307   4.051  11.332 -0.9097  1.2036  0.8031
21335SOL    HW265447   0.287   4.125  11.201 -0.8239  1.3050  0.8474
21336SOL     OW65448   5.500   5.585  10.717 -0.4649  0.4166  0.2336
21336SOL    HW165449   5.543   5.531  10.784 -1.8694  1.3765  2.0070
21336SOL    HW265450   5.518   5.675  10.744  0.0160  0.8530 -1.4529
21337SOL     OW65451   5.382   5.638  11.002 -0.1354 -0.2205  0.2335
21337SOL    HW165452   5.397   5.613  10.911 -1.9580 -1.0806  0.1344
21337SOL    HW265453   5.321   5.712  10.997  0.2074  0.1082  0.7484
21338SOL     OW65454   6.391   3.143  11.514 -0.0092 -0.7029  0.0646
21338SOL    HW165455   6.425   3.227  11.545  2.0378 -1.7719  0.9074
21338SOL    HW265456   6.304   3.138  11.552 -0.4722  1.3051 -0.5668
21339SOL     OW65457   6.338   4.331   1.160 -0.2628 -0.0914 -0.1993
21339SOL    HW165458   6.377   4.341   1.246 -1.2969 -1.5651  0.4863
21339SOL    HW265459   6.399   4.275   1.112  1.5891  2.7124 -1.3691
21340SOL     OW65460   0.228   4.008  12.097  0.2459 -0.9007  0.0574
21340SOL    HW165461   0.216   3.924  12.141  0.2733 -1.1408 -0.3840
21340SOL    HW265462   0.140   4.046  12.093  0.1160 -1.2379 -0.3835
21341SOL     OW65463   6.232   4.605  12.402 -0.2744  0.2963  0.3518
21341SOL    HW165464   6.257   4.612  12.494  1.3086  1.2242 -0.1059
21341SOL    HW265465   6.159   4.666  12.392  0.4227  1.2145  0.7264
21342SOL     OW65466   5.627   5.936  12.035 -0.2507 -0.3413  0.2319
21342SOL    HW165467   5.642   5.946  11.941 -0.9045 -0.1812  0.1417
21342SOL    HW265468   5.634   6.025  12.071 -1.6623 -0.1449  0.0781
21343SOL     OW65469   6.852   4.683   0.250  0.1143  0.0639  0.0409
21343SOL    HW165470   6.897   4.756   0.207  1.7110 -0.4194  0.7780
21343SOL    HW265471   6.855   4.704   0.343 -1.0564 -0.0767  0.1143
21344SOL     OW65472   6.177   5.562  11.594 -0.5741  0.0165  0.0181
21344SOL    HW165473   6.180   5.474  11.556  0.6426 -0.2437  0.6582
21344SOL    HW265474   6.269   5.590  11.598 -0.6897  0.2969  2.0817
21345SOL     OW65475   7.101   4.367  10.939 -0.3567 -0.2409  0.1729
21345SOL    HW165476   7.124   4.427  11.010  0.4430  1.7146 -1.6429
21345SOL    HW265477   7.011   4.391  10.916  0.1251  0.6542 -0.8686
21346SOL     OW65478   0.362   3.597  11.913 -0.0198 -0.2190 -0.1349
21346SOL    HW165479   0.422   3.598  11.839  0.4545 -0.5141  0.2387
21346SOL    HW265480   0.389   3.670  11.968  2.7484 -2.7128  2.1475
21347SOL     OW65481   7.551   5.497   1.555  0.3092  0.2303 -0.4623
21347SOL    HW165482   7.595   5.581   1.555 -0.3621  0.5926 -0.9088
21347SOL    HW265483   7.562   5.464   1.465  0.0533  0.1271 -0.4584
21348SOL     OW65484   7.808   3.740   0.737  0.3737  0.5607 -0.0110
21348SOL    HW165485   7.720   3.718   0.707  0.5186 -1.6147  0.9437
21348SOL    HW265486   7.841   3.658   0.775  1.4137  2.2411  3.0240
21349SOL     OW65487   5.375   4.904   1.223 -0.5001 -0.5760  0.5325
21349SOL    HW165488   5.421   4.971   1.273 -0.9260  0.3192 -0.2415
21349SOL    HW265489   5.286   4.939   1.213 -1.4524 -2.3304  2.1425
21350SOL     OW65490   4.766   5.830  11.922 -0.0662  0.3673 -0.1145
21350SOL    HW165491   4.677   5.812  11.953  0.5626 -2.0700  0.4420
21350SOL    HW265492   4.805   5.884  11.991 -0.7484  0.5055  0.1718
21351SOL     OW65493   6.296   2.201   1.650  0.2354 -1.0851  0.3969
21351SOL    HW165494   6.317   2.288   1.617 -1.0925 -0.5565  0.8682
21351SOL    HW265495   6.352   2.142   1.599  0.1262 -0.0858 -0.9433
21352SOL     OW65496   6.807   3.476  11.104 -0.0432  0.0100  0.2138
21352SOL    HW165497   6.840   3.450  11.018 -0.2305 -1.4039  0.5397
21352SOL    HW265498   6.883   3.513  11.149  0.5589 -1.0783  0.1305
21353SOL     OW65499   6.854   4.419  11.576 -0.3496 -0.0575 -0.1300
21353SOL    HW165500   6.783   4.407  11.513 -0.1010 -1.1898 -0.2149
21353SOL    HW265501   6.907   4.490  11.539 -0.7677 -0.0221 -0.6779
21354SOL     OW65502   7.377   3.274   1.195  0.4354 -0.1870 -0.0408
21354SOL    HW165503   7.448   3.214   1.171  1.8095 -0.0219  3.2126
21354SOL    HW265504   7.322   3.223   1.255  0.0368  0.9510  0.5866
21355SOL     OW65505   5.038   3.945   9.926  0.5241 -0.6591 -0.0737
21355SOL    HW165506   5.061   3.856   9.899 -0.9857 -0.4863 -2.1781
21355SOL    HW265507   4.946   3.938   9.952  1.0753 -0.1554  2.2660
21356SOL     OW65508   6.215   3.478  12.396  0.1667  0.4135 -0.7944
21356SOL    HW165509   6.188   3.539  12.465  0.1835  0.7270 -1.0648
21356SOL    HW265510   6.245   3.400  12.444  0.8992  0.9140 -0.4124
21357SOL     OW65511   7.582   4.805  11.229 -0.5493  0.2908 -0.0551
21357SOL    HW165512   7.672   4.836  11.218  0.1253 -1.3531  0.5310
21357SOL    HW265513   7.538   4.827  11.147  1.1507 -1.3124 -1.4636
21358SOL     OW65514   6.720   3.029  11.785 -0.5513  0.1341  0.0953
21358SOL    HW165515   6.803   2.982  11.786 -0.0570  0.9910 -0.1448
21358SOL    HW265516   6.744   3.122  11.785 -1.5022  0.4687  2.5711
21359SOL     OW65517   7.308   3.961   0.476  0.1124  0.5256  0.3288
21359SOL    HW165518   7.358   4.012   0.412 -0.5017 -0.9986 -1.4531
21359SOL    HW265519   7.246   3.911   0.423  0.9909 -2.4320  1.8737
21360SOL     OW65520   6.245   5.297   0.149 -0.3078 -0.6832 -0.2383
21360SOL    HW165521   6.191   5.293   0.070 -1.4249 -3.0048  0.5299
21360SOL    HW265522   6.185   5.328   0.217  0.0536 -0.7389  0.1119
21361SOL     OW65523   5.978   5.884   0.824  0.1430 -0.2442 -0.6906
21361SOL    HW165524   6.003   5.820   0.757  1.3593 -0.7948  0.2521
21361SOL    HW265525   5.883   5.874   0.833  0.2676 -1.7329 -0.7632
21362SOL     OW65526   6.106   2.894   1.549 -0.3518 -0.3342 -0.2860
21362SOL    HW165527   6.072   2.976   1.512 -2.2344 -1.9095 -2.2970
21362SOL    HW265528   6.047   2.826   1.516  1.2484 -2.5635  1.1474
21363SOL     OW65529   5.853   4.623  11.958 -0.4482 -0.5724  0.0431
21363SOL    HW165530   5.763   4.654  11.964 -0.0498  1.2985 -2.1301
21363SOL    HW265531   5.904   4.683  12.012 -0.1814  0.2331 -1.0555
21364SOL     OW65532   6.598   3.934  11.277  0.2554 -0.1910  0.2040
21364SOL    HW165533   6.595   4.029  11.271  0.9650  0.0113  2.2017
21364SOL    HW265534   6.691   3.912  11.270  0.2091 -0.6156  0.8054
21365SOL     OW65535   7.383   4.624  11.821 -0.1745 -0.0802 -0.3665
21365SOL    HW165536   7.457   4.617  11.882 -1.5934 -1.9550  1.2821
21365SOL    HW265537   7.348   4.712  11.836  0.9281  0.3585 -0.2542
21366SOL     OW65538   7.262   3.778  12.050  0.0599 -0.9844  0.2404
21366SOL    HW165539   7.317   3.742  11.980  2.4730  0.9414  0.9805
21366SOL    HW265540   7.272   3.873  12.042 -1.5918 -0.6221  1.7086
21367SOL     OW65541   5.801   5.088   0.651 -0.0200  0.1062 -0.0600
21367SOL    HW165542   5.852   5.163   0.681 -0.4192  0.5341 -0.4347
21367SOL    HW265543   5.710   5.116   0.660 -0.1611 -0.0243 -0.9952
21368SOL     OW65544   6.442   3.385  11.620  0.3091  0.3413 -0.2705
21368SOL    HW165545   6.465   3.392  11.713  0.9955  0.1861 -0.4179
21368SOL    HW265546   6.484   3.461  11.579  1.0326 -0.2402 -0.6312
21369SOL     OW65547   6.728   4.808  11.629  0.3513  0.1191  0.1476
21369SOL    HW165548   6.801   4.749  11.648 -0.0051 -0.4815 -0.2943
21369SOL    HW265549   6.766   4.896  11.632  1.3869 -0.2440 -1.3818
21370SOL     OW65550   5.997   5.313  11.888 -0.5643 -0.4377  0.2825
21370SOL    HW165551   6.019   5.391  11.938 -0.5579 -0.5345  0.4302
21370SOL    HW265552   5.991   5.343  11.797 -1.2212 -0.1356  0.4226
21371SOL     OW65553   5.973   6.037   0.439 -0.3123  0.3356 -0.4704
21371SOL    HW165554   5.975   5.977   0.513 -0.0910  0.1795 -0.6018
21371SOL    HW265555   6.065   6.044   0.411 -0.2818  1.0439 -0.2039
21372SOL     OW65556   7.170   5.366  11.147  0.3055 -0.0278  0.3419
21372SOL    HW165557   7.156   5.271  11.140 -1.2072  0.1608  0.4258
21372SOL    HW265558   7.150   5.387  11.238  0.6146  0.3734  0.3194
21373SOL     OW65559   0.259   5.147   1.453 -0.1509  0.5546  0.3839
21373SOL    HW165560   0.196   5.137   1.382 -0.0072  0.1990  0.3053
21373SOL    HW265561   0.211   5.123   1.532  0.2013 -0.8619  0.1963
21374SOL     OW65562   7.977   4.819   0.755 -0.2882 -0.3872 -0.3875
21374SOL    HW165563   7.981   4.744   0.696  0.3875  0.6136 -1.6498
21374SOL    HW265564   7.972   4.895   0.697 -1.0995  0.5539  0.8673
21375SOL     OW65565   0.425   6.539  11.231  0.6113  0.0636  0.5189
21375SOL    HW165566   0.377   6.553  11.149  0.0233 -0.6590  0.7301
21375SOL    HW265567   0.466   6.624  11.249  1.9080 -0.1096 -1.2370
21376SOL     OW65568   7.139   5.871  12.445  0.4566 -0.5939  0.1646
21376SOL    HW165569   7.187   5.869  12.362 -0.7505 -0.2466 -0.5666
21376SOL    HW265570   7.087   5.950  12.441  0.6446 -0.3848  1.4355
21377SOL     OW65571   6.838   3.737  10.961  0.0041 -0.0251  0.2317
21377SOL    HW165572   6.910   3.763  10.904  0.0864  0.8074  0.6853
21377SOL    HW265573   6.860   3.649  10.990 -0.0541 -0.4657 -1.0316
21378SOL     OW65574   6.914   4.465  11.838  0.4561 -0.3310  0.5150
21378SOL    HW165575   6.899   4.453  11.744  1.7037  0.4196  0.1907
21378SOL    HW265576   6.831   4.499  11.871  0.7757  1.9646 -0.8303
21379SOL     OW65577   7.324   4.879  11.792 -0.4100 -0.0102  0.6874
21379SOL    HW165578   7.231   4.894  11.804 -0.5807 -0.1338 -0.3928
21379SOL    HW265579   7.364   4.966  11.799 -0.6892  0.1326  0.5040
21380SOL     OW65580   6.167   5.929  12.185 -0.4258  0.0235 -0.4864
21380SOL    HW165581   6.079   5.946  12.218 -0.3346 -0.8854  0.2445
21380SOL    HW265582   6.195   5.849  12.229  0.6507  0.1275 -0.9421
21381SOL     OW65583   6.138   7.275   9.574  0.1944  0.5468 -0.2108
21381SOL    HW165584   6.100   7.307   9.492 -2.3664  0.8205  0.9954
21381SOL    HW265585   6.084   7.199   9.597  1.7509 -0.3646  0.5607
21382SOL     OW65586   0.747   6.177  12.333 -0.2536 -0.4762  0.6360
21382SOL    HW165587   0.791   6.261  12.320 -0.8374  0.0215  1.7836
21382SOL    HW265588   0.709   6.156  12.248  0.0480  0.3261  0.2972
21383SOL     OW65589   7.909   2.481  11.732 -0.3609 -0.6583 -0.0768
21383SOL    HW165590   7.986   2.467  11.677 -0.1423 -0.8745  0.2808
21383SOL    HW265591   7.876   2.566  11.705  0.2245 -0.3916  0.0304
21384SOL     OW65592   6.415   2.921   1.453 -0.2509 -0.0296  0.0357
21384SOL    HW165593   6.387   2.983   1.386 -0.0913  0.3862  0.3451
21384SOL    HW265594   6.388   2.961   1.536  0.1968 -0.1863  0.2624
21385SOL     OW65595   6.959   4.709   0.534  0.0718 -0.2845 -0.4779
21385SOL    HW165596   7.051   4.737   0.526  0.1835 -0.8682 -1.3120
21385SOL    HW265597   6.934   4.736   0.623  0.9823  0.0739 -0.3150
21386SOL     OW65598   5.681   4.872  11.663  0.0724 -0.5028  0.2081
21386SOL    HW165599   5.606   4.873  11.604  0.2325 -0.3575  0.0038
21386SOL    HW265600   5.688   4.962  11.695  0.2296 -0.4883  0.1343
21387SOL     OW65601   0.362   5.056  10.804  0.4407  0.2117 -0.0821
21387SOL    HW165602   0.278   5.082  10.765  0.3771 -1.8271 -1.4858
21387SOL    HW265603   0.394   4.986  10.746  1.0441 -2.0605  2.7893
21388SOL     OW65604   7.468   4.840  12.405 -0.0889 -0.3595  0.1481
21388SOL    HW165605   7.544   4.818  12.351  1.0076  0.3930  1.3325
21388SOL    HW265606   7.465   4.936  12.403 -1.9454 -0.3922 -1.1052
21389SOL     OW65607   5.889   3.283  11.864  0.3359 -0.1246 -0.4855
21389SOL    HW165608   5.888   3.302  11.958 -0.0704  2.4845 -0.9270
21389SOL    HW265609   5.982   3.284  11.841  0.4157 -0.3820 -0.1769
21390SOL     OW65610   4.851   5.091   0.354 -0.0341 -0.0700  0.2777
21390SOL    HW165611   4.899   5.086   0.272 -0.1525  1.7499  0.0584
21390SOL    HW265612   4.770   5.138   0.332 -0.2842  0.0326  1.3274
21391SOL     OW65613   7.205   3.622   0.777  0.5392  0.0202 -0.6576
21391SOL    HW165614   7.199   3.572   0.696 -0.2391 -1.4836  0.2826
21391SOL    HW265615   7.253   3.565   0.838  1.7151  1.3870 -0.2180
21392SOL     OW65616   5.303   5.578  12.232 -0.4218  0.2576  0.4257
21392SOL    HW165617   5.371   5.520  12.265 -0.6398 -0.0831  0.2814
21392SOL    HW265618   5.351   5.654  12.199 -0.0552 -0.2583 -0.2696
21393SOL     OW65619   4.609   5.056  10.519  0.3349 -0.2131 -0.1513
21393SOL    HW165620   4.527   5.090  10.483 -0.1398  0.3895  1.4036
21393SOL    HW265621   4.613   4.965  10.489 -0.6726 -0.1215 -0.6136
21394SOL     OW65622   6.449   3.190  12.218 -0.4309  0.3855  0.0038
21394SOL    HW165623   6.451   3.275  12.262 -0.4075  1.4803 -1.9752
21394SOL    HW265624   6.540   3.162  12.216 -0.4933  0.0851  1.0521
21395SOL     OW65625   7.846   5.177  11.546  0.3186 -0.3372  0.0409
21395SOL    HW165626   7.856   5.206  11.456  0.7102 -0.1096  0.1526
21395SOL    HW265627   7.758   5.205  11.571  0.8771  1.2743  0.3208
21396SOL     OW65628   7.335   4.679   1.069  0.4542  0.4419  0.4262
21396SOL    HW165629   7.252   4.708   1.032  1.2628  2.9268  0.4029
21396SOL    HW265630   7.376   4.628   1.000 -0.7505 -0.3339  0.2357
21397SOL     OW65631   7.352   5.336  12.283 -0.1950  0.5665 -0.2815
21397SOL    HW165632   7.417   5.373  12.222 -0.5583  0.0671 -0.9849
21397SOL    HW265633   7.304   5.412  12.316 -0.8500  0.7552 -1.6122
21398SOL     OW65634   7.159   2.203  11.511 -0.2870 -0.3994  0.0994
21398SOL    HW165635   7.109   2.274  11.551 -1.9249 -0.8288 -1.1092
21398SOL    HW265636   7.165   2.227  11.418  0.4635 -1.1083 -0.0427
21399SOL     OW65637   5.192   3.896   0.059  0.3530 -0.5936  0.4696
21399SOL    HW165638   5.205   3.808   0.094  0.5745 -0.3036  1.1402
21399SOL    HW265639   5.227   3.892  -0.030  1.1362 -0.9681  0.7812
21400SOL     OW65640   7.514   3.945  12.196 -0.0513  0.3177 -0.0412
21400SOL    HW165641   7.561   3.978  12.120 -3.4927  1.9219 -1.6806
21400SOL    HW265642   7.510   3.851  12.183  0.2821  0.4637 -1.3477
21401SOL     OW65643   5.713   5.801  10.989 -0.5253 -0.4730  0.7492
21401SOL    HW165644   5.803   5.820  10.961 -0.9352 -0.6597 -0.8276
21401SOL    HW265645   5.714   5.708  11.011 -0.3361 -0.4756  0.7367
21402SOL     OW65646   6.261   5.323  10.869  0.6290 -0.0250  0.3664
21402SOL    HW165647   6.303   5.401  10.832  1.4240 -0.8367 -0.4869
21402SOL    HW265648   6.304   5.249  10.825  0.1098 -0.9600  1.3835
21403SOL     OW65649   5.387   4.238  12.127  0.2648  0.1942  0.0429
21403SOL    HW165650   5.399   4.250  12.221  0.1535  0.9293 -0.0259
21403SOL    HW265651   5.292   4.234  12.115  0.2523 -3.0218  0.2912
21404SOL     OW65652   6.575   5.041  10.146 -0.0315  0.0950 -0.2934
21404SOL    HW165653   6.511   4.978  10.179  1.4816 -1.9907 -1.0449
21404SOL    HW265654   6.543   5.065  10.059 -0.5120  0.1913 -0.0917
21405SOL     OW65655   6.635   4.898  12.115 -0.0214  0.2997 -0.0303
21405SOL    HW165656   6.705   4.914  12.052  0.8314  3.3648  1.5166
21405SOL    HW265657   6.681   4.864  12.193 -0.1555  2.3791  1.0137
21406SOL     OW65658   5.253   6.682   1.350 -0.0040 -0.1467 -0.1080
21406SOL    HW165659   5.159   6.673   1.366 -0.1287 -0.1066 -0.8220
21406SOL    HW265660   5.271   6.625   1.276  0.2743  0.8814 -0.8678
21407SOL     OW65661   7.975   4.089  12.175 -0.4743  0.1205  0.0247
21407SOL    HW165662   7.906   4.119  12.115 -0.9718 -0.6726  0.1893
21407SOL    HW265663   7.937   4.014  12.220  0.7349 -0.7526 -0.3536
21408SOL     OW65664   6.496   5.499  12.089 -0.7198 -0.1370  0.3947
21408SOL    HW165665   6.425   5.562  12.097  1.6536  2.6930  0.8979
21408SOL    HW265666   6.521   5.479  12.180  0.6564  0.8506  0.2650
21409SOL     OW65667   7.217   3.890   0.735  0.1345  0.4174 -0.4828
21409SOL    HW165668   7.206   3.795   0.746 -1.9965  0.3627 -2.2759
21409SOL    HW265669   7.243   3.900   0.643 -1.0125  1.6012 -0.7138
21410SOL     OW65670   5.296   4.420   0.445 -0.0670  0.4467 -0.4452
21410SOL    HW165671   5.248   4.375   0.375  2.5167 -1.6398 -1.0214
21410SOL    HW265672   5.388   4.405   0.425  0.9664  4.0837  0.7141
21411SOL     OW65673   6.837   5.105   1.142  0.0454 -0.1371 -0.1316
21411SOL    HW165674   6.871   5.023   1.178  3.3255  0.4957 -1.4488
21411SOL    HW265675   6.868   5.106   1.051 -3.7005  0.6172 -1.5899
21412SOL     OW65676   6.742   2.697  10.853  0.2169 -0.0569  0.0335
21412SOL    HW165677   6.770   2.778  10.810 -1.0092  0.0052 -0.7134
21412SOL    HW265678   6.762   2.628  10.790 -0.2224 -0.1340 -0.0308
21413SOL     OW65679   6.962   6.553   1.086 -0.0191 -0.1475  0.1776
21413SOL    HW165680   6.877   6.509   1.080  0.1921 -0.7711  1.4413
21413SOL    HW265681   7.017   6.492   1.135  1.0234  0.4585 -0.2196
21414SOL     OW65682   7.209   3.994  11.509  0.3751 -0.1151 -0.1893
21414SOL    HW165683   7.256   3.936  11.450 -2.2838 -2.0161 -0.6039
21414SOL    HW265684   7.130   3.946  11.533 -0.9546  2.5108  1.1628
21415SOL     OW65685   6.374   4.904  11.326  0.0670  0.0346 -0.3681
21415SOL    HW165686   6.289   4.867  11.348  0.5978 -1.8867 -1.2786
21415SOL    HW265687   6.414   4.839  11.268  1.8627  1.2255 -0.5608
21416SOL     OW65688   7.196   3.777   0.134 -0.5334  0.5430  0.8564
21416SOL    HW165689   7.276   3.818   0.167 -0.3416  0.4077  0.5598
21416SOL    HW265690   7.138   3.773   0.210 -1.2951  3.1271  0.5055
21417SOL     OW65691   5.467   4.394  11.303 -0.7101 -0.6023  0.3576
21417SOL    HW165692   5.433   4.341  11.230 -1.4929  1.6627 -1.0291
21417SOL    HW265693   5.519   4.333  11.354 -1.9640 -2.8243 -0.8433
21418SOL     OW65694   6.826   6.192  12.231  0.2199  0.1734  0.4103
21418SOL    HW165695   6.751   6.251  12.230 -1.4343 -1.7405  1.6093
21418SOL    HW265696   6.795   6.113  12.185  2.5372  0.3630 -1.7025
21419SOL     OW65697   3.797   5.488  12.354  0.1631 -0.4609 -0.1563
21419SOL    HW165698   3.739   5.427  12.307  0.0794  0.3709 -1.1673
21419SOL    HW265699   3.845   5.433  12.415  1.0170 -1.7745 -1.9182
21420SOL     OW65700   6.647   5.630   1.512 -0.1879 -0.6453 -0.1977
21420SOL    HW165701   6.557   5.612   1.541 -0.4224  0.7018 -0.0172
21420SOL    HW265702   6.662   5.567   1.442 -2.4504  1.0703 -2.4415
21421SOL     OW65703   5.043   7.276   0.110 -0.4576 -0.3187  0.4121
21421SOL    HW165704   4.975   7.209   0.106  0.5648 -1.3538 -0.4908
21421SOL    HW265705   5.080   7.268   0.198 -2.8823  1.7417  1.7385
21422SOL     OW65706   5.620   7.850   2.220 -0.0232 -0.0333  0.4452
21422SOL    HW165707   5.675   7.792   2.272 -1.9534 -0.5900  2.0124
21422SOL    HW265708   5.631   7.819   2.130  2.6086  0.2877  0.5752
21423SOL     OW65709   1.150   6.529  11.788 -0.1072 -0.0673 -0.0206
21423SOL    HW165710   1.075   6.587  11.774 -0.1950  0.7058  2.9690
21423SOL    HW265711   1.122   6.470  11.859  0.6891 -2.5615 -1.6457
21424SOL     OW65712   6.781   0.640  10.426  0.5817 -0.0554  0.2653
21424SOL    HW165713   6.867   0.613  10.391 -0.2453 -0.2710 -1.7694
21424SOL    HW265714   6.752   0.566  10.479  0.8750 -0.7755 -0.5470
21425SOL     OW65715   6.454   3.643  12.253  0.2779 -0.0259 -0.5598
21425SOL    HW165716   6.481   3.728  12.217 -1.5582 -0.1389 -2.4412
21425SOL    HW265717   6.364   3.632  12.221  0.6384 -2.8845 -0.7772
21426SOL     OW65718   7.491   5.946   0.606  0.3859 -0.4513 -0.3882
21426SOL    HW165719   7.422   5.988   0.554  0.1320 -0.4780 -0.0718
21426SOL    HW265720   7.564   5.937   0.545  0.6785  1.0473 -0.3004
21427SOL     OW65721   7.328   5.743   2.885  0.0210  0.0862  0.1330
21427SOL    HW165722   7.322   5.833   2.917  2.1554  0.4117 -0.2278
21427SOL    HW265723   7.416   5.714   2.911  0.1349 -1.1714 -1.4808
21428SOL     OW65724   5.124   5.054  11.610 -0.5961  0.1967 -0.3237
21428SOL    HW165725   5.200   5.090  11.564  0.7898 -0.6422  1.1844
21428SOL    HW265726   5.155   4.969  11.643 -2.6817 -0.8486 -0.9264
21429SOL     OW65727   5.112   7.439   2.248  0.1316  0.5901  0.1070
21429SOL    HW165728   5.056   7.364   2.227  0.8574 -0.6174  2.1470
21429SOL    HW265729   5.120   7.487   2.166 -1.3288 -0.9227 -0.9842
21430SOL     OW65730   6.621   7.406   1.461  0.3656 -0.1550  0.0578
21430SOL    HW165731   6.690   7.380   1.521 -0.8878 -3.7644  0.1731
21430SOL    HW265732   6.580   7.482   1.502  1.1675 -0.9556  2.4819
21431SOL     OW65733   5.762   7.703   2.437  0.4350  0.1316 -0.1681
21431SOL    HW165734   5.686   7.652   2.464  1.4841 -1.0872  0.5909
21431SOL    HW265735   5.755   7.784   2.488  0.2885 -0.4909  0.8192
21432SOL     OW65736   5.958   5.595   3.669  0.3574  0.0351 -0.1958
21432SOL    HW165737   6.029   5.658   3.653 -0.2524  1.7289  2.9316
21432SOL    HW265738   5.907   5.596   3.588  1.8949  1.5189 -1.2188
21433SOL     OW65739   6.551   5.870  11.662  0.9579 -0.1058 -0.3726
21433SOL    HW165740   6.644   5.858  11.641  0.8767 -0.0673 -0.7627
21433SOL    HW265741   6.513   5.784  11.649  1.0379 -0.2567  0.3338
21434SOL     OW65742   4.664   6.025   0.360  0.0708  0.1046 -0.0752
21434SOL    HW165743   4.752   6.037   0.324  0.7129 -0.5693  1.1937
21434SOL    HW265744   4.638   5.937   0.332 -0.2947  0.3859 -0.6291
21435SOL     OW65745   6.582   7.095   1.522  0.0609 -0.8639 -0.1075
21435SOL    HW165746   6.621   7.008   1.515  0.3712 -0.7714  0.4567
21435SOL    HW265747   6.629   7.137   1.593 -1.0479 -0.7317  0.5709
21436SOL     OW65748   5.128   7.256  11.531  0.1212  0.1778 -0.4312
21436SOL    HW165749   5.116   7.229  11.622  2.1641 -2.8919 -0.9295
21436SOL    HW265750   5.199   7.320  11.534 -0.3626  0.6985  0.1776
21437SOL     OW65751   5.650   7.424   0.536  0.3989 -0.2066  0.4976
21437SOL    HW165752   5.720   7.489   0.526  0.1966  0.0009  0.4261
21437SOL    HW265753   5.581   7.453   0.475  1.2663 -1.8101 -1.3718
21438SOL     OW65754   5.408   6.305   0.863  0.0184  0.7691 -0.0080
21438SOL    HW165755   5.406   6.397   0.836 -0.8739  0.6785 -0.2907
21438SOL    HW265756   5.393   6.308   0.958  0.2062  0.9246  0.0175
21439SOL     OW65757   5.441   5.528   0.180 -0.4955 -0.2636 -0.3474
21439SOL    HW165758   5.411   5.618   0.169 -0.2321  0.0836  1.4658
21439SOL    HW265759   5.536   5.534   0.183 -0.3994 -0.8191 -1.8037
21440SOL     OW65760   7.077   7.961   1.628 -0.1939 -0.4264 -0.0116
21440SOL    HW165761   7.154   7.904   1.625 -0.3063 -0.8252  2.5104
21440SOL    HW265762   7.048   7.967   1.537  1.9092 -1.4895 -0.8193
21441SOL     OW65763   3.573   7.492   0.286  0.0877 -1.2584  0.3536
21441SOL    HW165764   3.597   7.583   0.270  1.5552 -1.7994 -0.8643
21441SOL    HW265765   3.544   7.490   0.377  1.4320  0.1796  0.8683
21442SOL     OW65766   0.391   6.710   0.191  0.3794 -0.3539  0.0513
21442SOL    HW165767   0.300   6.739   0.199  0.3577 -0.7173  1.3268
21442SOL    HW265768   0.388   6.641   0.124 -0.3196 -0.5336  0.2649
21443SOL     OW65769   6.226   7.392  12.241  0.1218 -0.2757 -0.4492
21443SOL    HW165770   6.295   7.358  12.297 -0.3998 -0.2966  0.1963
21443SOL    HW265771   6.222   7.485  12.262  0.1757 -0.2102 -0.7275
21444SOL     OW65772   1.094   7.659  12.250 -0.2712 -0.1629  0.1880
21444SOL    HW165773   1.122   7.616  12.169  1.3441  0.9612  0.0822
21444SOL    HW265774   1.027   7.602  12.287 -2.1509  0.0352 -2.6699
21445SOL     OW65775   7.367   6.554  11.901 -0.1708 -0.3550  0.7309
21445SOL    HW165776   7.276   6.583  11.902 -0.1250 -0.2182  1.4228
21445SOL    HW265777   7.363   6.462  11.928 -0.2043 -0.6970 -0.3610
21446SOL     OW65778   6.683   6.551   0.691  0.1119 -0.2604  0.2571
21446SOL    HW165779   6.680   6.610   0.615  1.1305 -0.8559 -0.2814
21446SOL    HW265780   6.660   6.465   0.655  1.3701 -0.6991  0.4222
21447SOL     OW65781   6.824   6.411   1.892  0.7148 -0.1954  0.4052
21447SOL    HW165782   6.900   6.467   1.874  0.8614 -0.6709 -0.4541
21447SOL    HW265783   6.748   6.466   1.872  0.8553 -0.2032 -0.1507
21448SOL     OW65784   4.662   7.018   1.128  0.0650 -0.5255  0.5195
21448SOL    HW165785   4.671   7.112   1.112  1.0369 -0.5401  0.9121
21448SOL    HW265786   4.603   6.987   1.059  2.8428 -0.3306 -2.1849
21449SOL     OW65787   5.806   4.573   0.399 -0.5491 -0.0096 -0.2321
21449SOL    HW165788   5.764   4.539   0.479  1.2361 -0.4175  0.5752
21449SOL    HW265789   5.767   4.660   0.388 -3.0456 -1.0959 -0.6863
21450SOL     OW65790   6.152   5.237   1.055  0.1073  0.0099 -0.1723
21450SOL    HW165791   6.203   5.303   1.009  1.7987 -2.4613 -2.1537
21450SOL    HW265792   6.103   5.191   0.986 -0.7728 -0.9942  1.0629
21451SOL     OW65793   7.656   5.894  12.102 -0.4155  0.6071  0.7184
21451SOL    HW165794   7.715   5.888  12.027 -1.5801  1.2474 -0.2913
21451SOL    HW265795   7.605   5.813  12.099 -1.8996  1.5104 -0.4986
21452SOL     OW65796   6.175   7.735   2.324 -0.2029 -0.3095 -0.3657
21452SOL    HW165797   6.258   7.731   2.276  0.5319  1.4406  0.6865
21452SOL    HW265798   6.110   7.708   2.259  1.3031 -3.9841 -0.6213
21453SOL     OW65799   6.796   6.081   1.574  0.1321 -0.2801  0.7556
21453SOL    HW165800   6.783   6.130   1.655 -0.2348 -0.4539  0.8068
21453SOL    HW265801   6.850   6.138   1.519 -0.1835  0.1256  0.8618
21454SOL     OW65802   5.567   6.210   1.408  0.2800 -0.2514 -0.1195
21454SOL    HW165803   5.494   6.271   1.421 -1.3499 -1.9507 -0.8887
21454SOL    HW265804   5.644   6.260   1.434 -1.2828  1.0826  2.3786
21455SOL     OW65805   0.158   4.687   1.884 -0.2304 -0.6794 -0.2648
21455SOL    HW165806   0.175   4.637   1.964 -1.1589  0.6240  0.8081
21455SOL    HW265807   0.190   4.775   1.904 -0.2990 -0.3873 -1.4001
21456SOL     OW65808   4.465   6.347  12.223  1.2068 -0.3930  0.2348
21456SOL    HW165809   4.558   6.325  12.219  1.1511 -1.0994  2.0005
21456SOL    HW265810   4.420   6.263  12.212  0.7731 -0.0926 -0.3272
21457SOL     OW65811   6.649   5.918  12.384  0.3472  0.9278 -0.3167
21457SOL    HW165812   6.643   5.867  12.303 -0.0185 -2.2352  1.5224
21457SOL    HW265813   6.594   5.995  12.369 -2.3877 -1.1755 -1.9927
21458SOL     OW65814   1.630   6.961   0.597 -0.3246  0.4855 -0.0881
21458SOL    HW165815   1.712   6.994   0.633 -0.2421  0.5866 -0.3657
21458SOL    HW265816   1.611   6.882   0.648 -0.0235  0.4262 -0.0680
21459SOL     OW65817   7.581   6.558  12.054  0.6543  0.0837 -0.0120
21459SOL    HW165818   7.529   6.562  11.974  1.3055  0.3573 -0.4285
21459SOL    HW265819   7.644   6.488  12.039  0.1368 -0.5448  0.6619
21460SOL     OW65820   5.435   5.829   1.362  0.3352  0.3958  0.2255
21460SOL    HW165821   5.506   5.768   1.382 -0.1528 -0.6115 -0.9888
21460SOL    HW265822   5.423   5.821   1.267  0.9409  3.1413 -0.1587
21461SOL     OW65823   7.531   5.645  12.147  0.0676  0.0417 -0.0225
21461SOL    HW165824   7.476   5.572  12.118 -0.0374  0.8642 -2.0868
21461SOL    HW265825   7.618   5.607  12.158 -0.1666 -0.5712 -0.2602
21462SOL     OW65826   7.688   7.038   0.302  0.1003  0.1814 -0.1328
21462SOL    HW165827   7.637   7.007   0.377  0.0490  0.8007  0.0969
21462SOL    HW265828   7.730   7.119   0.333  0.3863  0.2360 -0.6492
21463SOL     OW65829   0.171   6.110   1.039  0.4312 -0.0721 -0.2346
21463SOL    HW165830   0.166   6.181   1.103  1.0134  0.2244 -0.5031
21463SOL    HW265831   0.260   6.076   1.048  0.2723 -0.5230 -0.3669
21464SOL     OW65832   5.753   3.982  12.223  0.0201 -0.2058 -0.1337
21464SOL    HW165833   5.726   4.066  12.187 -1.4801 -0.6220 -0.0490
21464SOL    HW265834   5.738   3.990  12.317 -2.4541 -1.3322 -0.3643
21465SOL     OW65835   4.917   5.773   0.019  0.3633 -0.0685 -0.5176
21465SOL    HW165836   5.001   5.741  -0.016  0.1027  1.6439 -2.9427
21465SOL    HW265837   4.936   5.863   0.048 -0.7806  0.6275 -1.8485
21466SOL     OW65838   5.782   6.927  11.906 -0.1872 -0.0328 -0.1796
21466SOL    HW165839   5.705   6.903  11.958  0.0668 -1.0614 -0.2701
21466SOL    HW265840   5.760   7.014  11.871 -1.1906 -0.1850  0.0291
21467SOL     OW65841   7.626   6.515   1.772 -0.1915  0.1185  0.4576
21467SOL    HW165842   7.594   6.601   1.745  0.6788  1.0132  2.0952
21467SOL    HW265843   7.624   6.517   1.868 -0.5542 -1.8623  0.5430
21468SOL     OW65844   5.985   7.280   0.456 -0.1425 -0.3868 -0.3660
21468SOL    HW165845   6.005   7.330   0.535  2.7102 -2.8674  0.6396
21468SOL    HW265846   5.919   7.217   0.484  1.6772 -2.0131  0.4614
21469SOL     OW65847   6.262   7.574  11.585 -0.2762  0.0939 -0.2809
21469SOL    HW165848   6.331   7.508  11.593  1.2686  1.3544 -2.1154
21469SOL    HW265849   6.253   7.588  11.491 -2.6454  0.4357 -0.0680
21470SOL     OW65850   6.483   1.270   2.583  0.1356  0.1512 -0.2050
21470SOL    HW165851   6.565   1.237   2.621 -0.1039 -1.3047 -0.8796
21470SOL    HW265852   6.491   1.365   2.587  1.2716  0.0246  0.9839
21471SOL     OW65853   6.609   0.302   0.861  0.3837  0.2950 -0.1812
21471SOL    HW165854   6.577   0.212   0.862  1.0133  0.0462 -1.1807
21471SOL    HW265855   6.530   0.355   0.850  0.1160 -0.2063 -0.7378
21472SOL     OW65856   0.160   6.063   1.507 -0.2864  0.1734 -0.0160
21472SOL    HW165857   0.068   6.063   1.531 -0.3703  0.3901 -0.3386
21472SOL    HW265858   0.170   6.136   1.447 -0.0320 -0.2175 -0.4582
21473SOL     OW65859   7.673   0.988   1.279  0.4387 -0.5322 -0.2594
21473SOL    HW165860   7.718   1.040   1.213  0.7369 -0.0458  0.3192
21473SOL    HW265861   7.625   1.052   1.331  0.3233 -0.8941  0.0829
21474SOL     OW65862   7.108   6.793  11.314 -0.2977 -0.2867  0.3145
21474SOL    HW165863   7.140   6.746  11.390 -0.7405 -1.3150 -0.1095
21474SOL    HW265864   7.186   6.827  11.271 -0.0552  0.4005  1.2719
21475SOL     OW65865   6.573   7.109   0.814  0.0919  0.7018 -0.0223
21475SOL    HW165866   6.577   7.014   0.803 -1.3521  0.3572  1.8982
21475SOL    HW265867   6.615   7.144   0.735  0.2034 -1.5028 -1.0188
21476SOL     OW65868   7.080   6.452   0.618  0.1633  0.5364  0.1948
21476SOL    HW165869   7.026   6.461   0.697  0.4380  1.1016  0.3224
21476SOL    HW265870   7.129   6.534   0.613 -0.8678  1.0847 -1.3404
21477SOL     OW65871   6.013   5.600   1.225  0.4765 -0.5229  0.2145
21477SOL    HW165872   6.032   5.601   1.131  2.9239 -1.5905  0.6101
21477SOL    HW265873   6.018   5.692   1.251 -0.8401 -0.1449 -0.7759
21478SOL     OW65874   7.778   6.787  11.799  0.3490  0.2217  0.1655
21478SOL    HW165875   7.747   6.698  11.816  2.9205 -0.7032  0.5473
21478SOL    HW265876   7.804   6.820  11.886  0.4958  0.8842 -0.1271
21479SOL     OW65877   7.283   7.434  12.296 -0.2472  0.2245  0.3334
21479SOL    HW165878   7.326   7.351  12.313 -1.4891 -0.7323 -0.9418
21479SOL    HW265879   7.283   7.479  12.381 -0.9127 -1.7458  1.4546
21480SOL     OW65880   7.434   6.421   0.407 -0.6218 -0.1082  0.4466
21480SOL    HW165881   7.419   6.386   0.495  2.3135 -2.8882  0.0307
21480SOL    HW265882   7.529   6.434   0.402 -0.9021  1.8083 -1.7392
21481SOL     OW65883   6.056   0.246   1.197 -0.2438 -0.1522 -0.3889
21481SOL    HW165884   6.082   0.334   1.225  0.8995 -0.4710 -0.3723
21481SOL    HW265885   6.010   0.259   1.115 -1.0071  0.5472  0.1357
21482SOL     OW65886   5.957   5.491   1.635  0.1222  0.1091 -0.0515
21482SOL    HW165887   5.886   5.432   1.609  0.4182  0.1922 -1.0712
21482SOL    HW265888   5.945   5.568   1.580  0.3919  0.5565  0.5119
21483SOL     OW65889   4.709   7.837   0.949 -0.1389 -0.3949  0.4323
21483SOL    HW165890   4.629   7.793   0.919  0.0318 -0.0315 -0.5902
21483SOL    HW265891   4.773   7.819   0.881 -0.3665  2.3287 -0.6276
21484SOL     OW65892   6.785   7.292   2.078  0.6204  0.3052 -0.0232
21484SOL    HW165893   6.828   7.209   2.100  1.0656  0.7876  1.0275
21484SOL    HW265894   6.857   7.353   2.060  0.2742 -0.0022 -2.7684
21485SOL     OW65895   6.140   4.042   0.299 -0.2519  0.1917 -0.1140
21485SOL    HW165896   6.177   3.962   0.262  2.3715  0.8704  0.8309
21485SOL    HW265897   6.179   4.113   0.247  0.7776  0.9877  1.6441
21486SOL     OW65898   5.929   5.316   0.587 -0.2348  0.1857  0.0222
21486SOL    HW165899   6.009   5.280   0.548 -0.4315  0.1530 -0.3556
21486SOL    HW265900   5.858   5.272   0.541 -0.5635 -2.5617  2.8238
21487SOL     OW65901   7.404   6.953   1.809 -0.6284 -0.2622 -0.3936
21487SOL    HW165902   7.374   6.933   1.721  1.3491  0.7133 -1.3492
21487SOL    HW265903   7.408   7.049   1.812 -1.3990 -0.2354  1.0429
21488SOL     OW65904   6.397   7.097   1.107 -0.0777 -0.0844 -0.7010
21488SOL    HW165905   6.370   7.116   1.017  1.6985  0.2446 -1.1878
21488SOL    HW265906   6.412   7.183   1.146  0.9585 -0.2728 -0.6717
21489SOL     OW65907   5.949   6.493   0.042  0.0575 -0.7247 -0.2504
21489SOL    HW165908   5.942   6.540  -0.041  0.6546 -0.6442 -0.2613
21489SOL    HW265909   6.033   6.447   0.036 -0.3879 -1.5663 -0.1210
21490SOL     OW65910   7.119   5.774   1.356  0.0384  0.0767 -0.4678
21490SOL    HW165911   7.027   5.794   1.341  0.4878  1.0540 -2.2594
21490SOL    HW265912   7.158   5.858   1.380  0.7761  0.1166 -1.6720
21491SOL     OW65913   5.890   4.328  11.577 -0.2264  0.3637  0.2126
21491SOL    HW165914   5.887   4.399  11.514 -1.0814  1.4036  1.3755
21491SOL    HW265915   5.922   4.368  11.658 -1.1970 -0.4358  1.0274
21492SOL     OW65916   7.182   6.172  11.805  0.0901  0.4819 -0.1300
21492SOL    HW165917   7.148   6.168  11.895 -1.5445  3.0311 -0.5479
21492SOL    HW265918   7.119   6.225  11.757  0.4781 -1.4325 -3.0628
21493SOL     OW65919   4.824   5.474   0.060 -0.3450  0.7645 -0.1945
21493SOL    HW165920   4.891   5.419   0.018 -1.5924 -0.3001 -0.8732
21493SOL    HW265921   4.861   5.562   0.058  0.7873  0.2968 -1.1031
21494SOL     OW65922   5.459   5.707   0.439 -0.2460 -0.2019  0.1966
21494SOL    HW165923   5.408   5.641   0.486  1.3940 -0.6412  1.4711
21494SOL    HW265924   5.452   5.786   0.492 -2.9892  1.0767 -1.8066
21495SOL     OW65925   7.451   5.781   1.488 -0.3564 -1.0025 -0.4530
21495SOL    HW165926   7.430   5.805   1.579  0.1361 -0.8376 -0.3801
21495SOL    HW265927   7.397   5.703   1.472  0.1191 -1.4963  0.2436
21496SOL     OW65928   7.420   6.804  11.975  0.6798 -0.2494 -0.2963
21496SOL    HW165929   7.419   6.721  11.927  2.1235  1.2887 -3.2874
21496SOL    HW265930   7.464   6.783  12.057  3.0978 -2.1094 -1.8946
21497SOL     OW65931   7.449   7.938   1.120  0.2390  0.1139 -0.1481
21497SOL    HW165932   7.481   8.025   1.145  0.5140  0.3209 -1.1858
21497SOL    HW265933   7.525   7.881   1.132  0.9554  0.5413 -2.2487
21498SOL     OW65934   6.438   5.191   0.862 -0.2637  0.1007  0.3731
21498SOL    HW165935   6.493   5.234   0.796 -1.2201 -1.4084 -1.4874
21498SOL    HW265936   6.359   5.245   0.867 -0.0191  0.4406  0.5878
21499SOL     OW65937   5.642   4.902   2.550 -0.1701 -0.9063 -0.4605
21499SOL    HW165938   5.593   4.828   2.587 -0.5724 -0.4184  0.0083
21499SOL    HW265939   5.734   4.882   2.568 -0.3211 -0.9622  0.2968
21500SOL     OW65940   6.716   5.752   0.591  0.6743 -0.5874 -0.6426
21500SOL    HW165941   6.782   5.707   0.540  0.9085 -0.5357 -0.3870
21500SOL    HW265942   6.634   5.735   0.545  1.0317  0.4487 -1.7201
21501SOL     OW65943   6.643   6.041   1.220 -0.0409 -0.0834  0.0005
21501SOL    HW165944   6.570   6.061   1.161 -2.1038 -0.6882  2.1816
21501SOL    HW265945   6.676   6.126   1.247 -1.0430  0.2442  0.2380
21502SOL     OW65946   5.382   5.668  11.878 -0.5238  0.2013 -0.2035
21502SOL    HW165947   5.412   5.752  11.910 -0.0699  0.2067 -0.6271
21502SOL    HW265948   5.301   5.688  11.831  0.0303  0.5419 -1.0440
21503SOL     OW65949   7.818   6.327   0.327  0.1158 -0.8122  0.1623
21503SOL    HW165950   7.749   6.272   0.289 -0.4821 -0.2902  0.4616
21503SOL    HW265951   7.844   6.282   0.407  0.5407 -1.3104 -0.2518
21504SOL     OW65952   7.485   6.749   0.088  0.6297 -0.0761  0.2916
21504SOL    HW165953   7.578   6.771   0.099  0.5331  0.6777 -0.3208
21504SOL    HW265954   7.442   6.834   0.074 -0.5124 -0.1195  2.8614
21505SOL     OW65955   1.558   6.918  11.611 -0.3413  0.7489  0.0244
21505SOL    HW165956   1.522   6.956  11.531  0.4322  1.1630 -0.1385
21505SOL    HW265957   1.653   6.921  11.598 -0.2346  0.0629  0.6146
21506SOL     OW65958   6.243   5.870   0.908 -0.1144 -0.2250  0.0251
21506SOL    HW165959   6.271   5.871   0.817  0.6490 -0.5828  0.2459
21506SOL    HW265960   6.274   5.785   0.941  1.3122  0.6841  1.1262
21507SOL     OW65961   6.621   5.320   0.699 -0.0558  0.3074 -0.0161
21507SOL    HW165962   6.638   5.363   0.783  0.4934 -1.1521  0.6445
21507SOL    HW265963   6.709   5.301   0.664 -0.2688  1.0786 -1.0483
21508SOL     OW65964   0.293   6.372  11.592 -0.1113 -0.3306 -0.5597
21508SOL    HW165965   0.239   6.422  11.653 -0.3685  0.2451 -1.2471
21508SOL    HW265966   0.299   6.285  11.632 -1.2992 -0.3259 -0.3218
21509SOL     OW65967   7.680   4.966  10.230 -0.1559  0.1555 -0.0127
21509SOL    HW165968   7.625   5.043  10.240 -0.1244  0.0068  1.5279
21509SOL    HW265969   7.641   4.901  10.289  0.7782 -0.4416 -0.0320
21510SOL     OW65970   6.038   6.582   1.794 -0.1096  0.8052 -0.1097
21510SOL    HW165971   5.943   6.584   1.795 -0.3239 -2.8147 -0.3132
21510SOL    HW265972   6.063   6.620   1.710 -1.3853  1.3039 -0.2765
21511SOL     OW65973   7.155   0.382   1.766 -0.7168 -0.2026  0.1611
21511SOL    HW165974   7.197   0.296   1.753  0.7322  0.2920  1.3049
21511SOL    HW265975   7.066   0.369   1.735 -0.3008 -1.8953 -0.4808
21512SOL     OW65976   6.471   7.528   0.579 -0.5378 -0.0292  0.0487
21512SOL    HW165977   6.444   7.540   0.671 -0.5865  0.0142  0.0286
21512SOL    HW265978   6.444   7.608   0.536 -1.7244 -0.5817 -0.2904
21513SOL     OW65979   7.271   7.640   0.942 -0.1166  0.5583 -0.1553
21513SOL    HW165980   7.261   7.651   0.848  1.0946  1.7936 -0.1694
21513SOL    HW265981   7.182   7.648   0.977 -0.7795 -1.2341 -1.2697
21514SOL     OW65982   5.719   3.842   1.739 -0.5269  0.0422 -0.4800
21514SOL    HW165983   5.784   3.797   1.686  0.0664  0.7064 -0.3306
21514SOL    HW265984   5.757   3.928   1.756 -1.3100  0.3304 -0.1306
21515SOL     OW65985   6.816   6.690   1.606 -0.4140 -0.4349 -0.0124
21515SOL    HW165986   6.768   6.612   1.578 -0.4086 -0.6202  0.4901
21515SOL    HW265987   6.897   6.656   1.644 -0.6320 -0.2204  0.6670
21516SOL     OW65988   6.362   6.792   0.659  0.1958 -0.1606  0.1851
21516SOL    HW165989   6.297   6.721   0.658  0.5610 -0.5093  0.7011
21516SOL    HW265990   6.370   6.818   0.567  0.1876 -0.9173 -0.0382
21517SOL     OW65991   5.705   5.001   1.022  0.3236  0.1606  0.2155
21517SOL    HW165992   5.639   4.954   0.972  1.5501  0.7846 -2.1417
21517SOL    HW265993   5.677   5.093   1.019  2.2358  0.8025 -2.7292
21518SOL     OW65994   7.256   7.586   2.263 -0.4754  0.2550  0.5828
21518SOL    HW165995   7.266   7.522   2.193 -0.3799 -0.2692  1.0677
21518SOL    HW265996   7.164   7.581   2.288 -0.9695  1.8027 -0.7768
21519SOL     OW65997   5.921   6.974   1.764  0.5782  0.5069 -0.3345
21519SOL    HW165998   6.001   6.935   1.729  0.4756  0.0954 -0.1237
21519SOL    HW265999   5.950   7.028   1.837  0.6420  0.1318 -0.0759
21520SOL     OW66000   5.011   6.874   0.333  0.0301  0.3135  0.2223
21520SOL    HW166001   5.040   6.792   0.293 -0.3118 -0.4437  1.4564
21520SOL    HW266002   5.005   6.854   0.426  0.6638  1.9759  0.6518
21521SOL     OW66003   7.142   4.276   2.206  0.2719 -0.1837 -0.3037
21521SOL    HW166004   7.220   4.267   2.152  1.4129  1.1226  1.0197
21521SOL    HW266005   7.159   4.353   2.260 -2.1844  0.4628 -0.3406
21522SOL     OW66006   6.454   6.625  11.544 -0.0454 -0.2232 -0.3489
21522SOL    HW166007   6.420   6.580  11.621  0.0343  0.7823  0.2874
21522SOL    HW266008   6.528   6.677  11.577  0.3183 -0.1914 -1.1946
21523SOL     OW66009   7.220   0.148   0.846 -0.2120  0.1438  0.5854
21523SOL    HW166010   7.169   0.128   0.768  1.5199  2.1213 -1.1887
21523SOL    HW266011   7.281   0.074   0.855  1.2984  1.0319 -1.5635
21524SOL     OW66012   7.534   6.527   1.496  0.2018  0.2710  0.5494
21524SOL    HW166013   7.587   6.589   1.444 -1.2173  1.7522  0.7876
21524SOL    HW266014   7.596   6.489   1.558  1.2440  1.0302  0.0132
21525SOL     OW66015   5.077   7.847   1.007 -0.5944 -0.5806  0.0332
21525SOL    HW166016   4.993   7.800   1.003 -0.4200 -1.0862  1.5153
21525SOL    HW266017   5.095   7.855   1.101  0.0252  1.3421 -0.2059
21526SOL     OW66018   4.566   6.126   1.471 -0.0192  0.1180  0.1236
21526SOL    HW166019   4.639   6.110   1.411 -0.9046  0.2043 -1.0238
21526SOL    HW266020   4.606   6.167   1.547  1.1337  0.1420 -0.4662
21527SOL     OW66021   6.324   5.084   1.968  0.6026 -0.5011  0.7842
21527SOL    HW166022   6.328   5.092   1.873  1.2264 -0.0813  0.8383
21527SOL    HW266023   6.403   5.037   1.992  1.0436  0.4200  1.1861
21528SOL     OW66024   6.215   5.370   1.630 -0.2791 -0.2533  0.4678
21528SOL    HW166025   6.141   5.429   1.647  0.3980  0.1807  2.1824
21528SOL    HW266026   6.203   5.342   1.540 -2.6776 -0.4091  0.7640
21529SOL     OW66027   5.976   6.153   2.571  0.1512 -0.0038  0.2968
21529SOL    HW166028   5.985   6.213   2.645  1.1946  1.4189 -0.9124
21529SOL    HW266029   5.882   6.145   2.558 -0.0502  2.3974 -0.2471
21530SOL     OW66030   5.394   6.404   1.441 -0.3648  0.0757 -0.7845
21530SOL    HW166031   5.405   6.446   1.526 -1.4711  1.1505 -1.1476
21530SOL    HW266032   5.434   6.466   1.379 -0.4835 -0.2159 -1.1535
21531SOL     OW66033   6.265   4.844   1.415  0.4237  0.0593 -0.0869
21531SOL    HW166034   6.272   4.758   1.373 -1.2567  0.1629 -0.6508
21531SOL    HW266035   6.207   4.830   1.490 -0.1827  0.7763 -0.4150
21532SOL     OW66036   4.255   7.118   1.148 -0.7997  0.2211 -0.2337
21532SOL    HW166037   4.222   7.189   1.092  2.4458  1.5702 -0.6460
21532SOL    HW266038   4.270   7.160   1.233  1.5624  0.2676 -0.6020
21533SOL     OW66039   7.171   6.187   0.255  0.6231 -0.0733 -0.5217
21533SOL    HW166040   7.099   6.136   0.290 -0.5947  0.6024 -1.9405
21533SOL    HW266041   7.133   6.272   0.233  1.9793  0.5150 -0.7425
21534SOL     OW66042   6.004   5.983   2.216  0.2577 -0.3573  0.2554
21534SOL    HW166043   6.072   6.022   2.161 -0.0908  2.9207  1.9531
21534SOL    HW266044   6.048   5.964   2.299 -0.9261  2.4924  1.6329
21535SOL     OW66045   5.536   4.344   0.343 -0.5450 -0.0161 -0.0794
21535SOL    HW166046   5.542   4.255   0.309  0.2390  0.3124 -0.8426
21535SOL    HW266047   5.585   4.397   0.280 -2.4929  1.2270 -0.6175
21536SOL     OW66048   7.297   6.078   0.484  0.5931  0.9370  0.8048
21536SOL    HW166049   7.265   6.106   0.398  0.5931 -0.8574  0.1860
21536SOL    HW266050   7.233   6.114   0.546 -0.5836  0.5142 -0.1162
21537SOL     OW66051   6.164   5.919   1.577 -0.0004 -0.0248 -0.3383
21537SOL    HW166052   6.134   5.958   1.496 -0.8187 -1.7312 -0.9038
21537SOL    HW266053   6.221   5.847   1.550 -1.3172 -1.4501  0.5144
21538SOL     OW66054   6.484   6.731   1.586 -0.5054 -0.0744 -0.1740
21538SOL    HW166055   6.493   6.770   1.673 -1.2573  0.3572 -0.2771
21538SOL    HW266056   6.518   6.642   1.595 -2.4262 -0.7579  1.1036
21539SOL     OW66057   5.155   6.107   3.470 -0.6039 -0.0179 -0.2709
21539SOL    HW166058   5.238   6.128   3.512 -0.5366  2.1829 -1.3450
21539SOL    HW266059   5.167   6.134   3.379 -1.8131 -1.6031 -0.9392
21540SOL     OW66060   5.538   6.242  12.411  0.1632 -0.5166  0.5341
21540SOL    HW166061   5.607   6.263  12.473 -1.5877 -1.4184  2.9627
21540SOL    HW266062   5.484   6.321  12.408 -0.3043 -0.8081  0.9977
21541SOL     OW66063   7.678   4.550  12.264 -0.1256  0.3928 -0.0324
21541SOL    HW166064   7.718   4.501  12.335 -0.4842 -0.0418 -0.1250
21541SOL    HW266065   7.696   4.642  12.285  0.9321  0.2124 -0.0919
21542SOL     OW66066   6.653   7.136  11.594  0.2215 -0.2020  0.4254
21542SOL    HW166067   6.622   7.178  11.674 -0.3608 -1.7973  1.0793
21542SOL    HW266068   6.746   7.122  11.608  0.6227  1.6321 -0.1801
21543SOL     OW66069   7.651   7.780   1.221 -0.1047  0.3646 -0.7198
21543SOL    HW166070   7.728   7.761   1.167  0.7789  0.8102  0.3346
21543SOL    HW266071   7.640   7.701   1.275  0.4341  0.8029  0.0533
21544SOL     OW66072   4.981   4.977   0.701 -0.6327  0.2839  0.1811
21544SOL    HW166073   5.033   5.009   0.774  0.9014  1.2063 -1.2408
21544SOL    HW266074   4.993   4.882   0.702  1.9676  0.5320 -0.6655
21545SOL     OW66075   5.804   6.741   1.813 -0.3812  0.4474 -0.0502
21545SOL    HW166076   5.734   6.751   1.749  0.6532  2.6841 -0.9277
21545SOL    HW266077   5.869   6.807   1.789  1.3272 -0.4854  1.6713
21546SOL     OW66078   0.288   5.711   2.977 -0.2370 -0.2834 -0.2577
21546SOL    HW166079   0.349   5.671   2.915 -1.5437  1.2827 -2.7165
21546SOL    HW266080   0.326   5.797   2.995 -0.1613 -0.5097  0.7286
21547SOL     OW66081   6.844   5.377   1.159 -0.0007 -0.1177  0.3346
21547SOL    HW166082   6.937   5.389   1.175 -0.3254 -0.4136  2.7401
21547SOL    HW266083   6.833   5.282   1.150 -0.1753 -0.1676  0.9928
21548SOL     OW66084   6.270   7.932   0.327 -0.1588 -0.5373  0.0934
21548SOL    HW166085   6.261   7.950   0.421 -0.8526  1.4467 -0.2969
21548SOL    HW266086   6.192   7.882   0.305  0.3903 -1.7007  0.6945
21549SOL     OW66087   6.348   5.966   1.198 -0.1681 -0.2262 -0.5736
21549SOL    HW166088   6.368   6.044   1.147 -0.4172  1.2258  1.4319
21549SOL    HW266089   6.348   5.894   1.134  2.1900  1.0515 -2.1648
21550SOL     OW66090   4.369   6.128  11.728  0.1493 -0.0945  0.5354
21550SOL    HW166091   4.450   6.107  11.775 -0.5327  1.1055  2.3419
21550SOL    HW266092   4.313   6.169  11.794 -0.7206  2.0642 -1.4350
21551SOL     OW66093   5.967   5.815   0.223  0.2557 -0.2846 -0.0592
21551SOL    HW166094   5.888   5.780   0.264  1.0109 -2.9955 -0.7545
21551SOL    HW266095   5.966   5.908   0.247 -2.1922 -0.5833  1.4146
21552SOL     OW66096   6.043   5.878   3.122  0.8443  0.8822  0.2464
21552SOL    HW166097   6.015   5.912   3.037 -1.6184 -0.1969  0.5584
21552SOL    HW266098   6.093   5.951   3.160  2.0758  1.3760 -2.0814
21553SOL     OW66099   7.127   4.118   0.901  0.2913  0.3993  0.0712
21553SOL    HW166100   7.169   4.199   0.875 -0.6960  0.5577 -1.1256
21553SOL    HW266101   7.159   4.053   0.838  0.3478  0.0699  0.4359
21554SOL     OW66102   6.199   6.478   0.930 -0.2461  0.0357  0.4169
21554SOL    HW166103   6.262   6.408   0.913  0.7307  1.2560 -1.3564
21554SOL    HW266104   6.240   6.531   0.998  0.1070  0.1872  0.0876
21555SOL     OW66105   5.969   7.039   2.382 -0.6157 -0.1135 -0.4581
21555SOL    HW166106   5.990   7.122   2.339  1.7435  0.0944  0.8736
21555SOL    HW266107   6.055   7.002   2.405 -1.4842 -3.6054 -2.1474
21556SOL     OW66108   5.705   6.174  12.189  0.5854 -0.2403  0.1515
21556SOL    HW166109   5.675   6.235  12.121 -0.8187 -1.5753 -0.4981
21556SOL    HW266110   5.667   6.208  12.270  0.2446  0.0571 -0.1263
21557SOL     OW66111   5.341   5.490   1.100 -0.3623  0.0151 -0.4121
21557SOL    HW166112   5.339   5.446   1.016 -3.3905  0.1721 -0.5548
21557SOL    HW266113   5.357   5.420   1.164  2.1955 -0.0651 -1.0447
21558SOL     OW66114   4.933   6.212   0.826 -0.5892  0.8082  0.0960
21558SOL    HW166115   4.981   6.262   0.760  0.0021 -0.4873 -0.5088
21558SOL    HW266116   4.907   6.132   0.780 -0.2762 -0.0742  1.3934
21559SOL     OW66117   6.060   7.350   1.522 -0.2205 -0.1930  0.4213
21559SOL    HW166118   6.094   7.288   1.587 -0.9883 -0.2473  0.7813
21559SOL    HW266119   6.027   7.423   1.575  0.5827  0.4882  0.0083
21560SOL     OW66120   6.070   5.548  12.069  0.5487 -0.8316 -0.0827
21560SOL    HW166121   6.032   5.583  11.988 -1.8906 -0.6316  1.0576
21560SOL    HW266122   6.029   5.600  12.139  1.2067 -2.1982  1.3761
21561SOL     OW66123   1.025   7.624   1.570  0.2175  0.0305  0.1859
21561SOL    HW166124   1.088   7.697   1.578  0.8543 -0.3374 -1.0925
21561SOL    HW266125   1.048   7.583   1.486 -1.5090 -0.3450 -0.1354
21562SOL     OW66126   7.006   7.248   0.385 -1.0212 -0.0455 -0.0062
21562SOL    HW166127   6.914   7.264   0.367 -1.5174  0.7663  2.7398
21562SOL    HW266128   7.018   7.154   0.370 -1.5448  0.2802 -3.0092
21563SOL     OW66129   4.200   6.714   0.401  0.1319 -0.2406 -0.3983
21563SOL    HW166130   4.190   6.641   0.463  0.8480  0.4344  0.5419
21563SOL    HW266131   4.113   6.726   0.364 -0.1396 -1.1540 -0.0870
21564SOL     OW66132   4.339   7.618   0.351  0.0765 -0.0469  0.3685
21564SOL    HW166133   4.286   7.548   0.388  0.4497 -0.7889 -0.4498
21564SOL    HW266134   4.293   7.643   0.270  1.3537 -1.2660 -0.7816
21565SOL     OW66135   6.254   4.281  11.919 -0.8034 -0.2173 -0.0295
21565SOL    HW166136   6.283   4.294  11.829  0.4950  1.7123  0.6046
21565SOL    HW266137   6.291   4.196  11.944 -0.8956 -0.6205 -1.1696
21566SOL     OW66138   7.539   5.605   0.981 -0.1536 -0.0394  0.5544
21566SOL    HW166139   7.633   5.598   0.996  0.3010  1.1740 -1.3291
21566SOL    HW266140   7.512   5.679   1.035  0.4583  1.0641 -0.5891
21567SOL     OW66141   0.008   7.215   0.042  0.0271  0.3165  0.4270
21567SOL    HW166142  -0.059   7.147   0.049  1.7309 -1.2599  3.2309
21567SOL    HW266143  -0.016   7.280   0.109  0.1216  0.8979 -0.0908
21568SOL     OW66144   4.888   7.577   0.228  0.3483  0.6702  0.3334
21568SOL    HW166145   4.939   7.502   0.261  0.8857  0.8033 -0.1734
21568SOL    HW266146   4.945   7.653   0.243  0.0882  0.8870  0.2265
21569SOL     OW66147   6.680   5.214   0.161  0.1847 -0.4623  0.0877
21569SOL    HW166148   6.670   5.233   0.068 -2.5021 -1.9346 -0.0328
21569SOL    HW266149   6.749   5.272   0.190  0.0502  1.1595 -2.4956
21570SOL     OW66150   6.915   6.788  11.780 -0.5374  0.0625  0.3949
21570SOL    HW166151   6.981   6.854  11.760 -0.8204 -0.0238 -0.9060
21570SOL    HW266152   6.924   6.772  11.874 -0.0361  1.4750  0.6043
21571SOL     OW66153   7.159   7.779   0.685  0.3742  0.0639 -0.3994
21571SOL    HW166154   7.087   7.773   0.747  2.0798 -2.0214  1.5721
21571SOL    HW266155   7.226   7.830   0.730  2.1891 -2.6604  0.2526
21572SOL     OW66156   6.504   4.783   2.659 -0.3415  0.3205  0.2374
21572SOL    HW166157   6.460   4.719   2.602 -0.8853  1.7278 -0.9821
21572SOL    HW266158   6.542   4.730   2.729  0.6360 -1.5572 -1.5750
21573SOL     OW66159   7.511   5.380   1.282 -0.4137 -0.2274  0.0663
21573SOL    HW166160   7.418   5.389   1.259 -0.8117 -2.0980  0.7026
21573SOL    HW266161   7.537   5.298   1.241  1.8539  1.6506 -2.6119
21574SOL     OW66162   6.661   7.717   1.192 -0.4306  0.4380 -0.6948
21574SOL    HW166163   6.708   7.718   1.275 -1.1497 -1.0300 -0.2298
21574SOL    HW266164   6.684   7.799   1.150 -0.6692  1.5829  1.2970
21575SOL     OW66165   7.170   6.729   1.039  0.2743  0.0340 -0.3012
21575SOL    HW166166   7.124   6.650   1.069 -1.9418  1.1536 -0.5407
21575SOL    HW266167   7.115   6.764   0.969  2.4346  0.5467 -1.8499
21576SOL     OW66168   0.193   6.988   0.518  0.6521 -0.0362  0.5267
21576SOL    HW166169   0.142   6.910   0.498  1.3210 -0.2323 -0.4796
21576SOL    HW266170   0.263   6.958   0.575  0.7870 -0.1341  0.3099
21577SOL     OW66171   4.265   7.353   0.573 -0.5113  0.3897  0.2367
21577SOL    HW166172   4.274   7.261   0.553 -1.2266 -0.1235  2.0272
21577SOL    HW266173   4.272   7.357   0.669 -1.4739  2.0516  0.2770
21578SOL     OW66174   5.955   6.810   1.268  0.1896  0.2778  0.2756
21578SOL    HW166175   5.888   6.866   1.229 -0.0535  0.1787  0.5461
21578SOL    HW266176   6.036   6.834   1.223  0.1289  0.9977  0.5457
21579SOL     OW66177   0.356   5.550   1.129 -0.1780  0.0402  0.1087
21579SOL    HW166178   0.304   5.529   1.207  2.0513  0.5748  1.8422
21579SOL    HW266179   0.311   5.625   1.090 -2.4728 -1.4607 -0.3433
21580SOL     OW66180   0.304   6.809   1.459  0.2877 -0.0167 -0.6150
21580SOL    HW166181   0.263   6.835   1.541  0.4730  1.3688 -0.9420
21580SOL    HW266182   0.296   6.713   1.458 -0.7014  0.0277  0.4804
21581SOL     OW66183   5.652   0.300   1.420  0.0739  0.4096 -0.4515
21581SOL    HW166184   5.666   0.382   1.372 -1.6218 -0.2622 -2.2715
21581SOL    HW266185   5.556   0.294   1.429  0.1664 -1.2575 -0.2142
21582SOL     OW66186   7.964   7.243   1.348 -0.1301 -0.1029  0.2135
21582SOL    HW166187   8.057   7.218   1.346  0.0043  0.4151 -0.5795
21582SOL    HW266188   7.919   7.169   1.308  0.0539  0.0842 -0.3437
21583SOL     OW66189   7.238   6.990   1.115  0.3644 -0.0461  0.6464
21583SOL    HW166190   7.215   6.897   1.114  0.0731 -0.0144  2.3258
21583SOL    HW266191   7.190   7.026   1.189  0.5204  1.4462  0.0484
21584SOL     OW66192   4.027   5.649   2.041  0.1345  0.2026  0.1030
21584SOL    HW166193   4.018   5.585   2.113 -4.0995 -0.6815 -0.9861
21584SOL    HW266194   4.099   5.705   2.069  3.1883 -3.9947  1.8809
21585SOL     OW66195   7.138   4.488   1.804 -0.0730  0.4428  0.2936
21585SOL    HW166196   7.130   4.393   1.808  0.2585  0.3984 -0.0813
21585SOL    HW266197   7.095   4.519   1.885  0.9828 -0.0960  1.0831
21586SOL     OW66198   7.269   5.578   1.429 -0.2418 -0.1912  0.5926
21586SOL    HW166199   7.209   5.649   1.406 -1.7994 -1.1419  1.4851
21586SOL    HW266200   7.250   5.509   1.366  0.5547 -0.2084  0.3551
21587SOL     OW66201   5.300   7.026  12.459  0.1550  1.0030 -0.0008
21587SOL    HW166202   5.394   7.037  12.446  0.1274  0.2094 -0.9704
21587SOL    HW266203   5.290   7.015  12.553  1.1326  0.2846  0.0330
21588SOL     OW66204   6.635   7.841  11.744 -0.1907 -0.3213  0.1819
21588SOL    HW166205   6.708   7.856  11.805 -0.1192 -2.1832  0.6001
21588SOL    HW266206   6.558   7.875  11.790  0.4131  2.2053 -0.4964
21589SOL     OW66207   5.336   5.490   0.563 -0.0808  0.2542  0.8048
21589SOL    HW166208   5.292   5.433   0.500  1.4986  0.6984 -0.8106
21589SOL    HW266209   5.325   5.447   0.647 -2.4460 -0.2741  0.2878
21590SOL     OW66210   6.936   6.992   0.589  0.0762 -0.0835 -0.5868
21590SOL    HW166211   6.956   6.973   0.498  1.4324  1.8388 -0.7352
21590SOL    HW266212   6.865   7.056   0.585 -0.7417 -0.9424 -0.2313
21591SOL     OW66213   6.233   6.367   3.041  0.6803  0.2513  0.1426
21591SOL    HW166214   6.219   6.287   2.990  0.1469 -0.8590  1.9332
21591SOL    HW266215   6.228   6.438   2.976 -0.6498 -1.0173 -1.2297
21592SOL     OW66216   0.313   6.322   2.194  0.5761  0.0462 -0.2448
21592SOL    HW166217   0.331   6.411   2.164  0.3329 -0.3573 -1.6535
21592SOL    HW266218   0.308   6.270   2.114 -0.8035 -0.9674  0.4633
21593SOL     OW66219   5.033   6.899   2.508 -0.1553 -0.5932 -0.0013
21593SOL    HW166220   5.122   6.865   2.511 -0.8493 -2.5430 -0.0428
21593SOL    HW266221   5.030   6.953   2.428  0.3781 -2.4105 -1.3014
21594SOL     OW66222   6.689   5.664   0.236 -0.0117 -0.2768  0.2315
21594SOL    HW166223   6.733   5.676   0.151 -1.0435 -0.1594 -0.3048
21594SOL    HW266224   6.754   5.691   0.300  0.3092  1.0417 -0.5938
21595SOL     OW66225   6.913   7.714  11.853  0.3531 -0.1657 -0.4827
21595SOL    HW166226   6.875   7.631  11.824  0.9226 -0.6443  0.1118
21595SOL    HW266227   6.895   7.717  11.947 -1.8886  1.5959 -0.9009
21596SOL     OW66228   5.792   4.801   0.186  0.4836 -0.1142  0.1365
21596SOL    HW166229   5.718   4.861   0.190 -0.3014 -1.1081  0.9977
21596SOL    HW266230   5.781   4.753   0.104 -0.2756 -0.7896  0.6167
21597SOL     OW66231   7.738   5.899   1.749  0.1474  0.2541 -0.1750
21597SOL    HW166232   7.645   5.883   1.730  0.3866 -0.0021 -1.1486
21597SOL    HW266233   7.738   5.930   1.840 -1.0157  1.4638 -0.5524
21598SOL     OW66234   4.950   7.248   0.919  0.2301  0.2887 -0.5014
21598SOL    HW166235   4.889   7.264   0.990  2.3356  1.5959  1.1331
21598SOL    HW266236   4.999   7.330   0.909 -0.1351  0.2515 -3.6796
21599SOL     OW66237   6.759   7.543   0.109 -0.1983  0.0211 -0.0775
21599SOL    HW166238   6.818   7.476   0.143  0.3685  0.4691 -0.1547
21599SOL    HW266239   6.810   7.586   0.040  0.7601  2.7783  2.1671
21600SOL     OW66240   7.202   0.987   1.057  0.3850 -0.1645  0.0031
21600SOL    HW166241   7.209   1.080   1.080 -2.1558  0.2139 -0.4045
21600SOL    HW266242   7.116   0.979   1.016  0.4762 -2.7440  0.1267
21601SOL     OW66243   5.703   7.999  12.430  0.3088  0.3419 -0.3822
21601SOL    HW166244   5.728   8.077  12.479 -1.5361  0.1814  0.9286
21601SOL    HW266245   5.747   8.009  12.346  2.1559  1.5168  0.6493
21602SOL     OW66246   7.208   6.008  11.107 -0.0370  0.1622 -0.0445
21602SOL    HW166247   7.247   5.970  11.028 -2.7190 -2.1802 -0.4215
21602SOL    HW266248   7.167   6.089  11.077  1.3611  0.7793 -0.3794
21603SOL     OW66249   7.235   0.322  11.196  0.0459 -0.5061 -0.5597
21603SOL    HW166250   7.293   0.296  11.267 -0.9832  0.3820  0.6593
21603SOL    HW266251   7.184   0.243  11.176 -0.1502 -0.5798  0.2002
21604SOL     OW66252   4.869   0.389   0.722  0.3414 -0.0945  0.2688
21604SOL    HW166253   4.815   0.467   0.733 -1.2088 -0.4557 -3.2543
21604SOL    HW266254   4.815   0.317   0.754  0.3640 -0.0653  0.3727
21605SOL     OW66255   6.067   0.517   0.278 -0.5075  0.2444 -0.2375
21605SOL    HW166256   6.136   0.578   0.303 -1.2348  0.1338  2.3144
21605SOL    HW266257   6.110   0.456   0.218  0.8380  1.8043 -0.9492
21606SOL     OW66258   5.951   4.391  11.827  0.8528 -0.1974  0.1846
21606SOL    HW166259   5.919   4.474  11.861  1.3970  0.0633  0.0656
21606SOL    HW266260   6.038   4.380  11.866  0.8681 -0.6147  0.0441
21607SOL     OW66261   0.832   6.024   0.043  0.2040  0.0727 -0.7426
21607SOL    HW166262   0.765   6.058  -0.017 -0.2126  0.3615 -0.1315
21607SOL    HW266263   0.783   6.001   0.122  0.8119  0.1284 -0.3447
21608SOL     OW66264   5.416   5.937   0.601 -0.0938  0.4753 -0.3569
21608SOL    HW166265   5.375   6.019   0.571  0.9198  0.8533 -0.7310
21608SOL    HW266266   5.414   5.944   0.697  1.8789  1.9469 -0.3568
21609SOL     OW66267   6.469   5.182  12.465 -0.0466 -0.3494  0.2199
21609SOL    HW166268   6.405   5.165  12.396 -1.3802 -1.2823  1.6155
21609SOL    HW266269   6.527   5.248  12.428 -1.2495 -0.1665 -1.4604
21610SOL     OW66270   6.644   6.774  12.180 -0.0858 -0.1969 -0.6286
21610SOL    HW166271   6.555   6.760  12.150 -0.0010  1.3727 -1.7263
21610SOL    HW266272   6.637   6.777  12.276 -1.1582 -0.3736 -0.6904
21611SOL     OW66273   6.425   6.523  11.801  0.2829  0.5599 -0.2407
21611SOL    HW166274   6.336   6.508  11.833  0.4488  2.2307  1.1383
21611SOL    HW266275   6.480   6.513  11.879  1.5810 -2.0494 -1.3392
21612SOL     OW66276   6.053   5.403   0.331  0.0348  0.1849  0.0522
21612SOL    HW166277   6.030   5.312   0.316 -0.0975  0.3418 -0.7043
21612SOL    HW266278   5.977   5.439   0.378 -0.0335 -0.0203  0.0998
21613SOL     OW66279   5.858   6.072   1.476 -0.2606  0.1057 -0.2779
21613SOL    HW166280   5.832   5.982   1.456 -0.9777  0.3741 -0.5793
21613SOL    HW266281   5.840   6.121   1.395  0.3714  0.4696 -0.2027
21614SOL     OW66282   7.141   6.770   1.578  0.3026 -0.4266 -0.0075
21614SOL    HW166283   7.187   6.854   1.577 -0.0403 -0.2424 -0.2176
21614SOL    HW266284   7.115   6.756   1.487 -2.0750  0.5752  0.4385
21615SOL     OW66285   0.411   6.530  12.495 -0.0555 -0.6229 -0.0504
21615SOL    HW166286   0.462   6.450  12.505 -1.5959 -1.7343 -0.6945
21615SOL    HW266287   0.449   6.574  12.419  2.7045  0.8439  1.9629
21616SOL     OW66288   7.687   4.495   0.560  0.0614 -0.2271  0.0074
21616SOL    HW166289   7.683   4.590   0.554 -1.9943 -0.1719  1.3328
21616SOL    HW266290   7.653   4.464   0.476  1.1563  0.1519 -0.6084
21617SOL     OW66291   0.811   0.933   0.992 -0.8351  0.1949  0.0947
21617SOL    HW166292   0.856   1.017   0.982  0.8541 -0.2825  2.6826
21617SOL    HW266293   0.872   0.868   0.957 -1.9281 -0.0637 -1.4467
21618SOL     OW66294   7.795   5.664   0.214  0.1075 -0.3646 -0.3034
21618SOL    HW166295   7.797   5.681   0.120 -0.6102  1.4403 -0.0429
21618SOL    HW266296   7.856   5.591   0.227 -0.8165 -1.5747 -2.3177
21619SOL     OW66297   4.978   6.789   1.234  0.2363  0.3666 -0.4003
21619SOL    HW166298   5.005   6.705   1.197 -0.8809  1.2235 -3.4433
21619SOL    HW266299   5.004   6.854   1.169 -1.7658  2.0518  0.3604
21620SOL     OW66300   5.691   7.013  11.278  0.5549 -0.1306  0.1341
21620SOL    HW166301   5.659   7.092  11.323 -0.5251  0.8353 -2.2014
21620SOL    HW266302   5.612   6.964  11.257  0.8007  0.4020 -2.3398
21621SOL     OW66303   6.219   7.100   0.606  0.3011  0.8443  0.0872
21621SOL    HW166304   6.269   7.155   0.546  1.7155  0.7633  1.1323
21621SOL    HW266305   6.267   7.018   0.610 -0.5369  0.3463  0.2878
21622SOL     OW66306   5.323   5.245   3.333  0.0762  0.7750  1.0868
21622SOL    HW166307   5.376   5.229   3.254 -1.3613  0.4819  0.1572
21622SOL    HW266308   5.346   5.172   3.392  0.1264  0.2009  0.3760
21623SOL     OW66309   4.687   5.177   3.871  0.1938  0.2581  0.0144
21623SOL    HW166310   4.691   5.167   3.966 -0.1955  2.0081  0.2478
21623SOL    HW266311   4.597   5.203   3.853  0.2257 -0.2051 -0.8751
21624SOL     OW66312   6.409   6.851   4.554 -0.0225  0.0796  0.3188
21624SOL    HW166313   6.482   6.906   4.526  0.2461 -0.0213  0.7972
21624SOL    HW266314   6.381   6.805   4.475 -0.0400  0.6620 -0.0160
21625SOL     OW66315   5.698   6.556   1.994  0.5618  0.0384 -0.2338
21625SOL    HW166316   5.759   6.585   2.062  0.4546 -2.6765  1.1605
21625SOL    HW266317   5.715   6.615   1.920  0.3810  3.4279  2.1757
21626SOL     OW66318   5.981   6.087   1.828  0.3253 -0.2122  0.3171
21626SOL    HW166319   5.911   6.033   1.791  0.6375 -0.6638  0.3680
21626SOL    HW266320   5.939   6.138   1.896 -0.4483  1.2962 -1.2282
21627SOL     OW66321   5.934   7.569   1.683 -0.4734  0.2192  0.3100
21627SOL    HW166322   5.880   7.609   1.614 -2.1978  1.1114  2.0782
21627SOL    HW266323   5.872   7.547   1.752  0.8621 -2.8754  0.6683
21628SOL     OW66324   5.362   4.996   3.495  0.1830 -0.7197  0.3876
21628SOL    HW166325   5.316   4.985   3.578 -0.9204 -1.6246 -0.3063
21628SOL    HW266326   5.414   4.916   3.487 -0.4846 -1.1014 -0.2395
21629SOL     OW66327   6.134   7.804   3.047 -0.4671 -0.0711 -0.2243
21629SOL    HW166328   6.172   7.797   3.135  0.0327  1.9029 -0.2421
21629SOL    HW266329   6.117   7.898   3.036 -1.9250 -0.4620 -1.6694
21630SOL     OW66330   7.152   7.221   3.333 -0.6044  0.0799 -0.3776
21630SOL    HW166331   7.060   7.217   3.359 -0.8199 -0.7573 -1.1821
21630SOL    HW266332   7.187   7.299   3.376 -1.9082  0.8782 -0.7340
21631SOL     OW66333   6.272   5.650   3.092 -0.0902  0.0502  0.2914
21631SOL    HW166334   6.188   5.692   3.071 -0.4212 -0.7435 -0.0355
21631SOL    HW266335   6.329   5.673   3.019 -0.0390  0.5263  0.4748
21632SOL     OW66336   5.535   7.230   1.374  0.1704  0.1339  0.1860
21632SOL    HW166337   5.521   7.263   1.463  1.4599 -0.2683  0.5629
21632SOL    HW266338   5.472   7.158   1.365  0.7355 -0.5006  1.1598
21633SOL     OW66339   4.720   7.621   2.636 -0.5900 -0.0233  0.3172
21633SOL    HW166340   4.737   7.689   2.700 -1.6237  0.2996  0.2672
21633SOL    HW266341   4.628   7.632   2.613 -0.7231 -1.3003  0.1528
21634SOL     OW66342   6.054   5.486   3.302 -0.5132  0.0920  0.0095
21634SOL    HW166343   6.065   5.403   3.349 -0.9096  0.2528  0.3957
21634SOL    HW266344   6.084   5.468   3.213  0.6683 -0.0900  0.4395
21635SOL     OW66345   7.247   5.029   3.308  0.2820 -0.1650  0.1882
21635SOL    HW166346   7.312   5.049   3.242  2.2030 -0.4559  1.8786
21635SOL    HW266347   7.263   5.092   3.378 -1.0586 -0.4603  0.8006
21636SOL     OW66348   4.632   5.662   3.452  0.2188  0.4853 -0.0391
21636SOL    HW166349   4.559   5.651   3.514 -0.1078 -0.1364 -0.5295
21636SOL    HW266350   4.592   5.702   3.375  0.4132  0.2085 -0.2840
21637SOL     OW66351   6.691   7.714   3.267  0.3946  0.4896  0.3511
21637SOL    HW166352   6.611   7.702   3.215  1.1628  0.9631 -0.9818
21637SOL    HW266353   6.691   7.806   3.290  0.1392  0.3144  1.0768
21638SOL     OW66354   6.453   7.017   3.596  0.1937 -0.2593  0.0287
21638SOL    HW166355   6.406   6.954   3.541 -0.3292 -0.3307  0.5393
21638SOL    HW266356   6.499   7.074   3.534 -0.6190 -0.1544 -0.4928
21639SOL     OW66357   5.531   5.494   3.257  0.1241 -1.0636  0.4738
21639SOL    HW166358   5.476   5.430   3.301 -1.7092 -0.7088 -1.1341
21639SOL    HW266359   5.478   5.574   3.257  0.7059 -0.6433 -0.9411
21640SOL     OW66360   4.823   6.367   2.838 -0.3715  0.3502 -0.0678
21640SOL    HW166361   4.788   6.447   2.878 -0.6954 -0.3181  1.0490
21640SOL    HW266362   4.781   6.297   2.887  0.6927 -0.4985 -0.3537
21641SOL     OW66363   4.932   5.465   1.799  0.1390  0.2135 -0.7438
21641SOL    HW166364   4.951   5.509   1.716  0.9449  0.8074 -0.2604
21641SOL    HW266365   4.840   5.484   1.815 -0.3322 -0.8482 -2.0439
21642SOL     OW66366   7.965   5.098   3.902  0.0707  0.0862  0.0856
21642SOL    HW166367   7.990   5.024   3.847 -0.8259  0.5682 -0.9916
21642SOL    HW266368   7.982   5.175   3.848 -1.6534  0.5262  0.1145
21643SOL     OW66369   3.362   5.911   2.217 -0.4348 -0.0627  0.1144
21643SOL    HW166370   3.425   5.893   2.288  1.0576 -0.6681 -1.3050
21643SOL    HW266371   3.296   5.842   2.226 -0.3981  0.0005  1.0316
21644SOL     OW66372   7.813   0.405   2.880  0.1754 -0.1883 -0.6712
21644SOL    HW166373   7.734   0.437   2.836  0.9265  0.0379 -1.8948
21644SOL    HW266374   7.886   0.440   2.829  1.0927 -0.1567  0.6012
21645SOL     OW66375   5.869   7.413   2.722 -0.7119  0.1331 -0.3591
21645SOL    HW166376   5.893   7.424   2.630 -0.2234 -1.9865 -0.5278
21645SOL    HW266377   5.941   7.455   2.770 -0.4279  0.3159 -0.9233
21646SOL     OW66378   7.093   7.327   1.723  0.7902 -0.1420  0.0020
21646SOL    HW166379   7.178   7.359   1.692  0.1713  0.6099 -0.9887
21646SOL    HW266380   7.103   7.319   1.818  1.9264  0.0619 -0.0905
21647SOL     OW66381   6.087   6.220   2.081 -0.3357 -0.1006 -0.0706
21647SOL    HW166382   6.096   6.250   2.172  0.8913  1.9487 -0.7900
21647SOL    HW266383   6.002   6.253   2.054 -1.0957 -1.4657  0.5492
21648SOL     OW66384   5.694   7.540   3.543  0.3284 -0.3089  0.0023
21648SOL    HW166385   5.732   7.581   3.466  0.0135  2.7263  1.3051
21648SOL    HW266386   5.658   7.457   3.512  1.5516  0.1062 -2.7400
21649SOL     OW66387   6.227   6.635   1.567  0.4718  0.1478  0.0862
21649SOL    HW166388   6.319   6.614   1.553  0.4823 -1.9734  2.5063
21649SOL    HW266389   6.228   6.713   1.622  0.7940  0.3885 -0.2590
21650SOL     OW66390   6.085   0.225   3.644  0.0805 -0.0964  0.4984
21650SOL    HW166391   6.040   0.267   3.571 -1.9278 -1.1783  1.0368
21650SOL    HW266392   6.053   0.272   3.721  0.2784 -0.5368  0.8533
21651SOL     OW66393   7.471   7.101   4.482  0.8746  0.0878  0.5480
21651SOL    HW166394   7.557   7.086   4.443  1.5335  1.1702  1.5087
21651SOL    HW266395   7.436   7.177   4.436  0.5086 -0.2301  0.2941
21652SOL     OW66396   6.309   6.859   3.416  0.4747 -0.1815 -0.0485
21652SOL    HW166397   6.294   6.832   3.325 -1.5963 -0.6655  0.3970
21652SOL    HW266398   6.360   6.787   3.454  0.5875 -0.3898 -0.5812
21653SOL     OW66399   6.978   6.678   2.942  0.4198 -0.0235  0.8447
21653SOL    HW166400   6.942   6.592   2.919  1.4172 -0.1522 -0.3205
21653SOL    HW266401   6.908   6.740   2.923 -0.0032 -0.4923  0.8590
21654SOL     OW66402   6.562   6.141   2.805 -0.3395 -0.3425 -0.6598
21654SOL    HW166403   6.503   6.217   2.802 -0.3544 -0.2894  0.6023
21654SOL    HW266404   6.508   6.068   2.775 -0.2173  0.1859 -2.2579
21655SOL     OW66405   6.419   7.603   1.603  0.1780 -0.0990  0.4215
21655SOL    HW166406   6.327   7.624   1.619 -0.0115  0.4547 -1.2571
21655SOL    HW266407   6.465   7.686   1.612  0.1270  0.1450 -1.3043
21656SOL     OW66408   7.525   7.330   2.671 -0.0349 -0.1339  0.2414
21656SOL    HW166409   7.509   7.417   2.709 -1.1833  0.9489 -2.4629
21656SOL    HW266410   7.470   7.271   2.724  0.4563  0.7904  1.8667
21657SOL     OW66411   6.390   7.777   2.898 -0.0252  0.0351  0.6942
21657SOL    HW166412   6.295   7.770   2.897 -0.1221  0.9633  1.4118
21657SOL    HW266413   6.408   7.870   2.884  0.7323  0.0548  1.6660
21658SOL     OW66414   0.082   7.252   3.945  0.3358 -0.7817  0.2853
21658SOL    HW166415   0.147   7.246   3.876 -0.2130 -2.5009 -0.1485
21658SOL    HW266416   0.120   7.202   4.018 -0.2380 -1.3179  0.2275
21659SOL     OW66417   6.258   7.107   2.151 -0.0967 -0.3784  0.5166
21659SOL    HW166418   6.271   7.182   2.209 -1.1941 -0.6454  1.1435
21659SOL    HW266419   6.228   7.037   2.209  1.8016 -1.6253  0.1089
21660SOL     OW66420   5.267   6.398   3.644  0.2589 -0.4857 -0.2812
21660SOL    HW166421   5.301   6.395   3.734 -1.1026 -0.8859  0.2385
21660SOL    HW266422   5.315   6.328   3.599  2.0655  0.6895 -0.3169
21661SOL     OW66423   6.899   7.277   3.986 -0.0061 -0.3845 -0.0237
21661SOL    HW166424   6.839   7.350   3.967 -0.1465 -1.2251 -3.6911
21661SOL    HW266425   6.985   7.311   3.963 -0.0638 -1.2502 -1.6746
21662SOL     OW66426   5.930   6.894   3.080 -0.4636  0.6018 -0.0545
21662SOL    HW166427   5.888   6.866   3.161  0.1650  1.1465  0.4721
21662SOL    HW266428   5.860   6.892   3.015 -0.7789 -0.6726  0.3047
21663SOL     OW66429   6.871   5.491   2.070 -0.1746 -0.0111  0.0321
21663SOL    HW166430   6.942   5.436   2.103 -0.4424 -1.0758 -1.0744
21663SOL    HW266431   6.827   5.524   2.148  0.2652 -1.0338  0.7343
21664SOL     OW66432   6.704   5.621   4.661 -0.2953 -0.0213 -0.7251
21664SOL    HW166433   6.781   5.568   4.640 -0.0420  0.4393 -0.9596
21664SOL    HW266434   6.726   5.663   4.744 -0.1042  0.4778 -1.0279
21665SOL     OW66435   7.022   1.328   2.557 -0.1045  0.3735 -0.3199
21665SOL    HW166436   7.079   1.252   2.544  3.7983  2.9680  0.1323
21665SOL    HW266437   7.040   1.356   2.647 -1.6087  1.7859 -0.4149
21666SOL     OW66438   6.947   4.305   0.680 -0.0620  0.2472  0.3599
21666SOL    HW166439   6.884   4.349   0.622 -0.6777 -0.2627  0.6364
21666SOL    HW266440   7.014   4.271   0.621 -0.8825 -0.6007 -0.1058
21667SOL     OW66441   0.035   7.654   5.196  0.0798  0.0822  0.3789
21667SOL    HW166442   0.066   7.587   5.135  0.1497 -1.0990  1.6787
21667SOL    HW266443  -0.028   7.609   5.252 -1.0722  1.5000  0.2956
21668SOL     OW66444   6.320   7.083   1.613  0.2172 -0.5759  0.2900
21668SOL    HW166445   6.411   7.108   1.600 -0.0382  0.2518  0.0086
21668SOL    HW266446   6.282   7.156   1.662 -0.5162 -0.4548 -0.4336
21669SOL     OW66447   7.500   6.072   4.434  0.0334 -0.1895  0.3595
21669SOL    HW166448   7.574   6.011   4.439  0.3739  0.1965  0.1443
21669SOL    HW266449   7.441   6.044   4.503  0.0877 -0.8912  0.1316
21670SOL     OW66450   6.864   5.841   1.342  0.6982  0.3937 -0.6342
21670SOL    HW166451   6.814   5.785   1.282 -1.2004  0.6769  0.5987
21670SOL    HW266452   6.859   5.928   1.303  0.2247  0.4189 -0.5231
21671SOL     OW66453   6.672   7.209   3.703 -0.4339 -0.0292  0.1579
21671SOL    HW166454   6.700   7.291   3.743 -1.4669  0.4606 -0.1001
21671SOL    HW266455   6.730   7.199   3.627 -0.8293  0.8870 -0.2767
21672SOL     OW66456   7.297   7.129   2.082  0.4976  0.4504 -0.0131
21672SOL    HW166457   7.287   7.184   2.005  0.8742  0.5177 -0.0154
21672SOL    HW266458   7.251   7.175   2.152 -0.9092 -0.2108 -0.4810
21673SOL     OW66459   5.758   6.449   1.424  0.2206 -0.5108  0.0349
21673SOL    HW166460   5.781   6.406   1.506  1.6942 -0.4042 -0.2970
21673SOL    HW266461   5.828   6.512   1.409 -0.7005  0.3803 -0.6679
21674SOL     OW66462   6.000   6.761   2.206  0.1234 -0.2119 -0.1311
21674SOL    HW166463   5.913   6.792   2.232 -0.2907 -1.7663  0.4224
21674SOL    HW266464   6.060   6.812   2.260 -0.3197  1.8302 -1.4505
21675SOL     OW66465   5.551   7.324   2.605 -0.1269 -0.4191 -0.0948
21675SOL    HW166466   5.559   7.394   2.540  2.4825  1.5464  2.0685
21675SOL    HW266467   5.602   7.252   2.568 -0.7331 -0.2824 -1.2568
21676SOL     OW66468   6.461   5.385   2.997 -0.9804 -0.6911 -1.1361
21676SOL    HW166469   6.413   5.330   2.935 -1.1417  0.3270 -1.9426
21676SOL    HW266470   6.445   5.474   2.967 -0.2491 -0.2262 -0.1961
21677SOL     OW66471   7.859   6.554   4.242  0.1562 -0.0063 -0.1288
21677SOL    HW166472   7.766   6.561   4.266  0.0499  1.4934 -0.8810
21677SOL    HW266473   7.858   6.527   4.150  0.4596  0.2806 -0.2171
21678SOL     OW66474   0.573   6.829   2.689  0.2193 -0.0787  0.1483
21678SOL    HW166475   0.586   6.832   2.594 -0.7748 -0.7054 -0.0151
21678SOL    HW266476   0.661   6.813   2.724  0.6306  0.3595 -0.6443
21679SOL     OW66477   5.928   7.945   3.714  0.4062 -0.2236  0.1384
21679SOL    HW166478   5.918   7.984   3.801  0.4459 -0.7110  0.3631
21679SOL    HW266479   5.942   7.852   3.731  2.0576 -0.0820 -0.3227
21680SOL     OW66480   7.242   6.323   2.285 -0.5117  0.3885  0.6705
21680SOL    HW166481   7.221   6.317   2.192 -0.3388  1.6983  0.5297
21680SOL    HW266482   7.318   6.380   2.290  0.0337 -0.3790  1.5604
21681SOL     OW66483   5.503   1.814   4.040  0.0695 -0.0692 -0.2407
21681SOL    HW166484   5.560   1.788   4.112 -0.0708 -0.1216 -0.1497
21681SOL    HW266485   5.477   1.732   3.998  0.3961 -0.0236 -0.5392
21682SOL     OW66486   5.665   6.696   2.891  0.6149  0.5298  0.2029
21682SOL    HW166487   5.627   6.622   2.845  0.4534  0.9916 -0.4280
21682SOL    HW266488   5.591   6.735   2.938  0.8161 -0.0486  1.0052
21683SOL     OW66489   6.477   5.695   1.873  0.4726 -0.3493 -0.0725
21683SOL    HW166490   6.445   5.655   1.792  1.3638  0.7886 -1.0215
21683SOL    HW266491   6.536   5.630   1.910  0.7774 -0.5106 -0.8235
21684SOL     OW66492   7.754   6.160   2.417  0.5730 -0.7464  0.0291
21684SOL    HW166493   7.757   6.218   2.493  1.6322  0.6198 -0.9993
21684SOL    HW266494   7.835   6.110   2.422  1.6080  0.7140 -1.1692
21685SOL     OW66495   6.418   7.124   2.487  0.4732 -0.2759  0.2993
21685SOL    HW166496   6.360   7.052   2.464  1.0168 -0.6771  0.1644
21685SOL    HW266497   6.506   7.093   2.462  0.6653  0.5747 -0.1031
21686SOL     OW66498   0.364   5.152   4.703 -0.3115  0.5576  1.0255
21686SOL    HW166499   0.430   5.092   4.669 -1.2327 -0.4335  0.9237
21686SOL    HW266500   0.314   5.179   4.626 -1.0915 -0.0588  1.2988
21687SOL     OW66501   5.668   7.074   2.917 -0.0726 -0.4587  0.1849
21687SOL    HW166502   5.756   7.112   2.915  0.4477 -1.6340 -0.3860
21687SOL    HW266503   5.611   7.146   2.943  0.4260  1.5976 -3.6296
21688SOL     OW66504   0.312   6.172   4.040  0.8498 -0.0961 -0.2009
21688SOL    HW166505   0.375   6.112   4.080  1.8537  1.5285  0.8054
21688SOL    HW266506   0.311   6.148   3.947  2.1265 -0.8873 -0.0371
21689SOL     OW66507   5.781   6.519   2.312  0.0787 -0.1461 -0.0753
21689SOL    HW166508   5.869   6.537   2.346  0.3863 -0.2815 -0.7803
21689SOL    HW266509   5.743   6.605   2.297  0.6826 -0.0687 -1.2523
21690SOL     OW66510   7.606   6.279   3.407  0.6363 -0.4294 -0.5144
21690SOL    HW166511   7.666   6.352   3.414  0.2307 -0.2443  1.6413
21690SOL    HW266512   7.662   6.203   3.390  1.3418 -0.0669  0.1495
21691SOL     OW66513   5.252   5.843   1.698  0.4681  0.5126 -0.0145
21691SOL    HW166514   5.311   5.768   1.697  0.5915  0.6061 -0.8259
21691SOL    HW266515   5.231   5.856   1.790 -0.4200 -1.2052  0.0770
21692SOL     OW66516   5.966   6.224   0.936 -0.3485  0.1205  0.0971
21692SOL    HW166517   6.001   6.309   0.908 -1.6920  0.6408 -0.0724
21692SOL    HW266518   5.898   6.204   0.872  0.0989 -1.2030  0.0156
21693SOL     OW66519   4.766   7.161   2.908 -0.4354  0.6106 -0.0676
21693SOL    HW166520   4.821   7.232   2.874  0.0587  0.1186 -0.3150
21693SOL    HW266521   4.695   7.206   2.955 -0.7070  1.2843 -1.0904
21694SOL     OW66522   6.866   6.819   1.180 -0.0136 -0.2385 -0.4669
21694SOL    HW166523   6.772   6.839   1.177  0.1100  0.4895  0.2148
21694SOL    HW266524   6.872   6.730   1.147 -1.0237 -0.5624  0.1773
21695SOL     OW66525   7.678   4.842   5.335  0.0060 -0.4359  0.6407
21695SOL    HW166526   7.773   4.849   5.344  0.1484  2.0876 -1.6036
21695SOL    HW266527   7.664   4.751   5.311  1.7431 -1.0667  1.7656
21696SOL     OW66528   0.216   7.569   1.559 -0.0725  0.0858 -0.4172
21696SOL    HW166529   0.280   7.640   1.572  2.7744 -2.3810  0.1787
21696SOL    HW266530   0.215   7.523   1.643  0.0819 -1.9743 -1.4797
21697SOL     OW66531   6.838   6.591   2.298 -0.2019  0.3053 -0.3417
21697SOL    HW166532   6.805   6.517   2.247 -0.2698  1.4170 -1.9634
21697SOL    HW266533   6.762   6.619   2.351 -0.4590 -0.1526 -0.4631
21698SOL     OW66534   7.606   6.782   2.901 -0.1085  0.8951  0.0201
21698SOL    HW166535   7.532   6.736   2.940  0.3472  0.5106  0.4508
21698SOL    HW266536   7.572   6.869   2.879 -0.6076  0.8231  0.4878
21699SOL     OW66537   5.741   4.936   1.718 -0.4542 -0.2456 -0.0526
21699SOL    HW166538   5.729   4.846   1.688  0.3370 -0.8869  1.3998
21699SOL    HW266539   5.805   4.973   1.657  1.3589 -1.6060  0.9178
21700SOL     OW66540   3.293   0.040   4.152 -0.1734  0.3762 -0.2257
21700SOL    HW166541   3.260   0.125   4.123  2.3281  0.9793 -1.6496
21700SOL    HW266542   3.367   0.062   4.209 -1.0740 -0.8804  1.5016
21701SOL     OW66543   6.084   3.856   4.661  0.1282 -0.0221  0.1840
21701SOL    HW166544   6.109   3.884   4.749  0.8829  3.2676 -0.9526
21701SOL    HW266545   5.996   3.893   4.649  0.7115  1.0190 -1.0161
21702SOL     OW66546   5.236   6.187   3.230  0.2775  0.2042  0.5117
21702SOL    HW166547   5.231   6.197   3.135 -3.1772  1.9177  0.6995
21702SOL    HW266548   5.237   6.277   3.263 -1.1555 -0.2878  2.0547
21703SOL     OW66549   6.326   6.628   2.256  0.0151  0.1176  0.4700
21703SOL    HW166550   6.308   6.714   2.294 -0.8584  0.6281 -1.0013
21703SOL    HW266551   6.285   6.631   2.169  1.2724 -1.2331 -0.2271
21704SOL     OW66552   4.886   7.585   0.580  0.1820  0.7479 -0.0914
21704SOL    HW166553   4.881   7.674   0.547 -1.4505  0.1778 -1.5201
21704SOL    HW266554   4.804   7.572   0.627 -0.6895 -0.7268 -1.9261
21705SOL     OW66555   6.505   5.072   3.904  0.0072 -0.5203  0.0005
21705SOL    HW166556   6.560   5.133   3.856  1.7414 -3.0595 -1.4759
21705SOL    HW266557   6.486   5.116   3.987  0.5408  2.2313 -1.2468
21706SOL     OW66558   6.942   6.217   2.242 -0.6074  0.0489  0.2549
21706SOL    HW166559   7.037   6.223   2.253 -0.7686  0.9213  1.3267
21706SOL    HW266560   6.927   6.125   2.223  0.6397  0.2654 -2.0923
21707SOL     OW66561   4.871   7.898   0.738 -0.0103 -0.6858  0.2217
21707SOL    HW166562   4.876   7.880   0.644 -1.1672  1.6349 -0.3653
21707SOL    HW266563   4.962   7.899   0.768  0.3124 -2.6536 -0.5754
21708SOL     OW66564   6.413   6.293   4.329 -1.1221  0.7761 -0.4797
21708SOL    HW166565   6.321   6.286   4.303 -1.3360  0.1695  0.3543
21708SOL    HW266566   6.411   6.345   4.409 -0.8922 -0.2172  0.1986
21709SOL     OW66567   6.038   6.560   1.358 -0.2170  0.1809 -0.2244
21709SOL    HW166568   6.016   6.642   1.313  1.5130  2.0616  2.0623
21709SOL    HW266569   6.092   6.588   1.432 -0.4458 -2.9732  1.2822
21710SOL     OW66570   5.066   6.671   0.157 -0.0551 -0.2719 -0.0555
21710SOL    HW166571   5.145   6.702   0.113  0.0230  0.4437  0.5656
21710SOL    HW266572   5.030   6.605   0.098  0.4177  0.1653 -0.8542
21711SOL     OW66573   7.967   7.996   2.831  0.0582 -0.2147  0.3936
21711SOL    HW166574   7.961   8.059   2.902  1.2325  1.2397 -0.7268
21711SOL    HW266575   8.045   8.022   2.782 -0.9601 -0.8554 -1.6825
21712SOL     OW66576   0.262   7.578   3.507 -0.4041  0.4375  0.1396
21712SOL    HW166577   0.292   7.641   3.441 -0.1980  1.6497  1.3407
21712SOL    HW266578   0.166   7.582   3.502 -0.3945  0.8836  0.2234
21713SOL     OW66579   0.212   7.843   2.751  0.4616  0.8680  0.1870
21713SOL    HW166580   0.177   7.764   2.794  0.4191  1.6529  1.6632
21713SOL    HW266581   0.304   7.846   2.778  1.6727 -0.8174 -3.1408
21714SOL     OW66582   7.707   5.603   2.705 -0.1410  0.1292  0.1248
21714SOL    HW166583   7.730   5.690   2.670 -0.1510  0.2604  0.4432
21714SOL    HW266584   7.619   5.587   2.672 -0.0089  0.0880 -0.2184
21715SOL     OW66585   6.966   7.173   2.685  0.0512  0.3160 -0.1251
21715SOL    HW166586   6.906   7.224   2.630  0.8161  0.0871 -1.2158
21715SOL    HW266587   6.926   7.086   2.689  0.8615 -0.1922 -1.8768
21716SOL     OW66588   6.720   5.335   3.062  0.3455 -0.2032  0.0843
21716SOL    HW166589   6.630   5.357   3.039  0.0604 -0.8468  0.5606
21716SOL    HW266590   6.758   5.418   3.091 -0.1493  0.0367  0.0635
21717SOL     OW66591   6.136   0.771   3.635 -0.1178  0.6955  0.1298
21717SOL    HW166592   6.181   0.688   3.646 -0.5102  0.3358 -0.8641
21717SOL    HW266593   6.189   0.834   3.683  1.3584  0.2577 -0.8725
21718SOL     OW66594   7.819   0.258   2.019  0.3014 -0.5245 -0.2064
21718SOL    HW166595   7.728   0.232   2.033 -0.0569  0.4190 -0.7260
21718SOL    HW266596   7.869   0.202   2.079 -0.7049 -0.3033  0.8872
21719SOL     OW66597   4.339   5.442   3.056 -0.5441 -0.0107 -0.6257
21719SOL    HW166598   4.337   5.494   2.976 -1.0104 -1.3172 -1.4847
21719SOL    HW266599   4.286   5.365   3.037 -1.6815  0.1976  1.3355
21720SOL     OW66600   5.171   5.717   1.399 -0.4840 -0.0163 -0.3531
21720SOL    HW166601   5.188   5.773   1.323  2.6991  0.1558  0.3506
21720SOL    HW266602   5.253   5.715   1.447 -1.3481 -2.9139  1.2874
21721SOL     OW66603   6.490   6.253   3.534 -0.3903  0.1607  0.1308
21721SOL    HW166604   6.558   6.229   3.596  0.1385  0.5378 -0.2946
21721SOL    HW266605   6.417   6.195   3.555  0.4959 -1.1269 -0.2261
21722SOL     OW66606   6.935   6.395   2.870  0.5850 -0.1019 -0.0638
21722SOL    HW166607   7.028   6.390   2.846  0.3997 -0.5332 -0.7156
21722SOL    HW266608   6.903   6.305   2.858  0.2795 -0.1482  0.9830
21723SOL     OW66609   6.446   6.524   4.523  0.0082 -0.1670  0.5575
21723SOL    HW166610   6.396   6.574   4.458 -1.2287 -1.8160  0.1591
21723SOL    HW266611   6.403   6.545   4.606  0.4239  0.5384  0.5994
21724SOL     OW66612   6.091   6.308   1.283  0.0408 -0.0942  0.0843
21724SOL    HW166613   6.181   6.336   1.269  0.2045 -0.2308  0.7864
21724SOL    HW266614   6.043   6.388   1.304  0.5571 -0.2956  2.3289
21725SOL     OW66615   6.988   6.682   2.499 -0.1101  0.9786  0.2390
21725SOL    HW166616   7.048   6.748   2.466  0.8703  0.9373  1.8467
21725SOL    HW266617   6.943   6.650   2.420  1.4346  1.5269 -0.9309
21726SOL     OW66618   6.631   5.904   1.767  0.1919 -0.2110  0.5776
21726SOL    HW166619   6.704   5.943   1.814 -0.7508  1.3741  0.7804
21726SOL    HW266620   6.589   5.846   1.830  0.7440 -0.4405  0.7332
21727SOL     OW66621   6.030   6.434   3.269  0.2814 -0.0839 -0.5098
21727SOL    HW166622   6.085   6.417   3.193  0.8555  1.7621 -0.5524
21727SOL    HW266623   6.089   6.474   3.334 -0.6692  0.5142  0.0155
21728SOL     OW66624   5.723   5.314   3.279  0.1176 -0.4656  0.7622
21728SOL    HW166625   5.743   5.289   3.369 -0.9607  0.5905  1.3290
21728SOL    HW266626   5.658   5.384   3.287  1.4157  1.0261 -0.7903
21729SOL     OW66627   0.352   7.470   3.950  0.2192  0.1723 -0.3958
21729SOL    HW166628   0.330   7.543   3.893 -1.4066  1.6903  1.9938
21729SOL    HW266629   0.271   7.418   3.955  0.6099 -0.4257 -0.1664
21730SOL     OW66630   6.809   6.231   4.977 -0.3252 -0.2889  0.2947
21730SOL    HW166631   6.734   6.177   4.953  0.3694 -0.4147 -1.7443
21730SOL    HW266632   6.885   6.175   4.965  0.3046  0.7068 -0.5065
21731SOL     OW66633   6.730   4.656   3.210  0.3279 -0.2058 -0.7521
21731SOL    HW166634   6.806   4.658   3.152  0.7369  1.8300 -0.2272
21731SOL    HW266635   6.664   4.707   3.163 -0.8281 -2.0950 -1.2766
21732SOL     OW66636   6.334   6.732   3.181 -0.0954  0.4436  0.6009
21732SOL    HW166637   6.426   6.750   3.163  0.2838 -0.4531  1.5496
21732SOL    HW266638   6.297   6.706   3.097  0.8274 -0.4319  0.4501
21733SOL     OW66639   6.730   5.797   4.399 -0.5426  0.1147  0.1807
21733SOL    HW166640   6.654   5.806   4.456 -1.3924  1.6017 -1.1105
21733SOL    HW266641   6.703   5.733   4.333 -0.2985 -0.1283  0.3177
21734SOL     OW66642   6.972   5.390   4.971 -0.2512 -0.1095  0.0011
21734SOL    HW166643   6.934   5.324   5.029  0.5627 -0.5577  0.0319
21734SOL    HW266644   6.940   5.367   4.883 -0.5440 -0.1114  0.1060
21735SOL     OW66645   5.684   4.924   3.596 -0.6529  0.0999 -0.2103
21735SOL    HW166646   5.594   4.892   3.604 -0.3940 -0.3367  1.2928
21735SOL    HW266647   5.699   4.972   3.677  0.5693 -0.1100 -0.3027
21736SOL     OW66648   0.091   6.078   3.492  0.5222 -0.5733 -0.2778
21736SOL    HW166649   0.185   6.066   3.480  0.6139  0.6035 -0.8277
21736SOL    HW266650   0.073   6.041   3.578  1.4577 -0.9408 -0.2252
21737SOL     OW66651   0.484   5.733   4.890  0.3907  0.1353  0.4679
21737SOL    HW166652   0.417   5.784   4.937 -0.1899 -0.3673  0.1852
21737SOL    HW266653   0.514   5.792   4.821 -0.0355  0.2185  0.3519
21738SOL     OW66654   5.079   3.918   2.948 -0.3721  0.9878  0.3574
21738SOL    HW166655   5.079   3.973   2.870  1.5631  1.7658  0.8433
21738SOL    HW266656   5.011   3.956   3.004 -0.1329  1.9322  0.0324
21739SOL     OW66657   7.677   6.161   0.736  0.5881 -0.1824 -0.2815
21739SOL    HW166658   7.717   6.134   0.653  1.4811 -1.5229  0.5459
21739SOL    HW266659   7.701   6.253   0.746  1.7044 -0.4055 -0.8173
21740SOL     OW66660   6.655   6.554   3.320 -0.0899  0.2907 -0.1033
21740SOL    HW166661   6.642   6.638   3.276 -0.0920  0.0570 -0.5562
21740SOL    HW266662   6.727   6.512   3.271 -0.0785  0.0354  0.1260
21741SOL     OW66663   6.401   7.584   4.235  0.4192  0.0316 -0.3712
21741SOL    HW166664   6.347   7.571   4.313  0.4491  0.0328 -0.3503
21741SOL    HW266665   6.365   7.522   4.171 -1.9771  2.4815 -1.6103
21742SOL     OW66666   7.173   7.052   4.141  0.2837  0.0942  0.3144
21742SOL    HW166667   7.184   7.098   4.058  0.7906  0.2317  0.4534
21742SOL    HW266668   7.138   6.966   4.116  2.6644 -0.7823 -0.2852
21743SOL     OW66669   3.232   6.380   3.198  0.4391 -0.5705  0.3983
21743SOL    HW166670   3.153   6.433   3.203  0.3387 -0.6479 -0.3467
21743SOL    HW266671   3.256   6.381   3.106  1.3515 -0.4848  0.6261
21744SOL     OW66672   5.380   6.570   2.794  0.3599 -0.2375  0.1665
21744SOL    HW166673   5.390   6.541   2.703  1.1414  1.4856 -0.3307
21744SOL    HW266674   5.442   6.516   2.843 -0.4029 -1.5101 -0.2129
21745SOL     OW66675   5.283   6.848   0.831 -0.2476  0.7877 -0.1588
21745SOL    HW166676   5.286   6.919   0.767 -2.1810  1.5054  0.4851
21745SOL    HW266677   5.281   6.893   0.916  0.8942 -0.1191  0.3896
21746SOL     OW66678   6.043   5.407   2.750 -0.3372  0.2635  0.0830
21746SOL    HW166679   6.117   5.466   2.741 -0.3394  0.5196  1.5183
21746SOL    HW266680   6.067   5.349   2.822 -1.3928  0.1440  0.3627
21747SOL     OW66681   5.371   5.996   2.256  0.3764  0.3248  0.4341
21747SOL    HW166682   5.288   5.981   2.211 -0.6047  0.3733  2.1426
21747SOL    HW266683   5.385   5.918   2.308  1.7663  0.0407 -0.3174
21748SOL     OW66684   5.597   7.183   4.073  0.2775 -0.2081 -0.7112
21748SOL    HW166685   5.558   7.270   4.075 -0.2753 -0.4209 -1.6983
21748SOL    HW266686   5.590   7.155   3.982  0.8488 -1.1118 -0.4981
21749SOL     OW66687   6.328   4.496   2.848 -0.1274 -0.4022  0.3927
21749SOL    HW166688   6.415   4.473   2.879  1.0411  1.5594 -1.2209
21749SOL    HW266689   6.322   4.591   2.861 -0.8592 -0.0325 -2.1208
21750SOL     OW66690   6.580   5.465   1.963  0.0696  0.0909 -0.1475
21750SOL    HW166691   6.541   5.382   1.991 -0.9245  0.5081 -0.2489
21750SOL    HW266692   6.662   5.470   2.011  0.6441 -1.4190 -0.8802
21751SOL     OW66693   5.595   5.596   0.927 -0.1434  0.2216  0.5989
21751SOL    HW166694   5.509   5.554   0.931 -0.3762  0.7574  1.4505
21751SOL    HW266695   5.651   5.540   0.980  0.3681 -0.8511 -1.0201
21752SOL     OW66696   6.211   6.847   5.955  0.7039 -0.4849 -0.0804
21752SOL    HW166697   6.146   6.782   5.929 -0.8800  1.5503 -1.6076
21752SOL    HW266698   6.293   6.817   5.917  0.2887 -2.1389  0.2637
21753SOL     OW66699   4.545   0.176   1.453  0.2525 -0.5212 -0.6253
21753SOL    HW166700   4.606   0.189   1.526  1.6972 -1.3603 -1.6285
21753SOL    HW266701   4.499   0.259   1.444  1.1273  0.0765  0.2699
21754SOL     OW66702   7.889   7.446   4.879 -0.0147  0.2465  0.1378
21754SOL    HW166703   7.883   7.351   4.873 -1.5827  0.3573 -0.5753
21754SOL    HW266704   7.953   7.462   4.948 -0.3837 -1.3158  0.8803
21755SOL     OW66705   5.089   5.383   2.667 -0.0768 -0.4276 -0.1009
21755SOL    HW166706   5.029   5.458   2.665  0.2714 -0.1282  0.2896
21755SOL    HW266707   5.162   5.410   2.611 -1.2817 -1.6778 -2.4247
21756SOL     OW66708   7.594   6.497   2.032  0.0530  0.2586 -0.1210
21756SOL    HW166709   7.661   6.442   2.074 -1.5531 -1.9453 -0.2794
21756SOL    HW266710   7.526   6.506   2.099  1.2237  4.1718  0.7839
21757SOL     OW66711   5.490   5.998   1.875  1.1241  0.0937 -0.4655
21757SOL    HW166712   5.489   6.078   1.928 -1.0286  0.0654 -0.4065
21757SOL    HW266713   5.450   6.023   1.792  0.4996 -0.9065 -0.4763
21758SOL     OW66714   7.431   6.628   3.019 -0.1093  0.0358  0.0937
21758SOL    HW166715   7.340   6.607   3.038 -0.5338 -0.3141 -2.0686
21758SOL    HW266716   7.472   6.544   2.998  0.3130  0.3589 -0.4200
21759SOL     OW66717   5.884   6.544   3.874  0.1678  0.3107  0.5248
21759SOL    HW166718   5.898   6.451   3.858  1.7989  0.1731  2.3580
21759SOL    HW266719   5.887   6.584   3.787  2.4227 -1.0108 -0.0838
21760SOL     OW66720   6.980   5.460   5.648  0.6143 -0.1201 -0.2531
21760SOL    HW166721   6.920   5.398   5.690  1.1919 -2.1161 -2.1851
21760SOL    HW266722   7.067   5.431   5.673  0.8798  1.2602  0.5312
21761SOL     OW66723   6.941   0.294   1.975 -0.1254  0.3505 -0.4085
21761SOL    HW166724   6.865   0.274   2.030 -0.6998 -0.2398 -1.3885
21761SOL    HW266725   7.015   0.292   2.035 -0.6302 -1.1357  0.1944
21762SOL     OW66726   5.401   6.838   4.244 -0.2204 -0.1393 -0.0445
21762SOL    HW166727   5.367   6.762   4.198  0.1355 -2.1691  2.8057
21762SOL    HW266728   5.487   6.853   4.204 -0.1676 -1.4129 -0.4644
21763SOL     OW66729   7.973   6.813   3.970  0.5822  0.4165  0.1677
21763SOL    HW166730   8.025   6.839   3.894  0.6484  1.6127  0.6038
21763SOL    HW266731   7.943   6.725   3.949  2.5267 -0.1999 -0.2316
21764SOL     OW66732   6.849   7.505   3.574 -0.0669  0.1217 -0.4094
21764SOL    HW166733   6.884   7.546   3.494 -0.3571 -1.4678 -1.4090
21764SOL    HW266734   6.819   7.419   3.545 -4.7320  1.2189  0.3574
21765SOL     OW66735   5.345   7.029   3.245  0.3459 -0.3645 -0.0266
21765SOL    HW166736   5.391   7.029   3.328 -0.7024  0.7884  0.6011
21765SOL    HW266737   5.254   7.012   3.268  0.2132 -1.1155 -1.0628
21766SOL     OW66738   5.242   6.813   2.847 -0.7755 -0.5439 -0.0338
21766SOL    HW166739   5.297   6.734   2.849  0.6738  0.4363  0.6709
21766SOL    HW266740   5.273   6.862   2.772 -0.0493  0.4276  0.8694
21767SOL     OW66741   6.928   7.030   3.888 -0.2021 -0.3458  0.0263
21767SOL    HW166742   6.926   7.108   3.943  1.7102 -0.4893  0.3665
21767SOL    HW266743   6.962   7.061   3.804  1.7869 -0.9446  0.5406
21768SOL     OW66744   5.758   5.914   1.806 -0.1983  0.6957  0.3755
21768SOL    HW166745   5.668   5.938   1.783 -0.1443  0.0994 -0.5252
21768SOL    HW266746   5.764   5.930   1.900 -1.1028  1.1882  0.3572
21769SOL     OW66747   7.638   6.515   2.451 -0.0389 -0.4523  0.0826
21769SOL    HW166748   7.708   6.556   2.503  1.7757 -1.3956 -1.4935
21769SOL    HW266749   7.623   6.431   2.493 -1.3973  0.3702  1.3407
21770SOL     OW66750   5.384   0.301   1.389  0.1764  0.2724  0.6099
21770SOL    HW166751   5.302   0.294   1.437 -0.3781  1.0422 -0.1871
21770SOL    HW266752   5.364   0.361   1.317  1.6372  1.0476  0.8206
21771SOL     OW66753   7.897   5.143   3.021  0.3776  0.0065  0.2344
21771SOL    HW166754   7.908   5.174   2.931 -0.1267  0.6408  0.3841
21771SOL    HW266755   7.899   5.223   3.074  2.5212 -0.4887  0.9986
21772SOL     OW66756   6.636   5.371   4.382  0.1718  0.3384 -0.2076
21772SOL    HW166757   6.657   5.454   4.341  0.4273  1.3341  1.8102
21772SOL    HW266758   6.602   5.316   4.311  0.6578  1.9139 -1.7041
21773SOL     OW66759   6.066   6.279   2.344  0.2900  0.0191  0.4842
21773SOL    HW166760   6.002   6.348   2.361 -0.2651 -0.6523  1.1583
21773SOL    HW266761   6.054   6.216   2.415 -0.2878 -1.5450 -0.9121
21774SOL     OW66762   6.506   0.177   3.246 -0.7594 -0.1078  0.2452
21774SOL    HW166763   6.450   0.239   3.200 -0.7343  0.0804  0.4665
21774SOL    HW266764   6.579   0.161   3.185 -1.2633 -0.6814 -0.2196
21775SOL     OW66765   7.732   6.687   1.369  0.1658 -0.0731  0.4392
21775SOL    HW166766   7.801   6.649   1.315  1.9774  2.3485  0.9085
21775SOL    HW266767   7.685   6.746   1.311 -1.1486 -1.2043  0.2990
21776SOL     OW66768   5.022   6.402   3.806 -0.8275 -0.5156  0.0076
21776SOL    HW166769   5.085   6.372   3.740 -1.5189 -1.5842 -0.1901
21776SOL    HW266770   5.055   6.487   3.833 -1.5360  0.8583 -3.0795
21777SOL     OW66771   6.489   0.381   2.115 -0.1282 -0.4683 -0.5261
21777SOL    HW166772   6.479   0.380   2.020  1.9503  0.9758 -0.8453
21777SOL    HW266773   6.574   0.339   2.130 -0.6552 -1.1205  0.7466
21778SOL     OW66774   6.402   6.827   3.831  0.1025 -0.1384  0.1522
21778SOL    HW166775   6.419   6.798   3.741  1.7046  0.8686  0.0879
21778SOL    HW266776   6.308   6.816   3.843 -0.0097 -1.0339 -1.3815
21779SOL     OW66777   0.913   7.460   1.770  0.2072 -0.0121  0.2331
21779SOL    HW166778   0.821   7.484   1.764  0.4364  1.0317  0.5243
21779SOL    HW266779   0.947   7.475   1.682  0.2025  0.0862  0.2479
21780SOL     OW66780   6.651   7.002   2.448 -0.1812 -1.1624 -0.3657
21780SOL    HW166781   6.732   7.046   2.420 -1.0627  0.6254 -0.2363
21780SOL    HW266782   6.682   6.924   2.495  1.5125 -0.0941  0.4228
21781SOL     OW66783   4.394   7.368   4.468  0.0542  0.0092 -0.6683
21781SOL    HW166784   4.310   7.331   4.442 -0.8331  0.9822  0.6937
21781SOL    HW266785   4.381   7.463   4.465  0.7568  0.1687  0.5975
21782SOL     OW66786   6.655   7.032   3.980  0.8412  0.2593 -0.2517
21782SOL    HW166787   6.747   7.021   3.958  0.7708  0.3389 -0.5920
21782SOL    HW266788   6.652   7.023   4.076  1.6646  3.2409  0.1674
21783SOL     OW66789   4.676   6.290   1.669  0.0739  0.7222  0.3549
21783SOL    HW166790   4.642   6.335   1.746  1.1512  2.5910 -0.2131
21783SOL    HW266791   4.771   6.288   1.682  0.1582 -0.2149 -0.2829
21784SOL     OW66792   7.578   5.714   1.899 -0.0570  0.7781 -0.2084
21784SOL    HW166793   7.660   5.718   1.948 -0.4161 -1.1016  0.6370
21784SOL    HW266794   7.586   5.636   1.844 -0.5507  1.6275 -1.5532
21785SOL     OW66795   4.751   6.571   2.138  0.0898  0.0190 -0.0704
21785SOL    HW166796   4.812   6.602   2.205 -0.5832  0.8191  0.1944
21785SOL    HW266797   4.665   6.579   2.179 -0.2020 -1.0632 -0.4464
21786SOL     OW66798   7.244   6.113   1.900  0.1181 -0.0877  0.2251
21786SOL    HW166799   7.212   6.196   1.935  1.6800  0.6515  0.0012
21786SOL    HW266800   7.268   6.061   1.977  2.2833  1.0091  0.3596
21787SOL     OW66801   5.435   7.744   1.202  0.5802 -0.0912 -0.0306
21787SOL    HW166802   5.354   7.694   1.207  0.2883  0.0735 -2.1857
21787SOL    HW266803   5.503   7.681   1.227 -0.1411 -0.2943  1.5590
21788SOL     OW66804   6.764   5.851   2.938 -0.1506  0.5013  0.3546
21788SOL    HW166805   6.747   5.856   3.032 -2.8821 -2.9949  0.2655
21788SOL    HW266806   6.688   5.804   2.902  0.9457  1.3389 -3.5793
21789SOL     OW66807   4.576   5.903   4.365 -0.4083  0.1942 -0.0543
21789SOL    HW166808   4.566   5.997   4.349  1.0882  0.2091 -1.1316
21789SOL    HW266809   4.519   5.862   4.300  0.0874  0.3540 -0.5992
21790SOL     OW66810   5.348   5.590   1.818  0.1042  0.8507  0.4773
21790SOL    HW166811   5.371   5.670   1.865 -0.2405  0.8049  0.7262
21790SOL    HW266812   5.358   5.520   1.883 -3.5641  1.1038  1.5587
21791SOL     OW66813   7.928   7.713   1.895  0.1250 -0.2979  0.4101
21791SOL    HW166814   8.020   7.738   1.887  0.1347  0.8827  3.1437
21791SOL    HW266815   7.926   7.647   1.964 -0.8961 -1.9593 -1.1193
21792SOL     OW66816   6.111   5.933   2.460 -0.3471 -0.5484  0.6045
21792SOL    HW166817   6.143   5.860   2.513 -0.3115 -1.3662 -0.5115
21792SOL    HW266818   6.045   5.975   2.515 -0.7290 -1.7278  1.0815
21793SOL     OW66819   6.469   7.107   3.162  0.3328 -0.0885  0.2745
21793SOL    HW166820   6.507   7.066   3.240  2.0437  1.2264  0.2030
21793SOL    HW266821   6.449   7.033   3.104 -0.2207 -1.0346  1.6136
21794SOL     OW66822   6.902   0.435   1.670 -0.1981 -0.3311  0.2694
21794SOL    HW166823   6.824   0.438   1.615  0.6043  0.9703 -0.8767
21794SOL    HW266824   6.872   0.400   1.753 -1.4854 -2.2543 -0.9386
21795SOL     OW66825   6.124   6.107   3.278  0.0335  0.5518  0.1903
21795SOL    HW166826   6.145   6.170   3.210 -1.6981  0.1007 -0.8239
21795SOL    HW266827   6.029   6.114   3.289  0.2121  0.3848  2.3529
21796SOL     OW66828   7.687   5.933   4.713  0.2663  0.5706  0.0385
21796SOL    HW166829   7.704   6.026   4.702 -0.8541  0.7777 -0.0688
21796SOL    HW266830   7.730   5.892   4.638 -0.1405  1.1206 -0.5060
21797SOL     OW66831   0.103   6.918   3.463 -0.4377 -0.0689  0.4182
21797SOL    HW166832   0.110   7.009   3.435 -0.4385 -0.4079 -0.7181
21797SOL    HW266833   0.011   6.895   3.449 -0.2070 -0.5648 -0.3482
21798SOL     OW66834   5.319   5.590   2.724  0.0413 -0.0743 -0.7518
21798SOL    HW166835   5.402   5.594   2.770 -0.0194 -0.2564 -0.6250
21798SOL    HW266836   5.332   5.524   2.656 -0.7359 -1.8588  0.7707
21799SOL     OW66837   6.738   7.688   2.635 -0.0085  0.3961  0.0214
21799SOL    HW166838   6.709   7.653   2.720 -0.0096  0.4793  0.0552
21799SOL    HW266839   6.822   7.644   2.619 -1.1395 -1.5190 -1.1051
21800SOL     OW66840   7.922   6.205   5.220 -0.4252 -0.7073 -0.6340
21800SOL    HW166841   7.895   6.144   5.151 -0.1006 -1.5587 -0.0246
21800SOL    HW266842   7.975   6.152   5.280  0.3197  0.3022 -0.3719
21801SOL     OW66843   7.620   7.096   3.457 -0.2971 -0.1750 -0.5790
21801SOL    HW166844   7.552   7.102   3.391 -0.4664  0.0634 -0.3867
21801SOL    HW266845   7.665   7.180   3.452 -0.3131 -0.1546 -0.3911
21802SOL     OW66846   6.930   7.109   1.707  0.1751  0.0861  0.4772
21802SOL    HW166847   6.945   7.089   1.614  0.0090  0.6540  0.3230
21802SOL    HW266848   6.975   7.192   1.721 -0.9337  0.6880  0.5567
21803SOL     OW66849   5.482   6.839   3.048 -0.2134 -0.0582 -0.4913
21803SOL    HW166850   5.518   6.869   3.132 -1.4114 -2.5077  1.0231
21803SOL    HW266851   5.415   6.904   3.026  0.1669  0.6645  0.4237
21804SOL     OW66852   6.045   4.978   2.732  0.0739 -0.3273 -0.3189
21804SOL    HW166853   6.134   4.964   2.763 -0.1698 -2.7572 -0.5073
21804SOL    HW266854   6.048   4.953   2.639 -0.8473 -0.6401 -0.2716
21805SOL     OW66855   6.151   7.839   4.598 -0.9532  0.3809  0.1984
21805SOL    HW166856   6.138   7.745   4.605 -2.0389  0.3817 -1.3045
21805SOL    HW266857   6.236   7.848   4.554 -1.4356  0.0599 -0.8197
21806SOL     OW66858   6.923   5.935   2.626 -0.7799 -0.1487  0.1831
21806SOL    HW166859   7.015   5.928   2.653 -0.2067 -1.1593 -1.8181
21806SOL    HW266860   6.879   5.975   2.701  1.0671 -0.7003  1.6472
21807SOL     OW66861   5.940   7.624   3.417  0.1305  0.1537  0.3255
21807SOL    HW166862   5.992   7.556   3.376 -1.2189 -0.9051  0.3238
21807SOL    HW266863   5.995   7.656   3.489  1.7478  0.7664 -1.1241
21808SOL     OW66864   7.569   5.029   3.268  0.0474  0.1140 -0.4034
21808SOL    HW166865   7.546   5.031   3.175 -1.7303 -0.2861 -0.0034
21808SOL    HW266866   7.610   4.943   3.280  0.9223  0.4380 -0.9233
21809SOL     OW66867   5.247   7.124   3.527  1.2301  0.3704  0.2176
21809SOL    HW166868   5.330   7.078   3.539  0.8761  0.3835  3.4558
21809SOL    HW266869   5.180   7.058   3.541  0.5848  0.4173 -2.1264
21810SOL     OW66870   4.895   0.353   1.196 -0.2707 -0.2507  0.5067
21810SOL    HW166871   4.950   0.402   1.136 -0.7555  3.0624  2.4909
21810SOL    HW266872   4.823   0.322   1.142  0.3876  0.7414 -1.0204
21811SOL     OW66873   4.306   6.503   1.747  0.3066 -0.1038 -0.2556
21811SOL    HW166874   4.282   6.545   1.665  1.6078  0.3267 -0.4458
21811SOL    HW266875   4.298   6.571   1.813  3.0756  0.7629 -0.6648
21812SOL     OW66876   6.574   0.338   1.210  0.0522  0.6849 -0.0739
21812SOL    HW166877   6.512   0.411   1.215 -1.6518 -0.7407  1.6632
21812SOL    HW266878   6.523   0.267   1.170  0.9157 -0.2136  0.3774
21813SOL     OW66879   6.388   5.516   4.110 -0.0638 -0.6132 -0.4467
21813SOL    HW166880   6.312   5.533   4.054 -0.0044 -0.2628 -0.4183
21813SOL    HW266881   6.352   5.467   4.185 -0.5886  1.1039  0.4754
21814SOL     OW66882   0.104   5.618   3.432  0.4265  0.5236  0.5064
21814SOL    HW166883   0.022   5.568   3.427  1.2027 -0.7621  0.0082
21814SOL    HW266884   0.157   5.568   3.494  1.3712  0.4883 -0.3053
21815SOL     OW66885   5.671   7.980   2.492 -0.2535  0.6220  0.1040
21815SOL    HW166886   5.591   7.999   2.443 -0.2928 -0.0779 -0.1129
21815SOL    HW266887   5.646   7.990   2.584 -0.6439  0.2215  0.0443
21816SOL     OW66888   5.805   7.589   3.200  0.2644 -0.0444 -0.5447
21816SOL    HW166889   5.803   7.493   3.203  1.2322 -0.0563  1.0310
21816SOL    HW266890   5.850   7.614   3.281 -0.6473  1.7671 -0.5530
21817SOL     OW66891   7.339   3.787   1.366 -0.0453  0.3602  0.3946
21817SOL    HW166892   7.410   3.760   1.307 -0.7493 -1.4118  0.3118
21817SOL    HW266893   7.267   3.809   1.307  0.1870  1.5127  0.5093
21818SOL     OW66894   6.847   5.208   1.639 -0.6267  0.1442  0.1727
21818SOL    HW166895   6.832   5.114   1.630  2.1803 -0.4429  0.7315
21818SOL    HW266896   6.896   5.232   1.560 -1.6549  1.2602 -0.1545
21819SOL     OW66897   6.959   6.611   4.560 -0.3212 -0.5124  0.4200
21819SOL    HW166898   6.947   6.535   4.617 -0.3822 -0.5689  0.3320
21819SOL    HW266899   6.885   6.608   4.500  0.4100 -1.1776 -0.4914
21820SOL     OW66900   5.978   6.306   3.668  0.0684 -0.0034 -0.0277
21820SOL    HW166901   5.910   6.251   3.707 -0.0971  0.8299  0.9052
21820SOL    HW266902   6.050   6.304   3.731  0.4652  0.0393 -0.4705
21821SOL     OW66903   5.854   6.095   3.304  0.5168 -0.0655  0.4742
21821SOL    HW166904   5.839   6.177   3.351 -1.0488  0.1846 -0.3898
21821SOL    HW266905   5.773   6.045   3.315  1.7858 -1.9666  1.8118
21822SOL     OW66906   5.523   7.910   4.247  0.3273 -0.6041 -0.1075
21822SOL    HW166907   5.489   7.821   4.235 -0.7820 -0.2258  0.1527
21822SOL    HW266908   5.529   7.920   4.342 -1.8464  0.4147 -0.0221
21823SOL     OW66909   5.730   4.430   3.869  0.3971 -0.2065 -0.2997
21823SOL    HW166910   5.767   4.467   3.950  0.2114 -0.6613 -0.0019
21823SOL    HW266911   5.680   4.502   3.831  0.5992  0.0546 -0.0856
21824SOL     OW66912   4.975   6.443   3.377  0.2055 -0.4175  0.0637
21824SOL    HW166913   4.892   6.434   3.328 -0.3296 -0.7442  1.0053
21824SOL    HW266914   4.971   6.373   3.442 -0.1552  1.4045  2.0850
21825SOL     OW66915   6.159   6.379   5.854  0.0931  0.3724  0.2816
21825SOL    HW166916   6.070   6.382   5.889  0.3796  0.5788  1.0039
21825SOL    HW266917   6.212   6.425   5.919  1.2510 -2.3778  1.4100
21826SOL     OW66918   6.862   7.086   5.371 -0.1592 -0.1514 -0.3309
21826SOL    HW166919   6.789   7.122   5.421 -0.1788  1.0853 -1.2265
21826SOL    HW266920   6.832   6.998   5.346 -1.4158  0.3912 -0.8179
21827SOL     OW66921   5.029   6.357   4.231 -0.4617 -0.1359  0.3065
21827SOL    HW166922   4.956   6.378   4.172  0.3087 -0.8674 -0.9541
21827SOL    HW266923   5.018   6.416   4.305 -2.2589 -0.1406  0.0840
21828SOL     OW66924   0.104   6.076   4.832  0.4249 -0.2687  1.1000
21828SOL    HW166925   0.052   6.078   4.912 -1.5269 -0.3105 -0.1039
21828SOL    HW266926   0.086   6.160   4.790  0.3776 -0.7680  0.0923
21829SOL     OW66927   6.468   6.765   5.847 -0.4675  0.3635 -0.6637
21829SOL    HW166928   6.432   6.771   5.758 -1.3626 -1.1761 -0.4424
21829SOL    HW266929   6.555   6.804   5.840 -0.2927 -0.2393 -2.3514
21830SOL     OW66930   6.433   5.071   4.719  0.1092  0.7223 -0.6092
21830SOL    HW166931   6.521   5.082   4.683  0.2070  0.9880 -0.2957
21830SOL    HW266932   6.422   4.976   4.726  0.9280  0.6842  0.6688
21831SOL     OW66933   7.369   7.269   5.129  0.4794 -0.4117 -0.3624
21831SOL    HW166934   7.400   7.248   5.041 -0.3760 -2.1731 -0.2760
21831SOL    HW266935   7.322   7.191   5.158 -0.4080  0.6259  1.1511
21832SOL     OW66936   6.232   7.858   5.075 -0.2875 -0.2219 -0.0449
21832SOL    HW166937   6.300   7.793   5.092 -1.1389 -1.2202 -0.3889
21832SOL    HW266938   6.270   7.941   5.106  0.4485 -1.0241  1.2869
21833SOL     OW66939   6.169   0.198   6.831  0.4681 -0.1500  0.1908
21833SOL    HW166940   6.211   0.165   6.911  1.2906  0.3711 -0.0081
21833SOL    HW266941   6.099   0.255   6.862 -0.7360 -1.7500  0.5355
21834SOL     OW66942   6.177   5.167   4.588 -0.2631 -0.0634  0.1062
21834SOL    HW166943   6.238   5.103   4.625 -0.0709 -0.2432 -0.5114
21834SOL    HW266944   6.210   5.183   4.500  0.1633  1.4970  0.5160
21835SOL     OW66945   0.013   6.356   4.849 -0.1960 -0.1991 -0.0451
21835SOL    HW166946   0.014   6.367   4.944  0.6466 -0.8633  0.0304
21835SOL    HW266947  -0.035   6.433   4.817  2.1199  1.6706  0.7227
21836SOL     OW66948   4.969   6.853   5.152 -0.2617  0.4283 -0.0093
21836SOL    HW166949   5.018   6.933   5.135 -1.6666  1.0824 -1.1536
21836SOL    HW266950   4.911   6.875   5.225 -0.2305  0.2595  0.0675
21837SOL     OW66951   6.494   6.424   3.759 -0.1568 -0.5148 -0.1809
21837SOL    HW166952   6.539   6.339   3.755  0.0971 -0.5629  2.3041
21837SOL    HW266953   6.552   6.480   3.810 -0.4462  1.1191 -1.5626
21838SOL     OW66954   6.218   0.476   3.893 -0.6633  0.1498  0.2546
21838SOL    HW166955   6.254   0.478   3.805  1.0325  2.8692  0.8996
21838SOL    HW266956   6.124   0.459   3.880 -0.4657  0.4963 -2.0486
21839SOL     OW66957   5.573   7.490   4.123  0.4712 -0.4737  0.3812
21839SOL    HW166958   5.557   7.532   4.208  0.9833 -0.1317  0.3151
21839SOL    HW266959   5.545   7.556   4.059  1.6867 -0.0449  0.2697
21840SOL     OW66960   7.690   0.044   4.980  0.1775  0.2972 -0.7908
21840SOL    HW166961   7.705   0.082   5.066  2.1097 -4.2133  1.2283
21840SOL    HW266962   7.597   0.024   4.978  0.3868 -1.2339  1.2350
21841SOL     OW66963   6.073   7.366   4.363 -0.2112 -0.8821  0.2625
21841SOL    HW166964   6.057   7.294   4.424  0.8910 -2.2843 -1.0238
21841SOL    HW266965   5.997   7.368   4.306 -0.1098 -1.2137  0.1188
21842SOL     OW66966   7.069   6.797   6.070  0.5824 -0.6042 -0.3022
21842SOL    HW166967   7.046   6.716   6.115  1.5053 -0.4115  0.5385
21842SOL    HW266968   7.151   6.825   6.110 -1.6481  2.9091  2.3334
21843SOL     OW66969   4.718   7.248   4.407 -0.0584 -0.1880 -0.3000
21843SOL    HW166970   4.624   7.230   4.397 -0.3338 -0.1795  1.7391
21843SOL    HW266971   4.761   7.184   4.350 -1.2797 -0.3564 -1.0850
21844SOL     OW66972   1.139   1.210   4.693  0.1889 -0.4002 -0.1423
21844SOL    HW166973   1.116   1.258   4.772 -0.6747 -0.5843 -0.2753
21844SOL    HW266974   1.063   1.219   4.635  1.4644  1.1806 -1.6670
21845SOL     OW66975   4.938   6.939   4.063  0.2062  0.3136 -0.4549
21845SOL    HW166976   4.876   6.898   4.123 -0.7584  0.2028 -1.4899
21845SOL    HW266977   4.884   6.969   3.989  1.4901 -0.6817 -1.8655
21846SOL     OW66978   0.356   4.906   3.725  0.3043 -0.1082  0.5421
21846SOL    HW166979   0.342   4.903   3.820  2.5599 -1.8161  0.9031
21846SOL    HW266980   0.390   4.994   3.709  1.3464 -0.2776  1.6115
21847SOL     OW66981   7.264   5.906   5.395 -0.1899 -0.2784  0.6797
21847SOL    HW166982   7.288   5.870   5.480 -1.4164 -3.2026 -0.0944
21847SOL    HW266983   7.314   5.855   5.332 -0.2363  0.9970 -0.4302
21848SOL     OW66984   5.328   1.056   4.755 -0.4230 -0.6301  0.0285
21848SOL    HW166985   5.293   1.022   4.673  0.2769 -0.1706 -0.4590
21848SOL    HW266986   5.251   1.092   4.800 -0.9418 -1.5571 -0.0685
21849SOL     OW66987   6.158   7.493   3.904 -0.5244 -0.3228 -0.5338
21849SOL    HW166988   6.233   7.482   3.846 -0.1679  1.3735 -0.4526
21849SOL    HW266989   6.180   7.441   3.981  0.1995 -0.4892 -0.8402
21850SOL     OW66990   7.734   6.626   2.707  0.6214 -0.1472  0.3837
21850SOL    HW166991   7.670   6.673   2.760  0.1803  0.3385 -0.5525
21850SOL    HW266992   7.815   6.677   2.717  0.9124 -0.8399  1.6769
21851SOL     OW66993   7.557   5.777   5.576  0.4377  0.1512 -0.8264
21851SOL    HW166994   7.577   5.854   5.522 -1.9509  0.2691 -1.6632
21851SOL    HW266995   7.472   5.798   5.616  1.0240 -0.9518  1.1328
21852SOL     OW66996   6.296   5.513   2.722  0.5409  0.1482 -0.0398
21852SOL    HW166997   6.373   5.567   2.740  1.5749 -0.4968 -2.0849
21852SOL    HW266998   6.325   5.455   2.651 -1.6645 -0.5241 -0.4570
21853SOL     OW66999   6.746   7.133   6.054  0.3740  0.5305 -0.8109
21853SOL    HW167000   6.737   7.217   6.099  1.1123  0.7612 -1.0710
21853SOL    HW267001   6.680   7.135   5.985  0.1060  0.7179 -0.5503
21854SOL     OW67002   6.824   6.495   5.078 -0.0461 -0.0811  0.1566
21854SOL    HW167003   6.845   6.544   4.999 -1.4068 -0.3297 -0.3864
21854SOL    HW267004   6.827   6.403   5.051 -0.4876 -0.1687  0.3979
21855SOL     OW67005   7.067   7.241   5.285 -0.1053  0.3226 -0.6596
21855SOL    HW167006   6.989   7.198   5.321  0.5361  1.6197  2.6378
21855SOL    HW267007   7.128   7.169   5.269 -0.6224 -0.4093  0.4758
21856SOL     OW67008   6.398   0.500   3.386 -0.7504 -0.3639 -0.2698
21856SOL    HW167009   6.381   0.577   3.332  1.1343 -0.8357 -1.6327
21856SOL    HW267010   6.339   0.433   3.352 -2.0920  0.2905  0.6426
21857SOL     OW67011   6.743   7.221   3.117  0.4762 -0.3337  0.3780
21857SOL    HW167012   6.648   7.235   3.123  0.6529  0.7460  0.7388
21857SOL    HW267013   6.774   7.229   3.207  1.3580  2.8151 -0.1013
21858SOL     OW67014   7.300   0.020   4.906  0.2699  0.0859 -1.1135
21858SOL    HW167015   7.375  -0.011   4.854 -0.4277 -2.0365 -0.9639
21858SOL    HW267016   7.235   0.046   4.841  0.3375 -0.1495 -1.2798
21859SOL     OW67017   7.328   7.452   4.382  0.0804 -0.0348  0.3878
21859SOL    HW167018   7.381   7.479   4.457  2.3172  0.4434 -1.2953
21859SOL    HW267019   7.294   7.366   4.407 -1.8271  1.3282  3.1586
21860SOL     OW67020   6.745   5.383   6.189  0.1768 -0.0632  0.0094
21860SOL    HW167021   6.785   5.327   6.256 -0.4950 -0.5603  0.0048
21860SOL    HW267022   6.782   5.353   6.106 -0.0009 -0.3401  0.0306
21861SOL     OW67023   7.565   7.454   2.046  0.4621 -0.1626  0.6026
21861SOL    HW167024   7.472   7.453   2.024  1.0805  0.4518 -2.5084
21861SOL    HW267025   7.574   7.524   2.110 -1.2452 -0.6077  1.4023
21862SOL     OW67026   6.608   6.197   4.180  0.2275 -0.2524 -0.7957
21862SOL    HW167027   6.536   6.223   4.238  1.1524  1.8932 -0.5119
21862SOL    HW267028   6.671   6.155   4.238  0.0681 -0.3348 -0.6818
21863SOL     OW67029   6.611   6.743   5.469  0.4689  0.2423  0.2319
21863SOL    HW167030   6.692   6.734   5.519 -0.6219  1.8609  2.4381
21863SOL    HW267031   6.551   6.787   5.528 -0.4846  3.7824 -3.0023
21864SOL     OW67032   6.942   7.120   4.984 -0.5061 -0.2577 -0.1621
21864SOL    HW167033   6.997   7.096   5.059 -1.4326 -2.3863 -0.0968
21864SOL    HW267034   6.855   7.134   5.021 -0.5850  0.4728 -0.6154
21865SOL     OW67035   5.836   7.418   4.209 -0.1916  0.9978 -0.8035
21865SOL    HW167036   5.741   7.408   4.201 -0.0808  0.3242 -1.4089
21865SOL    HW267037   5.854   7.506   4.176 -0.8375  2.0210  1.4207
21866SOL     OW67038   5.828   1.170   5.466 -0.3743 -0.0333 -0.4670
21866SOL    HW167039   5.816   1.127   5.382 -0.2644 -0.0414 -0.4786
21866SOL    HW267040   5.835   1.263   5.446 -0.4753 -0.0234 -0.4549
21867SOL     OW67041   0.353   6.797   3.364  0.2506 -0.0100 -0.4357
21867SOL    HW167042   0.264   6.822   3.388  0.3670 -0.7872  0.9394
21867SOL    HW267043   0.370   6.717   3.414  2.2694  0.9881  0.6129
21868SOL     OW67044   7.918   6.085   3.297 -0.3481  0.1109  0.3355
21868SOL    HW167045   7.866   6.007   3.313 -1.6626  1.0734  0.9184
21868SOL    HW267046   7.988   6.081   3.362 -0.0392 -0.8748 -0.0397
21869SOL     OW67047   7.153   7.816   5.570 -0.0431  0.2497  0.4316
21869SOL    HW167048   7.163   7.906   5.599 -0.6989  0.5192 -0.1743
21869SOL    HW267049   7.218   7.767   5.622 -0.3434  0.9092  1.4582
21870SOL     OW67050   3.768   6.940   4.441  0.2727  0.4868 -0.1456
21870SOL    HW167051   3.797   6.849   4.449 -0.7439  0.1271 -0.3973
21870SOL    HW267052   3.794   6.981   4.523  2.0585  0.3633 -0.6159
21871SOL     OW67053   4.518   1.002   5.010  0.7332  0.6426  0.2142
21871SOL    HW167054   4.458   1.041   4.945 -0.6739 -0.9551  0.4721
21871SOL    HW267055   4.579   0.950   4.958 -0.0480 -0.1898  0.1076
21872SOL     OW67056   6.226   0.298   3.346 -0.4576 -0.0694 -0.1155
21872SOL    HW167057   6.243   0.219   3.295 -0.4650  1.2925 -2.3905
21872SOL    HW267058   6.132   0.312   3.338 -0.7122 -0.6410  1.5996
21873SOL     OW67059   6.300   5.395   5.729  0.7595  0.0837  0.1082
21873SOL    HW167060   6.375   5.428   5.681  0.2054  1.2195 -0.0006
21873SOL    HW267061   6.252   5.342   5.666  0.4417  0.9425 -0.3784
21874SOL     OW67062   5.481   7.828   4.522 -0.4030  0.3502  0.1747
21874SOL    HW167063   5.424   7.753   4.542 -0.8700  0.5173 -0.5009
21874SOL    HW267064   5.569   7.796   4.539 -0.5394 -0.5850 -0.7577
21875SOL     OW67065   7.220   6.656   3.922  0.5831 -0.0230 -0.2384
21875SOL    HW167066   7.185   6.725   3.978 -0.0899 -0.4625 -0.1126
21875SOL    HW267067   7.270   6.599   3.981  0.6995  0.0619 -0.2545
21876SOL     OW67068   6.136   6.501   4.461  0.0488  0.1460 -0.0170
21876SOL    HW167069   6.194   6.543   4.397  1.0981 -1.7385 -0.3727
21876SOL    HW267070   6.114   6.417   4.422 -0.5993 -0.3696  1.3945
21877SOL     OW67071   5.340   0.339   3.729  0.4303  0.5437 -0.0664
21877SOL    HW167072   5.258   0.346   3.680 -0.7236 -2.9171  1.0480
21877SOL    HW267073   5.404   0.308   3.665 -0.1545 -0.4786 -0.1776
21878SOL     OW67074   4.093   4.967   4.713 -0.0232  0.3076  0.7054
21878SOL    HW167075   4.050   4.899   4.661  0.3529 -0.6816  1.6578
21878SOL    HW267076   4.177   4.981   4.669  1.3789 -2.3081  2.3739
21879SOL     OW67077   0.277   7.172   3.351 -0.2269  0.5654  0.2339
21879SOL    HW167078   0.349   7.229   3.377 -0.9493  0.9941  1.3482
21879SOL    HW267079   0.320   7.100   3.304  1.3149 -0.7615  3.3652
21880SOL     OW67080   5.866   5.931   3.675  0.2236 -0.2174 -0.2442
21880SOL    HW167081   5.952   5.891   3.660 -0.5519 -1.7462 -0.7983
21880SOL    HW267082   5.836   5.892   3.757  0.4748  1.1169  0.5196
21881SOL     OW67083   6.504   6.327   2.456  0.2117 -0.3946 -0.1857
21881SOL    HW167084   6.468   6.336   2.544  1.1314  1.6662  0.0421
21881SOL    HW267085   6.435   6.283   2.406 -1.1193  0.1681  1.0954
21882SOL     OW67086   5.514   7.383   5.218 -0.2043  0.3771 -0.6948
21882SOL    HW167087   5.510   7.475   5.192  0.3613  0.5702 -0.1381
21882SOL    HW267088   5.574   7.382   5.293 -2.1213 -0.0598  0.9296
21883SOL     OW67089   5.654   7.988   3.697 -0.7825 -0.0750 -0.3528
21883SOL    HW167090   5.644   7.900   3.661 -1.1841 -0.0038 -0.4207
21883SOL    HW267091   5.749   7.999   3.708 -0.8124 -1.2909  1.5833
21884SOL     OW67092   5.224   7.819   4.794 -0.3424 -0.0802  0.4085
21884SOL    HW167093   5.257   7.899   4.753  1.6082 -0.6078  0.8078
21884SOL    HW267094   5.187   7.847   4.877 -0.6473  0.5314  0.0667
21885SOL     OW67095   7.715   6.494   5.056 -0.0202 -0.6766  0.2794
21885SOL    HW167096   7.661   6.569   5.081  1.1777  0.1329  0.5028
21885SOL    HW267097   7.694   6.427   5.121 -0.3932 -0.2119  0.6493
21886SOL     OW67098   5.559   5.612   4.430  0.3503  0.0888 -0.5299
21886SOL    HW167099   5.653   5.611   4.448  0.3197 -2.1452 -0.3026
21886SOL    HW267100   5.552   5.597   4.336  0.2031  1.6370 -0.8058
21887SOL     OW67101   7.855   4.864   5.974 -0.0905  0.0704  0.1435
21887SOL    HW167102   7.918   4.795   5.993  1.1813  1.2086  0.2334
21887SOL    HW267103   7.828   4.848   5.884  1.0307  0.0691 -0.2082
21888SOL     OW67104   6.879   7.709   5.539  0.0292 -0.1963  0.5771
21888SOL    HW167105   6.958   7.737   5.585 -0.6765  1.3206  0.9512
21888SOL    HW267106   6.874   7.766   5.462 -0.0530 -1.1274 -0.1316
21889SOL     OW67107   7.073   5.029   4.938 -0.0828 -0.7342 -0.0977
21889SOL    HW167108   7.100   4.939   4.957  0.1378 -0.8406 -0.8731
21889SOL    HW267109   7.007   5.049   5.004  0.6410 -1.0805  0.7477
21890SOL     OW67110   0.330   0.110   4.722  0.2595 -0.1822  0.5034
21890SOL    HW167111   0.311   0.199   4.692 -0.3441 -0.9454 -1.5673
21890SOL    HW267112   0.397   0.079   4.662  0.2067 -1.2398  0.9746
21891SOL     OW67113   7.014   5.547   5.948  0.0413 -0.2510 -0.1120
21891SOL    HW167114   6.955   5.479   5.980  2.0456 -0.9102  2.5742
21891SOL    HW267115   7.102   5.509   5.957  1.1447  2.1276  0.1173
21892SOL     OW67116   4.801   6.301   3.777 -0.3832  0.2099 -0.1735
21892SOL    HW167117   4.821   6.209   3.761 -0.3782 -0.2550  2.1157
21892SOL    HW267118   4.886   6.342   3.788 -0.4145  0.2919 -0.2375
21893SOL     OW67119   6.696   7.161   4.395 -0.3872 -0.0521  0.1440
21893SOL    HW167120   6.643   7.232   4.430 -0.9332  0.9860 -2.5115
21893SOL    HW267121   6.763   7.205   4.341 -0.6229 -1.4931 -1.4094
21894SOL     OW67122   5.873   4.961   5.400  0.2941 -0.0712 -0.0245
21894SOL    HW167123   5.810   5.031   5.383 -0.0190 -0.5609 -0.9726
21894SOL    HW267124   5.822   4.880   5.392  1.4127 -0.6228 -3.1627
21895SOL     OW67125   7.733   5.347   3.931  0.1885 -0.1689 -0.1248
21895SOL    HW167126   7.793   5.273   3.926 -1.7160 -1.7425 -0.3917
21895SOL    HW267127   7.776   5.407   3.993  1.6368 -1.5798  0.3197
21896SOL     OW67128   6.433   6.079   5.223 -0.1176  0.1824 -0.3280
21896SOL    HW167129   6.359   6.057   5.279 -0.6457 -0.3220 -1.1931
21896SOL    HW267130   6.400   6.066   5.134  0.6476  1.1132 -0.7703
21897SOL     OW67131   6.146   0.869   5.042  0.1072  0.5816  0.2098
21897SOL    HW167132   6.092   0.875   5.121 -2.0843  0.8308 -1.2329
21897SOL    HW267133   6.152   0.959   5.010 -0.0188  0.3327 -0.5303
21898SOL     OW67134   4.386   7.988   2.246 -0.0514 -0.2251 -0.1727
21898SOL    HW167135   4.446   7.926   2.204 -0.3880 -1.5168  1.1937
21898SOL    HW267136   4.299   7.959   2.219 -0.1964 -0.0717  0.1295
21899SOL     OW67137   6.903   7.763   4.393 -0.7051  0.2220  0.2314
21899SOL    HW167138   6.886   7.842   4.342 -1.8797 -0.7727 -1.0046
21899SOL    HW267139   6.916   7.794   4.483  0.4828  1.9294 -0.4941
21900SOL     OW67140   7.087   4.523   3.009 -0.3808  0.3753 -0.0920
21900SOL    HW167141   7.090   4.464   3.085 -0.3566 -1.8963 -1.7631
21900SOL    HW267142   7.163   4.497   2.956 -1.2998  0.7807 -1.6588
21901SOL     OW67143   4.616   6.579   4.748 -0.0486 -0.0465 -0.3156
21901SOL    HW167144   4.645   6.545   4.664  0.2468 -0.7001  0.0449
21901SOL    HW267145   4.589   6.669   4.729  0.8051  0.0900 -0.9492
21902SOL     OW67146   4.830   5.356   3.722  0.2252  0.5061  0.7104
21902SOL    HW167147   4.821   5.325   3.632  1.9918  0.5776  0.4755
21902SOL    HW267148   4.810   5.280   3.776  0.4507  0.0937  0.2234
21903SOL     OW67149   6.557   5.894   4.036  0.2492 -0.0114  0.1096
21903SOL    HW167150   6.651   5.888   4.016  0.3872  2.2229 -0.2314
21903SOL    HW267151   6.553   5.896   4.132  0.5766  0.1803  0.1209
21904SOL     OW67152   7.561   6.433   2.906 -0.4095  0.7757 -0.2267
21904SOL    HW167153   7.598   6.349   2.932 -2.3687  0.0552  0.4014
21904SOL    HW267154   7.622   6.467   2.841  1.7316  0.0584  1.3211
21905SOL     OW67155   7.182   7.287   6.873  0.1505 -0.5757  0.2429
21905SOL    HW167156   7.180   7.381   6.891 -0.6305  0.0230 -2.4084
21905SOL    HW267157   7.274   7.267   6.859  0.2643 -0.0788  0.2632
21906SOL     OW67158   6.129   0.674   4.077 -0.6789 -0.7806  0.1340
21906SOL    HW167159   6.183   0.753   4.072 -0.1957 -0.9644  2.0888
21906SOL    HW267160   6.185   0.604   4.044  0.5790 -1.0733  2.6570
21907SOL     OW67161   1.253   0.809   3.492  0.3801 -0.2610  0.6272
21907SOL    HW167162   1.220   0.807   3.582  0.6204 -0.0818  0.7195
21907SOL    HW267163   1.174   0.808   3.438  0.1312  1.6350  0.8602
21908SOL     OW67164   7.851   6.533   3.947  0.5281  0.0886 -0.7149
21908SOL    HW167165   7.762   6.543   3.914  0.5932  2.5175 -0.3216
21908SOL    HW267166   7.904   6.515   3.869  0.0229  0.9885 -1.2784
21909SOL     OW67167   4.163   6.068   5.302  0.5006 -0.2092 -0.1434
21909SOL    HW167168   4.189   6.141   5.358 -1.9777  1.0550 -0.4861
21909SOL    HW267169   4.138   5.999   5.363  1.8736 -0.4154  0.2069
21910SOL     OW67170   7.257   6.394   3.022  0.4025 -0.1975 -0.4454
21910SOL    HW167171   7.244   6.390   2.927  0.6307  1.7800 -0.6006
21910SOL    HW267172   7.224   6.310   3.054 -2.5661  0.2418 -1.9634
21911SOL     OW67173   7.486   0.564   6.172  0.4571 -0.8854  0.4707
21911SOL    HW167174   7.400   0.583   6.134  0.2249 -0.9837  0.9386
21911SOL    HW267175   7.467   0.514   6.252  0.8910 -0.0346  1.1309
21912SOL     OW67176   7.545   1.104   5.413  0.0901  0.4876  0.2645
21912SOL    HW167177   7.556   1.119   5.320  0.3959  0.9132  0.3705
21912SOL    HW267178   7.546   1.008   5.422  0.9067  0.4608 -0.0587
21913SOL     OW67179   6.343   7.122   3.878 -0.1066  0.1786  0.1993
21913SOL    HW167180   6.260   7.149   3.841  0.0757 -2.5928 -2.6168
21913SOL    HW267181   6.320   7.070   3.955 -1.2424 -2.5313 -1.8618
21914SOL     OW67182   7.566   5.908   3.058  0.5043  0.0282  0.6345
21914SOL    HW167183   7.613   5.835   3.019  0.0472  0.1575 -0.1690
21914SOL    HW267184   7.599   5.985   3.013  0.7188  0.2856  1.2222
21915SOL     OW67185   6.091   6.650   3.619 -0.4833 -0.1357  0.1708
21915SOL    HW167186   6.093   6.687   3.707 -1.3028  5.6583 -1.7552
21915SOL    HW267187   5.998   6.634   3.601 -0.2097 -2.6421  0.6571
21916SOL     OW67188   5.446   5.485   5.556  0.2869  0.0373 -0.0793
21916SOL    HW167189   5.525   5.468   5.504  1.2584 -1.1853  1.6773
21916SOL    HW267190   5.458   5.573   5.590  0.7077 -0.0019 -0.1245
21917SOL     OW67191   0.333   0.319   4.374 -0.7085  0.4726 -0.0857
21917SOL    HW167192   0.268   0.253   4.349  1.4521 -1.8748  0.0999
21917SOL    HW267193   0.306   0.348   4.461 -1.4540 -0.5076  0.0231
21918SOL     OW67194   5.336   6.309   4.355 -0.1961  0.5895 -0.0143
21918SOL    HW167195   5.348   6.403   4.369 -0.4290  0.8989 -1.6839
21918SOL    HW267196   5.422   6.277   4.328 -0.7212  0.8927 -2.1957
21919SOL     OW67197   6.108   5.982   5.608 -0.3949 -0.0503 -0.1457
21919SOL    HW167198   6.073   5.958   5.693  0.1741  0.1102  0.1429
21919SOL    HW267199   6.096   6.077   5.602  0.6217  0.1121  0.2607
21920SOL     OW67200   4.941   0.018   2.962  0.2439  0.5314 -0.5927
21920SOL    HW167201   4.952  -0.065   2.915 -1.5948 -0.1754  0.1385
21920SOL    HW267202   4.926  -0.008   3.053 -0.6419  1.6526 -0.3968
21921SOL     OW67203   3.898   0.089   3.738 -0.3746 -0.4763 -0.3417
21921SOL    HW167204   3.905  -0.007   3.732  0.9841 -0.8011  3.5152
21921SOL    HW267205   3.989   0.119   3.731 -0.3894  0.1579  1.7335
21922SOL     OW67206   6.224   6.120   3.542 -0.2555 -0.0212 -0.1022
21922SOL    HW167207   6.154   6.186   3.543  0.9133  1.3599 -2.2588
21922SOL    HW267208   6.217   6.078   3.456  0.6739 -0.8832  0.2152
21923SOL     OW67209   5.665   0.302   2.951 -0.7873  0.6899 -0.1213
21923SOL    HW167210   5.608   0.245   2.900  1.2923 -0.9475 -0.7255
21923SOL    HW267211   5.645   0.281   3.043  0.3920 -1.5714 -0.3197
21924SOL     OW67212   5.456   6.934   5.610 -0.0457  0.0716  0.5948
21924SOL    HW167213   5.376   6.932   5.558  0.4198 -3.2335 -0.2236
21924SOL    HW267214   5.519   6.982   5.557 -0.4643 -0.5972 -0.5375
21925SOL     OW67215   0.702   7.368   3.556  0.2676  0.5195  0.2122
21925SOL    HW167216   0.683   7.462   3.555 -0.9972  0.2832 -1.1617
21925SOL    HW267217   0.797   7.363   3.542  0.1109  1.5759 -1.4971
21926SOL     OW67218   5.993   0.631   5.100 -0.7658 -0.1087  0.0176
21926SOL    HW167219   5.940   0.678   5.165  0.4531  1.6039 -0.1503
21926SOL    HW267220   5.944   0.641   5.019  0.6615  3.2950 -0.5826
21927SOL     OW67221   6.109   5.397   4.713  0.4921 -0.0337  0.3054
21927SOL    HW167222   6.061   5.348   4.780  2.2191  1.1957  2.5965
21927SOL    HW267223   6.153   5.330   4.661 -0.2294 -1.0133  0.9168
21928SOL     OW67224   6.425   5.950   6.184  0.3353 -0.1580  0.0481
21928SOL    HW167225   6.411   5.984   6.273 -2.8419 -1.3821  0.1479
21928SOL    HW267226   6.360   5.997   6.131  0.6378 -1.0962 -1.1816
21929SOL     OW67227   7.836   4.655   5.155  0.4864 -0.1725  0.3588
21929SOL    HW167228   7.824   4.561   5.149  0.8659 -0.1278 -2.0385
21929SOL    HW267229   7.929   4.666   5.178  0.1796 -0.3474  1.7914
21930SOL     OW67230   7.310   6.174   3.828 -0.0985 -0.5262 -0.2934
21930SOL    HW167231   7.343   6.191   3.740  0.4872 -0.0173  0.0139
21930SOL    HW267232   7.215   6.175   3.819 -0.1083  1.6990 -0.5591
21931SOL     OW67233   5.926   6.545   4.806  0.8162 -0.2306  0.1185
21931SOL    HW167234   5.837   6.577   4.819  1.1131 -0.1798  2.3704
21931SOL    HW267235   5.932   6.467   4.861  1.5781 -1.4253 -1.5679
21932SOL     OW67236   7.267   6.042   2.307 -0.1258 -0.4076 -0.2741
21932SOL    HW167237   7.271   6.131   2.342 -0.1756 -0.1116 -0.9863
21932SOL    HW267238   7.186   6.041   2.256 -1.0785 -1.4284  1.1824
21933SOL     OW67239   7.264   5.730   5.631 -0.4018  0.3170 -0.5470
21933SOL    HW167240   7.267   5.637   5.654  1.1908  0.4355 -0.1585
21933SOL    HW267241   7.174   5.757   5.653 -0.7673 -1.0243 -0.2849
21934SOL     OW67242   5.456   6.196   5.702 -0.2292  0.0161  0.0934
21934SOL    HW167243   5.409   6.127   5.655 -1.5711  1.7619 -1.2446
21934SOL    HW267244   5.396   6.225   5.770  0.6251 -0.5921  1.1447
21935SOL     OW67245   0.677   7.154   4.797  0.0383 -0.5448  0.4617
21935SOL    HW167246   0.748   7.189   4.851 -0.6862  0.6691  0.6809
21935SOL    HW267247   0.716   7.082   4.748  1.2145 -0.3865  1.1402
21936SOL     OW67248   4.070   6.019   5.742 -0.5363 -0.2904 -0.0924
21936SOL    HW167249   4.121   5.975   5.674  0.9529  1.4599 -0.1970
21936SOL    HW267250   4.095   5.974   5.823 -1.0590 -1.3147 -0.4908
21937SOL     OW67251   7.069   6.723   3.248  0.2231  0.2020  0.4933
21937SOL    HW167252   6.997   6.750   3.305  0.9785 -0.3380  1.7324
21937SOL    HW267253   7.040   6.748   3.160 -1.5107 -0.0618  0.9482
21938SOL     OW67254   5.334   7.400   4.619 -0.9266 -0.2897 -0.5222
21938SOL    HW167255   5.326   7.494   4.603 -1.5355 -0.1667  0.4455
21938SOL    HW267256   5.327   7.360   4.532 -0.1491  0.5809 -1.0006
21939SOL     OW67257   7.205   7.696   5.330  0.0782  0.1741 -0.0786
21939SOL    HW167258   7.231   7.769   5.274 -1.0357  0.4859 -0.2209
21939SOL    HW267259   7.157   7.738   5.402 -0.1603 -0.3791  0.0882
21940SOL     OW67260   6.202   6.410   5.369 -0.5842  0.4315  0.1728
21940SOL    HW167261   6.192   6.483   5.431 -2.3029  1.1382 -0.8562
21940SOL    HW267262   6.294   6.411   5.346 -0.2829  1.3597  1.2789
21941SOL     OW67263   6.150   5.853   4.791  0.3927 -0.2671 -0.6305
21941SOL    HW167264   6.179   5.869   4.701  1.1538 -0.2332 -0.3890
21941SOL    HW267265   6.058   5.830   4.783  0.1000  1.0192 -1.3077
21942SOL     OW67266   5.770   5.838   3.913 -0.5479 -0.4535 -0.0156
21942SOL    HW167267   5.822   5.788   3.976 -0.8920  0.3185  0.8946
21942SOL    HW267268   5.740   5.915   3.961 -0.1184  0.6039 -1.3454
21943SOL     OW67269   7.104   6.607   4.803 -0.1424 -0.2349  0.6392
21943SOL    HW167270   7.168   6.537   4.795  0.3169  0.3364 -1.0570
21943SOL    HW267271   7.084   6.632   4.713 -2.5666 -0.1985  1.1096
21944SOL     OW67272   5.816   0.470   4.886  0.7918 -0.2952  0.3282
21944SOL    HW167273   5.757   0.406   4.926  0.9121 -0.5906  0.0360
21944SOL    HW267274   5.898   0.423   4.873  0.2849 -0.7253 -1.7370
21945SOL     OW67275   5.675   7.620   4.932  0.0662 -0.4065 -0.2659
21945SOL    HW167276   5.717   7.574   4.859  1.5225  0.8867 -0.3009
21945SOL    HW267277   5.741   7.683   4.961 -1.1854  0.3874  0.9542
21946SOL     OW67278   7.124   5.854   5.073  0.4663 -0.0622 -0.3064
21946SOL    HW167279   7.107   5.797   4.998  2.7566  1.0243 -1.7697
21946SOL    HW267280   7.126   5.794   5.148  0.2617 -1.5137 -1.4187
21947SOL     OW67281   5.669   4.520   4.961 -0.3235  0.2124 -0.2541
21947SOL    HW167282   5.636   4.541   4.874 -1.6747  1.0028  0.4265
21947SOL    HW267283   5.590   4.499   5.012  0.2770  1.3142  1.1940
21948SOL     OW67284   5.192   7.276   4.311 -0.0141  0.5817  0.0137
21948SOL    HW167285   5.133   7.210   4.346 -0.9197  1.1836 -0.3560
21948SOL    HW267286   5.280   7.245   4.336 -0.4628 -0.3925  0.4354
21949SOL     OW67287   4.910   7.836   5.730  0.0782  0.0832  0.3195
21949SOL    HW167288   4.862   7.775   5.673  0.0501  1.0698 -0.7495
21949SOL    HW267289   4.885   7.923   5.698  0.9737  0.6426  1.1007
21950SOL     OW67290   6.865   0.297   5.110  0.3495  0.4199 -0.1738
21950SOL    HW167291   6.814   0.373   5.140  0.7800  1.8189 -2.6821
21950SOL    HW267292   6.807   0.250   5.051 -0.1090 -1.6479  1.7764
21951SOL     OW67293   5.884   6.529   4.154 -0.1709 -0.0814  0.2507
21951SOL    HW167294   5.953   6.463   4.165  1.6068  1.8545  1.6132
21951SOL    HW267295   5.890   6.554   4.062 -0.6155 -1.5074 -0.1916
21952SOL     OW67296   4.591   0.262   4.050  0.1818 -0.4607  0.5086
21952SOL    HW167297   4.681   0.292   4.055 -0.6668  2.3001  0.6694
21952SOL    HW267298   4.585   0.192   4.115  1.8425  0.3393  1.5865
21953SOL     OW67299   5.121   6.641   3.506 -0.4354  0.1847  0.5805
21953SOL    HW167300   5.055   6.581   3.471 -1.7379  1.6506  0.3852
21953SOL    HW267301   5.180   6.585   3.556 -3.0064 -1.0378  2.5333
21954SOL     OW67302   6.011   6.247   5.144  0.7923  0.4317  0.4309
21954SOL    HW167303   5.920   6.235   5.116  1.2080 -0.7997 -0.4858
21954SOL    HW267304   6.063   6.209   5.073  1.9931  0.0697  1.4649
21955SOL     OW67305   6.679   6.122   5.583  0.8607 -0.5017 -0.1444
21955SOL    HW167306   6.637   6.137   5.667  1.7212 -1.2501  0.4382
21955SOL    HW267307   6.706   6.030   5.585  3.6283  0.2124  0.0494
21956SOL     OW67308   6.872   6.762   3.435  0.3814 -0.0682  0.5702
21956SOL    HW167309   6.932   6.811   3.491  0.6555 -0.4772  0.6385
21956SOL    HW267310   6.817   6.712   3.496  0.3553 -0.1403  0.4882
21957SOL     OW67311   4.086   0.180   6.450  0.0685 -0.8098  0.2754
21957SOL    HW167312   4.156   0.217   6.396  0.3998 -1.7473  0.0498
21957SOL    HW267313   4.006   0.221   6.416  0.6103  1.4383  1.5308
21958SOL     OW67314   5.264   5.865   4.864 -0.5424 -0.3140  0.2059
21958SOL    HW167315   5.331   5.817   4.815  1.0245  2.0522 -0.1216
21958SOL    HW267316   5.190   5.872   4.803  0.1608 -0.1853 -0.6628
21959SOL     OW67317   5.316   7.251   4.857 -0.0238 -0.4841 -0.0431
21959SOL    HW167318   5.251   7.299   4.908  0.8699  0.8499 -0.1310
21959SOL    HW267319   5.332   7.306   4.781  1.7365 -0.4491  0.3290
21960SOL     OW67320   4.510   5.983   3.478 -0.4893  0.1721 -0.5957
21960SOL    HW167321   4.452   5.933   3.536  3.4119 -2.6348  1.3550
21960SOL    HW267322   4.516   6.069   3.519 -0.6939 -0.5886  1.1406
21961SOL     OW67323   4.764   7.019   5.901  0.7327 -0.2315 -0.1490
21961SOL    HW167324   4.825   6.946   5.892 -1.0328 -1.7191 -0.6247
21961SOL    HW267325   4.735   7.014   5.992 -0.9999 -1.5269 -0.7259
21962SOL     OW67326   6.258   0.804   5.472 -0.4942  0.1492  0.7292
21962SOL    HW167327   6.269   0.758   5.555  1.8689  1.3510  1.1570
21962SOL    HW267328   6.236   0.894   5.496 -0.1886  0.4149  0.0642
21963SOL     OW67329   5.103   7.101   5.071  0.2603 -0.3226 -0.0257
21963SOL    HW167330   5.141   7.151   5.143  2.1938 -0.7877 -0.6417
21963SOL    HW267331   5.076   7.167   5.007  0.6366  0.0294  0.1733
21964SOL     OW67332   0.743   7.625   6.470  0.0009 -0.1239 -0.3606
21964SOL    HW167333   0.743   7.532   6.447 -0.9526  0.1796 -1.7517
21964SOL    HW267334   0.742   7.627   6.565 -1.9441 -1.5732 -0.3040
21965SOL     OW67335   7.438   7.838   6.001 -0.0349 -0.5848  0.5320
21965SOL    HW167336   7.475   7.835   6.090 -0.3703 -0.2102  0.6873
21965SOL    HW267337   7.386   7.758   5.994 -2.0935  0.5861  1.6082
21966SOL     OW67338   5.586   7.260   4.695  0.8053  0.4098  0.7261
21966SOL    HW167339   5.519   7.281   4.760 -0.0052  0.5010 -0.1101
21966SOL    HW267340   5.614   7.346   4.662  0.1804  0.3259 -0.0484
21967SOL     OW67341   6.704   6.466   4.451  0.1634  0.4357 -0.6197
21967SOL    HW167342   6.748   6.406   4.512  1.5283  1.1542 -0.8699
21967SOL    HW267343   6.613   6.466   4.481  0.5566 -0.1433  0.6897
21968SOL     OW67344   6.292   6.344   6.279  0.9187 -0.1737  0.1458
21968SOL    HW167345   6.209   6.316   6.318 -0.0415  2.6587  0.3164
21968SOL    HW267346   6.358   6.318   6.343  0.2411 -2.3545  0.0712
21969SOL     OW67347   5.211   6.672   3.113 -0.9724  0.2219 -0.7663
21969SOL    HW167348   5.305   6.693   3.113 -0.7339 -0.7993 -0.5802
21969SOL    HW267349   5.199   6.617   3.036 -0.6177 -2.9484  1.2727
21970SOL     OW67350   6.411   6.885   2.674 -0.1349  0.0063 -0.0008
21970SOL    HW167351   6.369   6.910   2.592  0.8961  5.3005  0.7110
21970SOL    HW267352   6.497   6.852   2.648 -0.3901  0.1828 -1.1017
21971SOL     OW67353   6.118   6.040   5.324  0.7181  0.2511  0.1068
21971SOL    HW167354   6.087   5.957   5.360  1.4045 -0.1629 -0.2309
21971SOL    HW267355   6.130   6.022   5.231 -0.1205  1.0359 -0.1596
21972SOL     OW67356   6.187   6.798   2.933 -0.2212  0.3201 -0.6946
21972SOL    HW167357   6.139   6.825   3.012 -0.5770  0.3749 -0.9267
21972SOL    HW267358   6.222   6.879   2.897 -1.7650  0.5870 -1.7044
21973SOL     OW67359   6.202   6.962   6.196 -0.5536 -0.5186 -0.0684
21973SOL    HW167360   6.199   6.897   6.127 -0.3840 -2.4558  1.6636
21973SOL    HW267361   6.291   6.956   6.232 -0.5474  0.6398  0.1568
21974SOL     OW67362   0.494   5.887   5.783  0.6621  0.2283  0.2161
21974SOL    HW167363   0.566   5.945   5.759 -0.2620  1.4191  0.2474
21974SOL    HW267364   0.458   5.857   5.700  0.0148  1.1400  0.1552
21975SOL     OW67365   5.183   4.563   3.806  0.7280 -0.5509  0.1199
21975SOL    HW167366   5.245   4.567   3.878 -0.2176 -1.8507  1.0557
21975SOL    HW267367   5.131   4.642   3.814  1.3706 -0.1187  0.1343
21976SOL     OW67368   6.560   6.602   2.422 -0.0665  0.5787 -0.6295
21976SOL    HW167369   6.528   6.619   2.333  1.9453 -1.7687 -1.9100
21976SOL    HW267370   6.558   6.507   2.430  1.4414  0.6499  1.1860
21977SOL     OW67371   6.968   0.467   4.090 -0.4692 -0.2708 -0.4656
21977SOL    HW167372   7.041   0.418   4.051 -1.0386 -1.9683  0.5086
21977SOL    HW267373   6.934   0.409   4.158 -1.7285  1.1603  0.1753
21978SOL     OW67374   7.685   6.240   4.100  0.0982 -0.2511 -0.5278
21978SOL    HW167375   7.712   6.285   4.180  0.4994  0.3482 -0.9916
21978SOL    HW267376   7.612   6.185   4.127  0.1151  0.0799  0.2172
21979SOL     OW67377   6.836   0.288   4.267  0.3299 -0.3276 -0.3789
21979SOL    HW167378   6.847   0.194   4.282 -0.6659 -0.6551 -1.6162
21979SOL    HW267379   6.804   0.321   4.351 -2.7276 -1.7002 -0.8775
21980SOL     OW67380   5.309   0.199   5.018  0.4473 -0.4561  0.0590
21980SOL    HW167381   5.356   0.281   5.035  0.3008 -0.1300 -1.0210
21980SOL    HW267382   5.220   0.215   5.048  0.9292 -1.0021  1.9165
21981SOL     OW67383   7.537   1.635   3.761  0.3193 -0.2437  0.1752
21981SOL    HW167384   7.533   1.541   3.778 -0.1928 -0.2319  0.1552
21981SOL    HW267385   7.488   1.646   3.679 -0.6995  0.1802  0.8175
21982SOL     OW67386   6.534   7.345   4.501  0.2030 -0.6780  0.2537
21982SOL    HW167387   6.546   7.413   4.436  0.0870  0.4170  1.3506
21982SOL    HW267388   6.495   7.389   4.576  3.0474 -1.2453  2.2245
21983SOL     OW67389   6.321   6.040   4.975  0.7846  0.2701  0.2347
21983SOL    HW167390   6.393   6.062   4.916 -0.3843  0.1347 -1.2936
21983SOL    HW267391   6.242   6.067   4.929 -0.2694 -1.1362  1.1109
21984SOL     OW67392   5.558   7.741   3.665 -0.4264  0.4046 -0.4738
21984SOL    HW167393   5.516   7.694   3.737 -0.5577 -0.6448 -1.2093
21984SOL    HW267394   5.601   7.673   3.614 -0.2988  1.1292 -1.3646
21985SOL     OW67395   1.226   6.909   3.910  0.7767  1.3961  0.5405
21985SOL    HW167396   1.280   6.833   3.888 -0.1363  1.6129 -3.1469
21985SOL    HW267397   1.269   6.982   3.865 -1.1878  2.0170 -0.4178
21986SOL     OW67398   5.898   6.966   5.148  0.3623  0.4207  0.7825
21986SOL    HW167399   5.937   7.028   5.085 -0.4172 -0.4579 -0.6027
21986SOL    HW267400   5.885   7.019   5.227 -1.2178  2.3593 -0.6564
21987SOL     OW67401   6.641   5.653   5.063 -0.5189 -0.0992  0.2169
21987SOL    HW167402   6.696   5.685   4.992 -0.4363 -0.0967  0.2823
21987SOL    HW267403   6.656   5.714   5.135 -0.5138 -0.1690  0.2751
21988SOL     OW67404   3.778   6.010   1.791 -0.2413 -0.1279  0.2390
21988SOL    HW167405   3.846   6.045   1.733 -0.8758  0.4523 -0.1758
21988SOL    HW267406   3.815   6.019   1.879 -0.3909  1.7048  0.1646
21989SOL     OW67407   6.961   6.826   4.293 -0.5803  0.3034  0.0057
21989SOL    HW167408   6.983   6.843   4.201 -1.0261 -3.7035 -1.0027
21989SOL    HW267409   6.869   6.800   4.290 -0.7197  0.5362  1.6942
21990SOL     OW67410   5.359   5.134   4.027  0.2248  0.1146  0.8148
21990SOL    HW167411   5.300   5.069   4.066  0.4421  0.5542  1.9276
21990SOL    HW267412   5.422   5.154   4.097  0.9565  0.5454  0.0514
21991SOL     OW67413   6.904   6.534   5.843  0.0674 -0.2611 -0.0353
21991SOL    HW167414   6.911   6.463   5.780  0.4072  0.4187 -0.7905
21991SOL    HW267415   6.973   6.595   5.818 -0.5956  0.6217  0.2286
21992SOL     OW67416   6.104   7.432   4.697  0.1604  0.1819 -0.2440
21992SOL    HW167417   6.195   7.460   4.693  0.0236  0.5017 -2.0351
21992SOL    HW267418   6.103   7.347   4.653 -0.3282 -0.0378  0.1884
21993SOL     OW67419   6.480   7.693   5.151 -0.3002 -0.4691 -0.9072
21993SOL    HW167420   6.405   7.634   5.155  0.6343 -1.6196  0.1349
21993SOL    HW267421   6.524   7.682   5.235 -0.4216  2.1807 -0.3868
21994SOL     OW67422   6.496   5.118   5.579  0.1910 -0.4974 -0.0619
21994SOL    HW167423   6.530   5.145   5.665  1.2192  0.5606 -0.7720
21994SOL    HW267424   6.434   5.187   5.555 -2.5082 -2.3279  1.1459
21995SOL     OW67425   6.210   6.502   4.073 -0.1597 -0.6045 -0.0001
21995SOL    HW167426   6.191   6.422   4.122 -0.7492 -0.9587 -0.7849
21995SOL    HW267427   6.258   6.557   4.135 -0.1031 -1.3975  0.6810
21996SOL     OW67428   6.041   0.253   4.896 -0.5920 -0.2677 -0.0227
21996SOL    HW167429   6.092   0.180   4.860 -2.2499 -0.7528 -1.5634
21996SOL    HW267430   5.977   0.211   4.954  0.3273  0.2819  1.4479
21997SOL     OW67431   7.102   6.714   5.780  0.1104  0.5726  0.1440
21997SOL    HW167432   7.099   6.762   5.698 -2.1988  0.5183  0.1357
21997SOL    HW267433   7.094   6.781   5.848  1.7650  0.5944  0.3601
21998SOL     OW67434   6.604   7.692   5.414 -0.0649  0.3952 -0.3499
21998SOL    HW167435   6.526   7.696   5.469 -0.6836  2.4244 -1.2898
21998SOL    HW267436   6.677   7.695   5.475 -0.7221  0.1092  0.4671
21999SOL     OW67437   4.225   6.151   3.997 -0.8776 -0.5703  0.2803
21999SOL    HW167438   4.138   6.148   4.037 -0.2389 -1.1269  1.7050
21999SOL    HW267439   4.285   6.136   4.070  0.4272 -0.0637 -0.6553
22000SOL     OW67440   0.410   6.612   5.248 -0.1593 -0.3426  0.4517
22000SOL    HW167441   0.408   6.526   5.291 -0.0980 -0.0379  1.0742
22000SOL    HW267442   0.357   6.668   5.305  0.1859  0.1431  0.3011
22001SOL     OW67443   7.538   6.615   3.542  0.1540  0.2850  0.5375
22001SOL    HW167444   7.580   6.571   3.469 -1.0561  1.1953 -0.7653
22001SOL    HW267445   7.578   6.703   3.543  0.4389  0.1569  1.2314
22002SOL     OW67446   6.180   6.714   4.662  0.3012  0.7625 -0.1798
22002SOL    HW167447   6.193   6.680   4.750 -1.1117  0.9522  0.1300
22002SOL    HW267448   6.263   6.757   4.640  0.4534  1.2713  1.3127
22003SOL     OW67449   6.924   0.125   3.653  0.0444 -0.0236  0.3696
22003SOL    HW167450   6.964   0.168   3.577 -1.3422  1.7312  0.5641
22003SOL    HW267451   6.912   0.034   3.626  0.4396  0.3538 -1.1598
22004SOL     OW67452   6.462   5.749   4.526 -0.2195 -0.3345 -0.6946
22004SOL    HW167453   6.500   5.662   4.536  2.5323  0.8992  0.4337
22004SOL    HW267454   6.442   5.756   4.433  3.9285 -0.5680 -1.7973
22005SOL     OW67455   6.872   5.259   2.625  0.4111 -0.2198  0.1142
22005SOL    HW167456   6.813   5.234   2.554  1.3748 -0.6389 -0.5581
22005SOL    HW267457   6.823   5.325   2.675 -0.4937 -0.3262 -0.6106
22006SOL     OW67458   6.800   7.993   3.322  0.2118 -0.4315  0.3158
22006SOL    HW167459   6.739   8.067   3.322 -0.3328 -0.8670 -0.2641
22006SOL    HW267460   6.862   8.014   3.252 -0.4910 -0.9450 -0.4847
22007SOL     OW67461   7.181   7.426   5.508 -0.2881  0.1582  0.4063
22007SOL    HW167462   7.250   7.361   5.509 -0.0033  0.4594  1.6545
22007SOL    HW267463   7.226   7.509   5.494 -0.4292  0.3183  0.8836
22008SOL     OW67464   4.073   7.284   2.821  0.3295 -0.4882  0.1990
22008SOL    HW167465   4.026   7.227   2.760 -0.4119 -0.6891  0.9280
22008SOL    HW267466   4.023   7.278   2.902  1.5363 -0.5720  0.9617
22009SOL     OW67467   6.671   6.759   4.781  0.0381  0.3502  0.1080
22009SOL    HW167468   6.743   6.756   4.845 -0.2226 -0.6448  0.3739
22009SOL    HW267469   6.713   6.788   4.700  0.3646  1.6791  0.7272
22010SOL     OW67470   0.043   5.061   5.782 -0.0071 -0.1303  0.1384
22010SOL    HW167471  -0.011   4.984   5.766 -0.7861  0.5693 -0.6765
22010SOL    HW267472  -0.019   5.134   5.784  0.8988  0.7036 -0.8792
22011SOL     OW67473   6.300   5.780   3.842 -0.4643 -0.0373 -0.8030
22011SOL    HW167474   6.294   5.687   3.819 -0.2900  0.3473 -2.4767
22011SOL    HW267475   6.251   5.826   3.774  0.2919  1.1752 -0.5690
22012SOL     OW67476   6.738   6.873   3.663 -0.2822 -0.2175 -0.2469
22012SOL    HW167477   6.816   6.914   3.625 -0.2754 -0.7766 -0.8708
22012SOL    HW267478   6.767   6.785   3.688 -0.4654 -0.0868  0.4498
22013SOL     OW67479   6.318   5.632   3.363  0.0888  0.3751 -0.3059
22013SOL    HW167480   6.257   5.577   3.413 -1.0135  1.1260 -0.7783
22013SOL    HW267481   6.292   5.619   3.271 -0.3128  1.7996 -0.4144
22014SOL     OW67482   6.531   1.569   4.467 -0.5063 -0.0590 -0.6714
22014SOL    HW167483   6.465   1.622   4.512 -0.0583  0.7927 -0.9940
22014SOL    HW267484   6.549   1.496   4.527 -1.1185  0.1627 -0.2127
22015SOL     OW67485   5.148   6.615   7.088 -0.0025  0.1021  0.1483
22015SOL    HW167486   5.053   6.604   7.092 -0.1483  1.1554  0.0449
22015SOL    HW267487   5.172   6.589   6.999 -0.2932  0.4219 -0.0273
22016SOL     OW67488   5.855   6.336   3.435  0.0105 -0.3928 -0.2549
22016SOL    HW167489   5.921   6.378   3.380  1.0727 -2.2964 -0.5418
22016SOL    HW267490   5.903   6.309   3.513 -0.5862 -1.1291 -0.1249
22017SOL     OW67491   6.790   6.586   3.727 -0.0550 -0.1257 -0.7409
22017SOL    HW167492   6.802   6.611   3.818 -1.4306  0.3526 -0.6759
22017SOL    HW267493   6.877   6.556   3.699  0.4714  0.0813  0.6000
22018SOL     OW67494   6.812   6.062   4.320  0.2370 -0.0535 -0.4821
22018SOL    HW167495   6.868   6.078   4.396 -0.8493  0.6925  0.1819
22018SOL    HW267496   6.784   5.971   4.329  0.1922  0.0041 -0.0626
22019SOL     OW67497   1.505   5.456   3.155  0.4330  0.0992  0.8197
22019SOL    HW167498   1.478   5.501   3.235  0.9105 -0.8091  1.5161
22019SOL    HW267499   1.438   5.478   3.091  0.6737  1.8239  1.1066
22020SOL     OW67500   6.476   5.798   3.551 -0.5624 -0.1395 -0.1748
22020SOL    HW167501   6.568   5.772   3.544  0.1963  1.6969  1.7081
22020SOL    HW267502   6.436   5.767   3.470  1.7709 -0.7581 -1.1873
22021SOL     OW67503   6.828   6.414   4.220 -0.2952 -0.2197 -0.8320
22021SOL    HW167504   6.787   6.435   4.303  0.7271  1.7317 -0.7759
22021SOL    HW267505   6.763   6.360   4.174 -0.8837 -1.2914  1.1716
22022SOL     OW67506   4.133   5.561   4.116 -1.1336 -0.0601  0.1032
22022SOL    HW167507   4.186   5.515   4.050  1.1415  1.8898  0.4525
22022SOL    HW267508   4.100   5.491   4.172 -0.9801 -1.5529 -1.5657
22023SOL     OW67509   6.380   0.288   4.783  0.1999  0.5115 -0.7553
22023SOL    HW167510   6.438   0.250   4.848  0.1316 -0.0735 -1.0274
22023SOL    HW267511   6.416   0.260   4.699 -0.0471  0.7689 -0.9497
22024SOL     OW67512   7.100   5.472   6.621 -0.6493  0.2962  0.4594
22024SOL    HW167513   7.008   5.447   6.607 -0.0231 -1.3481 -1.2246
22024SOL    HW267514   7.106   5.559   6.582 -0.8175 -0.9743 -2.7930
22025SOL     OW67515   6.053   6.463   7.181  0.1992  0.3968 -0.0782
22025SOL    HW167516   6.086   6.489   7.267  1.0051  0.0178 -0.2728
22025SOL    HW267517   6.050   6.545   7.131  2.7557  0.1931 -0.6975
22026SOL     OW67518   5.698   5.215   6.097  0.5384  0.0626  0.2153
22026SOL    HW167519   5.780   5.165   6.103  0.6665  0.0808 -1.0643
22026SOL    HW267520   5.673   5.232   6.188 -1.3043 -5.1331  0.9866
22027SOL     OW67521   6.324   5.423   4.871 -0.4264 -0.0871  0.2104
22027SOL    HW167522   6.247   5.438   4.818  0.4897  0.7437 -0.9285
22027SOL    HW267523   6.397   5.424   4.809  0.8203  2.0879  1.5711
22028SOL     OW67524   5.910   6.874   6.074  0.3247 -0.1565  0.0772
22028SOL    HW167525   5.972   6.937   6.036  0.3706 -1.2971 -1.8626
22028SOL    HW267526   5.948   6.788   6.055 -1.5205 -0.8719 -0.5853
22029SOL     OW67527   6.345   7.586   5.579  0.0075 -0.1710  0.2376
22029SOL    HW167528   6.275   7.571   5.643  0.6951 -0.0809  1.0377
22029SOL    HW267529   6.420   7.540   5.616  0.5171  0.2000 -0.3284
22030SOL     OW67530   6.266   7.026   5.238 -0.5880 -0.1849  0.2196
22030SOL    HW167531   6.358   6.998   5.241  0.0197  1.2487 -2.3219
22030SOL    HW267532   6.217   6.945   5.223  0.3667 -0.8161  0.3995
22031SOL     OW67533   6.479   6.656   6.097 -0.4274 -0.3088  0.0705
22031SOL    HW167534   6.572   6.635   6.092  0.0139  1.2958  0.7868
22031SOL    HW267535   6.457   6.690   6.010 -0.5789 -1.4993 -0.3693
22032SOL     OW67536   6.049   5.676   8.415 -0.0851 -0.4453 -0.0524
22032SOL    HW167537   6.097   5.595   8.397  0.7657 -0.2066  1.0219
22032SOL    HW267538   5.993   5.654   8.489  0.5342  0.0634  0.5900
22033SOL     OW67539   5.877   6.486   5.242 -0.2496  0.3085 -0.5690
22033SOL    HW167540   5.920   6.571   5.237 -0.7321  0.5135 -1.3017
22033SOL    HW267541   5.944   6.423   5.215  0.4068  0.3353  0.8889
22034SOL     OW67542   7.313   5.876   6.438  0.8406  0.3694 -0.1600
22034SOL    HW167543   7.318   5.858   6.344  1.0469 -0.5022  0.0046
22034SOL    HW267544   7.318   5.971   6.445  0.2668  0.4778 -1.0655
22035SOL     OW67545   5.864   6.812   6.658  0.2118  0.5857 -0.0433
22035SOL    HW167546   5.779   6.838   6.623  0.4292 -0.6209 -1.5631
22035SOL    HW267547   5.916   6.788   6.582  1.2836 -0.5247  0.9775
22036SOL     OW67548   7.434   7.420   7.494  1.0749 -0.1955  0.6912
22036SOL    HW167549   7.484   7.501   7.504 -0.7680  1.7102 -3.3028
22036SOL    HW267550   7.487   7.366   7.436  0.3365  0.1782 -0.3696
22037SOL     OW67551   5.945   6.697   6.390  0.4905 -0.2776  0.0968
22037SOL    HW167552   5.860   6.654   6.392  0.3995 -0.0894  1.8703
22037SOL    HW267553   6.007   6.629   6.418  0.8033 -0.1628 -0.3057
22038SOL     OW67554   6.582   4.869   5.525  0.1948 -0.4196 -0.0120
22038SOL    HW167555   6.548   4.821   5.600 -1.7052  0.3938 -0.2892
22038SOL    HW267556   6.545   4.957   5.534 -1.1064 -0.6259 -2.4930
22039SOL     OW67557   5.707   6.216   7.856 -0.5613  0.0496 -0.1160
22039SOL    HW167558   5.748   6.146   7.906  1.0568  1.7692  1.1051
22039SOL    HW267559   5.623   6.230   7.899  0.5780  1.1426  1.9176
22040SOL     OW67560   5.628   6.383   4.699 -0.0478 -0.2014 -0.5322
22040SOL    HW167561   5.618   6.350   4.788 -0.9205  2.8612  0.6158
22040SOL    HW267562   5.552   6.348   4.652 -0.7176 -0.1544  0.4920
22041SOL     OW67563   6.449   5.579   6.369  0.1605 -0.4258 -0.2413
22041SOL    HW167564   6.504   5.508   6.401 -0.8280 -2.7989 -3.3828
22041SOL    HW267565   6.505   5.627   6.307  0.7927  1.6731  1.7826
22042SOL     OW67566   6.750   6.181   6.970  0.4651 -0.2620  0.5500
22042SOL    HW167567   6.843   6.197   6.986  0.4978  2.4301 -1.4256
22042SOL    HW267568   6.706   6.257   7.009 -0.3502  0.8878 -2.3070
22043SOL     OW67569   5.678   5.962   7.428 -0.0333 -0.2226 -0.0301
22043SOL    HW167570   5.634   5.942   7.511 -0.9196 -0.4922 -0.5549
22043SOL    HW267571   5.769   5.935   7.443 -0.5439 -1.8869  0.3000
22044SOL     OW67572   5.815   7.071   4.726 -0.0315  0.7345 -0.2526
22044SOL    HW167573   5.851   7.088   4.813 -3.2066  0.5556  1.2345
22044SOL    HW267574   5.759   7.146   4.708 -1.1630 -0.2794 -1.1368
22045SOL     OW67575   6.113   5.241   5.585 -0.4047  0.0772 -0.5304
22045SOL    HW167576   6.052   5.198   5.644  0.3514 -1.6246 -0.9092
22045SOL    HW267577   6.136   5.173   5.521  2.8049  0.2258  0.3113
22046SOL     OW67578   5.587   5.342   6.307  0.0801  0.0655 -0.1707
22046SOL    HW167579   5.579   5.432   6.337  1.4760 -0.1074  0.8414
22046SOL    HW267580   5.503   5.302   6.328 -0.0842  0.8034  0.6197
22047SOL     OW67581   7.860   6.405   6.806 -0.1696 -0.0749  0.0532
22047SOL    HW167582   7.911   6.386   6.728  0.5135 -1.3056  0.7751
22047SOL    HW267583   7.872   6.499   6.820 -1.2820  0.4276 -1.9733
22048SOL     OW67584   6.074   0.530   5.491  0.4617 -0.3497 -1.0886
22048SOL    HW167585   6.104   0.439   5.497 -0.3809 -0.5370  1.1204
22048SOL    HW267586   6.108   0.572   5.570 -2.7476  0.0825  0.2169
22049SOL     OW67587   1.792   6.261   5.814  0.3448 -0.1494  0.6554
22049SOL    HW167588   1.778   6.348   5.850 -1.9769 -0.8387  1.6352
22049SOL    HW267589   1.820   6.208   5.889  1.0501 -0.4224  0.2149
22050SOL     OW67590   7.035   6.308   6.207 -0.0444 -0.6416 -0.4996
22050SOL    HW167591   6.988   6.379   6.251  0.2403 -1.8530  1.9519
22050SOL    HW267592   7.114   6.350   6.172 -1.0218  0.6621 -1.2148
22051SOL     OW67593   7.689   6.393   6.527  0.0935 -0.3424  0.7108
22051SOL    HW167594   7.692   6.488   6.541  0.1688 -0.4031  1.1230
22051SOL    HW267595   7.647   6.382   6.441 -0.1096  0.0546  0.7580
22052SOL     OW67596   0.636   7.665   4.521 -0.2912 -0.1044  0.1613
22052SOL    HW167597   0.649   7.575   4.490 -0.6039 -0.7999  1.9457
22052SOL    HW267598   0.545   7.669   4.547 -0.9853  1.5337 -2.2013
22053SOL     OW67599   7.129   6.353   5.056 -0.6882 -0.5479 -0.0083
22053SOL    HW167600   7.088   6.360   4.970  2.2123  0.8506 -1.4256
22053SOL    HW267601   7.184   6.275   5.051 -0.5557 -0.5073  0.6239
22054SOL     OW67602   6.859   5.064   5.659 -0.5330 -0.1350  0.3595
22054SOL    HW167603   6.788   5.008   5.689 -0.5052  0.3440  1.3346
22054SOL    HW267604   6.841   5.149   5.698  0.0151  0.2593 -0.2282
22055SOL     OW67605   6.494   7.785   6.945 -0.1465  0.2156 -0.1453
22055SOL    HW167606   6.542   7.863   6.973  0.7485 -0.3620 -0.0216
22055SOL    HW267607   6.543   7.712   6.983 -0.0834 -0.4843 -1.5219
22056SOL     OW67608   6.340   6.442   6.564 -0.2621  0.1233  0.3555
22056SOL    HW167609   6.333   6.503   6.490 -0.2754 -1.3957 -0.9623
22056SOL    HW267610   6.380   6.363   6.526  1.6388  0.0004  2.4320
22057SOL     OW67611   7.524   0.730   7.378  0.3533  0.4191  0.4591
22057SOL    HW167612   7.582   0.772   7.314  2.3419 -2.7607 -0.0341
22057SOL    HW267613   7.568   0.741   7.462  0.1487  0.5507  0.5486
22058SOL     OW67614   6.949   5.371   6.917  0.0258 -0.5850  0.2670
22058SOL    HW167615   7.013   5.309   6.882  0.4305 -0.5071  0.8713
22058SOL    HW267616   6.991   5.410   6.993 -0.6983 -0.4609  0.6151
22059SOL     OW67617   6.519   7.135   5.391  0.5165 -0.6329  0.1729
22059SOL    HW167618   6.573   7.188   5.450  0.1707 -0.9054  0.7368
22059SOL    HW267619   6.436   7.183   5.386  0.4109 -0.8136  0.2115
22060SOL     OW67620   7.461   7.511   5.592 -0.1704  0.0528  0.3081
22060SOL    HW167621   7.452   7.474   5.504  1.9120  1.8239 -0.7664
22060SOL    HW267622   7.449   7.437   5.651 -0.9897 -1.3162 -1.4936
22061SOL     OW67623   6.889   4.662   7.409  0.0067  0.0894 -0.2162
22061SOL    HW167624   6.948   4.643   7.482 -1.0803 -0.2514  0.6064
22061SOL    HW267625   6.846   4.578   7.391  1.7906 -0.3905 -2.7226
22062SOL     OW67626   7.915   4.515   6.424  0.0420 -0.0201 -0.6439
22062SOL    HW167627   7.847   4.451   6.444  0.8769 -0.5952  0.4294
22062SOL    HW267628   7.984   4.465   6.381  1.4353 -0.2366  1.6959
22063SOL     OW67629   7.073   6.717   5.221 -0.5355 -0.2669  0.0933
22063SOL    HW167630   7.073   6.641   5.279  0.7539  0.2551  0.8074
22063SOL    HW267631   7.056   6.791   5.280  1.9206  0.4044  0.0508
22064SOL     OW67632   6.344   4.359   6.254 -0.2315  0.4151 -0.2393
22064SOL    HW167633   6.304   4.392   6.173 -1.8508 -2.6262 -0.8600
22064SOL    HW267634   6.438   4.366   6.239 -0.4459 -1.0209 -2.9250
22065SOL     OW67635   1.307   5.235   7.290  0.1928 -0.5904 -0.1537
22065SOL    HW167636   1.275   5.172   7.225  1.1370 -1.7300  0.4374
22065SOL    HW267637   1.399   5.249   7.267  0.4159 -0.6650  0.6675
22066SOL     OW67638   0.301   6.072   5.898  0.3422  0.2983 -0.1012
22066SOL    HW167639   0.288   6.031   5.983  2.1123  2.0197  1.0862
22066SOL    HW267640   0.339   6.003   5.844 -1.0711 -0.8998  0.3735
22067SOL     OW67641   6.601   5.595   5.844  0.3379  0.6178  0.5031
22067SOL    HW167642   6.576   5.588   5.936  0.3603  0.1807  0.4807
22067SOL    HW267643   6.657   5.518   5.829 -0.6601  0.0080 -0.1878
22068SOL     OW67644   6.047   5.308   6.457  0.1336  0.2184 -0.3240
22068SOL    HW167645   5.957   5.314   6.491  0.9169 -0.4982  2.1558
22068SOL    HW267646   6.059   5.387   6.405 -1.3489  1.3152  0.9015
22069SOL     OW67647   6.246   5.048   7.322  0.5301 -0.1162  0.0708
22069SOL    HW167648   6.233   4.956   7.298 -0.7367  0.1746 -0.4244
22069SOL    HW267649   6.317   5.047   7.386  1.3863 -1.3174 -0.8613
22070SOL     OW67650   6.596   5.968   7.346 -0.1012 -0.1082  0.6534
22070SOL    HW167651   6.682   5.950   7.383  0.0709 -1.9722 -0.5326
22070SOL    HW267652   6.609   5.965   7.251 -1.0964  1.6169  0.4139
22071SOL     OW67653   7.134   4.758   5.303 -0.3466 -0.3445  0.1958
22071SOL    HW167654   7.057   4.763   5.361 -0.8607  0.3855 -0.5388
22071SOL    HW267655   7.134   4.840   5.255  0.0973 -0.9152 -0.8159
22072SOL     OW67656   0.410   5.865   6.422 -0.2407  0.8888 -0.9269
22072SOL    HW167657   0.488   5.910   6.455  0.0153  1.0624 -1.7388
22072SOL    HW267658   0.421   5.774   6.451  0.3719  0.8651 -1.2161
22073SOL     OW67659   7.103   6.112   5.345  0.0661  0.3242 -0.0313
22073SOL    HW167660   7.169   6.053   5.381  0.5599  1.0681  0.3149
22073SOL    HW267661   7.153   6.189   5.319 -0.6066  0.7005 -0.2120
22074SOL     OW67662   5.579   4.154   5.194  0.3253  0.0448  0.3204
22074SOL    HW167663   5.607   4.166   5.284  3.5106  1.1153 -0.6829
22074SOL    HW267664   5.620   4.072   5.166 -1.9133 -1.1287  0.2028
22075SOL     OW67665   6.502   7.316   6.343  0.4418 -0.6286  0.2056
22075SOL    HW167666   6.449   7.250   6.388 -0.4235  0.1098  0.3071
22075SOL    HW267667   6.574   7.333   6.404  0.0420 -0.6499  0.6988
22076SOL     OW67668   7.073   1.779   7.723 -0.1375  0.6076  0.0393
22076SOL    HW167669   7.125   1.806   7.647  0.7487  1.2430  0.8421
22076SOL    HW267670   6.983   1.775   7.691 -0.0296  2.5805 -0.6246
22077SOL     OW67671   6.756   5.797   5.541 -0.0313 -0.2659  0.1978
22077SOL    HW167672   6.837   5.789   5.592  0.0367  3.0931  0.8283
22077SOL    HW267673   6.786   5.803   5.450  0.7895  2.9444  0.5421
22078SOL     OW67674   5.718   7.448   7.290  0.1523 -0.0926 -0.0299
22078SOL    HW167675   5.646   7.389   7.267 -0.7582  1.2944 -0.8316
22078SOL    HW267676   5.769   7.455   7.210 -0.0553  0.6217 -0.1066
22079SOL     OW67677   7.365   5.951   7.208  0.0881 -0.6346 -0.2711
22079SOL    HW167678   7.274   5.980   7.209 -0.2232 -1.5569 -0.6346
22079SOL    HW267679   7.416   6.031   7.222 -0.7063  0.1577 -1.6467
22080SOL     OW67680   7.481   6.079   5.979 -0.0669 -0.1610 -0.2153
22080SOL    HW167681   7.401   6.040   5.943 -0.8500  0.8679  0.3743
22080SOL    HW267682   7.525   6.117   5.903 -0.4292 -0.2126 -0.4530
22081SOL     OW67683   0.292   5.959   7.088 -0.2617  0.5239 -0.3383
22081SOL    HW167684   0.297   5.919   7.001 -1.1268 -0.0835 -0.1287
22081SOL    HW267685   0.289   5.884   7.148 -0.2577  0.9299  0.1709
22082SOL     OW67686   6.757   6.545   6.105  0.2109 -0.6851 -0.0788
22082SOL    HW167687   6.805   6.557   6.024 -0.1124 -0.2054 -0.2005
22082SOL    HW267688   6.822   6.555   6.174  0.1296  0.9477 -0.1998
22083SOL     OW67689   6.299   5.505   6.662  0.0409  0.2204  0.2650
22083SOL    HW167690   6.364   5.555   6.711  2.2533 -0.5986 -1.6244
22083SOL    HW267691   6.272   5.563   6.591 -0.9606  0.3854  0.7726
22084SOL     OW67692   4.462   6.686   5.321 -0.4472 -0.0004 -1.1920
22084SOL    HW167693   4.411   6.624   5.373 -2.3439  1.5187 -1.1185
22084SOL    HW267694   4.411   6.766   5.323  2.2426  1.8519 -0.6587
22085SOL     OW67695   5.829   7.290   6.148  0.8689  0.1213 -0.4809
22085SOL    HW167696   5.800   7.301   6.057  2.1722  0.9351 -0.8197
22085SOL    HW267697   5.790   7.207   6.175 -0.6795  0.5396 -1.3149
22086SOL     OW67698   0.573   4.942   6.492 -0.5239  0.0451 -0.2827
22086SOL    HW167699   0.631   4.900   6.428  1.3511  2.1164 -0.0580
22086SOL    HW267700   0.486   4.936   6.452 -0.0422 -2.2200 -1.1382
22087SOL     OW67701   5.552   6.813   7.004 -0.0099 -0.6045  0.5177
22087SOL    HW167702   5.604   6.755   6.948 -0.1990 -1.6061  1.3384
22087SOL    HW267703   5.575   6.901   6.975 -0.0449 -1.0840 -1.0722
22088SOL     OW67704   5.380   2.379   5.833  0.1669  0.1580  0.2583
22088SOL    HW167705   5.450   2.321   5.863  0.9750  1.2990  0.6565
22088SOL    HW267706   5.349   2.338   5.752  0.5753 -0.9275  0.6259
22089SOL     OW67707   5.632   5.902   4.647 -0.0621  0.4931  0.1562
22089SOL    HW167708   5.557   5.846   4.666 -0.0274 -0.6103 -2.5837
22089SOL    HW267709   5.597   5.991   4.653 -1.4930  0.0074 -0.5747
22090SOL     OW67710   0.159   7.103   7.176  0.3496 -0.2814  0.2209
22090SOL    HW167711   0.229   7.084   7.238  2.3418  0.5798 -1.6087
22090SOL    HW267712   0.177   7.193   7.147 -2.3065  0.4789  0.5905
22091SOL     OW67713   6.025   5.636   4.962 -0.2697 -0.0738 -0.5900
22091SOL    HW167714   6.039   5.598   4.875  1.9930 -0.9201  0.0590
22091SOL    HW267715   5.946   5.592   4.994 -0.1669 -1.0327 -1.5654
22092SOL     OW67716   6.518   7.061   8.955  0.0959 -0.6153  0.0462
22092SOL    HW167717   6.601   7.108   8.967  0.6362 -1.4909 -0.2129
22092SOL    HW267718   6.521   7.030   8.865 -1.2562  0.7310 -0.5055
22093SOL     OW67719   6.944   6.357   7.173 -0.4024 -0.1464  0.3027
22093SOL    HW167720   7.028   6.367   7.128  0.4103  0.2830  1.8450
22093SOL    HW267721   6.897   6.438   7.154 -0.3335 -0.2450 -0.3034
22094SOL     OW67722   6.379   7.241   6.597 -0.3578  0.1529  0.2922
22094SOL    HW167723   6.293   7.200   6.592 -0.8517  1.2178 -0.2686
22094SOL    HW267724   6.364   7.323   6.644  0.6355 -0.3338  1.5307
22095SOL     OW67725   5.588   7.436   6.935  0.3296  0.3479  0.4061
22095SOL    HW167726   5.582   7.355   6.885 -0.7102  0.9818 -0.5461
22095SOL    HW267727   5.590   7.408   7.026  1.4554 -0.7993  0.0625
22096SOL     OW67728   6.512   4.933   4.994 -0.3383 -0.0635  0.1875
22096SOL    HW167729   6.507   4.944   5.089 -1.8119  1.0824  0.0133
22096SOL    HW267730   6.544   5.017   4.962  0.6600 -0.6184 -0.3084
22097SOL     OW67731   5.515   5.808   7.969 -0.1956 -0.1681  0.3231
22097SOL    HW167732   5.553   5.824   7.883 -1.9675 -0.1542 -0.5128
22097SOL    HW267733   5.555   5.727   7.998  0.3756 -0.2197 -0.5508
22098SOL     OW67734   5.974   7.587   5.818 -0.2994  0.3423  0.0414
22098SOL    HW167735   6.007   7.519   5.760  1.4005 -0.5824  1.9731
22098SOL    HW267736   5.923   7.540   5.884 -1.5350  1.2852 -0.1946
22099SOL     OW67737   6.871   5.371   4.638  0.3558  0.3745 -0.0736
22099SOL    HW167738   6.803   5.339   4.578 -0.7432  1.3265  0.6088
22099SOL    HW267739   6.938   5.302   4.637 -0.8429 -0.8464 -0.4005
22100SOL     OW67740   4.915   5.761   5.919  0.2490 -0.3391 -0.0758
22100SOL    HW167741   4.875   5.802   5.843 -0.2951 -1.4477 -0.3941
22100SOL    HW267742   4.987   5.820   5.943 -0.9901  1.2062 -0.0358
22101SOL     OW67743   5.256   6.495   7.470  0.0038 -0.3201  0.1658
22101SOL    HW167744   5.164   6.508   7.445 -0.2261  0.1864  1.2140
22101SOL    HW267745   5.253   6.424   7.534  0.2447  0.1237  0.6842
22102SOL     OW67746   7.671   5.361   6.161  0.3517 -0.2812 -0.6502
22102SOL    HW167747   7.672   5.442   6.212 -0.3192 -1.6686  1.7215
22102SOL    HW267748   7.759   5.355   6.125  0.3177  1.6494 -1.1832
22103SOL     OW67749   5.843   6.423   7.755 -0.5328 -0.0567  0.0399
22103SOL    HW167750   5.785   6.358   7.794  1.0060  0.2569  3.1455
22103SOL    HW267751   5.931   6.394   7.779  0.2565  2.5186  0.5105
22104SOL     OW67752   6.202   5.526   4.482  0.0614  0.0215  0.6870
22104SOL    HW167753   6.160   5.499   4.563 -0.4527  1.1407  0.8129
22104SOL    HW267754   6.165   5.613   4.464 -1.1204 -0.8620 -1.6078
22105SOL     OW67755   5.122   4.859   6.350  0.7091 -0.1999  0.2833
22105SOL    HW167756   5.047   4.803   6.369  0.2939  0.5326  0.8398
22105SOL    HW267757   5.195   4.798   6.341 -0.0433 -0.9662 -0.8310
22106SOL     OW67758   6.055   6.023   7.759 -0.3547  0.0441  0.3661
22106SOL    HW167759   6.148   6.039   7.746 -0.5157  1.2669  0.5794
22106SOL    HW267760   6.051   5.938   7.803  0.6020 -0.3919 -0.3579
22107SOL     OW67761   0.219   4.747   4.390 -0.2306 -0.1364 -0.3334
22107SOL    HW167762   0.197   4.839   4.404 -1.3326 -0.0324 -2.3366
22107SOL    HW267763   0.154   4.698   4.441  0.2977  0.1711  0.6584
22108SOL     OW67764   0.899   5.895   5.833  0.2716  0.1028  0.3734
22108SOL    HW167765   0.943   5.892   5.918 -1.3829  0.3967  1.2885
22108SOL    HW267766   0.842   5.972   5.839 -1.0262 -0.7660 -0.3952
22109SOL     OW67767   6.854   6.343   5.651  0.0945 -1.1299 -0.3095
22109SOL    HW167768   6.854   6.261   5.602 -1.3510 -0.2661 -1.8662
22109SOL    HW267769   6.810   6.405   5.594 -0.9428  0.1710  1.7673
22110SOL     OW67770   7.893   5.518   4.883 -0.2518  0.5144  0.3252
22110SOL    HW167771   7.801   5.541   4.872 -0.0733  1.1624  0.1025
22110SOL    HW267772   7.897   5.424   4.865 -0.4239  0.9819 -2.6368
22111SOL     OW67773   6.018   7.048   5.709  0.3150 -0.5043 -0.3899
22111SOL    HW167774   6.067   7.008   5.781 -1.0622 -0.4742  0.6126
22111SOL    HW267775   6.060   7.015   5.630  1.8696 -0.5465  0.4118
22112SOL     OW67776   7.015   6.830   4.027  0.3331  0.0036  0.6247
22112SOL    HW167777   6.977   6.891   3.963  0.2481  0.4808  1.1297
22112SOL    HW267778   6.961   6.752   4.020  0.6079 -0.1256 -0.2241
22113SOL     OW67779   6.440   6.724   6.402 -0.1656 -0.1492  0.0074
22113SOL    HW167780   6.466   6.702   6.312 -0.0149 -1.4571  0.3475
22113SOL    HW267781   6.510   6.689   6.457 -2.0668 -2.9542  0.8748
22114SOL     OW67782   7.180   6.299   4.355  0.3279  0.0598 -0.2646
22114SOL    HW167783   7.139   6.244   4.289 -1.1245  0.7758  0.0135
22114SOL    HW267784   7.157   6.259   4.439 -0.3048  0.7654 -0.0847
22115SOL     OW67785   4.255   5.431   5.934 -0.4066  0.2958  0.8015
22115SOL    HW167786   4.334   5.477   5.961  0.7433 -0.0326 -1.7220
22115SOL    HW267787   4.269   5.340   5.959  0.6744 -0.0158 -0.7592
22116SOL     OW67788   0.236   0.063   6.655  0.2225  0.0462 -0.6715
22116SOL    HW167789   0.255   0.156   6.642 -1.0043  0.5974  1.0844
22116SOL    HW267790   0.147   0.051   6.622  0.1587 -0.3723 -0.3647
22117SOL     OW67791   6.779   6.241   6.147  0.6744  0.5412 -0.0880
22117SOL    HW167792   6.866   6.280   6.141  0.7213  0.3015 -1.5156
22117SOL    HW267793   6.726   6.292   6.086 -0.3232  0.9811  1.1059
22118SOL     OW67794   7.965   7.205   6.443  0.3035 -0.0437 -0.7254
22118SOL    HW167795   7.991   7.113   6.437 -0.2200 -0.1288 -2.1604
22118SOL    HW267796   7.869   7.202   6.434  0.1549  0.5490  0.5450
22119SOL     OW67797   6.722   6.837   5.843 -0.0512 -0.0432  0.0222
22119SOL    HW167798   6.761   6.908   5.792 -0.3788  0.8182  0.9466
22119SOL    HW267799   6.780   6.762   5.829  0.6139  0.5656 -0.5027
22120SOL     OW67800   7.896   7.015   6.059 -0.3479 -0.3840  0.3193
22120SOL    HW167801   7.813   7.057   6.078 -0.4868 -0.1889 -0.6443
22120SOL    HW267802   7.902   7.016   5.963  1.1701  0.4191  0.3908
22121SOL     OW67803   6.592   7.164   6.950  0.3653 -0.4897 -0.3836
22121SOL    HW167804   6.647   7.119   7.015 -0.4789 -0.0810  0.6449
22121SOL    HW267805   6.519   7.104   6.935 -0.2741  0.0990  0.2799
22122SOL     OW67806   6.499   5.802   5.672 -0.1122  0.2953 -0.0023
22122SOL    HW167807   6.571   5.794   5.608 -0.0815  0.6917 -0.0207
22122SOL    HW267808   6.497   5.718   5.717  1.3647  0.7866  1.0562
22123SOL     OW67809   5.942   6.150   4.010 -0.2155  0.2451 -0.1383
22123SOL    HW167810   5.980   6.185   4.091 -0.6384  0.6151 -0.0978
22123SOL    HW267811   5.899   6.069   4.037 -0.2298  0.2924 -0.0204
22124SOL     OW67812   5.490   4.710   6.671  0.5597 -0.2499  0.6093
22124SOL    HW167813   5.486   4.749   6.584  0.5308 -1.7812 -0.1036
22124SOL    HW267814   5.572   4.659   6.671 -0.5012 -2.0359  0.6627
22125SOL     OW67815   7.633   6.788   4.903 -0.5431  0.2488  0.0478
22125SOL    HW167816   7.582   6.767   4.982 -0.2526 -2.5150 -0.4066
22125SOL    HW267817   7.714   6.825   4.937  0.3544 -2.5839  1.2435
22126SOL     OW67818   3.174   5.451   8.456 -0.0999  0.0382  0.0880
22126SOL    HW167819   3.221   5.492   8.528 -0.7461  1.5307 -0.3014
22126SOL    HW267820   3.226   5.473   8.378 -1.5469  2.0429 -0.4012
22127SOL     OW67821   5.876   6.844   7.432 -0.1693 -0.5885  0.4359
22127SOL    HW167822   5.900   6.774   7.492 -0.7571 -0.1310  1.2295
22127SOL    HW267823   5.857   6.799   7.350  2.3649 -1.0602  0.0231
22128SOL     OW67824   6.304   6.178   6.039 -0.4296 -0.5438  0.0764
22128SOL    HW167825   6.347   6.237   6.102  1.1476 -1.5288 -0.0117
22128SOL    HW267826   6.376   6.144   5.986 -1.3646 -2.0414 -0.2947
22129SOL     OW67827   4.991   5.762   4.093  0.1507 -0.3084 -0.7048
22129SOL    HW167828   5.081   5.793   4.083  0.5173 -1.0874  0.0107
22129SOL    HW267829   4.940   5.841   4.112  1.0063 -0.0776  0.8153
22130SOL     OW67830   7.940   5.803   5.330 -0.5427 -0.0087 -0.1182
22130SOL    HW167831   7.866   5.842   5.283  0.3622  0.6030 -1.0794
22130SOL    HW267832   7.938   5.711   5.305 -0.2415  0.2540 -1.1487
22131SOL     OW67833   7.567   6.035   5.446  0.4610 -0.0648 -0.1939
22131SOL    HW167834   7.504   6.086   5.496  0.8562  0.6278 -0.3881
22131SOL    HW267835   7.650   6.048   5.492  0.3424 -1.6329  0.5459
22132SOL     OW67836   6.167   6.388   6.834 -0.6723 -0.1915  0.1764
22132SOL    HW167837   6.126   6.331   6.899 -1.0891  0.0608  0.1404
22132SOL    HW267838   6.108   6.463   6.827 -1.4898 -0.9216 -1.6275
22133SOL     OW67839   6.081   4.955   7.637 -0.0094 -0.6122  0.1992
22133SOL    HW167840   6.052   4.882   7.691 -0.8728  0.6919  1.5971
22133SOL    HW267841   6.165   4.927   7.601 -1.5612 -3.4055 -1.6569
22134SOL     OW67842   0.202   6.271   6.191 -0.1599 -0.0066 -0.0330
22134SOL    HW167843   0.284   6.235   6.224 -0.2573  0.2251  0.4819
22134SOL    HW267844   0.213   6.366   6.201 -0.7342 -0.0031  0.6482
22135SOL     OW67845   7.852   5.266   6.974 -0.0469  0.2419 -0.3749
22135SOL    HW167846   7.822   5.176   6.989  1.3448 -0.2662 -0.5047
22135SOL    HW267847   7.882   5.267   6.884 -2.5392  1.6155 -1.3056
22136SOL     OW67848   6.772   6.797   5.260  0.4747  0.4328 -0.0692
22136SOL    HW167849   6.700   6.775   5.319  0.6748  1.6521  0.6687
22136SOL    HW267850   6.813   6.713   5.240  1.6678  0.0832  3.1824
22137SOL     OW67851   6.458   5.098   6.932  0.2229 -0.6455  0.2204
22137SOL    HW167852   6.375   5.051   6.919 -0.7732  0.7648  1.1796
22137SOL    HW267853   6.449   5.177   6.878  0.2840  0.2663  1.5162
22138SOL     OW67854   7.273   5.617   8.241  0.0271  0.2339  0.2067
22138SOL    HW167855   7.207   5.648   8.179  0.5321 -0.4971 -0.7248
22138SOL    HW267856   7.298   5.530   8.209  1.7279  0.6481  0.2982
22139SOL     OW67857   6.077   5.338   5.877  0.1435  0.6965  0.5066
22139SOL    HW167858   6.160   5.348   5.831  0.3893 -0.2825  0.7099
22139SOL    HW267859   6.030   5.270   5.828 -0.6904  1.4891  0.1903
22140SOL     OW67860   4.888   4.381   5.836  0.2722 -0.4084 -0.2989
22140SOL    HW167861   4.889   4.338   5.922 -1.5075 -1.9155 -0.9684
22140SOL    HW267862   4.796   4.380   5.810  0.5496  1.4514 -1.5652
22141SOL     OW67863   7.477   6.567   5.369 -0.4113 -0.1773 -0.6277
22141SOL    HW167864   7.462   6.484   5.323  0.7444  0.2977 -1.9466
22141SOL    HW267865   7.572   6.571   5.380 -0.6107  0.0673  1.2145
22142SOL     OW67866   6.600   5.964   7.057  0.3973  0.1014  0.2714
22142SOL    HW167867   6.632   6.046   7.020 -1.0540 -0.3249 -2.2002
22142SOL    HW267868   6.505   5.975   7.059  0.2599 -1.0736  1.0531
22143SOL     OW67869   0.022   6.729   5.656  0.4203  0.2519 -0.1518
22143SOL    HW167870   0.090   6.667   5.682  0.0369 -0.5285 -0.9511
22143SOL    HW267871  -0.048   6.714   5.720  0.2562 -0.2784 -0.4497
22144SOL     OW67872   7.409   3.194   5.658  0.6412  0.1560  0.3969
22144SOL    HW167873   7.380   3.237   5.578  0.6214  0.2020  0.4291
22144SOL    HW267874   7.346   3.123   5.671  1.1453 -0.3963 -0.1076
22145SOL     OW67875   6.872   5.900   7.413 -0.1226 -0.0089 -0.3615
22145SOL    HW167876   6.916   5.971   7.366  0.5251 -0.8309 -1.0320
22145SOL    HW267877   6.937   5.829   7.414 -0.7867 -0.6128  0.2286
22146SOL     OW67878   6.030   0.066   6.054 -0.4863 -0.2539  0.1953
22146SOL    HW167879   6.022   0.104   5.966  0.0718 -0.3323  0.1059
22146SOL    HW267880   5.947   0.086   6.097 -0.6503  0.0345 -0.2545
22147SOL     OW67881   6.056   6.995   7.299 -0.4489  0.6633  0.1561
22147SOL    HW167882   6.033   6.933   7.229 -0.6742  0.2889  0.5523
22147SOL    HW267883   6.011   6.960   7.376 -0.2307  1.0936  0.4777
22148SOL     OW67884   7.040   6.942   7.012 -0.4305 -0.2720 -0.0226
22148SOL    HW167885   7.091   6.915   7.088 -0.6168  0.4900  0.3846
22148SOL    HW267886   6.953   6.963   7.047 -0.2101  1.1317 -0.2464
22149SOL     OW67887   7.103   6.137   7.564 -0.7324 -0.2627 -0.2092
22149SOL    HW167888   7.089   6.102   7.476 -0.6096  1.2977 -0.8910
22149SOL    HW267889   7.186   6.100   7.592 -0.5170 -0.3711 -0.9704
22150SOL     OW67890   7.200   6.096   5.992 -0.2442 -0.2964  1.0339
22150SOL    HW167891   7.149   6.049   6.058 -2.5663 -0.3201 -0.6630
22150SOL    HW267892   7.149   6.088   5.912  1.6229  1.1852 -0.4055
22151SOL     OW67893   7.710   5.092   5.018  0.0504  0.6128  0.1028
22151SOL    HW167894   7.671   5.084   4.931 -1.2809 -0.4978  0.7600
22151SOL    HW267895   7.635   5.092   5.078  1.0146 -0.6407  1.3695
22152SOL     OW67896   7.266   6.618   6.434  0.1631  0.3786  0.3745
22152SOL    HW167897   7.191   6.623   6.374 -0.1333 -1.0607  0.5767
22152SOL    HW267898   7.332   6.569   6.386  0.3768  0.2712  0.7695
22153SOL     OW67899   6.968   6.942   7.375  0.5118 -0.1097 -0.4493
22153SOL    HW167900   6.988   7.013   7.436 -1.5245 -0.3622  0.6134
22153SOL    HW267901   6.913   6.982   7.308  0.6787 -0.3586 -0.7410
22154SOL     OW67902   5.949   5.084   6.075  0.0033 -0.2332 -0.3450
22154SOL    HW167903   6.033   5.123   6.099 -0.1278  0.0650 -0.3595
22154SOL    HW267904   5.971   5.004   6.027  0.2930  0.3927 -1.2842
22155SOL     OW67905   6.128   6.398   7.737 -0.0127  0.2364 -0.3963
22155SOL    HW167906   6.190   6.469   7.754  0.3581 -0.3147  0.6564
22155SOL    HW267907   6.182   6.320   7.732 -0.7315 -0.6881  3.1697
22156SOL     OW67908   1.638   5.804   7.231  0.3895  0.7348  0.1459
22156SOL    HW167909   1.591   5.883   7.260 -1.6205 -0.3562  0.0552
22156SOL    HW267910   1.618   5.797   7.138  2.1111  1.0867 -0.2939
22157SOL     OW67911   4.548   6.421   5.215 -0.1322  0.5623  0.2814
22157SOL    HW167912   4.496   6.487   5.259 -2.1961 -0.4098 -0.5750
22157SOL    HW267913   4.614   6.395   5.279 -0.5927  1.9542  1.3545
22158SOL     OW67914   7.389   6.445   5.018 -0.3377 -0.7766 -0.2865
22158SOL    HW167915   7.297   6.435   5.041 -0.0013 -1.7832  0.7419
22158SOL    HW267916   7.410   6.536   5.039 -0.9344 -0.7284  0.1206
22159SOL     OW67917   5.163   5.652   4.507  0.2546  1.0052 -0.1294
22159SOL    HW167918   5.091   5.612   4.459 -0.2690  1.1114  0.5542
22159SOL    HW267919   5.229   5.582   4.514 -0.4215  0.4250  0.5721
22160SOL     OW67920   6.727   5.052   6.096  0.7000 -0.0589  0.2932
22160SOL    HW167921   6.749   5.104   6.019  1.2491 -0.1301  0.3928
22160SOL    HW267922   6.802   5.064   6.155  0.5983 -0.5477  0.5296
22161SOL     OW67923   5.769   4.785   9.150  0.1437  0.3789 -0.5226
22161SOL    HW167924   5.721   4.862   9.122 -1.2781 -0.7641 -1.3574
22161SOL    HW267925   5.725   4.757   9.230  1.9965  1.6118  1.0082
22162SOL     OW67926   0.090   6.094   5.666  0.5611  0.5134 -0.1619
22162SOL    HW167927   0.046   6.116   5.748  3.4447 -1.0386  2.0252
22162SOL    HW267928   0.073   6.001   5.653  1.9477  0.2120 -0.0179
22163SOL     OW67929   7.336   7.002   6.639  0.1144  0.2729  0.2324
22163SOL    HW167930   7.411   6.955   6.603 -0.5578 -0.3306 -0.4109
22163SOL    HW267931   7.273   7.005   6.567 -0.1497  1.5229  0.4890
22164SOL     OW67932   6.734   0.349   7.368  0.1051  0.2600  0.1688
22164SOL    HW167933   6.812   0.309   7.405 -0.4363  0.2694  1.3533
22164SOL    HW267934   6.753   0.357   7.274  1.3974  0.0071  0.4006
22165SOL     OW67935   7.071   5.749   6.140 -0.0431  0.1849  0.6982
22165SOL    HW167936   7.040   5.695   6.067  2.4063  1.5743 -1.5724
22165SOL    HW267937   7.015   5.826   6.139 -0.0341  0.1858  0.3126
22166SOL     OW67938   6.447   7.018   7.180  0.0105 -0.0894  0.1316
22166SOL    HW167939   6.539   7.002   7.162 -0.0863  0.2490 -0.7315
22166SOL    HW267940   6.401   6.948   7.133 -0.1519 -0.5236  0.9333
22167SOL     OW67941   5.598   6.242   4.273 -0.3846  0.0263 -0.3803
22167SOL    HW167942   5.679   6.255   4.322 -0.3927 -1.4591  0.0565
22167SOL    HW267943   5.619   6.174   4.209 -1.1220  0.0753 -0.6890
22168SOL     OW67944   5.974   5.807   6.418  0.1343  0.0711 -0.5814
22168SOL    HW167945   6.014   5.862   6.485 -0.5315  0.1813 -0.2608
22168SOL    HW267946   6.035   5.735   6.407  1.0564  0.9036 -1.0628
22169SOL     OW67947   2.077   6.334   5.817  0.3386  0.0708 -0.3992
22169SOL    HW167948   2.105   6.243   5.820  0.7314  0.1202 -2.0070
22169SOL    HW267949   1.982   6.329   5.805  0.2421 -0.1035  0.3537
22170SOL     OW67950   5.805   5.040   7.690  0.1929 -0.1995 -0.8012
22170SOL    HW167951   5.878   5.059   7.630  0.4679 -1.2734 -0.8261
22170SOL    HW267952   5.728   5.040   7.634  0.1700  0.8422 -0.7920
22171SOL     OW67953   7.342   7.577   5.091 -0.4721  0.1690  0.3572
22171SOL    HW167954   7.348   7.483   5.108 -0.6701  0.1716  0.4434
22171SOL    HW267955   7.299   7.613   5.169 -1.5901  0.1491 -0.2259
22172SOL     OW67956   4.830   7.916   7.723  0.3223 -0.0822  0.0681
22172SOL    HW167957   4.739   7.932   7.697  0.3907  1.9614  0.9208
22172SOL    HW267958   4.882   7.954   7.652  0.4999  0.3808  0.4427
22173SOL     OW67959   7.167   7.044   6.420 -0.3708 -0.1456 -0.1663
22173SOL    HW167960   7.083   7.084   6.400 -0.9917 -1.7991 -1.0281
22173SOL    HW267961   7.204   7.022   6.335  1.7666  2.0477  0.0649
22174SOL     OW67962   6.343   4.899   7.570 -0.2452  0.1783 -0.4782
22174SOL    HW167963   6.388   4.979   7.541 -1.5062  1.3483  0.5932
22174SOL    HW267964   6.341   4.906   7.665 -2.0729 -0.1313 -0.4505
22175SOL     OW67965   0.408   6.947   5.287 -0.3777  0.0134  0.2612
22175SOL    HW167966   0.360   6.957   5.205 -0.4164 -2.4498 -0.0928
22175SOL    HW267967   0.386   7.025   5.338 -0.5743  1.4680 -1.9298
22176SOL     OW67968   0.115   6.513   5.451  0.0020  0.0444 -0.7712
22176SOL    HW167969   0.062   6.435   5.469 -0.2225 -0.1236 -2.0680
22176SOL    HW267970   0.204   6.481   5.443  0.4888  0.4150  2.0840
22177SOL     OW67971   6.248   6.950   7.838 -0.5203  0.6735  0.1814
22177SOL    HW167972   6.209   6.864   7.853  0.8917 -0.0941 -0.3297
22177SOL    HW267973   6.333   6.931   7.797  0.2065  2.2771  0.8573
22178SOL     OW67974   7.235   6.744   5.017 -0.6725  0.2504 -0.1660
22178SOL    HW167975   7.168   6.720   5.081  0.1877  1.1887  1.1372
22178SOL    HW267976   7.191   6.736   4.932 -1.9484 -0.6937  0.5458
22179SOL     OW67977   6.040   7.456   6.165  0.6186  0.4610 -0.0867
22179SOL    HW167978   5.960   7.404   6.153  0.6238  0.3253  0.4402
22179SOL    HW267979   6.086   7.449   6.081 -0.0290  0.7336 -0.4771
22180SOL     OW67980   5.148   0.223   4.152 -0.6895 -0.0241 -0.0094
22180SOL    HW167981   5.205   0.160   4.108 -0.9035  0.7442 -1.4614
22180SOL    HW267982   5.146   0.298   4.092 -2.1298  0.4977  0.6635
22181SOL     OW67983   6.640   6.743   7.259 -0.1879 -0.5631 -0.6584
22181SOL    HW167984   6.553   6.774   7.285  0.5586 -0.5916  2.1305
22181SOL    HW267985   6.686   6.822   7.232 -0.7714 -0.4261 -1.3002
22182SOL     OW67986   7.329   4.013   6.881  0.1159  0.4258 -0.1511
22182SOL    HW167987   7.362   3.933   6.920  0.9453  1.2547  0.9012
22182SOL    HW267988   7.405   4.072   6.878 -0.8254  1.7259  0.5754
22183SOL     OW67989   6.422   4.484   7.845 -0.0704  0.2295  0.1037
22183SOL    HW167990   6.412   4.576   7.868  1.7140  0.4419  0.2163
22183SOL    HW267991   6.366   4.437   7.907 -1.5096  1.2454 -0.3752
22184SOL     OW67992   0.025   6.440   5.103 -0.3657  0.0690  0.1872
22184SOL    HW167993  -0.031   6.503   5.149 -0.3650  0.3366 -0.1760
22184SOL    HW267994   0.002   6.355   5.141  0.7651  0.4373  1.8423
22185SOL     OW67995   5.441   5.156   6.709  0.2416 -0.2131 -0.8331
22185SOL    HW167996   5.534   5.178   6.720  0.1967 -0.4788  0.2053
22185SOL    HW267997   5.431   5.074   6.758 -1.0421  1.0353  1.1466
22186SOL     OW67998   6.770   6.934   6.533 -0.4966  0.3564  0.0276
22186SOL    HW167999   6.785   6.897   6.620  1.3865  1.2605  0.1559
22186SOL    HW268000   6.704   7.001   6.547 -2.2181 -1.2899  0.2154
22187SOL     OW68001   7.230   7.916   5.156 -0.7664  0.0976  0.0798
22187SOL    HW168002   7.155   7.975   5.156 -0.7420  0.2040 -2.0673
22187SOL    HW268003   7.275   7.935   5.074 -0.1842 -2.1985 -0.1899
22188SOL     OW68004   6.425   7.369   6.972  0.0978  0.3853  0.0743
22188SOL    HW168005   6.408   7.431   6.901 -1.2146 -0.4869 -0.4319
22188SOL    HW268006   6.484   7.304   6.934 -0.6140 -0.0878 -0.2555
22189SOL     OW68007   7.465   6.019   4.858 -0.0399  0.5652  0.2922
22189SOL    HW168008   7.467   6.115   4.854  1.2589  0.5326 -0.3036
22189SOL    HW268009   7.544   5.992   4.813 -0.4194 -0.8055  0.4198
22190SOL     OW68010   0.263   6.762   7.955 -0.1547 -0.1895  0.1266
22190SOL    HW168011   0.234   6.837   7.901 -0.9737 -0.0684  0.7108
22190SOL    HW268012   0.197   6.695   7.939  0.2622 -0.5880  0.0591
22191SOL     OW68013   5.846   7.940   6.311 -0.4838 -0.0684 -0.0194
22191SOL    HW168014   5.891   7.877   6.366  1.1043  1.2549  0.2935
22191SOL    HW268015   5.832   7.895   6.228 -1.1020 -1.4213  0.7899
22192SOL     OW68016   7.299   5.636   7.371 -0.1710 -0.0142  0.2981
22192SOL    HW168017   7.207   5.658   7.358 -0.1039 -0.9123 -2.1280
22192SOL    HW268018   7.296   5.552   7.419 -0.5763  0.3404  0.9097
22193SOL     OW68019   6.452   6.954   4.913  0.4674 -0.3463 -0.3195
22193SOL    HW168020   6.491   6.907   4.988  0.9226  0.6726  0.0947
22193SOL    HW268021   6.492   6.913   4.836  0.1188 -1.2966 -0.0184
22194SOL     OW68022   5.908   6.819   7.998 -0.1238  0.4006  0.1064
22194SOL    HW168023   5.905   6.864   7.913  0.5992 -1.0668 -0.7610
22194SOL    HW268024   5.981   6.757   7.988 -1.2890 -1.1996  1.0687
22195SOL     OW68025   7.140   5.671   6.410 -0.3897 -0.0044  0.0578
22195SOL    HW168026   7.200   5.743   6.432  0.9726 -0.9417 -0.4768
22195SOL    HW268027   7.103   5.697   6.325 -0.0848  0.1747 -0.0239
22196SOL     OW68028   5.087   6.201   4.456 -0.1845 -0.3939 -0.3231
22196SOL    HW168029   5.027   6.204   4.381 -0.3472 -2.4754 -0.3417
22196SOL    HW268030   5.174   6.208   4.417 -0.2242 -2.2709 -0.8655
22197SOL     OW68031   7.136   0.368   5.089 -0.1675  0.0106 -0.1393
22197SOL    HW168032   7.187   0.355   5.169 -0.4735  0.5896  0.1610
22197SOL    HW268033   7.051   0.328   5.109 -0.3927  0.5373  0.0004
22198SOL     OW68034   6.122   5.147   4.296  0.2377 -0.1272  0.4954
22198SOL    HW168035   6.065   5.104   4.359  0.1374  0.2286  0.6512
22198SOL    HW268036   6.145   5.079   4.234 -2.1856  0.2192 -0.8953
22199SOL     OW68037   5.290   6.691   4.794 -0.1224  0.1267 -0.2448
22199SOL    HW168038   5.332   6.633   4.858  0.2551  0.7542  0.0884
22199SOL    HW268039   5.358   6.755   4.772 -0.6107  0.5929 -0.4126
22200SOL     OW68040   7.864   7.016   5.779 -0.3931  0.0903  0.8133
22200SOL    HW168041   7.821   6.932   5.762  0.0104 -0.1729  1.0547
22200SOL    HW268042   7.794   7.080   5.776 -0.5132 -0.0791 -0.6599
22201SOL     OW68043   7.121   0.599   5.722 -0.0511  0.6849 -0.6321
22201SOL    HW168044   7.192   0.575   5.782 -0.4775 -0.5537 -0.5925
22201SOL    HW268045   7.062   0.652   5.775  0.5951  1.3241 -0.5328
22202SOL     OW68046   7.633   6.767   7.037 -0.4567  0.3962  0.1722
22202SOL    HW168047   7.575   6.839   7.064 -0.2690  0.3366  0.7385
22202SOL    HW268048   7.647   6.716   7.117  1.6678  1.3022  0.4272
22203SOL     OW68049   0.002   6.411   6.474 -0.1286  0.0611  0.0611
22203SOL    HW168050  -0.087   6.382   6.492 -0.2450  0.2699 -0.1798
22203SOL    HW268051  -0.007   6.482   6.411  0.2922 -0.8316 -1.0330
22204SOL     OW68052   5.151   7.487   5.531 -0.7957 -0.1018  0.1476
22204SOL    HW168053   5.220   7.432   5.493  0.0093  1.3293 -0.5287
22204SOL    HW268054   5.119   7.436   5.606 -0.2692 -1.5977 -0.6065
22205SOL     OW68055   0.201   7.341   7.054 -0.3256 -0.2578 -0.2823
22205SOL    HW168056   0.281   7.388   7.079 -1.6336  1.0984  1.6403
22205SOL    HW268057   0.135   7.410   7.044 -2.0939 -1.5495  1.7073
22206SOL     OW68058   6.877   4.996   6.595  0.2941  0.0556 -0.0462
22206SOL    HW168059   6.827   4.916   6.583 -0.7785  0.8480 -1.0515
22206SOL    HW268060   6.832   5.043   6.665  2.1206 -1.0890  2.0429
22207SOL     OW68061   6.686   5.719   6.918 -0.0123 -0.1065  0.2868
22207SOL    HW168062   6.761   5.777   6.907  0.3519 -0.6941 -0.4047
22207SOL    HW268063   6.635   5.759   6.988  0.0521  1.2239 -0.3962
22208SOL     OW68064   7.998   4.096   6.208  0.6901 -0.2901 -0.1009
22208SOL    HW168065   8.023   4.187   6.227  0.1373  0.0576 -0.9607
22208SOL    HW268066   8.039   4.077   6.124  0.2391 -0.5982 -0.2561
22209SOL     OW68067   7.888   6.584   6.298 -0.0468 -0.2046 -0.5840
22209SOL    HW168068   7.816   6.636   6.265 -1.0379 -1.3174 -0.2614
22209SOL    HW268069   7.887   6.504   6.245  1.2609 -0.0423 -0.8945
22210SOL     OW68070   0.170   6.444   7.437  0.1248  0.0074  0.3823
22210SOL    HW168071   0.219   6.526   7.431  0.0259  0.0275 -0.3248
22210SOL    HW268072   0.237   6.376   7.427  0.0250  0.0353 -0.6400
22211SOL     OW68073   6.190   6.536   5.619  0.3677 -0.3957  0.0586
22211SOL    HW168074   6.099   6.522   5.593 -0.4740  1.6265  1.6490
22211SOL    HW268075   6.206   6.468   5.686 -0.2368 -0.2703  0.3344
22212SOL     OW68076   0.216   5.754   4.210 -0.0310 -0.0355  0.0062
22212SOL    HW168077   0.211   5.850   4.204 -1.2002  0.0451  1.5439
22212SOL    HW268078   0.126   5.727   4.228 -0.3044 -1.7217 -3.1326
22213SOL     OW68079   7.814   5.212   5.793 -0.3932 -0.6349 -0.2375
22213SOL    HW168080   7.815   5.304   5.769 -0.7421 -0.0255  1.9042
22213SOL    HW268081   7.728   5.181   5.765 -0.5259 -0.1370 -0.3866
22214SOL     OW68082   7.895   7.166   4.820  0.7262 -0.1088  0.3011
22214SOL    HW168083   7.821   7.154   4.760  0.3644  0.2675  0.6728
22214SOL    HW268084   7.887   7.094   4.883 -0.5848  1.1553  1.6359
22215SOL     OW68085   6.078   5.935   6.615  0.2497  0.2070  0.3567
22215SOL    HW168086   6.058   6.029   6.619  1.1182  0.3572  1.5101
22215SOL    HW268087   6.083   5.907   6.706 -1.1499 -1.2387  0.0214
22216SOL     OW68088   5.781   7.397   5.405  0.2085 -0.0557  0.5728
22216SOL    HW168089   5.859   7.414   5.459  0.6773 -2.7344  0.8772
22216SOL    HW268090   5.713   7.452   5.444  0.9724 -0.6141  2.8326
22217SOL     OW68091   5.596   5.210   7.035  0.2033  0.5992  0.2862
22217SOL    HW168092   5.657   5.269   7.079  0.9307  0.6163 -0.7195
22217SOL    HW268093   5.652   5.147   6.991 -0.5087  0.6333 -0.6880
22218SOL     OW68094   7.521   6.661   8.287 -0.2408 -0.3259 -0.1711
22218SOL    HW168095   7.437   6.615   8.290 -0.0042 -0.8026 -0.6279
22218SOL    HW268096   7.579   6.609   8.342 -0.2360 -0.0090  0.1264
22219SOL     OW68097   6.648   4.722   5.153  0.5002  0.7922  0.0603
22219SOL    HW168098   6.567   4.709   5.203 -0.0034  1.9280 -0.4082
22219SOL    HW268099   6.717   4.688   5.209 -0.2656  0.1206  0.6235
22220SOL     OW68100   6.685   6.488   7.396 -0.3368  0.1909 -0.1621
22220SOL    HW168101   6.724   6.507   7.311  1.6946 -3.6696 -0.3089
22220SOL    HW268102   6.722   6.553   7.455  1.3183  0.5588 -1.5278
22221SOL     OW68103   5.797   6.686   6.886  0.1139 -0.0877 -0.2634
22221SOL    HW168104   5.827   6.714   6.800  0.6525 -1.4691 -0.5431
22221SOL    HW268105   5.861   6.723   6.947 -0.1771  0.7492 -0.4439
22222SOL     OW68106   7.091   7.148   5.642 -0.5451 -0.2516 -0.2692
22222SOL    HW168107   7.186   7.144   5.659 -0.4920 -2.7489 -0.8453
22222SOL    HW268108   7.081   7.220   5.580  1.0587 -0.2906 -0.6224
22223SOL     OW68109   0.539   6.193   6.013 -0.3481  0.3555 -0.4812
22223SOL    HW168110   0.515   6.181   6.105 -0.4378  1.5583 -0.3229
22223SOL    HW268111   0.458   6.173   5.965  0.0585 -1.5639 -0.4194
22224SOL     OW68112   6.304   4.069   7.332 -0.1617  0.0496  0.1791
22224SOL    HW168113   6.333   3.990   7.288  2.0785  1.5386 -1.2467
22224SOL    HW268114   6.270   4.125   7.262 -0.5863  0.8062  0.9651
22225SOL     OW68115   0.005   7.025   5.505 -0.2681 -0.2110  0.3438
22225SOL    HW168116  -0.016   7.118   5.506 -3.0105 -0.7291 -0.7019
22225SOL    HW268117  -0.037   6.990   5.584 -1.5360 -0.9405 -0.6239
22226SOL     OW68118   4.445   7.626   7.221 -0.2362 -0.1891 -0.2903
22226SOL    HW168119   4.416   7.560   7.284 -0.6971 -0.9283 -1.2501
22226SOL    HW268120   4.411   7.709   7.256  2.4514  0.0103  2.2658
22227SOL     OW68121   7.144   4.697   7.115 -0.2020 -0.4525 -0.4542
22227SOL    HW168122   7.232   4.708   7.079 -0.1407  0.0325 -0.1661
22227SOL    HW268123   7.154   4.631   7.184  0.2979  0.9052  0.8099
22228SOL     OW68124   0.073   5.843   5.559  0.4348 -0.6318  0.3474
22228SOL    HW168125   0.028   5.837   5.474 -0.1347  0.1384  0.5743
22228SOL    HW268126   0.068   5.755   5.595 -2.5942 -0.2705  1.1616
22229SOL     OW68127   6.543   6.443   5.426  0.4484 -0.2442  0.2362
22229SOL    HW168128   6.581   6.531   5.423  1.6010 -0.7030 -3.0630
22229SOL    HW268129   6.606   6.388   5.379 -1.3379 -2.3445  0.1297
22230SOL     OW68130   5.296   5.174   4.672 -0.4038  0.3540  0.0511
22230SOL    HW168131   5.336   5.256   4.698  0.0627  0.1423  0.0160
22230SOL    HW268132   5.368   5.122   4.637 -0.8397  0.2696 -0.7655
22231SOL     OW68133   0.581   6.295   7.149  0.5168  0.1018  0.2572
22231SOL    HW168134   0.567   6.270   7.241 -0.3949  0.9701  0.3773
22231SOL    HW268135   0.657   6.352   7.151  2.5347 -2.4079 -0.0014
22232SOL     OW68136   6.518   4.488   8.903  0.6587  0.6263  0.1095
22232SOL    HW168137   6.593   4.479   8.844  0.9307  1.3130  0.3424
22232SOL    HW268138   6.513   4.403   8.948  0.7842  0.2922 -0.5045
22233SOL     OW68139   6.132   4.625   6.445 -0.1877  0.2855  0.0208
22233SOL    HW168140   6.114   4.717   6.464 -0.8655  0.3596 -0.9014
22233SOL    HW268141   6.064   4.600   6.383 -0.4784 -1.0594  0.8434
22234SOL     OW68142   6.323   7.083   8.373 -0.8127  0.4553 -0.2256
22234SOL    HW168143   6.309   7.169   8.335  1.5415  0.6876 -0.7309
22234SOL    HW268144   6.240   7.037   8.360 -1.2677  1.7428 -2.3929
22235SOL     OW68145   6.163   7.910   8.136  0.3901 -1.1189  0.0946
22235SOL    HW168146   6.090   7.939   8.080  1.2324 -1.0385 -0.9997
22235SOL    HW268147   6.148   7.954   8.219  0.4077  0.7459 -0.8230
22236SOL     OW68148   7.850   6.674   6.875 -0.3972 -1.1542  0.0023
22236SOL    HW168149   7.784   6.703   6.938  0.8208 -1.9894  1.7522
22236SOL    HW268150   7.804   6.674   6.791 -1.8121  0.9442  0.6983
22237SOL     OW68151   7.982   6.606   8.622 -0.4581  0.7781  0.4849
22237SOL    HW168152   7.972   6.572   8.711  1.2049 -0.7768  0.1305
22237SOL    HW268153   7.956   6.698   8.629 -2.5003  0.1538  2.0813
22238SOL     OW68154   7.586   5.393   7.021  0.2684  0.0332  0.1540
22238SOL    HW168155   7.654   5.354   7.077 -0.1640 -0.4995  0.3176
22238SOL    HW268156   7.576   5.331   6.949  1.8006  1.3761 -1.2990
22239SOL     OW68157   5.586   7.355   9.612  0.1406  0.3623 -0.5071
22239SOL    HW168158   5.668   7.405   9.602  2.8786 -2.7698  3.3492
22239SOL    HW268159   5.602   7.274   9.564 -1.7745  0.5842 -1.6211
22240SOL     OW68160   5.696   7.736   9.436  0.3699 -0.0892  0.0128
22240SOL    HW168161   5.755   7.810   9.419 -1.8458  1.6616 -0.5299
22240SOL    HW268162   5.753   7.668   9.472  2.6577  1.5670 -0.2389
22241SOL     OW68163   6.227   6.347   8.716 -0.0854  0.1300  0.0928
22241SOL    HW168164   6.225   6.391   8.801 -0.1584  0.8358 -0.2693
22241SOL    HW268165   6.184   6.408   8.656  0.5125 -0.0852 -0.5757
22242SOL     OW68166   7.053   7.876   7.515  0.2644  0.4151 -0.3891
22242SOL    HW168167   7.138   7.888   7.556 -0.3631 -0.6003  1.3320
22242SOL    HW268168   7.002   7.952   7.542  0.8123  1.4075 -2.0388
22243SOL     OW68169   6.616   0.046   8.779 -0.4459  0.5824  0.4194
22243SOL    HW168170   6.642   0.051   8.687 -2.2445 -0.3895 -0.1735
22243SOL    HW268171   6.688  -0.002   8.821 -0.3853 -0.4506 -0.8085
22244SOL     OW68172   6.113   6.984   8.612  0.2087  0.0823  0.1807
22244SOL    HW168173   6.118   6.980   8.516  1.0925  1.1845  0.1651
22244SOL    HW268174   6.050   6.915   8.635 -0.0035 -0.2162 -1.1833
22245SOL     OW68175   6.617   6.059   8.017 -0.2951 -0.4966  0.5096
22245SOL    HW168176   6.646   6.089   7.931  0.8850  0.6068  1.2478
22245SOL    HW268177   6.529   6.095   8.026 -0.0978  0.1071  0.0988
22246SOL     OW68178   4.937   6.854   7.720 -0.1183  0.5731 -0.2485
22246SOL    HW168179   4.859   6.861   7.666 -0.2074 -2.2178 -0.6662
22246SOL    HW268180   4.939   6.762   7.747  2.5696  0.7328  0.4300
22247SOL     OW68181   0.344   7.274   8.456  0.4844 -0.0412 -0.6456
22247SOL    HW168182   0.393   7.355   8.470  0.6795 -0.1621 -0.6155
22247SOL    HW268183   0.406   7.205   8.479  1.1657 -0.2902 -3.0118
22248SOL     OW68184   4.915   6.010   7.243 -1.2916  1.0367  0.3536
22248SOL    HW168185   4.844   5.948   7.262 -0.8802  0.1969 -0.7562
22248SOL    HW268186   4.971   5.964   7.181  1.2822  0.9148  2.5641
22249SOL     OW68187   6.346   0.505   6.306 -0.2162  0.5047 -0.2737
22249SOL    HW168188   6.421   0.487   6.250  1.0795  2.1164  0.8513
22249SOL    HW268189   6.312   0.419   6.329  0.5692 -0.2281 -1.7147
22250SOL     OW68190   7.899   0.245   8.538  0.1181 -0.4436  0.2569
22250SOL    HW168191   7.990   0.272   8.529 -0.6195  2.2267  0.1244
22250SOL    HW268192   7.887   0.180   8.468  1.6201  0.0014 -0.4592
22251SOL     OW68193   7.001   7.655   7.862 -0.3575 -0.3746  0.5092
22251SOL    HW168194   6.994   7.560   7.869 -0.7745 -0.2715  1.5394
22251SOL    HW268195   6.913   7.688   7.881 -0.4117  0.1868 -0.6283
22252SOL     OW68196   6.679   6.727   8.206  0.1575 -0.6034 -0.0403
22252SOL    HW168197   6.672   6.646   8.255 -0.1409 -1.0019 -0.7320
22252SOL    HW268198   6.700   6.793   8.272  1.5738 -1.4229  0.3788
22253SOL     OW68199   6.854   4.613   7.742 -0.5397  0.1989 -0.2916
22253SOL    HW168200   6.873   4.693   7.791 -0.7718 -1.1926  2.2357
22253SOL    HW268201   6.938   4.569   7.735 -0.7687 -0.3121  0.1684
22254SOL     OW68202   6.647   6.898   9.188 -0.8657 -0.7057 -0.1959
22254SOL    HW168203   6.667   6.804   9.189  0.2495 -0.4790 -0.8151
22254SOL    HW268204   6.644   6.921   9.095  1.5507  0.4223 -0.0420
22255SOL     OW68205   6.431   7.959   8.105 -0.0357  0.0810 -0.4096
22255SOL    HW168206   6.425   8.054   8.094 -0.5882  0.1786  0.6620
22255SOL    HW268207   6.340   7.930   8.110  0.1426 -0.2856  1.0267
22256SOL     OW68208   7.276   6.352   6.034 -0.2006 -0.2478  0.4527
22256SOL    HW168209   7.271   6.257   6.049  1.5926 -0.5109 -0.4097
22256SOL    HW268210   7.351   6.380   6.086 -1.4236  0.9401  1.6487
22257SOL     OW68211   6.267   7.177  10.634 -0.3930 -0.2326  0.6806
22257SOL    HW168212   6.282   7.161  10.541  1.2622 -0.1567  0.9044
22257SOL    HW268213   6.340   7.133  10.678  0.0590  1.5157  1.7870
22258SOL     OW68214   6.278   7.389   7.558  0.1834  0.0369 -0.0593
22258SOL    HW168215   6.192   7.381   7.518  0.6228 -0.2846 -0.9628
22258SOL    HW268216   6.277   7.475   7.602 -0.9069 -0.3632  0.7357
22259SOL     OW68217   4.043   5.413   9.827 -0.1059  0.2052 -0.2215
22259SOL    HW168218   4.013   5.489   9.778  0.2091  0.3546 -0.1866
22259SOL    HW268219   3.988   5.411   9.905 -0.8025 -0.1978 -0.7039
22260SOL     OW68220   0.326   0.251   7.218 -0.5960 -0.0914 -0.0893
22260SOL    HW168221   0.378   0.222   7.294 -0.0194  0.8204 -0.1153
22260SOL    HW268222   0.332   0.347   7.221 -2.1540  0.0262 -0.1927
22261SOL     OW68223   6.099   0.155  10.286 -0.1806 -0.3446  0.0720
22261SOL    HW168224   6.128   0.109  10.364  2.2168 -0.7376 -0.9677
22261SOL    HW268225   6.071   0.086  10.226 -1.4398 -0.0767  0.3021
22262SOL     OW68226   4.937   5.362   8.247  0.3701  0.1755  0.4003
22262SOL    HW168227   5.033   5.370   8.243  0.5121 -1.6063 -0.5905
22262SOL    HW268228   4.922   5.307   8.324  0.4008 -2.0767 -1.0955
22263SOL     OW68229   6.339   6.866   8.761 -0.3145 -0.6603  0.1125
22263SOL    HW168230   6.272   6.899   8.701  0.0012  0.6033  0.4352
22263SOL    HW268231   6.398   6.815   8.704 -0.5343 -0.2598 -0.4883
22264SOL     OW68232   7.205   7.534   8.185  0.6059 -0.3551  0.3990
22264SOL    HW168233   7.112   7.514   8.175  0.5192  0.5392 -0.7819
22264SOL    HW268234   7.249   7.450   8.176  0.0575 -0.4914 -1.5490
22265SOL     OW68235   7.667   6.228   6.140  0.1121 -0.2599 -0.8338
22265SOL    HW168236   7.613   6.297   6.178  1.0015 -0.7167  1.4284
22265SOL    HW268237   7.604   6.161   6.112 -0.6554 -1.2306  2.6240
22266SOL     OW68238   7.812   7.339  10.218 -0.1996  0.2536  0.4913
22266SOL    HW168239   7.837   7.247  10.227  0.3552  0.4398  0.9668
22266SOL    HW268240   7.724   7.337  10.180 -1.0095 -0.5256  2.2741
22267SOL     OW68241   7.296   0.892   7.360  0.8493  0.5605  0.5445
22267SOL    HW168242   7.263   0.820   7.414  0.6213 -0.0273 -0.3574
22267SOL    HW268243   7.378   0.858   7.324  0.2666  0.3737 -0.6436
22268SOL     OW68244   4.994   0.085   8.396  0.0003 -1.0232  0.0304
22268SOL    HW168245   4.907   0.119   8.374 -0.2586  0.2239  2.5863
22268SOL    HW268246   4.978  -0.002   8.430 -0.4529 -0.3295  1.6679
22269SOL     OW68247   6.264   7.061   9.018  0.0169  0.4572 -0.5186
22269SOL    HW168248   6.349   7.074   8.977 -0.1898 -1.3154 -1.6055
22269SOL    HW268249   6.242   6.969   9.000 -0.6646 -0.0929  2.5238
22270SOL     OW68250   7.028   7.571   8.514  0.4407  0.5820  0.5907
22270SOL    HW168251   7.082   7.627   8.457 -1.0952  1.2037 -0.3012
22270SOL    HW268252   7.022   7.619   8.596  1.8987  0.1181  1.0035
22271SOL     OW68253   5.896   0.006   7.320 -0.5003 -0.0429 -0.3643
22271SOL    HW168254   5.973  -0.037   7.283 -0.1972  0.3664 -0.2187
22271SOL    HW268255   5.922   0.030   7.409  0.0545  2.1996 -1.0517
22272SOL     OW68256   6.698   6.392   6.436  0.2118  0.6640  0.0765
22272SOL    HW168257   6.718   6.369   6.345  2.2951  0.3340  0.5662
22272SOL    HW268258   6.712   6.487   6.440  1.3497  0.5005  0.3101
22273SOL     OW68259   6.382   0.231   8.051  0.4871  0.2638  0.5105
22273SOL    HW168260   6.407   0.307   7.997  0.7222 -0.1176  0.0657
22273SOL    HW268261   6.288   0.240   8.064  0.4254  0.3636  0.0216
22274SOL     OW68262   6.551   4.173   9.146  0.2955  0.0736 -0.1298
22274SOL    HW168263   6.477   4.145   9.199 -0.5171 -1.5894 -1.9973
22274SOL    HW268264   6.624   4.119   9.176 -0.2770 -1.2134 -0.9429
22275SOL     OW68265   6.683   6.137   9.328  0.1576 -0.2385  0.0180
22275SOL    HW168266   6.758   6.089   9.291 -0.0520 -1.6009  1.2764
22275SOL    HW268267   6.608   6.105   9.278  0.1579 -0.3867  0.1126
22276SOL     OW68268   6.977   6.022   6.544 -0.2214  0.0751  0.0725
22276SOL    HW168269   7.015   6.092   6.491  0.5695  0.4352  1.0661
22276SOL    HW268270   7.000   5.941   6.498 -0.1966  0.4134 -0.5161
22277SOL     OW68271   6.302   5.024   9.756 -0.1760  0.0297  0.1458
22277SOL    HW168272   6.371   5.073   9.800  0.5343 -0.8138  0.0014
22277SOL    HW268273   6.342   4.940   9.733 -0.1288  0.7685 -3.0439
22278SOL     OW68274   4.810   7.566   6.294 -0.2855  0.2563 -0.6098
22278SOL    HW168275   4.838   7.636   6.353 -0.2341  0.1155 -0.4653
22278SOL    HW268276   4.729   7.599   6.255 -0.7049  0.0568  0.0762
22279SOL     OW68277   6.416   0.185   6.950 -0.2203  0.0790 -0.0127
22279SOL    HW168278   6.414   0.274   6.914  0.3444  0.2779  0.4425
22279SOL    HW268279   6.466   0.135   6.885 -0.3080  0.1511 -0.1373
22280SOL     OW68280   6.573   6.805   9.975  0.0901 -0.4326  0.0401
22280SOL    HW168281   6.582   6.832   9.884  2.4274 -0.6864  0.1442
22280SOL    HW268282   6.581   6.887  10.025 -0.9303 -0.3275  0.0510
22281SOL     OW68283   7.731   7.892   8.826 -0.0448  0.1363  0.2581
22281SOL    HW168284   7.764   7.821   8.881 -1.4703 -0.4798  0.3881
22281SOL    HW268285   7.731   7.855   8.737 -0.1065  0.2177  0.2241
22282SOL     OW68286   5.432   6.898   6.231  0.0507  0.2155 -0.5074
22282SOL    HW168287   5.433   6.989   6.202  0.0097 -0.5768 -3.2549
22282SOL    HW268288   5.522   6.867   6.217 -0.3034 -0.5778 -1.1404
22283SOL     OW68289   7.871   5.292   7.924 -0.4697 -0.5684  0.8998
22283SOL    HW168290   7.900   5.323   7.839 -3.2503 -2.0229 -0.7153
22283SOL    HW268291   7.910   5.353   7.987  1.8779  0.4005 -1.3403
22284SOL     OW68292   6.118   0.046   8.370  0.1524 -0.2965 -0.0268
22284SOL    HW168293   6.035   0.065   8.415 -0.9822 -0.3412 -2.0155
22284SOL    HW268294   6.159  -0.023   8.423 -2.0032 -1.6659 -0.0377
22285SOL     OW68295   0.180   5.570   5.710 -0.2808 -0.2061  0.4252
22285SOL    HW168296   0.245   5.584   5.778  1.0308  2.0817 -1.1734
22285SOL    HW268297   0.099   5.551   5.758  0.9853 -0.5953  2.5258
22286SOL     OW68298   6.581   7.768   7.912 -0.4613  0.0649 -0.3591
22286SOL    HW168299   6.521   7.812   7.972  0.3233  1.0533 -0.2787
22286SOL    HW268300   6.579   7.820   7.832 -1.1923 -1.0183 -1.0692
22287SOL     OW68301   7.971   6.509   7.098 -0.0143  0.2354  0.2645
22287SOL    HW168302   7.932   6.426   7.069  1.2101 -0.6321  1.0260
22287SOL    HW268303   7.934   6.524   7.185 -0.4946  0.6723 -0.0126
22288SOL     OW68304   7.059   5.984   8.263  0.2687 -0.0744  0.6829
22288SOL    HW168305   7.032   5.954   8.350  0.3145 -0.5939  0.5178
22288SOL    HW268306   7.019   5.922   8.203  1.1671 -0.3785  0.3864
22289SOL     OW68307   7.450   5.162   6.044  0.5997 -0.2508  0.1707
22289SOL    HW168308   7.541   5.159   6.073  0.5450 -0.5968  0.3117
22289SOL    HW268309   7.424   5.070   6.036  0.7238 -0.1653 -1.3710
22290SOL     OW68310   6.232   1.042   9.394  0.3063 -0.1166 -0.4479
22290SOL    HW168311   6.213   0.970   9.333  0.9011 -0.8168  0.1690
22290SOL    HW268312   6.288   1.101   9.344  2.1215 -1.4732 -0.1498
22291SOL     OW68313   0.709   6.502   8.426  0.8572 -0.0058 -0.4759
22291SOL    HW168314   0.641   6.492   8.359  1.5296  2.3548 -1.6195
22291SOL    HW268315   0.791   6.480   8.381  1.0796 -0.9795  0.3577
22292SOL     OW68316   5.513   7.650   6.312 -0.2783 -0.5524  0.1744
22292SOL    HW168317   5.510   7.710   6.387  0.5821 -0.6743  0.3114
22292SOL    HW268318   5.465   7.696   6.243  2.1056  1.2893 -0.4045
22293SOL     OW68319   5.114   5.541   9.233 -0.4299  0.0449  0.1605
22293SOL    HW168320   5.100   5.537   9.328  0.0779  0.3909  0.2538
22293SOL    HW268321   5.205   5.569   9.224 -0.2718 -0.6372 -0.4280
22294SOL     OW68322   7.744   4.535   7.483  0.0223  0.1853 -0.0175
22294SOL    HW168323   7.664   4.586   7.472  0.5765  1.2029  0.4998
22294SOL    HW268324   7.787   4.540   7.398  0.3501  1.0986  0.1869
22295SOL     OW68325   5.806   5.367  10.153 -0.3210 -0.4215  0.0174
22295SOL    HW168326   5.798   5.336  10.062 -0.1057  0.5648 -0.3449
22295SOL    HW268327   5.889   5.332  10.183  0.0528  0.0218 -0.4836
22296SOL     OW68328   7.863   5.187   7.451 -0.2037 -0.2285  0.2022
22296SOL    HW168329   7.835   5.279   7.457 -0.4331 -0.3292  0.7354
22296SOL    HW268330   7.954   5.192   7.419 -0.6981  0.1106 -1.2349
22297SOL     OW68331   5.899   7.251   7.877  0.4150  0.2777 -0.0142
22297SOL    HW168332   5.840   7.215   7.810  0.1898  0.7913 -0.0906
22297SOL    HW268333   5.865   7.217   7.960  0.2215  0.2881 -0.0889
22298SOL     OW68334   5.949   7.487   7.715  0.5611  0.1489 -0.3445
22298SOL    HW168335   5.859   7.515   7.728  0.7230  0.9032 -0.7439
22298SOL    HW268336   5.962   7.416   7.777  0.1028  0.9314  0.6790
22299SOL     OW68337   6.901   6.809   8.002 -0.1808  0.0519  0.0894
22299SOL    HW168338   6.946   6.887   8.033 -0.3086 -0.1613  0.8551
22299SOL    HW268339   6.928   6.740   8.064 -1.5699 -0.0719  0.5931
22300SOL     OW68340   0.605   6.331   6.818 -0.7951  0.0577  0.3655
22300SOL    HW168341   0.552   6.261   6.858 -1.6370  0.4196 -0.0946
22300SOL    HW268342   0.552   6.410   6.828  0.3921  0.7756  1.3951
22301SOL     OW68343   5.614   5.129   8.275 -0.2748 -0.7004 -0.0966
22301SOL    HW168344   5.545   5.114   8.211  1.6707 -0.9949 -2.2649
22301SOL    HW268345   5.694   5.100   8.231  1.3604  0.4137  1.9632
22302SOL     OW68346   7.398   5.334   6.292 -0.2283  0.0460 -0.3971
22302SOL    HW168347   7.485   5.324   6.255 -0.7568  0.6094 -1.8968
22302SOL    HW268348   7.405   5.409   6.351 -0.0609  1.1752 -1.8030
22303SOL     OW68349   6.547   7.349   8.692 -0.1552  0.2574 -0.0619
22303SOL    HW168350   6.591   7.355   8.607 -1.6024 -0.0218 -0.8642
22303SOL    HW268351   6.579   7.267   8.730  0.4563  0.3533 -0.3604
22304SOL     OW68352   7.415   7.421   8.827 -0.3204 -0.2773 -0.2686
22304SOL    HW168353   7.342   7.472   8.864 -0.8626  0.7323 -2.5274
22304SOL    HW268354   7.405   7.432   8.732  0.9846 -2.6843 -0.7544
22305SOL     OW68355   7.024   6.531   6.631  0.1666  0.1898 -0.0087
22305SOL    HW168356   7.043   6.541   6.538  0.5172 -0.5007 -0.0195
22305SOL    HW268357   7.004   6.438   6.641  1.1411  0.0460  0.7745
22306SOL     OW68358   7.847   7.804   7.409  0.0691 -0.0407  0.6214
22306SOL    HW168359   7.886   7.779   7.325 -0.8302  0.3795  0.0599
22306SOL    HW268360   7.754   7.785   7.399 -0.4393  2.0742  0.6745
22307SOL     OW68361   6.447   6.944   6.864 -0.0241  0.0316  0.4044
22307SOL    HW168362   6.460   6.938   6.770 -1.0572 -0.3275  0.2692
22307SOL    HW268363   6.362   6.902   6.880  1.2944 -2.3246  1.8195
22308SOL     OW68364   5.864   5.778   8.050 -0.4271 -0.2449  0.2514
22308SOL    HW168365   5.868   5.803   8.142  1.1035  0.7623 -0.0393
22308SOL    HW268366   5.805   5.703   8.047 -1.7481  0.6730  1.8185
22309SOL     OW68367   5.942   6.952   7.746 -0.1928  0.6368 -0.1720
22309SOL    HW168368   5.936   6.880   7.683  0.4724  0.7086 -0.3229
22309SOL    HW268369   5.857   6.997   7.738 -1.7852 -1.7194  1.9009
22310SOL     OW68370   4.910   7.188   7.649 -0.3887 -0.6780  0.0096
22310SOL    HW168371   4.866   7.104   7.633  2.6106 -2.5720  0.9639
22310SOL    HW268372   4.968   7.199   7.574  1.4642 -1.0814  1.3218
22311SOL     OW68373   7.549   6.841   7.780 -0.4753 -0.2520 -0.0397
22311SOL    HW168374   7.609   6.850   7.706 -0.7887 -1.1276 -0.4177
22311SOL    HW268375   7.570   6.756   7.819 -0.0880  0.3413  1.0983
22312SOL     OW68376   7.281   0.150   8.511  0.3997 -0.1548  0.8665
22312SOL    HW168377   7.217   0.125   8.445  0.0822  2.0367  0.2937
22312SOL    HW268378   7.354   0.188   8.462  1.3161 -0.8343  1.6405
22313SOL     OW68379   7.935   7.013   9.054  1.2469 -0.5453 -0.1435
22313SOL    HW168380   8.008   7.075   9.062  0.3984  0.6966 -1.4064
22313SOL    HW268381   7.962   6.953   8.985  1.6838 -1.0150  0.4305
22314SOL     OW68382   2.072   6.401   8.897  0.0816  0.0620 -0.3786
22314SOL    HW168383   2.147   6.459   8.911 -0.1621  0.3398 -0.2054
22314SOL    HW268384   2.101   6.316   8.931 -0.2139  0.5392  1.1650
22315SOL     OW68385   5.992   6.319   8.371 -0.3847 -0.6902  0.0837
22315SOL    HW168386   5.995   6.230   8.406  0.1340 -1.4059 -1.6422
22315SOL    HW268387   6.066   6.323   8.310 -0.0218  1.1489  0.5955
22316SOL     OW68388   7.616   7.749   5.525  0.2663  0.4363  0.2966
22316SOL    HW168389   7.564   7.682   5.568 -1.3399  1.1813 -0.4284
22316SOL    HW268390   7.595   7.830   5.572 -1.4203  1.2406 -1.6892
22317SOL     OW68391   5.328   3.856   6.411  0.2399 -0.1205  0.6662
22317SOL    HW168392   5.405   3.799   6.412  0.0498 -0.4692 -1.2164
22317SOL    HW268393   5.258   3.802   6.448  0.5133 -0.3974  0.7817
22318SOL     OW68394   5.774   6.820   9.405 -0.5037 -0.0674  0.5634
22318SOL    HW168395   5.701   6.856   9.455  0.2359  0.7267  1.0972
22318SOL    HW268396   5.734   6.753   9.349 -1.6934  0.6155  0.5636
22319SOL     OW68397   7.747   7.081   7.992 -0.1177  0.4335  0.2732
22319SOL    HW168398   7.688   7.013   7.957 -1.6690  0.2390  2.9743
22319SOL    HW268399   7.834   7.057   7.959 -0.8995 -1.8740 -0.2873
22320SOL     OW68400   6.423   7.025   9.249 -0.4723 -0.3298  0.1205
22320SOL    HW168401   6.510   6.987   9.265 -0.1918  0.4652  0.5289
22320SOL    HW268402   6.421   7.038   9.154 -0.1492 -0.3681  0.1042
22321SOL     OW68403   7.350   0.017  11.278  0.1263  0.4057  0.0070
22321SOL    HW168404   7.408  -0.056  11.298 -0.5274  0.1452  1.0411
22321SOL    HW268405   7.263  -0.021  11.274 -0.0189  0.8309 -1.3135
22322SOL     OW68406   7.383   0.676   8.936  0.3936 -0.0911 -0.3793
22322SOL    HW168407   7.413   0.763   8.911 -1.2142  0.5579 -0.1703
22322SOL    HW268408   7.374   0.681   9.031 -1.2150  0.0400 -0.5225
22323SOL     OW68409   6.029   7.196   7.604 -0.2827 -0.3930 -0.1576
22323SOL    HW168410   6.020   7.278   7.556 -2.1075  0.8915  2.1424
22323SOL    HW268411   5.969   7.135   7.560  0.6006 -0.3449 -1.4857
22324SOL     OW68412   6.029   7.210   9.059 -0.4017 -0.1738  0.0534
22324SOL    HW168413   6.005   7.196   8.967  0.1761  1.6244 -0.3913
22324SOL    HW268414   6.093   7.141   9.077 -0.9276 -0.8932 -0.7010
22325SOL     OW68415   7.175   6.432   8.013 -0.0172 -0.2977 -0.2338
22325SOL    HW168416   7.079   6.433   8.012 -0.0173  0.9704 -0.0360
22325SOL    HW268417   7.200   6.472   7.929  0.3003  1.7298  0.7632
22326SOL     OW68418   4.817   5.574   8.386 -0.4489  0.2446 -0.1234
22326SOL    HW168419   4.733   5.608   8.355 -0.6779  0.3712  0.6202
22326SOL    HW268420   4.841   5.508   8.321 -1.7120 -0.6581  0.2811
22327SOL     OW68421   0.804   6.759   8.444 -0.0067  0.6472 -0.5305
22327SOL    HW168422   0.883   6.758   8.390 -0.6343 -1.1144 -1.4944
22327SOL    HW268423   0.790   6.667   8.469 -0.5403  1.2199  1.4760
22328SOL     OW68424   5.468   7.850   8.492  0.3722  0.5239  0.0410
22328SOL    HW168425   5.404   7.904   8.446 -0.2117  0.9928  1.3652
22328SOL    HW268426   5.458   7.874   8.584  0.4659 -1.4722  0.6127
22329SOL     OW68427   6.708   7.032   9.500 -0.0176  0.2496  0.8611
22329SOL    HW168428   6.724   6.990   9.415  1.7180 -1.5265  1.9894
22329SOL    HW268429   6.762   7.111   9.498  0.2521  0.0596  0.4237
22330SOL     OW68430   7.398   6.218   8.397  0.1560  0.2980 -0.3889
22330SOL    HW168431   7.401   6.298   8.449  0.1565  0.9867 -1.4178
22330SOL    HW268432   7.320   6.228   8.342  0.1336 -0.4324 -0.5004
22331SOL     OW68433   4.900   0.102   7.005 -0.5005 -0.1296  0.1746
22331SOL    HW168434   4.845   0.024   7.004  0.7690 -1.0569 -0.5426
22331SOL    HW268435   4.990   0.069   6.996  0.0603  1.4170 -0.3853
22332SOL     OW68436   6.406   6.472   9.633 -0.5815 -0.3891  0.0401
22332SOL    HW168437   6.473   6.535   9.661 -1.2473 -0.1106  1.0653
22332SOL    HW268438   6.454   6.410   9.577  0.6966 -0.5876  1.2857
22333SOL     OW68439   7.518   6.951   8.195  0.3988  0.0779 -0.5722
22333SOL    HW168440   7.525   6.863   8.232  0.8212  0.6501  0.7737
22333SOL    HW268441   7.609   6.979   8.182  0.2722  0.3696 -0.8513
22334SOL     OW68442   5.597   0.626   7.645 -0.0602 -0.3287 -0.3644
22334SOL    HW168443   5.513   0.602   7.683  0.2310 -0.1172  0.4228
22334SOL    HW268444   5.581   0.628   7.550 -1.1297  0.4215 -0.1830
22335SOL     OW68445   5.893   6.799   9.814 -0.0380  0.0797  0.1388
22335SOL    HW168446   5.798   6.811   9.804  0.0714  0.5744 -0.3798
22335SOL    HW268447   5.920   6.760   9.731  0.0233 -1.3341  0.7935
22336SOL     OW68448   5.925   7.932   7.917 -0.5774 -0.6556 -0.2337
22336SOL    HW168449   5.958   7.859   7.865 -1.0001 -0.4654 -0.7714
22336SOL    HW268450   5.958   8.010   7.873 -1.2584 -0.4807 -0.4536
22337SOL     OW68451   5.984   5.470   8.991 -0.2054  0.3489 -0.0686
22337SOL    HW168452   5.953   5.456   9.080  0.7912 -1.4310  0.0508
22337SOL    HW268453   6.064   5.522   9.002  0.2318 -0.3474  0.1551
22338SOL     OW68454   4.354   5.043  10.433 -0.0247  0.2746  0.3304
22338SOL    HW168455   4.362   5.115  10.371  0.1982  0.4043  0.5102
22338SOL    HW268456   4.260   5.034  10.447 -0.1834 -0.6027 -1.0310
22339SOL     OW68457   6.706   0.991   7.841  0.1873 -0.3336  0.1654
22339SOL    HW168458   6.637   1.046   7.877  0.5348 -0.1862  0.6082
22339SOL    HW268459   6.681   0.978   7.749 -0.9238 -1.0599  0.5551
22340SOL     OW68460   7.094   6.063   6.820  0.2535  0.4689 -0.0841
22340SOL    HW168461   7.060   6.052   6.731  0.8423 -1.4809 -0.1157
22340SOL    HW268462   7.186   6.086   6.808  0.0410  1.4470  0.0409
22341SOL     OW68463   6.955   6.773   7.656 -0.6979 -0.0573 -0.1352
22341SOL    HW168464   6.965   6.779   7.561  0.0949 -0.6847 -0.1065
22341SOL    HW268465   7.003   6.849   7.690  2.1190 -1.7042 -0.1167
22342SOL     OW68466   4.900   6.640   8.305 -0.0245  0.3262  0.1718
22342SOL    HW168467   4.995   6.638   8.318 -0.1502  0.4249  1.2561
22342SOL    HW268468   4.874   6.548   8.299 -0.0698  0.1905  1.8330
22343SOL     OW68469   7.763   6.153   9.140  0.3293 -0.0826 -0.1485
22343SOL    HW168470   7.841   6.101   9.159 -0.1747 -0.6764  0.3859
22343SOL    HW268471   7.727   6.114   9.061  0.7111  0.3559 -0.5405
22344SOL     OW68472   5.129   6.982   8.332 -0.3492  0.5661  0.1027
22344SOL    HW168473   5.162   6.894   8.312 -1.7897 -0.4410  1.8391
22344SOL    HW268474   5.034   6.972   8.334 -0.4778  1.8018  1.8614
22345SOL     OW68475   5.439   6.917   9.906  0.6240 -0.2086  0.1425
22345SOL    HW168476   5.487   6.861   9.845  0.7235 -0.2488  0.2576
22345SOL    HW268477   5.391   6.978   9.849  0.6390 -0.3075  0.0221
22346SOL     OW68478   5.386   5.441   7.756 -0.2696 -0.2152  0.2633
22346SOL    HW168479   5.460   5.442   7.818  1.0611  0.2066 -1.2542
22346SOL    HW268480   5.352   5.530   7.756 -0.3742 -0.2559  0.5091
22347SOL     OW68481   6.824   5.356   7.699  0.1856  0.5978  0.0612
22347SOL    HW168482   6.916   5.380   7.684  0.4130 -0.3868 -0.1714
22347SOL    HW268483   6.825   5.304   7.779 -0.1185  0.2919 -0.1292
22348SOL     OW68484   1.202   5.844   6.942  0.0928  0.3627 -0.2864
22348SOL    HW168485   1.168   5.755   6.941 -2.5612  1.2347  2.1633
22348SOL    HW268486   1.297   5.833   6.944 -0.1544 -2.5264  2.7047
22349SOL     OW68487   7.716   7.457   8.572 -0.2750  0.6566  0.6048
22349SOL    HW168488   7.699   7.522   8.640  0.6570 -1.3495  2.8788
22349SOL    HW268489   7.648   7.472   8.507 -2.1771  1.6739  2.7047
22350SOL     OW68490   0.129   7.190   9.579 -0.8114  0.2901 -0.8299
22350SOL    HW168491   0.085   7.112   9.613 -0.7489  0.3651 -0.5746
22350SOL    HW268492   0.071   7.262   9.605 -0.0029  0.5046  0.4697
22351SOL     OW68493   5.669   5.068   7.923  0.5147  0.7902 -0.0995
22351SOL    HW168494   5.712   5.065   8.008  0.1129  0.0997  0.0840
22351SOL    HW268495   5.739   5.088   7.861  1.6906 -2.9779 -0.1983
22352SOL     OW68496   7.999   3.194   7.652 -0.2246 -0.4121 -0.2324
22352SOL    HW168497   7.958   3.197   7.738 -0.8384  1.0103 -0.5427
22352SOL    HW268498   8.002   3.101   7.629  0.7743 -0.8984  1.6889
22353SOL     OW68499   5.795   4.329   7.036  0.3905 -0.3803  0.1085
22353SOL    HW168500   5.845   4.386   7.095  0.7610 -1.4812  0.8751
22353SOL    HW268501   5.843   4.247   7.034 -1.3137 -1.4467  0.7923
22354SOL     OW68502   6.785   0.203   6.866 -0.8452 -0.2412  0.2985
22354SOL    HW168503   6.728   0.135   6.829  0.4880 -1.6087  0.6233
22354SOL    HW268504   6.799   0.264   6.794  0.8063 -2.2604 -1.2641
22355SOL     OW68505   5.135   5.449   7.686 -0.4373  0.2306  0.5223
22355SOL    HW168506   5.228   5.435   7.704 -0.4606 -0.1923  0.3195
22355SOL    HW268507   5.097   5.361   7.687 -0.6402  0.2956 -0.4936
22356SOL     OW68508   6.613   7.352   7.984  0.0489  0.0103  0.0691
22356SOL    HW168509   6.652   7.397   8.059  0.1265 -0.9582  0.6189
22356SOL    HW268510   6.559   7.284   8.023 -1.2375  0.5558 -0.7200
22357SOL     OW68511   6.771   7.650   8.104  0.2740 -0.1803  0.2214
22357SOL    HW168512   6.745   7.688   8.188  0.5866  0.6073 -0.0262
22357SOL    HW268513   6.692   7.654   8.050  0.2685 -0.0139  0.2417
22358SOL     OW68514   6.417   5.455   9.357  0.5012 -0.1337 -0.4510
22358SOL    HW168515   6.494   5.418   9.314  2.1373  1.1446  1.2046
22358SOL    HW268516   6.436   5.448   9.451 -1.8772 -0.6838  0.0612
22359SOL     OW68517   7.290   7.926   7.676 -0.2771  0.1713 -0.0382
22359SOL    HW168518   7.382   7.954   7.672 -0.2236 -0.0171 -0.0940
22359SOL    HW268519   7.246   7.998   7.722 -0.6519  1.6940 -2.5549
22360SOL     OW68520   5.952   6.410   8.065  0.2805  0.1612  0.1968
22360SOL    HW168521   6.039   6.372   8.076 -0.5114 -1.3677  1.6457
22360SOL    HW268522   5.892   6.336   8.073 -1.2472  1.4058  0.9249
22361SOL     OW68523   5.815   5.795   8.339 -0.0780  0.2249 -0.4728
22361SOL    HW168524   5.908   5.783   8.358  0.5315  2.5548 -1.6640
22361SOL    HW268525   5.777   5.823   8.423  0.4846  0.2538 -0.2264
22362SOL     OW68526   5.170   6.669   8.414 -0.3876 -0.0767 -0.1544
22362SOL    HW168527   5.149   6.691   8.505  1.9920  0.2725  0.3836
22362SOL    HW268528   5.180   6.574   8.414 -0.9049 -0.1339 -0.1838
22363SOL     OW68529   5.710   6.813   8.577  0.0099 -0.2051 -0.2795
22363SOL    HW168530   5.689   6.901   8.607 -0.6663 -0.3312 -0.3713
22363SOL    HW268531   5.803   6.802   8.598 -0.1206  0.1989  0.5363
22364SOL     OW68532   7.200   6.560   8.907  0.0779 -0.0586 -0.3081
22364SOL    HW168533   7.176   6.506   8.982  1.5713  0.2235  0.4041
22364SOL    HW268534   7.120   6.564   8.854 -0.4880 -1.7586  0.3363
22365SOL     OW68535   7.645   6.256   6.836  0.3406  0.0130  0.1368
22365SOL    HW168536   7.603   6.312   6.771  1.1965 -0.2729 -0.6955
22365SOL    HW268537   7.721   6.307   6.865  0.2031 -0.0441  0.6089
22366SOL     OW68538   7.892   7.980   9.643  0.1302 -0.3993 -0.2379
22366SOL    HW168539   7.947   7.947   9.571  1.3894  1.8517 -0.3803
22366SOL    HW268540   7.888   8.074   9.629 -0.7226 -0.0734  1.9120
22367SOL     OW68541   4.961   7.827   8.460  0.1997  0.0270  0.0866
22367SOL    HW168542   5.009   7.813   8.542  0.3542 -0.3585 -0.0670
22367SOL    HW268543   4.979   7.748   8.409 -1.5901 -0.6977  0.5123
22368SOL     OW68544   0.171   6.263   8.197  0.0811  0.1077 -0.2809
22368SOL    HW168545   0.159   6.225   8.110  0.9630  0.7812 -0.7127
22368SOL    HW268546   0.104   6.331   8.204  1.3647  1.5481 -1.3271
22369SOL     OW68547   5.977   6.426   8.990  0.1908 -0.1893  0.0463
22369SOL    HW168548   5.935   6.391   9.068  1.5391  1.3496  1.5542
22369SOL    HW268549   5.907   6.473   8.944 -0.0363  1.5662  2.0315
22370SOL     OW68550   5.643   7.937   6.684 -0.2869 -0.3482  0.0971
22370SOL    HW168551   5.620   7.898   6.768  0.8412 -0.1661  0.5133
22370SOL    HW268552   5.739   7.933   6.682 -0.3252 -1.9705 -1.9478
22371SOL     OW68553   5.257   7.225   8.344 -0.8286  0.1878 -0.1168
22371SOL    HW168554   5.218   7.138   8.337  1.0195 -0.8978  1.9607
22371SOL    HW268555   5.236   7.254   8.433  1.7525  0.1422  0.5934
22372SOL     OW68556   7.766   7.006   6.895 -0.1950 -0.8389 -0.6163
22372SOL    HW168557   7.777   6.937   6.830  0.8178 -1.0295 -0.2743
22372SOL    HW268558   7.691   6.979   6.947 -1.4251 -0.3562 -2.0904
22373SOL     OW68559   6.803   5.485   7.440 -0.0015  0.0783  0.0524
22373SOL    HW168560   6.715   5.499   7.404  0.1549 -1.0343 -0.7840
22373SOL    HW268561   6.789   5.429   7.516 -0.0854  0.5283  0.3740
22374SOL     OW68562   7.395   6.423   6.639  0.1219  0.0252 -0.4117
22374SOL    HW168563   7.332   6.492   6.622  0.6679  0.2151 -1.7775
22374SOL    HW268564   7.416   6.387   6.553  0.1533 -1.5788  0.2343
22375SOL     OW68565   5.781   1.757   8.805 -0.1507 -0.1373  0.6831
22375SOL    HW168566   5.737   1.765   8.889  1.1370  1.6657  1.2516
22375SOL    HW268567   5.870   1.728   8.827  0.6723  1.7834  0.1699
22376SOL     OW68568   5.392   0.471   7.857 -0.4138 -0.3095  0.0626
22376SOL    HW168569   5.370   0.488   7.949 -1.1253  0.5958 -0.2594
22376SOL    HW268570   5.487   0.480   7.854 -0.4370  0.2213  0.6104
22377SOL     OW68571   5.982   0.522   7.438  0.2690  0.4513 -0.6194
22377SOL    HW168572   5.988   0.615   7.460 -0.7727  0.2655  0.5661
22377SOL    HW268573   5.894   0.512   7.402 -0.4087 -0.4124  1.1605
22378SOL     OW68574   7.656   0.228   7.090  0.3292  0.2729  0.3900
22378SOL    HW168575   7.645   0.264   7.002 -0.5290  0.0797  0.4138
22378SOL    HW268576   7.616   0.292   7.148  0.8623  0.3825  0.6444
22379SOL     OW68577   7.845   0.942   6.525  0.0112  0.5435  0.2449
22379SOL    HW168578   7.886   1.020   6.488  1.2011 -1.0616 -2.0977
22379SOL    HW268579   7.753   0.948   6.497 -0.0945  1.4296  0.7365
22380SOL     OW68580   6.541   0.383   6.580 -0.0263 -0.5975  0.0862
22380SOL    HW168581   6.557   0.384   6.486 -0.6472  1.2704 -0.0420
22380SOL    HW268582   6.621   0.344   6.618  1.6560  1.5644 -1.0109
22381SOL     OW68583   6.736   7.269   6.736  0.3435  0.3925  0.2169
22381SOL    HW168584   6.695   7.238   6.817 -0.4126 -0.0643 -0.3232
22381SOL    HW268585   6.724   7.364   6.738 -2.0433  0.1822 -0.5671
22382SOL     OW68586   6.655   0.438   8.199 -0.3286  0.0010  0.4292
22382SOL    HW168587   6.732   0.487   8.171 -0.9657  2.0881  2.1094
22382SOL    HW268588   6.587   0.461   8.135 -0.3945  0.6373  0.7268
22383SOL     OW68589   6.681   7.128   8.741 -0.2233  0.1199 -0.1106
22383SOL    HW168590   6.747   7.144   8.809 -1.9039  0.6738  1.4686
22383SOL    HW268591   6.714   7.051   8.694  1.6491  0.5162  0.4498
22384SOL     OW68592   5.002   7.424   9.684  0.1072  0.5366  0.4307
22384SOL    HW168593   4.976   7.515   9.670 -0.2966  0.3173 -0.3290
22384SOL    HW268594   4.948   7.374   9.622  1.9617  0.0115 -0.8565
22385SOL     OW68595   7.622   7.206   7.131 -0.3461 -0.3970 -0.0025
22385SOL    HW168596   7.575   7.129   7.100  1.3548 -0.4507 -2.7805
22385SOL    HW268597   7.713   7.177   7.140 -0.0185  0.8019  0.8180
22386SOL     OW68598   4.704   5.354   8.871 -0.7407 -0.1454  0.2590
22386SOL    HW168599   4.657   5.306   8.802  0.2527 -0.1377 -0.4401
22386SOL    HW268600   4.669   5.318   8.953 -4.6616  2.3476 -0.0488
22387SOL     OW68601   7.555   6.826   8.660  0.1408  0.3591 -0.1357
22387SOL    HW168602   7.508   6.765   8.717 -1.7197  0.1504 -1.7732
22387SOL    HW268603   7.543   6.912   8.700 -0.2748  0.0941  0.3160
22388SOL     OW68604   5.897   7.106   7.128  0.4738 -0.0969 -0.0788
22388SOL    HW168605   5.954   7.095   7.205  1.7947  0.2647 -0.9798
22388SOL    HW268606   5.899   7.020   7.085  0.3067 -0.0915 -0.0959
22389SOL     OW68607   6.708   6.674   6.461  0.5517  0.6795  0.5668
22389SOL    HW168608   6.792   6.660   6.417  0.1415  1.2772 -0.4526
22389SOL    HW268609   6.717   6.760   6.502  0.9367  0.1211  1.7138
22390SOL     OW68610   5.778   7.566   8.668  0.3011  0.0071 -0.3213
22390SOL    HW168611   5.825   7.535   8.745 -1.2800 -0.0212  0.6586
22390SOL    HW268612   5.740   7.650   8.694  0.7926  0.6388 -1.5055
22391SOL     OW68613   0.927   7.110   9.463  0.0511 -0.2943 -0.1814
22391SOL    HW168614   0.931   7.204   9.443  1.0011 -0.3698 -0.4136
22391SOL    HW268615   0.889   7.070   9.385 -0.9196 -0.0456  0.1518
22392SOL     OW68616   0.513   5.742   6.869 -0.4216  0.7236 -0.2270
22392SOL    HW168617   0.589   5.774   6.820 -0.0287  0.9089  0.4884
22392SOL    HW268618   0.455   5.818   6.874 -0.9971  0.3845 -1.3993
22393SOL     OW68619   7.009   5.435   7.976 -0.7942  0.1534 -0.0472
22393SOL    HW168620   6.971   5.355   8.010  0.0701  0.2141  1.1395
22393SOL    HW268621   7.085   5.406   7.924 -0.6163  0.1890  0.1919
22394SOL     OW68622   6.497   0.020   6.394  0.6066  0.1513  0.2269
22394SOL    HW168623   6.435   0.090   6.418 -0.0306 -0.5680  0.7328
22394SOL    HW268624   6.543   0.054   6.318 -0.8272  0.4894 -0.5356
22395SOL     OW68625   6.799   6.940   6.830 -0.1692 -0.6343 -0.2972
22395SOL    HW168626   6.894   6.925   6.824  0.3720  2.4135 -1.4299
22395SOL    HW268627   6.786   6.978   6.916  0.2710  1.8573 -1.2256
22396SOL     OW68628   5.177   7.688   7.125 -0.2701 -0.4840 -0.4393
22396SOL    HW168629   5.096   7.638   7.117 -0.2200 -0.5356 -0.6391
22396SOL    HW268630   5.236   7.647   7.062 -0.4505  0.2622 -1.1121
22397SOL     OW68631   4.916   0.432   7.822  0.5141 -0.8027 -0.2633
22397SOL    HW168632   4.897   0.338   7.828  0.1306 -0.7255 -0.2463
22397SOL    HW268633   4.945   0.457   7.910 -0.4274 -0.6813  0.0185
22398SOL     OW68634   6.477   5.309   6.734 -0.0860  0.0938 -0.4098
22398SOL    HW168635   6.405   5.368   6.712  0.9776  0.7015 -2.4581
22398SOL    HW268636   6.532   5.360   6.794  0.2453  0.7985 -1.2953
22399SOL     OW68637   5.495   7.430   6.138  0.5192  0.0023 -0.8079
22399SOL    HW168638   5.509   7.511   6.188  0.5200  0.6792 -1.8529
22399SOL    HW268639   5.407   7.439   6.103 -0.3102 -1.4488  0.7787
22400SOL     OW68640   4.983   7.260   8.952 -0.1872  0.2044 -0.0502
22400SOL    HW168641   5.024   7.191   9.004 -1.3151  0.0675  0.6933
22400SOL    HW268642   4.965   7.219   8.867 -0.2332 -0.2121  0.1575
22401SOL     OW68643   5.242   6.843   7.696  0.3839  0.3215 -0.1613
22401SOL    HW168644   5.151   6.822   7.674  0.2549 -0.6023  1.1416
22401SOL    HW268645   5.245   6.836   7.792  2.1873 -1.2844 -0.2814
22402SOL     OW68646   6.988   0.140   7.600  0.4809  0.5863  0.4568
22402SOL    HW168647   6.976   0.134   7.695 -0.1351 -0.5459  0.3296
22402SOL    HW268648   6.990   0.234   7.582 -0.9435  0.8235  1.4037
22403SOL     OW68649   5.042   5.828   8.442 -0.1414  0.0807 -0.0049
22403SOL    HW168650   5.019   5.891   8.510  1.2815  0.6318 -0.0032
22403SOL    HW268651   4.972   5.837   8.377 -1.3135 -0.1796  1.1652
22404SOL     OW68652   7.535   5.676   9.375  0.2297 -0.2771 -0.1273
22404SOL    HW168653   7.600   5.694   9.306 -0.1640 -1.7727 -0.9426
22404SOL    HW268654   7.553   5.585   9.401 -0.4267 -0.1273  0.8829
22405SOL     OW68655   6.676   4.809   9.550 -0.1649  0.4996 -0.1215
22405SOL    HW168656   6.645   4.771   9.468 -0.7072 -0.3873  0.4670
22405SOL    HW268657   6.655   4.902   9.544  2.5131  1.0716 -2.2182
22406SOL     OW68658   6.855   7.464   8.852  0.2036 -0.1484  0.0656
22406SOL    HW168659   6.853   7.369   8.843 -1.8669 -0.1711  0.2850
22406SOL    HW268660   6.820   7.481   8.939 -0.2000  0.8485 -0.2745
22407SOL     OW68661   4.580   5.278   9.845 -0.3238  0.4071  0.1087
22407SOL    HW168662   4.618   5.341   9.783  0.3810 -0.3821 -0.2813
22407SOL    HW268663   4.569   5.328   9.926  0.3072  1.0069 -0.1644
22408SOL     OW68664   0.102   6.523   7.937  0.3651  0.3689  0.8299
22408SOL    HW168665   0.119   6.466   7.862 -1.2682  1.8805 -0.7968
22408SOL    HW268666   0.096   6.464   8.011 -0.0184 -1.4447 -0.5789
22409SOL     OW68667   5.910   6.678   7.643  0.4582  0.3971 -0.0836
22409SOL    HW168668   5.928   6.586   7.661  0.1719  0.4698  0.5932
22409SOL    HW268669   5.832   6.698   7.694 -0.3419  0.6391 -1.3460
22410SOL     OW68670   7.211   5.533   7.745  0.3590  0.0131 -0.1777
22410SOL    HW168671   7.182   5.457   7.694  1.8232  0.1966 -1.3302
22410SOL    HW268672   7.289   5.502   7.791 -0.1340  0.2804  0.8824
22411SOL     OW68673   5.857   6.300   9.992  0.2053  0.1455 -0.0447
22411SOL    HW168674   5.837   6.207   9.985 -0.4213  0.2095  0.6960
22411SOL    HW268675   5.932   6.313   9.935 -0.4681 -0.5705 -1.1428
22412SOL     OW68676   6.259   6.059   8.650 -0.2956  0.1522 -0.0270
22412SOL    HW168677   6.261   6.148   8.687  1.0336 -0.0586  0.4311
22412SOL    HW268678   6.300   6.068   8.564 -2.7706  0.5067 -1.2625
22413SOL     OW68679   5.622   7.654   8.144 -0.3943 -0.0169 -0.1053
22413SOL    HW168680   5.540   7.670   8.099 -0.0182  2.3316 -0.0742
22413SOL    HW268681   5.597   7.609   8.225 -1.8291  1.7698  0.5121
22414SOL     OW68682   7.445   5.749   5.149  0.6122 -0.5707 -0.1117
22414SOL    HW168683   7.349   5.749   5.150  0.6058 -0.0464  0.9670
22414SOL    HW268684   7.468   5.712   5.064 -0.5593  0.4497 -0.9109
22415SOL     OW68685   5.549   5.638   7.498 -0.2191  0.7312 -0.1872
22415SOL    HW168686   5.630   5.652   7.547  0.2669 -1.5276 -0.2475
22415SOL    HW268687   5.484   5.692   7.543  0.9992  1.4772  0.7276
22416SOL     OW68688   7.994   4.973   8.541 -0.0255  0.4945 -0.5974
22416SOL    HW168689   8.009   5.016   8.457 -0.1729  1.9321  0.0869
22416SOL    HW268690   8.025   5.036   8.606 -0.1075 -0.5089  0.4387
22417SOL     OW68691   5.660   7.576   7.753 -0.1208  0.0976 -0.4988
22417SOL    HW168692   5.647   7.582   7.847  1.7401 -0.7119 -0.1492
22417SOL    HW268693   5.572   7.572   7.716 -0.8701  0.4658  1.1833
22418SOL     OW68694   5.951   7.455   8.843 -0.2912  0.5743 -0.0894
22418SOL    HW168695   5.973   7.457   8.937 -0.3813  1.3929 -0.0721
22418SOL    HW268696   5.957   7.363   8.819  1.0019  0.4980  0.4226
22419SOL     OW68697   5.774   5.385   7.240 -0.0739  0.3014 -0.1590
22419SOL    HW168698   5.861   5.361   7.206 -0.2399  1.6971 -1.6700
22419SOL    HW268699   5.787   5.391   7.335  1.4281  0.2587 -0.3268
22420SOL     OW68700   5.493   6.735   8.980 -0.8308  0.0890  0.4098
22420SOL    HW168701   5.575   6.783   8.969 -0.8270 -0.1745 -0.8035
22420SOL    HW268702   5.430   6.783   8.928 -0.9107 -1.0024 -0.5213
22421SOL     OW68703   7.587   6.144   9.492 -0.1751  0.3678  0.3628
22421SOL    HW168704   7.535   6.223   9.484  0.0036  0.4191 -0.4067
22421SOL    HW268705   7.536   6.077   9.446  0.5945  0.5049 -0.7287
22422SOL     OW68706   6.136   7.846   6.755 -0.3456 -0.0303  0.2882
22422SOL    HW168707   6.065   7.900   6.719 -0.3659 -0.0725  0.2657
22422SOL    HW268708   6.096   7.760   6.770 -0.2159 -0.1413 -0.0140
22423SOL     OW68709   6.967   7.911   8.103 -0.5150  0.3361  0.0823
22423SOL    HW168710   6.873   7.925   8.119 -0.4942 -0.2144  0.7347
22423SOL    HW268711   6.975   7.816   8.089 -0.0063  0.3362  0.3737
22424SOL     OW68712   6.730   7.019   7.781  0.0629 -0.6859  0.1816
22424SOL    HW168713   6.823   7.020   7.756 -0.3138 -0.8969 -1.3765
22424SOL    HW268714   6.724   7.079   7.854  1.0351  1.3505 -1.3151
22425SOL     OW68715   0.485   0.460   8.589 -0.7020  0.3522  0.4725
22425SOL    HW168716   0.522   0.484   8.504 -1.3270 -0.0769  0.0648
22425SOL    HW268717   0.405   0.512   8.596  0.5543  2.2077  1.9048
22426SOL     OW68718   5.720   5.972   9.467  0.3380 -0.2270 -0.8181
22426SOL    HW168719   5.790   5.911   9.491 -1.0609 -1.6498 -0.1728
22426SOL    HW268720   5.715   6.033   9.541  1.5013  0.4942 -1.3045
22427SOL     OW68721   7.260   7.381   8.573  1.1109 -0.0422  0.0565
22427SOL    HW168722   7.252   7.286   8.579 -0.4166 -0.0371 -1.2530
22427SOL    HW268723   7.171   7.413   8.579  1.6784  1.4107  1.3832
22428SOL     OW68724   0.186   0.228   8.481 -0.0659 -0.0538  0.0828
22428SOL    HW168725   0.183   0.154   8.541 -0.5132 -0.0046  0.1274
22428SOL    HW268726   0.179   0.189   8.394 -2.1549  0.0264  0.1637
22429SOL     OW68727   0.292   4.616   7.301 -0.9815 -0.3777  0.2430
22429SOL    HW168728   0.283   4.602   7.207 -1.1290 -0.1217  0.2183
22429SOL    HW268729   0.261   4.535   7.341  3.0628 -2.2909 -0.0308
22430SOL     OW68730   7.773   4.999   6.802  0.0992  0.2279  0.5072
22430SOL    HW168731   7.694   4.993   6.747  0.5606  0.4584 -0.1923
22430SOL    HW268732   7.840   4.954   6.751 -0.1163 -2.0933  2.1431
22431SOL     OW68733   1.458   7.356   9.200  0.7174  0.3135  0.6199
22431SOL    HW168734   1.516   7.385   9.130 -0.0490 -0.2835 -0.2994
22431SOL    HW268735   1.389   7.423   9.202  0.9015  0.4910  1.0167
22432SOL     OW68736   5.913   6.616   8.224 -0.1998 -0.2570 -0.0936
22432SOL    HW168737   6.002   6.650   8.219 -0.7096  1.0013 -2.3463
22432SOL    HW268738   5.916   6.533   8.176 -0.5006  0.5646 -1.6041
22433SOL     OW68739   6.330   0.936   6.082 -0.2659 -0.4383 -0.1021
22433SOL    HW168740   6.273   0.882   6.137 -0.9061  0.1145 -0.2195
22433SOL    HW268741   6.390   0.873   6.042 -0.1854 -0.9150  0.7519
22434SOL     OW68742   6.673   5.518   8.492 -0.1603  0.1125  0.5901
22434SOL    HW168743   6.639   5.509   8.403  1.1402  0.4347  0.0520
22434SOL    HW268744   6.709   5.606   8.496 -0.4111  0.1922  1.5277
22435SOL     OW68745   7.419   6.837  10.028 -0.5231  0.7561 -0.2096
22435SOL    HW168746   7.337   6.867  10.068  0.3279  0.3571  2.0099
22435SOL    HW268747   7.402   6.746  10.004 -0.8077  0.7452  0.0222
22436SOL     OW68748   5.527   3.741   9.039  0.0967  0.4758  0.2418
22436SOL    HW168749   5.497   3.682   9.108 -0.7186  0.0817 -0.4320
22436SOL    HW268750   5.472   3.720   8.964  0.7938  1.0773 -0.4561
22437SOL     OW68751   6.074   6.495   9.377 -0.2855 -0.1191  0.0374
22437SOL    HW168752   6.143   6.494   9.310 -1.3215  0.8459 -1.0818
22437SOL    HW268753   6.077   6.583   9.414 -1.0392 -0.0018 -0.1603
22438SOL     OW68754   5.232   5.690   8.992  0.2083  0.6080 -0.0998
22438SOL    HW168755   5.303   5.653   9.044  1.0768  0.6548 -1.1879
22438SOL    HW268756   5.152   5.656   9.031  0.5849  2.9079  3.0649
22439SOL     OW68757   6.270   5.655   9.418  0.3335  1.0732 -0.0859
22439SOL    HW168758   6.337   5.610   9.365 -1.1064 -1.7446  0.2873
22439SOL    HW268759   6.267   5.605   9.499 -1.4526  1.8275  0.3503
22440SOL     OW68760   7.606   7.380   9.044 -0.0835 -0.2952  0.0828
22440SOL    HW168761   7.540   7.397   8.977 -0.5841  0.5531  0.7577
22440SOL    HW268762   7.640   7.293   9.024  0.9063  0.5309 -2.1854
22441SOL     OW68763   6.432   7.562   8.179 -0.2202  0.9561  0.2918
22441SOL    HW168764   6.345   7.584   8.213 -0.2406  1.5687 -0.1338
22441SOL    HW268765   6.484   7.542   8.257 -1.1056 -0.8268  0.4721
22442SOL     OW68766   6.391   6.301  11.527 -0.3520 -0.0265  0.3406
22442SOL    HW168767   6.360   6.241  11.594  0.6780 -0.5154  0.3983
22442SOL    HW268768   6.464   6.348  11.567 -0.8322  0.9249  0.1315
22443SOL     OW68769   4.746   6.724   8.721 -0.4634  0.2182  0.2678
22443SOL    HW168770   4.841   6.728   8.706 -0.5418  1.3514 -0.0106
22443SOL    HW268771   4.734   6.648   8.777  0.5780 -0.1578  0.0044
22444SOL     OW68772   6.835   6.179  10.270 -0.0819 -0.6942  0.0007
22444SOL    HW168773   6.797   6.151  10.354 -0.3578 -0.7166 -0.1288
22444SOL    HW268774   6.920   6.215  10.293  0.2369 -1.5343  0.1893
22445SOL     OW68775   6.107   6.223  10.531  0.2261  0.6014 -0.0564
22445SOL    HW168776   6.152   6.142  10.507  1.2447  1.0687  0.2379
22445SOL    HW268777   6.089   6.266  10.447 -1.6613 -0.5957 -0.3273
22446SOL     OW68778   6.630   7.250   9.828  0.2572 -0.1545 -0.0180
22446SOL    HW168779   6.717   7.229   9.860  0.2131 -1.6648 -0.7635
22446SOL    HW268780   6.644   7.289   9.742  0.2035 -2.4880 -1.1826
22447SOL     OW68781   6.548   5.364  11.592  0.5246  0.0289 -0.1224
22447SOL    HW168782   6.605   5.296  11.556  2.1703  0.8962  0.7456
22447SOL    HW268783   6.568   5.365  11.685 -0.5606  0.7056  0.1215
22448SOL     OW68784   6.520   5.416  10.795  0.5778 -0.1042 -0.6435
22448SOL    HW168785   6.561   5.339  10.834 -0.1112  0.3793  1.1120
22448SOL    HW268786   6.580   5.488  10.814  0.4488  0.0601 -0.8551
22449SOL     OW68787   5.412   6.433  10.325  0.0034  0.6862  0.1435
22449SOL    HW168788   5.501   6.440  10.290 -0.3684 -0.6812 -1.2035
22449SOL    HW268789   5.420   6.461  10.416  1.8302  0.5623  0.0699
22450SOL     OW68790   7.569   6.859  12.359  0.5011 -0.2545  0.2113
22450SOL    HW168791   7.600   6.821  12.276 -2.5928 -0.0728 -1.2018
22450SOL    HW268792   7.531   6.784  12.406 -0.7118  0.1247 -0.1099
22451SOL     OW68793   4.967   6.660   8.993  0.0352  0.1790  0.1646
22451SOL    HW168794   5.002   6.575   9.019  0.9906  0.4353 -0.2422
22451SOL    HW268795   4.997   6.672   8.903 -0.0627  0.9513  0.2266
22452SOL     OW68796   7.343   5.727  11.626  0.5727 -0.0328  0.0161
22452SOL    HW168797   7.363   5.635  11.641  0.7364  0.0384  0.2429
22452SOL    HW268798   7.402   5.753  11.555  0.3092 -0.1823 -0.2594
22453SOL     OW68799   7.219   1.191   9.995 -0.6567 -0.2345 -0.0314
22453SOL    HW168800   7.195   1.252   9.925  0.8565  0.2082 -0.2005
22453SOL    HW268801   7.214   1.104   9.955  0.1342  0.0089 -0.6900
22454SOL     OW68802   6.077   6.790   9.447  0.0431  0.7182 -0.7302
22454SOL    HW168803   6.148   6.799   9.384  1.3591  0.3409  0.6317
22454SOL    HW268804   5.997   6.804   9.396  0.9266 -1.3121 -2.8425
22455SOL     OW68805   7.190   5.891   8.938  0.0707 -0.1825  0.8642
22455SOL    HW168806   7.260   5.867   8.877 -1.5107 -0.2651 -1.0422
22455SOL    HW268807   7.154   5.808   8.967 -0.9042 -0.1842 -0.2598
22456SOL     OW68808   4.324   5.412  11.252 -0.4176 -0.1294 -0.0590
22456SOL    HW168809   4.285   5.329  11.224 -1.0440 -0.4947  1.7460
22456SOL    HW268810   4.390   5.431  11.186 -2.2415 -0.5389 -2.1328
22457SOL     OW68811   5.630   0.083   8.669 -0.3232 -0.2797  0.0141
22457SOL    HW168812   5.626   0.125   8.583  0.2165 -0.6878 -0.2236
22457SOL    HW268813   5.547   0.105   8.711 -0.8149 -0.5014 -0.8110
22458SOL     OW68814   6.503   5.908   8.817 -0.3328  0.0084  0.1988
22458SOL    HW168815   6.550   5.963   8.756  2.6347 -2.6717 -0.1928
22458SOL    HW268816   6.441   5.859   8.763  2.2684 -2.3422 -0.8679
22459SOL     OW68817   7.018   7.152  10.114  0.3211 -0.6507  0.3188
22459SOL    HW168818   7.042   7.199  10.194  1.6044  1.1603 -1.0617
22459SOL    HW268819   6.964   7.215  10.065  1.1524 -1.0096 -1.0902
22460SOL     OW68820   6.058   0.793   7.832  0.4812  0.1234 -0.2947
22460SOL    HW168821   6.034   0.884   7.848  0.6201 -0.0629  1.1104
22460SOL    HW268822   5.975   0.748   7.821  0.3865  0.2943 -0.2824
22461SOL     OW68823   4.821   3.946  12.184 -0.4112  0.5120  0.4007
22461SOL    HW168824   4.869   3.900  12.115  0.3033  1.9448 -0.0839
22461SOL    HW268825   4.772   4.014  12.139  1.7736  2.9204  1.4394
22462SOL     OW68826   6.762   6.337   9.658  0.1402  0.3558  0.3478
22462SOL    HW168827   6.755   6.257   9.710 -1.0148 -0.6141 -1.2165
22462SOL    HW268828   6.790   6.307   9.572  0.6309  1.7670 -0.0139
22463SOL     OW68829   6.517   4.691  10.701  0.4137 -0.2166 -0.0652
22463SOL    HW168830   6.552   4.667  10.615  2.1842 -1.0881  0.8618
22463SOL    HW268831   6.584   4.663  10.763 -1.4205 -0.8505  1.7181
22464SOL     OW68832   6.427   6.828  10.787  0.0380  0.4430 -0.1453
22464SOL    HW168833   6.510   6.801  10.826  0.0669 -1.9716 -1.6114
22464SOL    HW268834   6.452   6.883  10.713  0.6487 -2.3898 -2.2176
22465SOL     OW68835   6.546   7.756   8.403 -0.2139 -0.0052 -0.3007
22465SOL    HW168836   6.635   7.761   8.370 -0.3774 -1.6293 -1.0823
22465SOL    HW268837   6.534   7.837   8.453  2.0845 -0.2811  0.8356
22466SOL     OW68838   7.167   2.087  10.920  0.4900  0.6036  0.1984
22466SOL    HW168839   7.201   2.173  10.895  2.3785 -0.6784 -1.9688
22466SOL    HW268840   7.102   2.066  10.853 -1.3470  1.0317  1.7422
22467SOL     OW68841   5.856   6.208  11.430 -0.2557 -0.1083  0.4012
22467SOL    HW168842   5.802   6.287  11.442  0.8123  0.4882  1.5671
22467SOL    HW268843   5.942   6.241  11.404 -0.2627 -1.0160 -0.8924
22468SOL     OW68844   6.021   7.128  10.743 -0.2307 -0.2753  0.6817
22468SOL    HW168845   6.012   7.223  10.729 -0.3302 -0.3005  0.5765
22468SOL    HW268846   6.108   7.107  10.708 -0.0276 -0.1481  1.0992
22469SOL     OW68847   6.666   0.322  11.896  0.2904  0.0519  0.2276
22469SOL    HW168848   6.637   0.277  11.974 -0.2734  0.3708  0.2050
22469SOL    HW268849   6.639   0.266  11.823 -0.5614  0.4984  0.1904
22470SOL     OW68850   6.705   5.599  10.875  0.1223 -0.9312  0.1113
22470SOL    HW168851   6.669   5.646  10.951 -0.2369  1.2432 -1.3317
22470SOL    HW268852   6.794   5.575  10.902 -0.8328 -2.5508  2.1413
22471SOL     OW68853   5.495   6.237  10.593 -0.1680 -0.3095 -0.0464
22471SOL    HW168854   5.475   6.172  10.660 -0.4385  1.0006  1.1749
22471SOL    HW268855   5.444   6.314  10.618  0.9510  0.7299 -0.8617
22472SOL     OW68856   7.808   0.655  10.957  0.0521 -0.1080  0.9094
22472SOL    HW168857   7.738   0.593  10.978  0.4043 -0.5105  0.9091
22472SOL    HW268858   7.773   0.740  10.984 -0.1143 -0.4123  1.7010
22473SOL     OW68859   6.028   7.094  10.148  0.4374  0.1074  0.0771
22473SOL    HW168860   5.979   7.016  10.170 -0.9695  0.9722  0.1029
22473SOL    HW268861   6.026   7.099  10.052 -1.5679  1.3596  0.1313
22474SOL     OW68862   6.055   6.339   9.791  0.2677  0.0046  0.1049
22474SOL    HW168863   6.121   6.270   9.779 -0.7970 -0.7789 -1.5656
22474SOL    HW268864   6.106   6.420   9.796  1.4791 -0.7762  1.0713
22475SOL     OW68865   4.810   5.003  10.907 -0.3686  0.2112 -0.0198
22475SOL    HW168866   4.787   4.912  10.889  0.7317 -0.4422  1.5804
22475SOL    HW268867   4.884   5.022  10.849 -0.4275 -0.0121 -0.1671
22476SOL     OW68868   6.599   4.697   9.975  0.2357 -0.1728 -0.1273
22476SOL    HW168869   6.676   4.707  10.030  0.2980 -0.6425 -0.1204
22476SOL    HW268870   6.600   4.605   9.950 -0.1342 -0.1025 -0.4066
22477SOL     OW68871   6.739   5.510   8.832  0.9329 -0.3808 -0.2136
22477SOL    HW168872   6.810   5.486   8.774 -0.7695 -1.9225 -1.8133
22477SOL    HW268873   6.716   5.599   8.807  1.2290 -0.4762 -0.8354
22478SOL     OW68874   6.722   6.752  11.569  0.4593 -0.1127 -0.5601
22478SOL    HW168875   6.790   6.747  11.635 -0.3860 -1.0982  0.2763
22478SOL    HW268876   6.739   6.678  11.510 -0.4833 -1.0437  0.2867
22479SOL     OW68877   4.575   0.230  11.040  0.8529 -0.3715  0.2267
22479SOL    HW168878   4.606   0.279  10.965 -1.1293 -0.6775 -0.8663
22479SOL    HW268879   4.558   0.297  11.107 -1.7491  0.5657 -1.2134
22480SOL     OW68880   5.545   5.845  10.778 -0.3073  0.6748  0.1045
22480SOL    HW168881   5.603   5.838  10.854  0.1429 -0.3673 -0.3208
22480SOL    HW268882   5.511   5.934  10.782 -1.0872  0.3477  2.1147
22481SOL     OW68883   0.763   5.301  11.407 -0.4967 -0.2899 -0.0157
22481SOL    HW168884   0.783   5.222  11.358  0.3480  0.2616 -0.5935
22481SOL    HW268885   0.848   5.330  11.441 -0.5513  1.1644 -1.0357
22482SOL     OW68886   6.217   6.559   9.831  0.1181  0.0408  0.6148
22482SOL    HW168887   6.202   6.652   9.813 -0.9611 -0.3936 -0.9078
22482SOL    HW268888   6.265   6.527   9.754 -3.3574 -1.5623 -1.1170
22483SOL     OW68889   6.987   7.006   9.332 -0.4569  0.0648 -0.2472
22483SOL    HW168890   6.990   6.912   9.317  0.9700  0.1294 -0.5639
22483SOL    HW268891   6.955   7.043   9.249  0.6082 -0.0477 -0.7249
22484SOL     OW68892   4.908   0.472   8.734  0.1344  0.0623  0.0890
22484SOL    HW168893   4.895   0.400   8.672 -1.3640  0.1815  0.2260
22484SOL    HW268894   4.843   0.538   8.707  0.5562  0.7793  0.8073
22485SOL     OW68895   5.978   7.342   9.816  0.3560 -0.5622 -0.2219
22485SOL    HW168896   5.930   7.402   9.758  0.0961 -0.6740 -0.1220
22485SOL    HW268897   6.058   7.322   9.768  0.4994 -0.0420 -0.2075
22486SOL     OW68898   5.805   6.562  10.494 -0.2464 -0.2183  0.1115
22486SOL    HW168899   5.765   6.526  10.415  0.8287 -0.6568 -0.2524
22486SOL    HW268900   5.735   6.614  10.534 -1.2130 -1.0680 -0.4134
22487SOL     OW68901   6.285   6.173   9.772  0.4172 -0.7863  0.1382
22487SOL    HW168902   6.346   6.183   9.845  0.8165  0.9500 -0.3783
22487SOL    HW268903   6.340   6.159   9.696  0.0074 -2.3806  0.1062
22488SOL     OW68904   4.758   0.446   9.235 -0.5725  0.3132 -0.7908
22488SOL    HW168905   4.842   0.468   9.195 -0.7169  1.0526 -0.6990
22488SOL    HW268906   4.726   0.529   9.271 -0.7200 -0.2253  0.3462
22489SOL     OW68907   5.424   6.143  10.338  0.9254  0.0415  0.7347
22489SOL    HW168908   5.409   6.225  10.290  1.2998  0.3785  1.1891
22489SOL    HW268909   5.441   6.170  10.428 -0.4896 -0.6238  1.2448
22490SOL     OW68910   6.370   6.154  12.092 -0.8736 -0.1879  0.7472
22490SOL    HW168911   6.305   6.087  12.070 -3.4949  1.6137  2.4544
22490SOL    HW268912   6.328   6.237  12.070  0.7384  1.0886  2.1537
22491SOL     OW68913   5.415   7.092   9.239 -0.4297  0.0715  0.0520
22491SOL    HW168914   5.385   7.032   9.171 -3.0045 -1.5958  2.4341
22491SOL    HW268915   5.341   7.151   9.254  0.6577  1.4233  0.4131
22492SOL     OW68916   6.851   4.467  10.659  0.1398 -0.5043 -0.1122
22492SOL    HW168917   6.841   4.446  10.566  0.3878  0.6374 -0.4040
22492SOL    HW268918   6.890   4.554  10.661  1.0038 -0.8905  1.0673
22493SOL     OW68919   0.345   6.239  10.445  0.2877 -0.1914  0.1637
22493SOL    HW168920   0.337   6.262  10.537  1.2135 -0.4390  0.3184
22493SOL    HW268921   0.356   6.323  10.400  0.7697 -0.1270  0.3935
22494SOL     OW68922   5.462   7.247   8.863 -0.6570 -0.3007  0.4704
22494SOL    HW168923   5.511   7.291   8.932 -2.3304  1.1096  0.8266
22494SOL    HW268924   5.530   7.212   8.804  0.7691  1.3680  1.0362
22495SOL     OW68925   7.018   5.091  10.898 -0.2442 -0.2670  0.3183
22495SOL    HW168926   7.040   5.066  10.987  0.1185 -1.3901 -0.0684
22495SOL    HW268927   7.063   5.174  10.883 -0.8377  0.2648  1.3800
22496SOL     OW68928   5.478   7.095  11.554  0.0538 -0.6148  0.4277
22496SOL    HW168929   5.470   7.142  11.471  1.1123 -2.4976 -0.8442
22496SOL    HW268930   5.419   7.140  11.614  0.5371  1.8761 -0.8454
22497SOL     OW68931   6.280   7.839   8.456 -0.1794  0.0671  0.4319
22497SOL    HW168932   6.322   7.817   8.539 -0.7921  0.2815  0.8035
22497SOL    HW268933   6.345   7.891   8.409  0.2828 -0.3096  0.6509
22498SOL     OW68934   6.370   4.461   8.455  0.0519  0.2334 -0.3175
22498SOL    HW168935   6.295   4.432   8.507  0.1470  0.2796 -0.1556
22498SOL    HW268936   6.389   4.549   8.488  0.9250 -0.2381  0.4558
22499SOL     OW68937   7.253   5.617  10.394 -0.8426  0.3210 -0.1384
22499SOL    HW168938   7.198   5.540  10.412  0.9382 -0.8921  0.3829
22499SOL    HW268939   7.191   5.690  10.392 -2.3929 -0.8671  1.1525
22500SOL     OW68940   6.144   5.203   9.954 -0.0352 -0.3714  0.1099
22500SOL    HW168941   6.200   5.128   9.937 -0.4162 -0.3547 -1.4009
22500SOL    HW268942   6.200   5.279   9.939  0.1848 -0.3313  1.0472
22501SOL     OW68943   7.893   6.311  10.625 -0.5053 -0.0827  0.2366
22501SOL    HW168944   7.949   6.239  10.656  0.6024  0.9266  0.6694
22501SOL    HW268945   7.806   6.291  10.660 -0.3233 -1.4393 -0.0363
22502SOL     OW68946   5.809   7.488  11.291 -0.3283  0.4217  0.1912
22502SOL    HW168947   5.738   7.476  11.354 -0.8082  1.2228 -0.1719
22502SOL    HW268948   5.835   7.580  11.303  0.3810  0.2403  0.0485
22503SOL     OW68949   6.517   6.088  11.819 -0.4344 -0.4985 -0.1919
22503SOL    HW168950   6.425   6.112  11.816 -0.2021  0.4138 -0.3783
22503SOL    HW268951   6.520   5.999  11.782 -1.1171 -0.1568 -1.0971
22504SOL     OW68952   6.357   6.219   9.196  0.6668  0.0051  0.1578
22504SOL    HW168953   6.417   6.153   9.160  0.3322 -0.0606 -0.2949
22504SOL    HW268954   6.402   6.302   9.182  0.8999 -0.0914  0.3308
22505SOL     OW68955   6.400   6.094  10.656  1.0711  0.0551 -0.1440
22505SOL    HW168956   6.396   6.150  10.578  1.4020 -1.5213 -1.3506
22505SOL    HW268957   6.471   6.131  10.708  0.7389  1.2364 -0.4984
22506SOL     OW68958   6.922   6.933   8.617  0.0663 -0.0209  0.4446
22506SOL    HW168959   7.010   6.897   8.608  0.3256  0.5827  0.5133
22506SOL    HW268960   6.885   6.886   8.692 -0.1208 -1.1430 -0.3259
22507SOL     OW68961   5.585   7.435   9.910 -0.2135  0.1956  0.1100
22507SOL    HW168962   5.663   7.485   9.886 -0.5939  1.3091  1.0983
22507SOL    HW268963   5.614   7.343   9.909  1.5659  0.6646  1.9361
22508SOL     OW68964   7.007   5.012   7.050 -0.0699 -0.2955  0.2183
22508SOL    HW168965   6.975   4.926   7.025 -1.7386  0.3496  0.0244
22508SOL    HW268966   7.060   5.042   6.976 -1.9182  0.0531 -1.0163
22509SOL     OW68967   6.897   5.216   9.988  0.2533  0.6913 -0.3850
22509SOL    HW168968   6.846   5.237   9.910 -1.2712  0.0776  0.3886
22509SOL    HW268969   6.873   5.284  10.051  0.5458  0.5115 -0.0784
22510SOL     OW68970   6.006   6.115   9.320 -0.2330 -0.0281 -0.6140
22510SOL    HW168971   5.954   6.168   9.258 -1.3208 -1.4798 -1.0126
22510SOL    HW268972   5.960   6.124   9.403 -0.3830 -0.2858 -0.6675
22511SOL     OW68973   5.867   5.637   9.820 -0.7573  0.3990 -0.6957
22511SOL    HW168974   5.878   5.732   9.824 -0.0013  0.2677  0.9341
22511SOL    HW268975   5.953   5.602   9.844 -1.3178 -0.7030 -0.2536
22512SOL     OW68976   5.587   5.619   9.940 -0.1994  0.4999 -0.4788
22512SOL    HW168977   5.612   5.613  10.033 -0.3027  0.0964 -0.4748
22512SOL    HW268978   5.669   5.637   9.894 -0.3259  1.9617 -0.1922
22513SOL     OW68979   7.066   7.325   9.774 -0.1049  0.5441 -0.1453
22513SOL    HW168980   7.004   7.370   9.717  0.4517  0.8842 -0.4923
22513SOL    HW268981   7.138   7.300   9.716  1.0947  2.0571  0.5998
22514SOL     OW68982   6.535   5.339   8.648 -0.0524 -0.1627  0.2952
22514SOL    HW168983   6.557   5.386   8.728 -1.4651  0.6500  0.2392
22514SOL    HW268984   6.560   5.398   8.577 -0.8021  0.0440  0.1980
22515SOL     OW68985   5.473   5.838   9.347  0.1322 -0.2773 -0.3584
22515SOL    HW168986   5.555   5.884   9.331  0.3302  0.5737  2.5717
22515SOL    HW268987   5.405   5.904   9.336  0.2954  0.4149  2.1869
22516SOL     OW68988   5.832   5.762  10.208 -0.0886 -0.0013 -0.3653
22516SOL    HW168989   5.834   5.830  10.141  2.1727 -0.4228 -0.8058
22516SOL    HW268990   5.754   5.710  10.187 -0.7463  1.2814 -1.2006
22517SOL     OW68991   4.155   6.539   9.879  0.1548  0.2128 -0.1094
22517SOL    HW168992   4.208   6.518   9.802 -0.1048 -1.0501  0.0384
22517SOL    HW268993   4.199   6.614   9.919  0.9870  0.1029 -0.7964
22518SOL     OW68994   5.702   6.107  10.317  0.3468  0.2313  0.1755
22518SOL    HW168995   5.614   6.122  10.280  0.4046  0.9052  0.2973
22518SOL    HW268996   5.739   6.039  10.262 -0.0205  0.3856 -0.2745
22519SOL     OW68997   7.009   6.429  10.325  0.7653 -0.3324 -0.1688
22519SOL    HW168998   6.961   6.511  10.310  0.1788 -0.8348 -1.1242
22519SOL    HW268999   7.077   6.429  10.257 -0.5955 -1.6436 -1.5883
22520SOL     OW69000   6.809   4.462   9.492 -0.1741 -0.9341  0.1111
22520SOL    HW169001   6.737   4.508   9.535  0.7628  1.1601 -0.3993
22520SOL    HW269002   6.882   4.470   9.554  0.6334  0.3409 -0.9708
22521SOL     OW69003   5.161   5.607  10.667 -0.1142  0.3757  0.7546
22521SOL    HW169004   5.091   5.584  10.727  0.0038 -1.4860  0.2507
22521SOL    HW269005   5.192   5.523  10.633  0.1433  1.3114 -1.5332
22522SOL     OW69006   6.512   6.379   8.689 -1.0218 -0.4639 -0.6445
22522SOL    HW169007   6.535   6.415   8.604 -1.1479  4.8035  1.2279
22522SOL    HW269008   6.418   6.362   8.684 -1.4206  1.6457 -1.0887
22523SOL     OW69009   7.040   6.355   9.827  0.3956 -0.3760  0.6244
22523SOL    HW169010   6.946   6.365   9.812  0.5865 -1.6400 -1.9858
22523SOL    HW269011   7.080   6.428   9.781  0.7238  0.5364  2.2786
22524SOL     OW69012   5.802   7.749   8.948 -0.3234  0.2565  0.2385
22524SOL    HW169013   5.755   7.698   9.013 -0.3339  0.8361  0.6901
22524SOL    HW269014   5.735   7.778   8.886 -0.5807  1.0887  0.8840
22525SOL     OW69015   6.063   6.416   7.460 -0.2223  0.1066 -0.0773
22525SOL    HW169016   6.090   6.400   7.550  2.2664 -1.0336 -0.9241
22525SOL    HW269017   5.990   6.357   7.445 -0.7948  0.4611  1.2327
22526SOL     OW69018   5.879   6.693  11.828 -0.3454 -0.7535 -0.6023
22526SOL    HW169019   5.853   6.774  11.873 -0.8904 -1.0981 -0.2787
22526SOL    HW269020   5.812   6.681  11.761 -1.0783 -1.6838  0.2739
22527SOL     OW69021   7.047   7.339   9.344  0.1146  0.0271 -0.8991
22527SOL    HW169022   6.985   7.397   9.389  0.2579 -1.0692  0.7669
22527SOL    HW269023   7.133   7.371   9.370  0.2468 -2.4752  2.3305
22528SOL     OW69024   6.514   7.283  10.331  0.2778  0.4952 -0.0914
22528SOL    HW169025   6.438   7.335  10.303 -0.7396 -0.5206  0.6748
22528SOL    HW269026   6.557   7.257  10.249 -1.0490 -0.1159 -0.6327
22529SOL     OW69027   5.782   7.162   9.918  0.0716  0.3303  0.9148
22529SOL    HW169028   5.846   7.228   9.891  0.6768 -0.7996 -0.5583
22529SOL    HW269029   5.770   7.177  10.012  0.9551  1.8674  0.8163
22530SOL     OW69030   5.796   6.172  10.555  0.6041 -0.4296 -0.1960
22530SOL    HW169031   5.767   6.138  10.470  0.4401  0.9387 -0.7284
22530SOL    HW269032   5.715   6.193  10.601  0.7017  0.3086 -0.3501
22531SOL     OW69033   5.432   7.330   8.148 -0.2089 -0.2704  0.0126
22531SOL    HW169034   5.358   7.341   8.208  0.8617  0.2315  1.2877
22531SOL    HW269035   5.479   7.413   8.151  1.5189 -1.2206  0.7847
22532SOL     OW69036   6.814   0.154  11.409 -0.7861  0.1137 -0.0122
22532SOL    HW169037   6.827   0.155  11.503  1.5345  2.0755 -0.2561
22532SOL    HW269038   6.813   0.061  11.386 -0.9716 -0.3829  1.8740
22533SOL     OW69039   6.131   7.622   8.730 -0.2991 -0.5611  0.5033
22533SOL    HW169040   6.170   7.672   8.802  0.1134  0.3372 -0.3149
22533SOL    HW269041   6.060   7.573   8.770  0.4053 -0.6653  1.6608
22534SOL     OW69042   4.163   6.834  10.587 -0.0612  0.4897  0.3936
22534SOL    HW169043   4.075   6.861  10.560 -0.0307  1.8168  1.4996
22534SOL    HW269044   4.176   6.876  10.672  0.2224 -2.6996  2.0635
22535SOL     OW69045   6.903   5.505  12.001 -0.4783  0.4905 -0.2089
22535SOL    HW169046   6.976   5.534  11.946 -0.3085 -1.1559 -0.9115
22535SOL    HW269047   6.828   5.554  11.969 -0.1441  0.4088 -1.1604
22536SOL     OW69048   5.533   6.187  10.038 -0.0196 -0.6868 -0.2648
22536SOL    HW169049   5.608   6.128  10.034 -0.2429 -1.1103  1.0592
22536SOL    HW269050   5.572   6.273  10.056  0.1827 -0.8170 -0.0648
22537SOL     OW69051   5.325   6.499   9.563  0.4699  0.2968  0.2336
22537SOL    HW169052   5.249   6.452   9.529  1.9758 -0.7964 -1.8190
22537SOL    HW269053   5.385   6.430   9.593  1.5413  1.0066 -0.1937
22538SOL     OW69054   5.328   5.399  10.625 -0.2282 -0.1069  0.2265
22538SOL    HW169055   5.384   5.347  10.568 -0.8956  0.0903 -0.6376
22538SOL    HW269056   5.388   5.440  10.687  0.2504 -2.3651  1.3370
22539SOL     OW69057   7.134   7.821   9.479 -0.8360  0.0018  0.4424
22539SOL    HW169058   7.148   7.801   9.571 -2.0124  0.7717  0.8213
22539SOL    HW269059   7.076   7.897   9.480  1.9674  2.3540 -0.9082
22540SOL     OW69060   7.793   7.680  10.179 -0.1752 -0.4299  0.1180
22540SOL    HW169061   7.714   7.626  10.174 -1.0767  0.8430 -0.1007
22540SOL    HW269062   7.842   7.658  10.100 -0.6679 -0.7148 -0.1157
22541SOL     OW69063   4.812   7.220  10.129  0.1542 -0.7097  0.1903
22541SOL    HW169064   4.843   7.129  10.127  0.4935 -0.5803 -0.6034
22541SOL    HW269065   4.877   7.269  10.079 -0.0108 -0.0142  0.6310
22542SOL     OW69066   5.136   5.541  12.009 -0.4162 -0.4047  0.0010
22542SOL    HW169067   5.219   5.553  11.962 -0.2907 -2.1210 -0.2941
22542SOL    HW269068   5.162   5.527  12.100 -0.1796 -2.8506 -0.3864
22543SOL     OW69069   7.874   6.589  10.664 -0.3820  0.4898  0.6797
22543SOL    HW169070   7.828   6.626  10.589  2.3201  0.0355 -1.3540
22543SOL    HW269071   7.885   6.496  10.642  0.7301  0.4127  1.4699
22544SOL     OW69072   6.174   6.039  10.796  0.1605  0.1470 -0.0482
22544SOL    HW169073   6.248   6.058  10.738  2.3448 -1.0380  2.1008
22544SOL    HW269074   6.195   6.085  10.877  0.3791 -2.8822  1.7650
22545SOL     OW69075   3.354   4.082   0.403 -0.4629 -0.1822  0.2439
22545SOL    HW169076   3.374   4.053   0.314  3.0798 -0.6779  1.0549
22545SOL    HW269077   3.432   4.060   0.454 -1.1130  2.8232  2.8560
22546SOL     OW69078   6.197   7.036  11.908  0.4920  0.0272 -0.1000
22546SOL    HW169079   6.132   6.992  11.964 -0.0387 -0.8453 -1.3409
22546SOL    HW269080   6.246   6.964  11.868  1.6037  0.6608  0.0792
22547SOL     OW69081   4.336   6.092  10.686 -0.1844  0.2660 -0.7243
22547SOL    HW169082   4.382   6.044  10.756 -0.3272  0.2224 -0.6592
22547SOL    HW269083   4.328   6.029  10.615  0.4443  0.4790 -0.9839
22548SOL     OW69084   6.367   1.179   7.478 -0.7370  0.5155 -0.1156
22548SOL    HW169085   6.300   1.116   7.503 -0.1008  0.4446  1.5362
22548SOL    HW269086   6.390   1.156   7.388 -1.7118 -0.5145 -0.1194
22549SOL     OW69087   6.250   5.105  12.303  0.3351  0.2245 -0.0412
22549SOL    HW169088   6.240   5.186  12.254  1.8403  0.2764 -0.3112
22549SOL    HW269089   6.287   5.043  12.240 -0.8095 -0.7050  0.1539
22550SOL     OW69090   7.252   6.257  11.284 -0.0390 -0.0347  0.0140
22550SOL    HW169091   7.275   6.333  11.231  0.1008 -1.0815 -1.5253
22550SOL    HW269092   7.262   6.183  11.224 -1.9953 -1.0952  0.8827
22551SOL     OW69093   7.604   7.120  11.841  0.4543  0.0727 -0.2328
22551SOL    HW169094   7.600   7.028  11.815  0.8356 -0.4087  1.2882
22551SOL    HW269095   7.693   7.147  11.820  0.0918  0.3775 -1.4791
22552SOL     OW69096   7.221   6.709   0.228  0.4401  0.4441 -0.2782
22552SOL    HW169097   7.174   6.706   0.144  1.9012 -0.4041 -1.1186
22552SOL    HW269098   7.174   6.774   0.280 -1.2437  0.1100 -1.2945
22553SOL     OW69099   5.683   6.510  10.230  0.3773  0.2881 -0.0562
22553SOL    HW169100   5.620   6.574  10.198 -0.9138 -1.1174 -0.4984
22553SOL    HW269101   5.748   6.504  10.160  0.1789  0.6909 -0.2820
22554SOL     OW69102   6.423   5.933  11.033  0.0963 -0.0356 -0.8487
22554SOL    HW169103   6.343   5.882  11.039  0.0891 -0.1368 -1.7423
22554SOL    HW269104   6.494   5.870  11.046  0.0360  0.2779  1.4366
22555SOL     OW69105   6.466   7.135   8.112  0.5295 -0.0293 -0.6061
22555SOL    HW169106   6.434   7.099   8.194 -0.7499 -2.2827 -1.9854
22555SOL    HW269107   6.390   7.133   8.053  1.7635  0.0974 -2.2820
22556SOL     OW69108   6.439   6.442  10.927  0.1907 -0.5788  0.0777
22556SOL    HW169109   6.408   6.488  11.005 -0.0595 -0.3164 -0.1748
22556SOL    HW269110   6.467   6.356  10.960 -1.1189 -0.9577  0.2761
22557SOL     OW69111   0.805   0.612   9.800 -0.2618  0.2038 -0.1326
22557SOL    HW169112   0.767   0.544   9.745 -3.7683  1.8233  0.0194
22557SOL    HW269113   0.805   0.575   9.888  0.0212 -0.3895 -0.3778
22558SOL     OW69114   5.421   7.186  10.385  0.2237  0.1451 -0.0895
22558SOL    HW169115   5.388   7.096  10.384  0.0946  0.1348  1.7483
22558SOL    HW269116   5.445   7.203  10.294 -0.3667 -1.5081 -0.6064
22559SOL     OW69117   5.899   5.842  10.470 -0.5009 -0.1599 -0.2420
22559SOL    HW169118   5.937   5.924  10.437 -1.6787  0.0569 -1.1086
22559SOL    HW269119   5.867   5.797  10.392 -1.5463 -0.5676  0.4073
22560SOL     OW69120   0.528   6.541   8.244  0.3139 -0.3834 -0.0494
22560SOL    HW169121   0.544   6.488   8.166 -0.2821 -0.2936 -0.2440
22560SOL    HW269122   0.434   6.533   8.259  0.3901 -0.2179  0.5306
22561SOL     OW69123   5.686   7.503   9.062  0.0243 -0.3344  0.5554
22561SOL    HW169124   5.703   7.419   9.105  1.1055 -1.1489 -1.3288
22561SOL    HW269125   5.599   7.493   9.024  1.0889 -1.6665 -1.7896
22562SOL     OW69126   5.550   6.715   9.754  0.2765  0.0087  0.1393
22562SOL    HW169127   5.610   6.652   9.715 -0.1849 -0.3403 -0.0050
22562SOL    HW269128   5.482   6.728   9.688  0.0594  0.2147  0.4021
22563SOL     OW69129   4.760   5.654  10.116 -0.2038  0.0401 -0.0735
22563SOL    HW169130   4.793   5.568  10.091  1.4359 -0.6790  3.8846
22563SOL    HW269131   4.825   5.715  10.083  0.3827 -0.5589 -0.0545
22564SOL     OW69132   7.010   6.327  11.667  0.3415  0.0106  0.5641
22564SOL    HW169133   6.985   6.419  11.654  0.4176  0.5528  3.6488
22564SOL    HW269134   6.926   6.281  11.674  0.2966 -0.3141 -1.4984
22565SOL     OW69135   6.651   5.185  12.122  0.0140 -0.6767  0.1438
22565SOL    HW169136   6.640   5.254  12.188  0.4548 -0.5527  0.0925
22565SOL    HW269137   6.646   5.103  12.172  1.6933 -0.5577  0.5499
22566SOL     OW69138   5.248   6.006   9.333 -0.6278 -0.4029 -0.0552
22566SOL    HW169139   5.183   5.990   9.264 -0.7599 -0.6818  0.1317
22566SOL    HW269140   5.196   6.014   9.413 -0.5604  0.8263 -0.1083
22567SOL     OW69141   5.715   0.145   9.649  0.0028 -0.0277  0.2687
22567SOL    HW169142   5.713   0.049   9.651 -0.5881 -0.0526 -0.7578
22567SOL    HW269143   5.712   0.171   9.741  2.9279 -1.0091  0.7583
22568SOL     OW69144   5.629   6.634  11.597 -0.1987  0.4381  0.0807
22568SOL    HW169145   5.587   6.700  11.542  0.5757  0.6213 -0.3113
22568SOL    HW269146   5.578   6.633  11.677 -1.3623  0.1612 -0.6478
22569SOL     OW69147   6.319   7.734   8.935 -0.5768  0.2051  0.2382
22569SOL    HW169148   6.311   7.741   9.031  3.7163  0.2804  0.7533
22569SOL    HW269149   6.358   7.649   8.920 -1.1914  0.1953 -1.5154
22570SOL     OW69150   4.740   6.232  11.397  0.3598  0.6408 -0.1212
22570SOL    HW169151   4.652   6.232  11.436  0.0725 -0.2289 -0.7304
22570SOL    HW269152   4.799   6.222  11.471 -0.0895  0.6784  0.2459
22571SOL     OW69153   6.465   5.602  11.566 -0.8410 -0.6604  1.0107
22571SOL    HW169154   6.500   5.514  11.580  0.2149 -0.0095  2.7350
22571SOL    HW269155   6.470   5.616  11.471  0.9187 -1.6750  0.9318
22572SOL     OW69156   0.077   5.811  10.823 -0.1464  0.1061  0.0554
22572SOL    HW169157   0.053   5.822  10.915 -0.6592  0.6100 -0.1306
22572SOL    HW269158   0.172   5.804  10.823 -0.1818 -0.4951  0.6806
22573SOL     OW69159   6.640   5.531  10.375  0.0748 -0.6609 -0.4351
22573SOL    HW169160   6.599   5.453  10.338  2.6331 -0.9025 -3.0919
22573SOL    HW269161   6.699   5.497  10.443 -0.2340 -0.8168 -0.2409
22574SOL     OW69162   6.871   6.203  11.382 -0.1368  0.4958 -0.0676
22574SOL    HW169163   6.893   6.283  11.335  0.6461  0.3022 -0.0536
22574SOL    HW269164   6.955   6.156  11.390 -0.4404  0.0487  0.6093
22575SOL     OW69165   5.812   6.574  11.180 -0.1876  0.0902 -0.3423
22575SOL    HW169166   5.874   6.501  11.172 -0.7749 -0.6486  1.3137
22575SOL    HW269167   5.849   6.629  11.249 -0.3372  0.7545 -0.7859
22576SOL     OW69168   5.787   6.031  12.452 -0.0991  0.0484 -0.5307
22576SOL    HW169169   5.753   6.115  12.483 -1.1329  0.3367 -2.3397
22576SOL    HW269170   5.728   5.966  12.490  1.0157  0.0312  1.3119
22577SOL     OW69171   6.114   6.880  10.574  0.5078  0.2041  1.3306
22577SOL    HW169172   6.160   6.955  10.536  0.9086  0.2997  1.9963
22577SOL    HW269173   6.103   6.819  10.501  2.2730 -0.1055  1.2897
22578SOL     OW69174   4.904   0.142   7.905  0.0375  0.3113 -0.7890
22578SOL    HW169175   4.834   0.118   7.965  1.0798 -0.0797  0.3213
22578SOL    HW269176   4.893   0.083   7.830  0.4778 -1.3217  0.3638
22579SOL     OW69177   6.343   6.567   8.384 -0.2407  0.1097 -0.3165
22579SOL    HW169178   6.425   6.558   8.432 -0.3681 -0.2969 -0.1724
22579SOL    HW269179   6.343   6.493   8.324 -0.6299 -0.0437 -0.1275
22580SOL     OW69180   6.508   6.462   9.150 -0.1431 -0.0976 -0.3483
22580SOL    HW169181   6.576   6.523   9.179 -0.4972  0.6461 -1.0113
22580SOL    HW269182   6.530   6.444   9.058  0.2726 -1.4291  0.0010
22581SOL     OW69183   6.903   0.315   8.303  0.2497  0.0849 -0.3243
22581SOL    HW169184   6.963   0.389   8.299  1.5993 -0.8561  1.1578
22581SOL    HW269185   6.853   0.329   8.383 -0.2994 -0.0272 -0.6434
22582SOL     OW69186   6.841   6.955  11.012 -0.0040 -0.2399  0.0867
22582SOL    HW169187   6.932   6.984  11.014  0.1443 -0.5799 -0.8657
22582SOL    HW269188   6.796   7.020  10.958 -0.0079 -0.8572 -0.6783
22583SOL     OW69189   6.282   7.552  10.747  0.0975 -0.1634  0.0233
22583SOL    HW169190   6.236   7.598  10.817 -1.5849 -1.8671  0.1015
22583SOL    HW269191   6.363   7.521  10.789 -0.7607 -0.9388  1.1617
22584SOL     OW69192   5.636   5.542   8.682 -0.5291  0.1913  0.3537
22584SOL    HW169193   5.586   5.473   8.637  0.0217 -0.5977  0.9397
22584SOL    HW269194   5.634   5.518   8.774  0.6205  0.3479  0.4342
22585SOL     OW69195   5.807   7.186   9.423 -0.3364 -0.3432  0.2017
22585SOL    HW169196   5.821   7.277   9.448  1.9522 -0.5606 -0.0333
22585SOL    HW269197   5.843   7.136   9.497  2.9958 -0.9943 -1.6752
22586SOL     OW69198   4.893   1.052  10.339 -0.4412  0.7065 -0.1153
22586SOL    HW169199   4.834   1.123  10.315 -1.6448  0.1927  1.1631
22586SOL    HW269200   4.844   1.000  10.403 -0.5849 -2.6700 -2.6602
22587SOL     OW69201   5.978   5.830  10.891 -0.5758  0.0313 -0.5512
22587SOL    HW169202   6.011   5.804  10.977 -1.8877 -0.9337 -0.3171
22587SOL    HW269203   6.039   5.898  10.862  0.9946 -0.9528  0.3033
22588SOL     OW69204   6.820   6.151  11.065  0.2236 -0.0149  0.1716
22588SOL    HW169205   6.789   6.230  11.023 -0.2740 -0.0169  0.5292
22588SOL    HW269206   6.908   6.138  11.030 -0.3520 -0.2906 -1.2471
22589SOL     OW69207   6.204   0.339  10.727  0.3945  0.3001 -0.3090
22589SOL    HW169208   6.273   0.289  10.769  0.6540  2.1101  1.5526
22589SOL    HW269209   6.128   0.281  10.729  1.2684 -0.8819 -0.3725
22590SOL     OW69210   6.086   1.678  10.007 -0.1163 -0.0526 -0.2629
22590SOL    HW169211   6.181   1.675   9.998 -0.1815  0.3033 -1.2210
22590SOL    HW269212   6.070   1.758  10.057  0.0091  1.1419 -2.0131
22591SOL     OW69213   6.808   5.559  11.462 -0.7498  0.3315  0.4592
22591SOL    HW169214   6.827   5.508  11.383 -1.8368  2.8599 -1.5652
22591SOL    HW269215   6.845   5.646  11.443 -0.3378  0.8013  3.1066
22592SOL     OW69216   5.830   6.275   9.177 -0.8203 -0.5854  0.1159
22592SOL    HW169217   5.790   6.263   9.091 -2.2995 -2.1618  0.9571
22592SOL    HW269218   5.765   6.323   9.228  0.4910  1.3115  0.0863
22593SOL     OW69219   0.087   7.463   8.472  0.0029 -0.0828  0.1164
22593SOL    HW169220   0.126   7.481   8.387 -0.8026  1.8075  0.1045
22593SOL    HW269221   0.006   7.416   8.452 -1.0643  1.8451 -0.3343
22594SOL     OW69222   6.050   5.332  10.410  0.4433 -0.8339  0.8037
22594SOL    HW169223   6.107   5.259  10.436  2.5724 -0.8309 -2.9906
22594SOL    HW269224   5.970   5.320  10.461  3.2933 -1.4494  5.7955
22595SOL     OW69225   5.449   1.089   9.255  0.1724 -0.2747  0.6463
22595SOL    HW169226   5.392   1.044   9.318  0.0627 -1.8061 -0.4842
22595SOL    HW269227   5.389   1.125   9.190  0.3597  0.2697  0.7686
22596SOL     OW69228   5.942   7.863   9.429 -0.3139 -0.2427  0.7164
22596SOL    HW169229   6.013   7.813   9.469 -0.6151 -2.4091 -1.2129
22596SOL    HW269230   5.965   7.867   9.336 -1.5645  1.0653  0.4313
22597SOL     OW69231   0.105   1.677  10.056  0.4472 -0.1470 -0.1115
22597SOL    HW169232   0.064   1.594  10.080  0.7589  0.4601  2.8918
22597SOL    HW269233   0.036   1.726  10.012 -1.5797  0.0627  2.9958
22598SOL     OW69234   6.019   6.314  10.279 -0.0482  0.5634 -0.7654
22598SOL    HW169235   6.033   6.380  10.210  1.7643  1.9106  0.7634
22598SOL    HW269236   5.925   6.317  10.297 -0.5110  0.3996 -2.9117
22599SOL     OW69237   6.128   5.547  10.616 -1.0760  1.0932 -0.0954
22599SOL    HW169238   6.045   5.571  10.657 -0.3694  2.1474  0.7885
22599SOL    HW269239   6.192   5.554  10.687  0.1944  2.9898 -1.3502
22600SOL     OW69240   4.857   5.697  10.670 -0.0066  0.0260  0.4966
22600SOL    HW169241   4.893   5.660  10.750 -0.8340 -1.7575  0.1050
22600SOL    HW269242   4.920   5.673  10.602 -0.3910 -0.4395  0.2922
22601SOL     OW69243   7.494   5.745  10.472  0.3950  0.4091  0.6335
22601SOL    HW169244   7.426   5.689  10.435 -0.7206  1.9958  0.1699
22601SOL    HW269245   7.576   5.708  10.441 -0.3272 -0.6854 -0.0283
22602SOL     OW69246   4.648   6.266  11.038  0.2466 -0.0256  0.1536
22602SOL    HW169247   4.670   6.267  10.944  1.4327 -0.1998  0.4082
22602SOL    HW269248   4.700   6.194  11.073  0.4875  0.5909  1.0964
22603SOL     OW69249   5.997   6.897  12.068  0.3911 -0.1446 -0.1675
22603SOL    HW169250   5.956   6.848  12.139  0.8720  0.0656  0.2524
22603SOL    HW269251   5.923   6.935  12.020  0.0689 -0.2319  0.2562
22604SOL     OW69252   5.748   5.409  10.579  0.2392  0.0303 -0.0310
22604SOL    HW169253   5.797   5.363  10.647 -1.6695 -0.9231  0.7461
22604SOL    HW269254   5.744   5.499  10.609  0.4723 -0.1322  0.5039
22605SOL     OW69255   6.943   7.008   9.033 -0.1943  0.4442 -0.1904
22605SOL    HW169256   7.018   6.952   9.053 -0.3690  0.1852 -0.2425
22605SOL    HW269257   6.899   6.964   8.960 -1.1277 -0.1107  0.6677
22606SOL     OW69258   7.339   7.091  11.439  0.0827 -0.1118  0.5098
22606SOL    HW169259   7.269   7.059  11.382  2.0568 -3.1636 -0.4004
22606SOL    HW269260   7.370   7.170  11.396 -1.5148  0.2590 -0.0612
22607SOL     OW69261   4.211   4.654  11.372 -0.3023 -0.3017  0.0415
22607SOL    HW169262   4.285   4.669  11.431  1.6502  0.1422 -2.3524
22607SOL    HW269263   4.185   4.564  11.388 -0.3682  0.0331  2.0778
22608SOL     OW69264   6.208   6.961  10.901  0.3296  0.3886  0.0323
22608SOL    HW169265   6.228   6.978  10.993  1.9866  1.3091 -0.4528
22608SOL    HW269266   6.282   6.909  10.870 -0.2313  0.0550 -0.7681
22609SOL     OW69267   7.348   5.670  11.196  0.3499 -0.3380  0.5456
22609SOL    HW169268   7.367   5.583  11.232 -0.4531 -1.2318 -1.0750
22609SOL    HW269269   7.292   5.653  11.121  3.2522  1.2405 -2.2175
22610SOL     OW69270   7.095   6.487   9.414  0.5431 -0.7090 -0.0483
22610SOL    HW169271   7.144   6.543   9.474 -3.7853 -0.3952  3.8189
22610SOL    HW269272   7.099   6.400   9.454 -1.6907 -0.6923  0.3676
22611SOL     OW69273   7.566   6.375  11.354 -0.2780 -0.6725  0.1556
22611SOL    HW169274   7.503   6.415  11.295  0.0727 -0.1056  0.1667
22611SOL    HW269275   7.531   6.394  11.442  0.9995  1.5092  0.2458
22612SOL     OW69276   7.797   7.355  12.074  0.7835 -0.2069 -0.4083
22612SOL    HW169277   7.722   7.413  12.071  0.8386 -0.1756 -2.2672
22612SOL    HW269278   7.868   7.409  12.110 -0.1648 -0.4095  1.9273
22613SOL     OW69279   6.867   5.414  10.207 -0.1024 -0.0551 -0.6195
22613SOL    HW169280   6.915   5.404  10.290  1.5993  1.8069 -1.3062
22613SOL    HW269281   6.856   5.508  10.197 -1.0924 -0.2957 -2.1075
22614SOL     OW69282   6.130   6.335  10.844 -0.2011 -0.0196 -0.5317
22614SOL    HW169283   6.197   6.310  10.908  0.0977 -0.5355 -1.0359
22614SOL    HW269284   6.161   6.417  10.806  0.1587 -0.2687 -0.7784
22615SOL     OW69285   6.754   6.911  10.428 -0.0198  0.0301  0.5062
22615SOL    HW169286   6.848   6.902  10.412 -0.3809 -0.3722 -1.8141
22615SOL    HW269287   6.720   6.949  10.347 -1.5761  2.3082  2.1208
22616SOL     OW69288   6.081   7.743   7.785 -0.3459  0.6471  0.3973
22616SOL    HW169289   6.176   7.744   7.798 -0.4788  0.2472  1.4818
22616SOL    HW269290   6.066   7.669   7.727 -0.0113  0.6232  0.3385
22617SOL     OW69291   5.403   5.343  10.058 -0.6417  0.0930  0.5359
22617SOL    HW169292   5.490   5.375  10.035  0.3479 -2.1108  0.9827
22617SOL    HW269293   5.355   5.342   9.976 -0.1504  1.0236  0.2252
22618SOL     OW69294   6.752   6.628  10.280  0.5879  0.1566 -0.2281
22618SOL    HW169295   6.807   6.656  10.207  0.7255 -0.7438 -0.4823
22618SOL    HW269296   6.761   6.698  10.345 -0.2550  1.4223 -1.4243
22619SOL     OW69297   6.761   0.873   9.794 -0.0638  0.1007  0.2039
22619SOL    HW169298   6.728   0.796   9.748  0.3749 -0.5443  0.9545
22619SOL    HW269299   6.826   0.911   9.734  1.8622 -1.7759  1.0123
22620SOL     OW69300   4.642   5.620   8.880 -0.1029  0.3970 -0.1041
22620SOL    HW169301   4.675   5.539   8.918  0.1219  0.1451 -0.8203
22620SOL    HW269302   4.674   5.689   8.938  2.0224  0.1964 -0.9562
22621SOL     OW69303   5.446   6.153   8.551 -0.8240  0.0780 -0.1348
22621SOL    HW169304   5.356   6.174   8.577 -0.5176 -1.6822  2.8232
22621SOL    HW269305   5.444   6.059   8.533  0.5963 -0.1976  0.9915
22622SOL     OW69306   1.041   7.156  11.095 -0.0385  0.5978 -0.2308
22622SOL    HW169307   1.037   7.109  11.179  1.2070  0.0390 -0.4520
22622SOL    HW269308   0.956   7.139  11.054 -1.3864  2.3635  1.6500
22623SOL     OW69309   0.340   7.840  11.683 -0.0811 -0.3661 -0.0309
22623SOL    HW169310   0.352   7.843  11.778  0.1479 -1.0701 -0.0373
22623SOL    HW269311   0.245   7.841  11.672 -0.1038  0.1126  0.1906
22624SOL     OW69312   5.350   7.320  11.115  0.7024 -0.2126 -0.0712
22624SOL    HW169313   5.313   7.403  11.144  2.9140  0.8692 -0.1474
22624SOL    HW269314   5.377   7.336  11.025 -0.9363 -1.7851 -0.9038
22625SOL     OW69315   7.267   7.998  11.687 -0.0870  0.5402 -0.0631
22625SOL    HW169316   7.190   7.986  11.744  0.4142  2.0840  1.0085
22625SOL    HW269317   7.334   7.941  11.725 -0.1141  0.6704  0.1823
22626SOL     OW69318   5.303   5.913  10.370  0.2759 -0.2257 -0.8777
22626SOL    HW169319   5.371   5.898  10.436 -0.1755 -1.3211 -0.6457
22626SOL    HW269320   5.337   5.987  10.318  1.0108  0.1210  0.0590
22627SOL     OW69321   5.743   6.274   0.075  0.0071  0.1471 -0.3104
22627SOL    HW169322   5.819   6.329   0.054  1.2344 -1.6618 -0.8052
22627SOL    HW269323   5.747   6.263   0.170  0.6972 -0.3653 -0.3888
22628SOL     OW69324   7.831   7.692  11.654  0.4692  0.1303 -0.2884
22628SOL    HW169325   7.795   7.664  11.738  1.9273 -1.2989 -0.0944
22628SOL    HW269326   7.903   7.751  11.676 -0.9011  2.0142 -0.6443
22629SOL     OW69327   6.544   6.174  10.986  0.6196  0.3584 -0.3377
22629SOL    HW169328   6.629   6.144  11.016  0.3595 -0.7511 -0.6448
22629SOL    HW269329   6.485   6.101  11.006 -0.4949  1.5444  0.9098
22630SOL     OW69330   6.508   1.417  10.071  0.5230  0.2043 -0.7696
22630SOL    HW169331   6.558   1.415  10.152  1.3360  0.3603 -1.2640
22630SOL    HW269332   6.424   1.377  10.095  0.7963  0.1250  0.1123
22631SOL     OW69333   5.655   6.595   9.281 -0.0935  1.0171 -0.4578
22631SOL    HW169334   5.677   6.508   9.313 -0.6733  0.7634 -0.7401
22631SOL    HW269335   5.600   6.580   9.205 -0.2016  1.6328 -0.5084
22632SOL     OW69336   5.355   0.450   9.568 -0.1129  0.0534  0.6456
22632SOL    HW169337   5.394   0.424   9.484  0.4582  1.4487  0.4512
22632SOL    HW269338   5.265   0.418   9.563  0.2879 -1.0039  0.0356
22633SOL     OW69339   5.983   6.792  11.073  0.2163  0.0830  0.1899
22633SOL    HW169340   5.936   6.738  11.136 -0.8145  1.2842  0.4885
22633SOL    HW269341   6.015   6.867  11.123  0.7124  0.2918 -0.4153
22634SOL     OW69342   5.215   5.797  10.101  0.3606 -0.3343 -0.1897
22634SOL    HW169343   5.287   5.812  10.041  0.3668 -0.6743 -0.2660
22634SOL    HW269344   5.247   5.830  10.185  0.8941 -1.1944 -0.0526
22635SOL     OW69345   0.260   6.487   9.487 -0.0746  0.3006  0.0644
22635SOL    HW169346   0.250   6.471   9.581 -0.0364 -2.2391 -0.2873
22635SOL    HW269347   0.203   6.421   9.446  0.8283  0.5692 -1.6932
22636SOL     OW69348   5.355   5.608   9.797 -0.2311 -0.2297 -0.0047
22636SOL    HW169349   5.328   5.699   9.806 -1.3247 -0.4150 -1.1712
22636SOL    HW269350   5.440   5.604   9.841  1.1925  1.9972 -2.2623
22637SOL     OW69351   5.299   7.316   7.283  0.3067  0.3300  0.8841
22637SOL    HW169352   5.218   7.267   7.296  0.9212 -0.5377  1.5069
22637SOL    HW269353   5.339   7.276   7.206 -0.9507  2.2831 -0.8924
22638SOL     OW69354   6.951   6.672  11.082 -0.4974  0.7898  0.1126
22638SOL    HW169355   6.988   6.723  11.154 -0.2834  0.7746  0.0140
22638SOL    HW269356   7.022   6.665  11.018 -0.6077  0.5887  0.0106
22639SOL     OW69357   7.961   1.011  12.258  0.5859  0.3089  0.3481
22639SOL    HW169358   7.875   1.049  12.240 -0.2594 -1.6037  0.0821
22639SOL    HW269359   7.950   0.965  12.341  0.8421 -1.2484 -0.4279
22640SOL     OW69360   5.991   5.597  12.499  0.5140 -0.2066 -0.5317
22640SOL    HW169361   6.039   5.666  12.545  1.3378  0.9901 -3.0097
22640SOL    HW269362   6.048   5.520  12.504  1.8253  0.6528 -1.7697
22641SOL     OW69363   4.750   5.148  12.477  0.0658 -0.4014  0.7326
22641SOL    HW169364   4.817   5.110  12.419  1.3462 -0.7988  2.3745
22641SOL    HW269365   4.703   5.072  12.512 -0.7783 -0.1604  0.1449
22642SOL     OW69366   6.738   7.281   0.246  0.0636  0.2782  0.8200
22642SOL    HW169367   6.700   7.233   0.173 -0.4987  0.8857  0.6995
22642SOL    HW269368   6.664   7.331   0.282  0.3128 -0.0727  1.8511
22643SOL     OW69369   0.046   6.735  12.426  0.1551  0.6230  0.1517
22643SOL    HW169370   0.035   6.829  12.416 -2.7190  0.3208 -0.4461
22643SOL    HW269371   0.083   6.724  12.513  1.3910  2.3059 -0.1181
22644SOL     OW69372   7.257   6.687  10.455 -0.0244 -0.0745 -1.0052
22644SOL    HW169373   7.304   6.763  10.421 -1.1623  1.1841  0.1377
22644SOL    HW269374   7.318   6.614  10.442  0.8449  0.8883 -2.7032
22645SOL     OW69375   0.486   4.634  12.327 -0.1491  0.2031 -0.2120
22645SOL    HW169376   0.454   4.688  12.399 -1.5135 -1.1656  0.2703
22645SOL    HW269377   0.578   4.658  12.318  0.1699  0.1997  2.2390
22646SOL     OW69378   6.203   6.455   0.350 -0.2796  0.4236 -0.0670
22646SOL    HW169379   6.212   6.387   0.417 -0.8693  0.8678  0.4841
22646SOL    HW269380   6.185   6.535   0.400 -1.3266  0.6477 -0.7758
22647SOL     OW69381   7.398   6.441   0.098 -0.2451 -0.0388 -1.1129
22647SOL    HW169382   7.395   6.498   0.021 -0.8266 -0.1369 -1.1617
22647SOL    HW269383   7.399   6.352   0.062 -2.0272 -0.1343 -0.9916
22648SOL     OW69384   5.766   7.832  11.886 -0.1972 -0.3130  0.0740
22648SOL    HW169385   5.756   7.757  11.946  0.6558 -0.7704 -0.3367
22648SOL    HW269386   5.796   7.793  11.804 -0.4069  0.4182 -0.3549
22649SOL     OW69387   6.727   6.076  10.502 -0.0736  0.2438 -0.3347
22649SOL    HW169388   6.650   6.131  10.518 -0.3055  0.1771 -1.1594
22649SOL    HW269389   6.795   6.113  10.558 -0.9200 -0.1806  1.0053
22650SOL     OW69390   7.696   6.146  11.321 -0.2162 -0.0200  0.1831
22650SOL    HW169391   7.669   6.100  11.401 -1.0640 -0.3914 -0.3022
22650SOL    HW269392   7.651   6.230  11.324 -0.2064 -0.0126  0.1306
22651SOL     OW69393   5.447   6.696  11.778  0.7375  0.2751  0.0854
22651SOL    HW169394   5.380   6.736  11.722  0.6187 -0.3101 -0.2055
22651SOL    HW269395   5.414   6.607  11.793  1.4138  0.0091  0.0074
22652SOL     OW69396   4.792   7.234  10.624  0.1842 -0.2514 -0.2248
22652SOL    HW169397   4.816   7.305  10.563 -1.2073  1.1651  0.8007
22652SOL    HW269398   4.840   7.158  10.592 -0.8932  0.2721 -3.4187
22653SOL     OW69399   7.911   5.630  10.055  0.3352 -0.4304 -0.0766
22653SOL    HW169400   7.829   5.617  10.009  0.1556 -1.5323  0.5245
22653SOL    HW269401   7.978   5.624   9.987 -0.0177 -0.4815 -0.4226
22654SOL     OW69402   5.157   6.654  11.118 -0.0513  0.1660  0.2237
22654SOL    HW169403   5.172   6.731  11.063 -3.4303  0.4358 -0.5403
22654SOL    HW269404   5.093   6.684  11.183 -1.9131 -2.0876 -0.4553
22655SOL     OW69405   0.483   6.755  12.054  0.7131  0.2220  0.0738
22655SOL    HW169406   0.388   6.752  12.049  0.7479 -0.9785 -0.4021
22655SOL    HW269407   0.502   6.751  12.148  0.2757 -2.9169  0.1672
22656SOL     OW69408   7.780   7.304   1.039 -0.5550 -0.3396 -0.1695
22656SOL    HW169409   7.861   7.353   1.023  0.1219 -0.9620  1.2166
22656SOL    HW269410   7.742   7.293   0.952  1.0983 -0.4456 -0.9273
22657SOL     OW69411   5.792   0.236  10.092  0.0272  0.4257  0.3334
22657SOL    HW169412   5.782   0.316  10.041 -0.2452  0.3718  0.2996
22657SOL    HW269413   5.801   0.265  10.183 -1.1797  0.4522  0.4625
22658SOL     OW69414   4.247   5.064  12.438 -0.6384  0.3762 -0.0670
22658SOL    HW169415   4.217   4.981  12.474 -0.1921  0.0777 -0.3746
22658SOL    HW269416   4.340   5.067  12.460  0.2275 -0.8611 -3.1071
22659SOL     OW69417   6.471   7.835  10.992  0.2668 -0.6568  0.0481
22659SOL    HW169418   6.555   7.819  11.036  0.3552  0.0263  0.1462
22659SOL    HW269419   6.493   7.833  10.898  0.6530  0.7638  0.0876
22660SOL     OW69420   6.789   3.136   0.437  0.1126 -0.3356 -0.3676
22660SOL    HW169421   6.840   3.079   0.496  0.4118 -0.6881 -0.9628
22660SOL    HW269422   6.714   3.083   0.412 -1.4054  0.7001  1.7101
22661SOL     OW69423   6.955   6.916  12.292  0.2060 -0.1921  0.3506
22661SOL    HW169424   6.886   6.951  12.348  1.5032  0.8267  1.3654
22661SOL    HW269425   6.982   6.990  12.238  1.9465  0.0315  1.4661
22662SOL     OW69426   7.434   0.247  12.251 -0.1190  0.7158 -0.4791
22662SOL    HW169427   7.448   0.310  12.322 -2.1526 -0.4983  1.0976
22662SOL    HW269428   7.509   0.187  12.257 -0.1877  0.7240  0.5560
22663SOL     OW69429   6.449   6.280  10.437  0.0364  0.3965 -0.0760
22663SOL    HW169430   6.486   6.228  10.365 -2.0565 -0.1753 -0.8034
22663SOL    HW269431   6.469   6.370  10.414  0.1186  0.1661 -0.9536
22664SOL     OW69432   6.803   0.495  11.670 -0.0666 -0.7383 -0.8978
22664SOL    HW169433   6.795   0.465  11.760  0.4060  1.4577 -0.0560
22664SOL    HW269434   6.717   0.478  11.631 -0.9515  0.1336  0.5952
22665SOL     OW69435   5.023   4.580   1.295  0.2001  0.3009  0.2533
22665SOL    HW169436   5.030   4.674   1.277 -0.4171  0.2647 -0.2047
22665SOL    HW269437   5.052   4.538   1.213 -1.0139  0.1139 -0.1022
22666SOL     OW69438   6.859   5.867  11.641  0.1930 -0.0197 -0.2688
22666SOL    HW169439   6.954   5.871  11.654  0.1770  2.2786 -0.3988
22666SOL    HW269440   6.848   5.860  11.546  0.2763  1.0724 -0.3812
22667SOL     OW69441   7.421   7.318  10.806  0.3372  0.3031 -0.0742
22667SOL    HW169442   7.417   7.393  10.747  0.1073  1.2431  1.1140
22667SOL    HW269443   7.384   7.349  10.888 -2.1455 -1.8511 -0.2732
22668SOL     OW69444   7.351   5.637  10.692 -0.7367 -0.3739 -0.4090
22668SOL    HW169445   7.322   5.673  10.609 -2.0047  0.8027  0.5139
22668SOL    HW269446   7.416   5.571  10.668 -0.5664  0.4258 -2.2821
22669SOL     OW69447   1.321   6.926  12.304 -0.0368 -0.3980  0.6306
22669SOL    HW169448   1.388   6.858  12.298 -1.1029 -1.3881 -0.8081
22669SOL    HW269449   1.275   6.922  12.220  0.1305  2.4326  0.3209
22670SOL     OW69450   7.730   6.387  12.373  0.6283  0.0761 -0.6950
22670SOL    HW169451   7.820   6.379  12.405  0.7602  0.4190 -0.9831
22670SOL    HW269452   7.695   6.298  12.381  0.1844  0.3935  1.7912
22671SOL     OW69453   6.332   6.169  12.341  0.0186  0.2362 -0.2830
22671SOL    HW169454   6.355   6.147  12.251  0.6900 -1.8447  0.3199
22671SOL    HW269455   6.265   6.104  12.365  0.2941  0.3594  0.8794
22672SOL     OW69456   5.839   5.529   0.433 -0.1850  0.6199  0.3319
22672SOL    HW169457   5.811   5.617   0.410 -2.1439  0.0330  0.2477
22672SOL    HW269458   5.760   5.475   0.423  1.6236 -1.8068 -2.8741
22673SOL     OW69459   4.966   5.589  10.882  0.5727 -0.0259 -0.3567
22673SOL    HW169460   5.010   5.646  10.945  2.4070 -0.7067 -0.9525
22673SOL    HW269461   4.881   5.572  10.921  1.1115  0.7169  1.2537
22674SOL     OW69462   6.911   7.304  11.683 -0.1130 -0.2082  0.2570
22674SOL    HW169463   6.954   7.315  11.598 -1.2775 -0.0593 -0.3277
22674SOL    HW269464   6.843   7.371  11.685 -0.2678 -0.3786  1.2000
22675SOL     OW69465   6.556   7.389  12.425 -0.2003  0.2954 -0.1577
22675SOL    HW169466   6.624   7.323  12.411  0.1662  0.3494  1.1776
22675SOL    HW269467   6.603   7.463  12.465 -1.1026  0.1371  1.2707
22676SOL     OW69468   6.345   4.936  11.862  0.1938  0.2734 -0.1217
22676SOL    HW169469   6.346   5.030  11.882  0.5785  0.0961  0.7356
22676SOL    HW269470   6.390   4.929  11.778 -0.3913  0.9208 -0.4944
22677SOL     OW69471   5.899   7.609  10.781 -0.2830  0.0699  0.0335
22677SOL    HW169472   5.909   7.698  10.813 -2.5425 -0.3066  2.0466
22677SOL    HW269473   5.909   7.617  10.686  0.1006  2.3532  0.2120
22678SOL     OW69474   6.214   6.382  12.000 -0.6219 -0.6399  0.0020
22678SOL    HW169475   6.144   6.364  12.063 -0.7011  0.5823  0.2865
22678SOL    HW269476   6.193   6.469  11.965  0.3794 -0.5527 -0.4160
22679SOL     OW69477   5.387   1.387  10.335  0.1503 -0.2035 -0.7517
22679SOL    HW169478   5.303   1.426  10.310 -0.8516 -0.2896  2.0887
22679SOL    HW269479   5.447   1.461  10.339  0.1109 -0.0565 -2.2545
22680SOL     OW69480   0.062   7.127  12.023  0.5895 -0.4812  0.2973
22680SOL    HW169481   0.131   7.070  11.988 -0.1875 -1.1108 -0.2607
22680SOL    HW269482   0.042   7.090  12.109  0.1873 -0.9827 -0.0028
22681SOL     OW69483   6.800   7.977   9.683  0.6992 -0.0019  0.0481
22681SOL    HW169484   6.738   7.958   9.753  0.9656 -0.1755  0.2386
22681SOL    HW269485   6.841   8.060   9.708 -2.1852  2.2154 -1.9625
22682SOL     OW69486   7.239   0.169  11.891  1.1553  0.0730 -0.5628
22682SOL    HW169487   7.146   0.162  11.911  1.5132 -2.8461  0.4764
22682SOL    HW269488   7.248   0.133  11.803  1.5265 -1.7185  0.1740
22683SOL     OW69489   6.316   7.275  10.987 -0.2005 -1.0560 -0.0254
22683SOL    HW169490   6.310   7.314  10.899  1.5866  0.3897  0.4253
22683SOL    HW269491   6.228   7.242  11.004 -1.2401  0.7897 -1.4041
22684SOL     OW69492   6.960   6.573  11.634 -0.1825 -0.4178  0.3242
22684SOL    HW169493   7.035   6.597  11.580  0.1764 -1.0128  0.5573
22684SOL    HW269494   6.940   6.652  11.683  0.1915 -0.2110  0.1481
22685SOL     OW69495   4.468   7.189  11.585 -0.3260 -0.2132 -0.3731
22685SOL    HW169496   4.535   7.142  11.636  1.4470  0.3816 -2.0424
22685SOL    HW269497   4.435   7.124  11.523  0.9072  0.2302 -1.5442
22686SOL     OW69498   5.409   6.513  11.208 -0.6173  0.1624 -0.4079
22686SOL    HW169499   5.446   6.475  11.129 -0.7727 -0.6545 -0.0889
22686SOL    HW269500   5.339   6.571  11.176 -0.2277  0.3752 -0.9009
22687SOL     OW69501   6.263   7.668  11.323  0.2934  0.4265 -0.6378
22687SOL    HW169502   6.298   7.591  11.279  1.1806 -0.6953  1.8234
22687SOL    HW269503   6.312   7.741  11.286  0.0788 -0.2633 -2.3728
22688SOL     OW69504   6.449   5.786  10.660 -0.3089 -0.1704 -0.0325
22688SOL    HW169505   6.407   5.744  10.736 -1.1641 -0.7603 -0.8156
22688SOL    HW269506   6.415   5.875  10.660 -0.4589 -0.2254  0.1619
22689SOL     OW69507   7.314   4.235   0.070  0.1879 -0.0081 -0.0909
22689SOL    HW169508   7.381   4.285   0.118 -0.8050  0.5676  0.7374
22689SOL    HW269509   7.349   4.228  -0.019  1.2395  0.4855  0.2609
22690SOL     OW69510   7.635   0.232   8.934  0.3587  0.0357  0.0306
22690SOL    HW169511   7.576   0.307   8.945 -0.0360 -0.0713 -1.2308
22690SOL    HW269512   7.579   0.156   8.948 -0.1254 -0.1033 -2.2874
22691SOL     OW69513   4.893   6.892  11.601  0.1758 -0.5499  0.1332
22691SOL    HW169514   4.962   6.898  11.535  0.8796 -0.4343  0.8590
22691SOL    HW269515   4.936   6.856  11.679 -0.6871 -0.9103  0.4641
22692SOL     OW69516   4.416   6.472  11.366 -0.1717 -0.1665 -0.0195
22692SOL    HW169517   4.441   6.564  11.369 -0.1275 -0.1612 -0.4703
22692SOL    HW269518   4.407   6.452  11.273  0.5535 -0.8128  0.0378
22693SOL     OW69519   6.359   6.880   1.360  0.1518  0.2476 -0.4381
22693SOL    HW169520   6.366   6.838   1.446  0.2220 -1.2944 -1.1738
22693SOL    HW269521   6.327   6.968   1.380 -0.3062 -0.2308  1.1347
22694SOL     OW69522   6.222   7.065   0.145  0.3487  0.3270  0.2192
22694SOL    HW169523   6.231   7.126   0.071  0.2584 -0.8873 -0.8272
22694SOL    HW269524   6.132   7.078   0.176  1.3762  3.3016  2.4061
22695SOL     OW69525   4.862   5.764  12.248  0.1331 -0.1249 -0.0460
22695SOL    HW169526   4.893   5.764  12.339  0.0016 -0.3556 -0.0014
22695SOL    HW269527   4.924   5.820  12.202 -0.3515  0.7750  0.3694
22696SOL     OW69528   4.995   6.576  12.030 -0.4675 -0.2724 -0.3001
22696SOL    HW169529   5.077   6.528  12.046  0.1670  0.8627 -0.0332
22696SOL    HW269530   4.937   6.511  11.990  0.9073 -0.8547 -1.4535
22697SOL     OW69531   6.006   7.397  10.094  0.1577  0.0140 -0.6452
22697SOL    HW169532   6.019   7.379  10.001  0.3488  0.2604 -0.6685
22697SOL    HW269533   5.926   7.350  10.117  0.8766 -1.2401 -0.5973
22698SOL     OW69534   5.374   6.171  12.134 -0.1629  0.2189 -0.3500
22698SOL    HW169535   5.416   6.152  12.218  1.3420 -1.2436 -1.3638
22698SOL    HW269536   5.326   6.252  12.149  1.0598  0.6575  1.5733
22699SOL     OW69537   6.080   5.341  12.422 -0.0115  0.5064 -0.0058
22699SOL    HW169538   5.996   5.296  12.411  0.2268 -0.6386  2.2589
22699SOL    HW269539   6.117   5.343  12.334 -1.0108 -1.8484 -0.5752
22700SOL     OW69540   6.772   7.568   9.891  0.4945 -0.4888 -0.1154
22700SOL    HW169541   6.805   7.638   9.948  1.5719 -0.3861 -0.8327
22700SOL    HW269542   6.751   7.612   9.809 -1.7740 -0.5002  0.3817
22701SOL     OW69543   7.545   7.164   0.103  0.0460  0.0486  0.4010
22701SOL    HW169544   7.591   7.147   0.185 -0.2030  0.9989  0.7481
22701SOL    HW269545   7.462   7.205   0.130  0.4974  1.5231 -0.3605
22702SOL     OW69546   6.503   7.072  11.024  0.4415 -0.3742 -0.0787
22702SOL    HW169547   6.582   7.107  10.984 -0.1883  1.7404  0.4100
22702SOL    HW269548   6.442   7.146  11.026 -0.7370 -1.3197  1.6743
22703SOL     OW69549   4.614   5.405  11.898  0.3243  0.2743  0.9090
22703SOL    HW169550   4.609   5.310  11.908  1.3413 -0.1126 -1.4266
22703SOL    HW269551   4.671   5.435  11.969  0.4924 -0.9440  1.2986
22704SOL     OW69552   7.446   6.833  10.839  0.1248 -0.0267 -0.0503
22704SOL    HW169553   7.383   6.845  10.768 -0.9248  0.2029  0.8902
22704SOL    HW269554   7.467   6.921  10.869 -0.4784 -0.1644  0.8044
22705SOL     OW69555   7.929   6.575  12.021  0.2259 -0.1246  0.4463
22705SOL    HW169556   8.006   6.564  12.076  1.1233  0.4677 -0.6457
22705SOL    HW269557   7.901   6.485  12.001  1.4723 -0.3778 -0.2580
22706SOL     OW69558   6.942   6.928  10.697  0.1083 -0.0317  0.0262
22706SOL    HW169559   6.968   6.994  10.762  2.2500  1.9358 -2.5907
22706SOL    HW269560   7.015   6.867  10.695  0.5978  0.5637 -1.2473
22707SOL     OW69561   5.553   6.815  12.004  0.1945  0.5883  0.3614
22707SOL    HW169562   5.521   6.773  11.924 -0.4364  1.0675  0.3560
22707SOL    HW269563   5.554   6.746  12.069  0.1699  0.3274  0.0886
22708SOL     OW69564   7.732   6.246   1.829  0.2160 -0.8154 -0.0730
22708SOL    HW169565   7.746   6.167   1.881  0.9115 -0.5759  0.1133
22708SOL    HW269566   7.707   6.313   1.893 -0.2300 -0.8421 -0.2138
22709SOL     OW69567   6.636   6.651  10.929  0.1143  0.4152  0.3332
22709SOL    HW169568   6.577   6.576  10.923 -0.1991  0.7105 -0.5406
22709SOL    HW269569   6.657   6.672  10.838  1.9047  0.0726  0.6251
22710SOL     OW69570   5.442   4.806   0.969 -0.6320 -0.2837  0.3806
22710SOL    HW169571   5.439   4.854   1.052  0.7088  2.7820 -1.1547
22710SOL    HW269572   5.352   4.774   0.958 -1.9921  2.7946  1.1814
22711SOL     OW69573   6.893   6.455  10.694 -0.1598 -0.5852 -0.2974
22711SOL    HW169574   6.826   6.503  10.645 -0.1528 -0.4007 -0.1297
22711SOL    HW269575   6.916   6.381  10.639  0.6807  0.2498 -1.1094
22712SOL     OW69576   7.812   7.269   0.369  0.8610  0.2287 -0.3262
22712SOL    HW169577   7.814   7.324   0.291 -1.1863  1.9693  0.7292
22712SOL    HW269578   7.901   7.270   0.403  1.5716  0.1724 -2.1041
22713SOL     OW69579   7.501   6.694   0.443 -0.1369  0.0139  0.1406
22713SOL    HW169580   7.558   6.642   0.499 -0.8859 -0.6228  0.3401
22713SOL    HW269581   7.538   6.782   0.445  0.2054 -0.1464  1.1316
22714SOL     OW69582   6.518   7.031  10.640  0.2757 -0.5112  0.1831
22714SOL    HW169583   6.498   7.018  10.547  0.6147 -2.3475  0.3213
22714SOL    HW269584   6.598   7.083  10.641  0.1864 -0.3588 -0.5529
22715SOL     OW69585   6.930   5.451  12.273  0.1014  0.6957  0.3541
22715SOL    HW169586   6.918   5.458  12.178  1.4086 -0.7503  0.0536
22715SOL    HW269587   6.843   5.430  12.307 -0.4070  1.3635 -0.4870
22716SOL     OW69588   6.308   0.151  11.896  0.0939  0.1729 -0.0188
22716SOL    HW169589   6.238   0.142  11.832 -0.4016 -0.9617  0.6479
22716SOL    HW269590   6.297   0.238  11.932 -0.5949  0.2324 -0.3585
22717SOL     OW69591   3.877   6.542   0.512 -0.1556  0.2126  0.1715
22717SOL    HW169592   3.879   6.608   0.444  1.4472  0.5362  0.4990
22717SOL    HW269593   3.949   6.483   0.491 -0.0495 -0.0524  1.2099
22718SOL     OW69594   5.439   5.392  12.451  0.5739 -0.3525 -0.4601
22718SOL    HW169595   5.521   5.423  12.412  0.3441 -0.3460 -0.9428
22718SOL    HW269596   5.438   5.431  12.538  0.9671 -0.1565 -0.5395
22719SOL     OW69597   7.548   6.172  12.399  0.1218 -0.3069  0.6112
22719SOL    HW169598   7.499   6.159  12.480 -0.8225 -0.6782 -0.0033
22719SOL    HW269599   7.482   6.179  12.331  0.8779  0.7458 -0.0495
22720SOL     OW69600   6.740   7.675  10.804  0.0471  0.2237 -0.2896
22720SOL    HW169601   6.744   7.735  10.879  0.0064 -1.3160  1.0139
22720SOL    HW269602   6.826   7.681  10.764  1.1512 -1.0603  1.7004
22721SOL     OW69603   6.322   5.843  10.221  0.5861  0.4803 -0.1232
22721SOL    HW169604   6.293   5.930  10.249  0.0114 -0.1561  1.3332
22721SOL    HW269605   6.253   5.784  10.250  1.1069 -0.5192 -0.8416
22722SOL     OW69606   7.009   6.101   1.222  0.2195  0.2161 -0.0541
22722SOL    HW169607   7.074   6.110   1.151 -0.4521  0.7031 -0.6253
22722SOL    HW269608   7.059   6.067   1.296  0.7494 -1.3161 -1.0611
22723SOL     OW69609   5.944   1.040   0.718  0.2061 -0.3118 -0.0876
22723SOL    HW169610   6.001   1.097   0.665 -0.6604  1.0197  0.3780
22723SOL    HW269611   5.933   1.087   0.801  0.3781 -1.7020  0.7596
22724SOL     OW69612   6.769   6.088   0.906  0.1169  0.0865  0.0605
22724SOL    HW169613   6.712   6.162   0.882 -0.0800 -0.5685 -1.6567
22724SOL    HW269614   6.821   6.121   0.979 -0.7226  1.5563  0.0423
22725SOL     OW69615   5.063   6.250  12.246 -0.6385  0.2996 -0.1489
22725SOL    HW169616   5.116   6.200  12.308 -0.2659  1.1096  0.2036
22725SOL    HW269617   5.059   6.338  12.284  0.1049  0.9813 -1.5534
22726SOL     OW69618   6.061   5.773  11.426  0.2006 -0.1855 -0.3662
22726SOL    HW169619   6.126   5.721  11.475  0.4749  2.2225  2.0348
22726SOL    HW269620   6.084   5.758  11.335  2.7351 -1.2072  0.3249
22727SOL     OW69621   4.620   5.799   9.887 -0.2248 -0.1674  0.5174
22727SOL    HW169622   4.529   5.799   9.915  0.3043 -0.5493  2.3617
22727SOL    HW269623   4.665   5.745   9.952  1.2705 -0.1947 -0.5012
22728SOL     OW69624   6.588   7.729  11.468 -0.1472 -0.2283 -0.0145
22728SOL    HW169625   6.519   7.796  11.472 -1.1304 -1.1983 -0.3121
22728SOL    HW269626   6.627   7.730  11.555 -1.0026 -0.1406  0.3756
22729SOL     OW69627   5.852   6.281   0.345  0.3495  0.7534  0.2584
22729SOL    HW169628   5.771   6.292   0.394 -1.6583 -0.6156 -2.4732
22729SOL    HW269629   5.891   6.201   0.379 -0.7785  0.0574 -0.0620
22730SOL     OW69630   6.522   5.451   0.152  0.0639 -0.2372 -0.0806
22730SOL    HW169631   6.559   5.533   0.183 -1.5914  1.2025 -1.6586
22730SOL    HW269632   6.566   5.434   0.069 -0.5844 -0.1491 -0.4556
22731SOL     OW69633   4.078   5.221   1.147 -0.0952 -0.5184 -0.0345
22731SOL    HW169634   4.123   5.246   1.228 -0.6330  2.3654 -0.5295
22731SOL    HW269635   3.985   5.215   1.172 -0.0965 -1.0322 -0.1533
22732SOL     OW69636   6.467   5.177  11.902 -0.0327 -0.5085 -0.4384
22732SOL    HW169637   6.540   5.203  11.846 -0.3328 -0.7481 -0.9399
22732SOL    HW269638   6.509   5.140  11.980  0.3839 -1.3879 -1.0648
22733SOL     OW69639   6.309   5.739  12.363  0.4227  0.0390 -0.4492
22733SOL    HW169640   6.367   5.764  12.435 -1.7141  0.1599  1.3197
22733SOL    HW269641   6.280   5.651  12.385 -0.8788  0.3822 -0.7420
22734SOL     OW69642   7.474   6.510  11.635 -0.1033  0.4686 -1.0419
22734SOL    HW169643   7.469   6.492  11.728  0.1085 -0.3294 -1.1790
22734SOL    HW269644   7.389   6.481  11.601 -0.0917  0.5394 -1.1310
22735SOL     OW69645   6.663   6.042  12.087 -0.2451  0.7131 -0.8009
22735SOL    HW169646   6.638   6.096  12.012  1.0218  0.7276 -1.2321
22735SOL    HW269647   6.607   5.965  12.081 -2.6805  2.2842  0.2885
22736SOL     OW69648   6.919   6.737  10.108 -0.3832  0.0136 -0.6110
22736SOL    HW169649   6.987   6.715  10.044 -0.7032 -2.3877 -0.2109
22736SOL    HW269650   6.901   6.830  10.093  2.3279  0.5186 -1.3399
22737SOL     OW69651   7.186   5.863  11.334  0.2910  0.0579  0.1001
22737SOL    HW169652   7.207   5.921  11.261  0.8707  0.7846  0.8414
22737SOL    HW269653   7.243   5.787  11.321  0.1115  0.0065 -0.4176
22738SOL     OW69654   7.817   7.992   0.583  0.4739 -0.4286 -0.1962
22738SOL    HW169655   7.897   7.990   0.635  1.1330 -1.5695 -1.1978
22738SOL    HW269656   7.803   8.085   0.563  0.5637 -0.0396  1.4192
22739SOL     OW69657   7.746   0.391  11.728  0.2759 -0.1504 -0.2794
22739SOL    HW169658   7.778   0.310  11.767 -1.5849 -0.8781 -0.1939
22739SOL    HW269659   7.777   0.460  11.788  3.2451 -0.5620 -1.1867
22740SOL     OW69660   0.090   7.310  11.713  0.4299  0.2857  0.2897
22740SOL    HW169661   0.156   7.241  11.701  0.7181  0.6076 -0.0192
22740SOL    HW269662   0.111   7.375  11.645 -0.4833  0.1790 -0.1092
22741SOL     OW69663   6.124   5.791   0.580  0.2182  0.2701  0.4413
22741SOL    HW169664   6.204   5.832   0.613 -0.4955  1.0728  1.1921
22741SOL    HW269665   6.153   5.745   0.501  1.7251 -0.7040  1.5003
22742SOL     OW69666   5.764   3.981  11.359  0.0216 -0.1867 -0.3130
22742SOL    HW169667   5.707   3.961  11.284 -0.0901 -0.9040 -0.0423
22742SOL    HW269668   5.839   4.027  11.321 -0.6865  0.7006 -0.6874
22743SOL     OW69669   7.671   7.591  12.247  0.1621  0.1711  0.9738
22743SOL    HW169670   7.617   7.568  12.172 -0.8192 -0.0277  1.7266
22743SOL    HW269671   7.669   7.686  12.250  1.1768  0.2432  0.0679
22744SOL     OW69672   6.913   5.696  10.174 -0.1475  0.5768 -0.3173
22744SOL    HW169673   6.863   5.721  10.252  0.2557  0.2234  0.0657
22744SOL    HW269674   6.915   5.775  10.120  0.6392  1.2243  0.6089
22745SOL     OW69675   6.305   0.785  11.468  0.6330 -0.0352 -0.5449
22745SOL    HW169676   6.306   0.710  11.409  1.6343  0.5217 -1.2662
22745SOL    HW269677   6.221   0.828  11.451  0.0950 -0.9146 -0.1966
22746SOL     OW69678   6.503   6.529  10.345  0.0612  0.0862 -0.4319
22746SOL    HW169679   6.591   6.550  10.313  0.0739 -1.5018 -1.5552
22746SOL    HW269680   6.445   6.553  10.274 -0.3916  0.7272  0.1408
22747SOL     OW69681   4.894   4.506  11.001 -0.3326 -0.3424 -0.4993
22747SOL    HW169682   4.972   4.506  10.945 -0.2679 -0.0368 -0.4149
22747SOL    HW269683   4.848   4.425  10.980  0.4703 -0.9619  0.0980
22748SOL     OW69684   0.147   1.648  12.431  0.6296  0.1060 -0.5501
22748SOL    HW169685   0.067   1.635  12.380 -0.8945  0.1030  1.7143
22748SOL    HW269686   0.218   1.624  12.371 -1.1444 -1.7992 -2.0172
22749SOL     OW69687   7.590   5.351  11.203 -0.0229 -0.0550  0.1939
22749SOL    HW169688   7.594   5.374  11.296  0.6155 -1.9719  0.6871
22749SOL    HW269689   7.676   5.313  11.184 -0.6742 -1.1264 -0.7556
22750SOL     OW69690   7.310   7.073  10.709  0.3480 -0.4224 -0.4929
22750SOL    HW169691   7.357   7.153  10.729  0.5161 -0.6997  0.2715
22750SOL    HW269692   7.229   7.080  10.760  1.2283 -1.5935  1.1774
22751SOL     OW69693   6.324   0.296  11.303 -0.4053  0.6746  0.7637
22751SOL    HW169694   6.392   0.353  11.339  1.1194 -0.1664 -0.6318
22751SOL    HW269695   6.336   0.301  11.208 -1.1092 -0.8853  0.5582
22752SOL     OW69696   7.307   7.315   0.200 -0.2855 -0.2687 -0.0460
22752SOL    HW169697   7.350   7.369   0.268  1.1986  0.2856 -1.3687
22752SOL    HW269698   7.245   7.375   0.159  0.6299  0.1621 -0.8334
22753SOL     OW69699   6.788   5.945   0.140 -0.6305 -0.1704 -0.2125
22753SOL    HW169700   6.701   5.972   0.169 -0.6488 -0.8279  0.3670
22753SOL    HW269701   6.771   5.880   0.072 -0.6151 -1.0172  0.5687
22754SOL     OW69702   5.986   6.988  11.272  0.1523 -0.0487 -0.1645
22754SOL    HW169703   6.012   7.073  11.309 -1.4091  0.6883 -0.6595
22754SOL    HW269704   5.901   6.970  11.312  1.8143 -3.0247  2.4400
22755SOL     OW69705   0.075   5.911   0.905 -0.4721  0.0352 -0.3440
22755SOL    HW169706   0.012   5.864   0.960  0.5288  1.1054  1.8246
22755SOL    HW269707   0.093   5.991   0.954  3.4787 -0.7490 -0.2519
22756SOL     OW69708   6.301   0.479  10.481 -0.7143  0.1813  0.2567
22756SOL    HW169709   6.305   0.431  10.564  1.2152 -0.4341 -0.1365
22756SOL    HW269710   6.336   0.566  10.502  0.0093 -0.0546  0.0581
22757SOL     OW69711   5.741   7.138  11.562  0.6734  0.2463 -0.3768
22757SOL    HW169712   5.656   7.095  11.555  0.8948 -0.0439 -1.5158
22757SOL    HW269713   5.722   7.231  11.552  0.5113  0.1629 -0.8520
22758SOL     OW69714   4.512   7.812   9.325  0.0578  0.0919  0.0236
22758SOL    HW169715   4.497   7.834   9.417 -0.7800  1.1513 -0.3385
22758SOL    HW269716   4.530   7.896   9.283  1.7422 -0.5209 -0.5743
22759SOL     OW69717   7.292   6.944  11.124  0.0845  0.3159  0.3985
22759SOL    HW169718   7.372   6.988  11.093 -0.9185  2.0658  0.1460
22759SOL    HW269719   7.223   6.978  11.067 -0.8490 -1.1895  0.6066
22760SOL     OW69720   0.499   0.579   1.112  0.0810 -0.0530  0.2563
22760SOL    HW169721   0.566   0.627   1.160  1.0715 -0.1767 -0.9476
22760SOL    HW269722   0.495   0.623   1.027 -0.9399 -0.4366  0.0885
22761SOL     OW69723   7.558   6.596   0.886  0.0568  0.3143  0.0243
22761SOL    HW169724   7.577   6.686   0.860 -0.7260  0.6282  0.4898
22761SOL    HW269725   7.508   6.604   0.967 -0.4294 -0.5168 -0.1716
22762SOL     OW69726   7.031   6.834  10.410  0.4731 -0.1182  0.1628
22762SOL    HW169727   7.090   6.759  10.411  1.4027  0.5345 -1.5136
22762SOL    HW269728   7.084   6.907  10.443 -0.3241 -0.0942  1.4720
22763SOL     OW69729   6.977   6.004   0.341  0.1148  0.4757  0.4689
22763SOL    HW169730   7.050   5.954   0.305 -0.1592 -0.9901  1.8376
22763SOL    HW269731   6.904   5.985   0.282  0.4849  0.8122 -0.1041
22764SOL     OW69732   5.486   7.243  11.331 -0.2970 -0.6417 -0.2652
22764SOL    HW169733   5.434   7.265  11.253 -1.7899 -2.1277  0.2521
22764SOL    HW269734   5.512   7.328  11.367  0.2278  0.0772 -2.2269
22765SOL     OW69735   6.792   7.884  11.392 -0.0785  0.3340  0.3066
22765SOL    HW169736   6.810   7.864  11.300  2.5030 -0.1556  0.8253
22765SOL    HW269737   6.713   7.834  11.413 -0.4647  0.1101 -1.5153
22766SOL     OW69738   6.596   6.767  12.455 -0.3767  0.0660  0.0954
22766SOL    HW169739   6.670   6.754  12.515 -0.2474  0.0493 -0.0647
22766SOL    HW269740   6.522   6.727  12.499 -0.4156  0.6000  0.5227
22767SOL     OW69741   6.061   6.769   0.392  0.0397  0.5313  0.3389
22767SOL    HW169742   6.000   6.696   0.385 -0.9059  1.4044 -1.0958
22767SOL    HW269743   6.016   6.833   0.448  1.2460 -0.2979  2.3549
22768SOL     OW69744   5.534   5.866  10.493 -0.0915  0.3159 -0.4563
22768SOL    HW169745   5.579   5.949  10.483 -1.1668  1.2092  1.6305
22768SOL    HW269746   5.588   5.816  10.554 -1.2737  0.9533  1.1685
22769SOL     OW69747   6.490   5.813  12.050  0.1768 -0.0981  0.1982
22769SOL    HW169748   6.421   5.850  12.104 -1.0069 -1.5787 -0.2280
22769SOL    HW269749   6.444   5.778  11.973  1.0404 -3.1530  0.9373
22770SOL     OW69750   6.526   7.846  12.157  0.0848 -0.1274 -0.0286
22770SOL    HW169751   6.509   7.771  12.099 -2.3637  0.1386  0.2257
22770SOL    HW269752   6.462   7.912  12.129  0.2557  0.7831  1.6207
22771SOL     OW69753   0.505   6.071   0.176  0.5531  0.1718  0.4282
22771SOL    HW169754   0.425   6.083   0.227  0.1032  0.8990 -0.4205
22771SOL    HW269755   0.494   5.986   0.133  0.2462  0.2632  0.3268
22772SOL     OW69756   6.467   4.852  11.626 -0.3345 -0.1199  0.0587
22772SOL    HW169757   6.547   4.801  11.638  0.8348  0.8915 -2.6307
22772SOL    HW269758   6.398   4.787  11.614  0.9334 -1.1571 -2.2244
22773SOL     OW69759   7.604   5.016  12.023  0.7588  0.1301  0.1407
22773SOL    HW169760   7.625   5.010  12.116  0.5531  2.3366  0.4001
22773SOL    HW269761   7.674   5.071  11.986 -0.2700  1.0121 -0.5611
22774SOL     OW69762   6.790   7.151  10.678  0.0733 -0.4702 -0.3192
22774SOL    HW169763   6.835   7.223  10.634 -0.9932 -0.1453 -0.9398
22774SOL    HW269764   6.835   7.072  10.649 -0.4865 -0.2511 -1.9128
22775SOL     OW69765   7.735   4.829  12.291  0.2572  0.1576  0.5435
22775SOL    HW169766   7.778   4.900  12.244 -0.5744  0.3737  0.0872
22775SOL    HW269767   7.783   4.822  12.373  0.8212  0.7420  0.2705
22776SOL     OW69768   7.574   5.826  11.481  0.0426 -0.0801 -0.2767
22776SOL    HW169769   7.634   5.751  11.484 -0.1333 -0.4404 -3.0130
22776SOL    HW269770   7.618   5.894  11.533  2.7886 -0.4036 -1.9575
22777SOL     OW69771   5.702   5.759   0.330 -0.2874 -0.4475  0.3864
22777SOL    HW169772   5.669   5.815   0.260  0.3512  0.5851  0.8651
22777SOL    HW269773   5.630   5.753   0.392 -0.3403 -0.0723  0.3662
22778SOL     OW69774   7.196   6.748  10.990 -0.2087 -0.4306 -0.2799
22778SOL    HW169775   7.235   6.752  10.903  1.4914 -0.9359  0.4269
22778SOL    HW269776   7.226   6.829  11.033 -0.3226 -0.6020  0.1269
22779SOL     OW69777   7.645   5.353  12.197 -0.0193 -0.3663  0.1233
22779SOL    HW169778   7.715   5.402  12.154 -0.4012 -0.1933 -0.3116
22779SOL    HW269779   7.619   5.287  12.132 -1.0159  0.2852 -0.1661
22780SOL     OW69780   4.239   6.846  10.916 -0.7601  0.1549 -0.6933
22780SOL    HW169781   4.289   6.925  10.892  1.2346 -0.7490  0.2118
22780SOL    HW269782   4.243   6.844  11.011  1.4038 -2.2492 -0.7110
22781SOL     OW69783   0.077   7.254   0.449 -0.0740 -0.7352  0.6950
22781SOL    HW169784   0.115   7.314   0.514  0.0811 -0.2345  0.1420
22781SOL    HW269785   0.098   7.167   0.483  0.0880 -0.4806  1.2695
22782SOL     OW69786   5.520   0.942   0.752  0.6480  0.7085  0.3792
22782SOL    HW169787   5.603   0.904   0.724  0.8948  1.7415 -0.3679
22782SOL    HW269788   5.498   1.005   0.682 -0.5778  0.7095  0.7368
22783SOL     OW69789   6.792   6.413   1.510 -0.1668  0.1125  0.6805
22783SOL    HW169790   6.787   6.386   1.418  0.1525  0.5241  0.5382
22783SOL    HW269791   6.870   6.368   1.543  0.6554  1.2248  0.3090
22784SOL     OW69792   0.047   0.445   0.643  0.2943 -0.4705 -0.4405
22784SOL    HW169793  -0.008   0.521   0.664  0.2102 -0.4666 -0.6792
22784SOL    HW269794   0.037   0.387   0.719  1.5135  0.3984  0.4246
22785SOL     OW69795   5.136   0.686   0.714  0.2328  0.2398 -0.1526
22785SOL    HW169796   5.059   0.696   0.770  2.0006  0.6333  2.3839
22785SOL    HW269797   5.131   0.758   0.652 -1.2061  0.4894  0.2173
22786SOL     OW69798   6.552   7.633   0.290 -0.0320 -0.3265  0.1635
22786SOL    HW169799   6.629   7.622   0.235 -0.5570  1.6418 -1.0801
22786SOL    HW269800   6.552   7.726   0.313 -2.0802 -0.2492  0.0488
22787SOL     OW69801   0.863   6.661   1.442  0.1893 -0.2215 -0.6815
22787SOL    HW169802   0.806   6.606   1.388 -1.9492  1.1591  0.0154
22787SOL    HW269803   0.809   6.685   1.517  0.5653  3.5465 -1.3707
22788SOL     OW69804   6.258   7.257   2.651 -0.3386  0.0926 -0.2589
22788SOL    HW169805   6.326   7.193   2.629 -1.4146 -1.6227  1.2325
22788SOL    HW269806   6.269   7.326   2.585  1.4960 -1.1198 -1.3136
22789SOL     OW69807   5.757   0.318  11.330 -0.3970  0.2501  0.4415
22789SOL    HW169808   5.821   0.247  11.344 -1.0407 -0.7506 -1.3111
22789SOL    HW269809   5.727   0.341  11.418 -0.6532 -2.1482  1.0596
22790SOL     OW69810   5.364   7.996   0.367 -0.0985  0.3808  0.1952
22790SOL    HW169811   5.439   7.965   0.316 -0.4580  1.0669 -0.7742
22790SOL    HW269812   5.301   7.925   0.362  0.4748 -0.2111  1.0334
22791SOL     OW69813   7.306   0.797   0.437  0.3029 -0.3009 -0.4865
22791SOL    HW169814   7.355   0.715   0.442 -0.2044 -0.7217 -1.8840
22791SOL    HW269815   7.366   0.864   0.469  0.8603 -1.1480  0.2950
22792SOL     OW69816   7.228   2.423   3.255 -0.9229 -0.1312 -0.0471
22792SOL    HW169817   7.224   2.328   3.251 -1.4123 -0.1107 -0.0139
22792SOL    HW269818   7.236   2.451   3.164 -0.5550 -0.2114 -0.0422
22793SOL     OW69819   6.453   1.465   3.454  0.5036 -0.1436  0.0708
22793SOL    HW169820   6.488   1.384   3.418  1.3660 -0.5178  1.6202
22793SOL    HW269821   6.489   1.534   3.399 -1.9829 -0.8137 -2.6494
22794SOL     OW69822   6.901   7.831  12.278 -0.5360  0.3214 -0.0709
22794SOL    HW169823   6.844   7.863  12.348  1.5859 -0.5908  2.2207
22794SOL    HW269824   6.930   7.745  12.308  0.2224 -0.2480 -2.2541
22795SOL     OW69825   7.028   7.267   0.003  0.9153 -0.0382 -0.1122
22795SOL    HW169826   6.969   7.237   0.072  0.8857  2.0072  0.8152
22795SOL    HW269827   7.106   7.212   0.011  1.3159  0.7740  2.2256
22796SOL     OW69828   7.342   1.840   2.377  0.0631 -0.3897  0.1921
22796SOL    HW169829   7.263   1.838   2.322 -0.9523  1.7353  1.3972
22796SOL    HW269830   7.361   1.934   2.386  1.6836 -0.8027  1.3745
22797SOL     OW69831   5.940   0.527   0.600  0.5473  0.8679  0.0099
22797SOL    HW169832   5.977   0.606   0.640  1.8511 -1.2235  3.3101
22797SOL    HW269833   5.860   0.510   0.650  1.1082 -0.6981  0.4319
22798SOL     OW69834   5.460   6.894   1.258  0.4170  0.1374  0.0190
22798SOL    HW169835   5.425   6.893   1.169 -1.6085  2.7830  0.6463
22798SOL    HW269836   5.384   6.876   1.314  1.6879 -1.7052  1.2814
22799SOL     OW69837   4.953   6.647   2.299 -0.2241 -0.1013 -0.9811
22799SOL    HW169838   4.970   6.716   2.363 -0.7188 -0.7868 -0.0943
22799SOL    HW269839   5.035   6.597   2.295 -0.2046 -0.0793 -0.8541
22800SOL     OW69840   7.605   7.298   1.235  0.0068  0.3478  0.4203
22800SOL    HW169841   7.536   7.312   1.170 -0.1732 -0.5839  0.4004
22800SOL    HW269842   7.686   7.296   1.183  0.0242  1.1122  0.4069
22801SOL     OW69843   6.569   5.371  11.321 -0.7126  0.4533  0.3020
22801SOL    HW169844   6.548   5.336  11.407  0.1835  2.4530  1.3820
22801SOL    HW269845   6.489   5.415  11.292 -1.2767 -0.8855 -0.3054
22802SOL     OW69846   7.068   7.075   1.331  0.8280 -0.2066  0.1657
22802SOL    HW169847   7.075   7.168   1.307  1.4586 -0.5349 -0.9856
22802SOL    HW269848   6.987   7.070   1.381  1.2402  1.1168  1.0147
22803SOL     OW69849   0.285   0.154   0.364 -0.2483 -0.3432 -0.4819
22803SOL    HW169850   0.350   0.164   0.433  0.9962  3.2027 -1.9044
22803SOL    HW269851   0.315   0.079   0.313  1.0949 -0.5380  0.5430
22804SOL     OW69852   6.693   7.963   1.021 -0.7377  0.1900  0.5978
22804SOL    HW169853   6.770   8.013   0.994 -0.7830 -0.0004  0.1038
22804SOL    HW269854   6.626   7.985   0.956 -0.5330 -1.0709 -0.0684
22805SOL     OW69855   4.922   7.853   0.475  0.2540  0.0286 -0.0441
22805SOL    HW169856   4.875   7.934   0.454 -0.8352 -0.2122  1.2926
22805SOL    HW269857   4.969   7.831   0.394  0.0083  1.5994 -0.6586
22806SOL     OW69858   7.354   7.896   0.859  0.1725 -0.0800  0.4661
22806SOL    HW169859   7.448   7.913   0.850  0.1458 -0.1674 -0.0131
22806SOL    HW269860   7.349   7.826   0.925  0.3423  0.9291  1.5974
22807SOL     OW69861   6.590   7.392  12.156 -0.1338  0.1174 -0.3267
22807SOL    HW169862   6.532   7.450  12.206  0.7941  0.2046  0.6943
22807SOL    HW269863   6.583   7.307  12.200  2.1091  0.6360  1.2169
22808SOL     OW69864   6.461   7.277   0.487  0.4505  0.0531  0.4430
22808SOL    HW169865   6.482   7.368   0.508  1.3114  0.2474 -1.1177
22808SOL    HW269866   6.449   7.276   0.392  0.1782 -1.4062  0.4673
22809SOL     OW69867   7.536   0.105   0.500  0.1785 -0.1575  0.1382
22809SOL    HW169868   7.549   0.192   0.537  0.2177 -1.3583  3.2103
22809SOL    HW269869   7.441   0.098   0.488  0.0320 -0.1532  1.2013
22810SOL     OW69870   0.752   7.715   0.259 -0.3196 -0.9439 -0.3133
22810SOL    HW169871   0.812   7.647   0.291  1.2458  0.1118 -0.8661
22810SOL    HW269872   0.734   7.769   0.335  0.4377 -0.5732 -0.3808
22811SOL     OW69873   6.265   0.664   2.115  0.2649  0.2454 -0.4758
22811SOL    HW169874   6.277   0.593   2.052 -0.0521 -1.1792  1.0024
22811SOL    HW269875   6.179   0.647   2.154  0.6166  0.8563  0.5968
22812SOL     OW69876   6.134   5.104   0.499 -0.1133 -0.2360 -0.8113
22812SOL    HW169877   6.148   5.012   0.522  1.1292  0.0806 -0.2131
22812SOL    HW269878   6.102   5.101   0.409  0.7204 -1.2199 -1.0942
22813SOL     OW69879   7.341   0.813   0.065 -0.1870  0.1745  0.7797
22813SOL    HW169880   7.419   0.772   0.101 -0.6561  0.0898  1.7554
22813SOL    HW269881   7.350   0.906   0.086  0.8666  0.6212 -1.4134
22814SOL     OW69882   7.035   6.644   1.801  0.4510 -0.0677  0.4322
22814SOL    HW169883   7.041   6.697   1.880 -2.1600  1.8297 -0.4657
22814SOL    HW269884   7.082   6.694   1.735 -2.6963  1.8428 -0.6214
22815SOL     OW69885   5.434   0.603   3.223  0.2388  0.5796  0.3094
22815SOL    HW169886   5.343   0.619   3.198 -0.7817 -1.6494  2.2806
22815SOL    HW269887   5.440   0.635   3.313  0.6463 -1.5930  1.0994
22816SOL     OW69888   5.558   5.901   0.076 -0.4595 -0.4322  0.2432
22816SOL    HW169889   5.502   5.827   0.101 -0.7338  0.0460  1.0613
22816SOL    HW269890   5.527   5.974   0.129 -0.6955  0.4790 -1.0897
22817SOL     OW69891   5.765   0.047   0.261  0.3481 -0.6359  0.6838
22817SOL    HW169892   5.814   0.101   0.200 -0.8983  0.2683  0.4258
22817SOL    HW269893   5.831   0.000   0.311  1.4063 -0.8662 -0.8729
22818SOL     OW69894   6.956   6.084  12.437 -0.0382  0.1355 -0.2201
22818SOL    HW169895   6.888   6.038  12.487  0.1743  0.4882  0.4038
22818SOL    HW269896   6.908   6.126  12.365 -0.4607  0.2777  0.1425
22819SOL     OW69897   7.384   7.431   1.082 -0.3494  0.6389 -0.5465
22819SOL    HW169898   7.359   7.513   1.039 -0.8423 -0.5746 -2.7393
22819SOL    HW269899   7.336   7.363   1.034 -1.0587 -0.8566  2.0806
22820SOL     OW69900   0.437   7.926   0.201  0.0623 -0.3104 -0.0233
22820SOL    HW169901   0.494   7.999   0.226 -1.1959  0.7678 -0.2092
22820SOL    HW269902   0.495   7.850   0.199  1.2373  0.5262  0.9972
22821SOL     OW69903   7.286   7.719  11.985  0.5264 -0.5311  0.0322
22821SOL    HW169904   7.226   7.776  12.031 -0.4469  1.5741 -3.4936
22821SOL    HW269905   7.242   7.634  11.984 -0.6763  0.0588  0.5857
22822SOL     OW69906   6.180   1.262  11.755  0.0615 -0.2045 -0.1315
22822SOL    HW169907   6.116   1.333  11.762 -0.8181 -0.9317 -0.6184
22822SOL    HW269908   6.203   1.259  11.662  0.9796  0.1834  0.0669
22823SOL     OW69909   6.063   7.503   3.009 -0.5739 -0.1546 -0.0144
22823SOL    HW169910   6.026   7.591   3.002  1.0468  0.7031  1.3551
22823SOL    HW269911   6.007   7.458   3.072 -0.7872  0.2660  0.0950
22824SOL     OW69912   7.637   0.873   0.636 -0.8127  0.0695  0.1439
22824SOL    HW169913   7.628   0.863   0.542 -1.0920 -1.0445  0.2683
22824SOL    HW269914   7.552   0.907   0.665 -0.5104  1.0340 -0.0682
22825SOL     OW69915   5.892   0.175   0.052  0.1016  0.1034  0.3933
22825SOL    HW169916   5.882   0.263   0.016 -2.0406 -0.0301  0.5349
22825SOL    HW269917   5.944   0.128  -0.013 -1.6639  0.5336 -1.4365
22826SOL     OW69918   5.956   7.108   0.783  0.4619  0.3297  0.1945
22826SOL    HW169919   6.022   7.076   0.721  0.6489 -0.3613  0.7327
22826SOL    HW269920   5.950   7.202   0.765 -0.5778 -0.0715 -1.8920
22827SOL     OW69921   7.050   0.915  11.312  0.4481 -0.7343  0.1408
22827SOL    HW169922   6.957   0.935  11.325 -0.2253 -2.1218 -1.9523
22827SOL    HW269923   7.083   0.897  11.400 -0.7159  1.7546  1.1806
22828SOL     OW69924   5.802   1.552   0.728  0.1707  0.0867 -0.6992
22828SOL    HW169925   5.780   1.461   0.707 -1.2827  0.0358  0.8180
22828SOL    HW269926   5.729   1.603   0.693  0.4148  0.5529 -0.5362
22829SOL     OW69927   7.380   6.713   1.975 -0.1625  0.0849  0.2568
22829SOL    HW169928   7.445   6.725   2.044 -0.1663 -1.1455  0.5034
22829SOL    HW269929   7.380   6.795   1.926  0.8534  0.4571  0.8693
22830SOL     OW69930   6.713   4.538   0.057  0.2314  0.3453 -0.4432
22830SOL    HW169931   6.753   4.592   0.125  2.0366  0.5021 -1.5690
22830SOL    HW269932   6.735   4.448   0.081 -2.8326 -0.0572  1.4686
22831SOL     OW69933   7.154   7.790   0.385 -0.1317  0.4780 -0.1790
22831SOL    HW169934   7.136   7.791   0.479 -2.1119 -2.2358 -0.3960
22831SOL    HW269935   7.224   7.725   0.375  0.9353  1.6558 -0.5010
22832SOL     OW69936   0.417   0.163   1.231  0.5770  0.1330 -0.3380
22832SOL    HW169937   0.465   0.230   1.182  0.0716  0.3019 -0.6084
22832SOL    HW269938   0.357   0.213   1.287 -1.5134 -0.0919 -2.2633
22833SOL     OW69939   6.382   1.034  12.488 -0.2941  0.0310 -0.0219
22833SOL    HW169940   6.444   1.088  12.537  2.4107  0.1092 -3.1981
22833SOL    HW269941   6.382   0.950  12.533 -0.5093  1.0299  1.9436
22834SOL     OW69942   6.801   0.419   0.671  0.0459  0.3900 -0.5808
22834SOL    HW169943   6.877   0.385   0.719  0.4251  0.9864 -0.7477
22834SOL    HW269944   6.726   0.379   0.715  0.4261  0.3032  0.0089
22835SOL     OW69945   6.791   7.682   1.419 -0.3140  0.3083  0.3216
22835SOL    HW169946   6.873   7.730   1.406 -0.0697 -0.2540 -0.3164
22835SOL    HW269947   6.777   7.684   1.513 -0.5523  2.0058  0.2859
22836SOL     OW69948   5.967   7.723   2.097 -0.2058  0.3621  0.4313
22836SOL    HW169949   5.957   7.766   2.012 -1.1011  2.2004  1.4048
22836SOL    HW269950   5.908   7.648   2.093 -3.0874  2.4451  0.6145
22837SOL     OW69951   6.521   0.202  12.096  0.2958  0.2441 -0.6447
22837SOL    HW169952   6.482   0.156  12.021 -0.0834 -1.7734  0.6979
22837SOL    HW269953   6.445   0.238  12.142  0.3565 -0.1155 -0.2591
22838SOL     OW69954   6.466   0.115  12.418 -0.6134  0.0999 -0.0937
22838SOL    HW169955   6.494   0.200  12.387 -0.3389  0.9004  2.2001
22838SOL    HW269956   6.392   0.133  12.476  0.5968 -0.9976  1.8976
22839SOL     OW69957   5.500   0.668  10.808 -0.5250 -0.1768 -0.3306
22839SOL    HW169958   5.432   0.677  10.874  0.2484  0.4054  0.4139
22839SOL    HW269959   5.485   0.740  10.747  0.8662  1.4941  1.1973
22840SOL     OW69960   1.233   1.213   2.817  0.1384  0.5952 -0.1948
22840SOL    HW169961   1.217   1.307   2.828 -0.0255  0.3616  1.8965
22840SOL    HW269962   1.147   1.176   2.798  0.2104  0.8415 -1.0728
22841SOL     OW69963   0.510   7.391   1.133  0.3212  0.2636  0.5299
22841SOL    HW169964   0.486   7.476   1.170  1.3022  1.1156 -0.7246
22841SOL    HW269965   0.537   7.339   1.208  0.2413  1.2442  1.2576
22842SOL     OW69966   6.405   6.668  12.153  0.2543  0.1071 -0.3057
22842SOL    HW169967   6.322   6.715  12.160  0.4122  0.4912 -0.9065
22842SOL    HW269968   6.388   6.582  12.190 -0.2986  0.3258 -0.0506
22843SOL     OW69969   6.982   0.945   0.034  0.0171  0.0399  0.3549
22843SOL    HW169970   6.891   0.936   0.009  0.3110  1.5576 -1.4962
22843SOL    HW269971   7.031   0.917  -0.043  1.0285  2.2768  0.1005
22844SOL     OW69972   6.538   5.923   1.449 -0.8177 -0.4041  0.7352
22844SOL    HW169973   6.580   5.953   1.368 -2.3786  2.4128  0.8222
22844SOL    HW269974   6.451   5.895   1.422 -0.8980 -0.6955  1.2834
22845SOL     OW69975   0.668   7.146  11.918 -0.2751  0.3210 -0.0107
22845SOL    HW169976   0.683   7.145  12.012 -1.3388  0.0488  0.1622
22845SOL    HW269977   0.755   7.163  11.880  0.1305  0.5775  1.0128
22846SOL     OW69978   6.241   0.353   0.122  0.2551 -0.2507  0.7747
22846SOL    HW169979   6.206   0.370   0.034 -1.0827 -0.4126  1.2443
22846SOL    HW269980   6.249   0.258   0.126  1.8801 -0.1584  0.2795
22847SOL     OW69981   5.687   7.082   1.648 -0.3323 -0.2547 -0.4385
22847SOL    HW169982   5.781   7.061   1.653  0.2463  2.1480  2.7933
22847SOL    HW269983   5.685   7.178   1.641 -2.4531 -0.0608  1.5566
22848SOL     OW69984   6.035   7.109   1.974  0.2689 -0.3077 -1.2927
22848SOL    HW169985   6.004   7.187   2.020  1.1836  0.8623 -2.5745
22848SOL    HW269986   6.098   7.070   2.034  1.9513  1.5639 -1.7439
22849SOL     OW69987   6.182   0.813   1.372  0.1516 -0.3298 -0.7057
22849SOL    HW169988   6.178   0.740   1.310  1.2270 -0.3422 -0.7778
22849SOL    HW269989   6.150   0.776   1.455 -0.0152 -0.6710 -0.9196
22850SOL     OW69990   1.463   7.324   2.297 -0.0072  0.1860 -0.6049
22850SOL    HW169991   1.454   7.406   2.346 -0.8027 -0.2096 -0.0613
22850SOL    HW269992   1.376   7.308   2.260  0.3022 -0.0950 -1.2155
22851SOL     OW69993   5.568   0.108   2.045  0.3905 -0.3713  0.0848
22851SOL    HW169994   5.647   0.106   1.991 -0.7993  1.4540 -1.8827
22851SOL    HW269995   5.600   0.134   2.132  2.2353 -2.4103  0.1033
22852SOL     OW69996   5.208   7.928   1.604 -0.4042 -0.5798 -0.2905
22852SOL    HW169997   5.298   7.915   1.636 -0.3226  1.2801  0.3232
22852SOL    HW269998   5.216   7.995   1.537 -1.5215  0.9346  1.0133
22853SOL     OW69999   5.226   7.458   4.074 -0.1056  0.7063  0.2730
22853SOL    HW170000   5.132   7.474   4.066 -0.0844  0.2445 -1.5398
22853SOL    HW270001   5.237   7.416   4.159 -1.3981  1.6415  0.9307
22854SOL     OW70002   6.162   7.152   1.368  1.1979  0.1495 -0.1657
22854SOL    HW170003   6.100   7.221   1.394 -0.2503 -0.7934 -0.9598
22854SOL    HW270004   6.212   7.135   1.448  0.5642  1.0804  0.4622
22855SOL     OW70005   6.694   1.120   1.094 -0.0561  0.7716 -0.3880
22855SOL    HW170006   6.634   1.049   1.075 -0.5873  0.6396  1.5693
22855SOL    HW270007   6.641   1.200   1.091 -0.4517  0.6384  1.5204
22856SOL     OW70008   6.846   6.323   4.622 -0.2565  0.5338  0.6564
22856SOL    HW170009   6.821   6.283   4.705 -0.2142  2.1480  1.4855
22856SOL    HW270010   6.914   6.265   4.587 -1.3916 -1.0259  0.9419
22857SOL     OW70011   6.232   7.299   3.224  0.0375  0.2114 -0.3106
22857SOL    HW170012   6.161   7.240   3.197 -0.8789  0.7177  0.9121
22857SOL    HW270013   6.295   7.296   3.152 -1.4389  0.0978 -1.6335
22858SOL     OW70014   6.598   1.010   0.632  0.2437 -0.4432  0.6814
22858SOL    HW170015   6.677   0.954   0.635  0.2003 -0.5830 -0.3605
22858SOL    HW270016   6.631   1.099   0.645  1.0783 -0.0843 -2.9783
22859SOL     OW70017   4.445   1.141   3.738 -0.0813 -0.0253 -0.3518
22859SOL    HW170018   4.532   1.163   3.705 -0.9196  0.9253 -2.0493
22859SOL    HW270019   4.391   1.130   3.660 -1.2730 -1.6803  0.6220
22860SOL     OW70020   7.012   0.677   3.471 -0.1478 -0.2636 -0.1122
22860SOL    HW170021   7.055   0.694   3.387  1.7891 -0.5105  0.7807
22860SOL    HW270022   6.963   0.596   3.457 -0.5622  0.1548 -1.2238
22861SOL     OW70023   6.266   7.546   1.056 -0.1839 -0.8208  0.5957
22861SOL    HW170024   6.291   7.638   1.048  1.4532 -1.3553 -1.6295
22861SOL    HW270025   6.347   7.501   1.078 -0.5957 -1.9118 -0.0484
22862SOL     OW70026   0.040   0.647   5.098 -0.4441  0.1699 -0.2206
22862SOL    HW170027   0.043   0.570   5.155  1.6920 -0.2127 -0.7482
22862SOL    HW270028  -0.045   0.642   5.055 -1.4506 -0.4149  1.7047
22863SOL     OW70029   7.140   0.426   2.265 -0.2688 -0.4648  0.4800
22863SOL    HW170030   7.053   0.429   2.304 -0.9573 -0.7165 -0.9683
22863SOL    HW270031   7.153   0.335   2.240 -0.3744 -0.1114 -0.9539
22864SOL     OW70032   5.486   7.446   1.926 -0.1185 -0.3427  0.0697
22864SOL    HW170033   5.424   7.397   1.872 -2.5904  1.7516  0.8497
22864SOL    HW270034   5.434   7.515   1.968  2.4737  0.6578  1.9336
22865SOL     OW70035   5.447   0.315   1.033 -0.0197  0.5059 -0.4784
22865SOL    HW170036   5.439   0.226   1.067  2.0541  0.2930 -0.4445
22865SOL    HW270037   5.440   0.306   0.938 -1.9653  0.6153 -0.3778
22866SOL     OW70038   0.364   0.472   4.083  0.3301 -0.6908 -0.0797
22866SOL    HW170039   0.337   0.403   4.023  0.8826  0.0018 -1.1574
22866SOL    HW270040   0.443   0.436   4.125 -1.2921 -2.0951  1.9636
22867SOL     OW70041   6.697   7.984   1.428 -0.1641  0.8708  0.0990
22867SOL    HW170042   6.758   7.911   1.424  1.9333  2.5100  0.6466
22867SOL    HW270043   6.637   7.969   1.355 -0.0775 -1.5904  0.4617
22868SOL     OW70044   6.539   7.749   1.892 -0.0238  0.0722  0.7996
22868SOL    HW170045   6.623   7.777   1.928  1.1757 -1.5554 -0.5614
22868SOL    HW270046   6.528   7.802   1.813 -1.4340  1.8812  2.1470
22869SOL     OW70047   7.053   1.890   2.536  0.1253 -0.3334  0.8246
22869SOL    HW170048   7.024   1.896   2.445  0.4427 -1.3591  0.6358
22869SOL    HW270049   7.002   1.957   2.582 -0.4353 -0.1653 -0.0065
22870SOL     OW70050   5.885   6.573   2.987 -0.9366  0.4327 -0.5018
22870SOL    HW170051   5.939   6.648   3.011 -0.9784  0.0907  0.7350
22870SOL    HW270052   5.818   6.609   2.929 -2.0444  1.7420  1.4677
22871SOL     OW70053   3.318   0.881   1.885  0.5677  0.6518  0.3476
22871SOL    HW170054   3.249   0.936   1.921  0.9317  0.9421  0.6057
22871SOL    HW270055   3.271   0.806   1.848  0.0744  1.0755  0.0889
22872SOL     OW70056   6.492   1.304   3.225  0.3051  0.1836 -0.2137
22872SOL    HW170057   6.502   1.277   3.134  0.2429  0.3417 -0.2677
22872SOL    HW270058   6.443   1.386   3.221 -0.0189  0.0044 -0.0179
22873SOL     OW70059   7.026   6.278   1.586  0.6025 -0.5397 -0.0748
22873SOL    HW170060   7.086   6.351   1.596  1.5899 -1.3216 -0.2103
22873SOL    HW270061   7.077   6.200   1.608 -0.6327 -1.1414  0.8542
22874SOL     OW70062   5.356   6.460   2.536  0.3203  0.2519 -0.7842
22874SOL    HW170063   5.450   6.461   2.518  0.7488 -0.6832  1.1831
22874SOL    HW270064   5.322   6.386   2.485  0.5725  0.7448 -1.6979
22875SOL     OW70065   7.636   6.564   3.265 -0.3053  0.3367  0.2150
22875SOL    HW170066   7.554   6.571   3.215 -0.8075  2.6856  1.2025
22875SOL    HW270067   7.697   6.621   3.218  0.2189  0.0114  0.4948
22876SOL     OW70068   6.977   7.724   2.260 -0.0388  0.1060 -0.6699
22876SOL    HW170069   6.955   7.654   2.321  1.1229  0.4969  0.2243
22876SOL    HW270070   6.917   7.796   2.284 -1.5701 -0.6811 -1.9051
22877SOL     OW70071   5.895   5.793   1.594 -0.1845 -0.2664  0.0124
22877SOL    HW170072   5.985   5.821   1.613 -0.8884  2.2362  0.0011
22877SOL    HW270073   5.846   5.817   1.672 -1.0146 -0.7822 -0.3398
22878SOL     OW70074   5.833   5.212   1.770 -0.1179 -0.0754 -0.3451
22878SOL    HW170075   5.873   5.159   1.840 -0.8846 -1.4938 -0.9444
22878SOL    HW270076   5.902   5.223   1.705  0.0491 -0.3282 -0.2098
22879SOL     OW70077   5.247   7.807   2.646 -0.0122  0.9416 -0.5689
22879SOL    HW170078   5.298   7.735   2.684 -0.3713 -0.1522 -2.0622
22879SOL    HW270079   5.239   7.785   2.554 -2.9383  1.1824 -0.4678
22880SOL     OW70080   6.048   7.141   3.108 -0.3735  0.0803  0.0323
22880SOL    HW170081   6.017   7.177   3.025 -1.4423  0.0129  0.3855
22880SOL    HW270082   6.020   7.049   3.106 -2.0951  0.5308  1.2468
22881SOL     OW70083   7.023   7.453   4.594 -0.0061 -0.2125  0.0769
22881SOL    HW170084   7.046   7.545   4.605 -0.2803 -0.0818 -0.4321
22881SOL    HW270085   6.999   7.423   4.682 -0.2300  0.2858  0.1849
22882SOL     OW70086   5.717   7.762   0.834 -0.1775  0.3880 -0.0217
22882SOL    HW170087   5.637   7.731   0.791 -0.9601  3.0051 -0.6324
22882SOL    HW270088   5.741   7.841   0.786  2.2117  0.2653  0.8359
22883SOL     OW70089   4.905   0.712   1.433 -0.2756  0.2879 -0.3782
22883SOL    HW170090   4.840   0.645   1.411 -0.2744 -0.2949  1.2411
22883SOL    HW270091   4.957   0.672   1.503 -1.1211  2.4421  1.6212
22884SOL     OW70092   5.592   5.895   2.994  0.0295  0.2728  0.0091
22884SOL    HW170093   5.650   5.936   2.929  1.0559 -1.1031  0.0292
22884SOL    HW270094   5.553   5.969   3.040  1.5225  1.2500 -0.2197
22885SOL     OW70095   6.048   6.949   2.689 -0.3716 -0.2572 -0.0681
22885SOL    HW170096   6.118   6.930   2.627 -0.9145  0.8403 -1.0564
22885SOL    HW270097   6.053   6.878   2.753  2.3777  0.3617  0.5685
22886SOL     OW70098   7.177   7.758   2.016  0.2119  0.5471 -0.4044
22886SOL    HW170099   7.180   7.791   2.105  1.0896 -1.0122  0.1806
22886SOL    HW270100   7.175   7.663   2.025 -0.0633  0.3580 -2.0427
22887SOL     OW70101   6.756   1.602   3.438 -0.0001 -0.0857 -0.6980
22887SOL    HW170102   6.804   1.525   3.407 -0.3478 -0.4896 -0.2571
22887SOL    HW270103   6.725   1.645   3.358 -0.4704 -0.8367 -0.9310
22888SOL     OW70104   5.802   0.082   1.072 -0.1460  0.3306  0.1036
22888SOL    HW170105   5.819   0.072   1.165 -1.7009 -0.4580  0.3464
22888SOL    HW270106   5.723   0.029   1.056 -2.3374  3.5739 -0.8452
22889SOL     OW70107   0.012   0.121   3.691 -0.7372 -0.0203  0.1401
22889SOL    HW170108   0.006   0.214   3.713 -0.1362 -0.1901  1.0331
22889SOL    HW270109  -0.074   0.100   3.653 -1.2064  0.6661  0.8053
22890SOL     OW70110   6.447   6.377   3.213 -0.6273  0.0330 -0.0967
22890SOL    HW170111   6.369   6.384   3.158  0.3305  1.0122 -1.4142
22890SOL    HW270112   6.506   6.319   3.164  0.4651  1.3596 -0.4404
22891SOL     OW70113   5.645   1.007   4.984  0.4129 -0.3949 -0.0922
22891SOL    HW170114   5.678   1.031   5.070 -0.4405 -1.3906  0.5288
22891SOL    HW270115   5.600   0.924   4.997 -0.3435 -0.2165 -1.3548
22892SOL     OW70116   4.749   0.490   1.390 -0.0586 -0.8386 -0.2388
22892SOL    HW170117   4.782   0.455   1.307  0.4108  1.0768 -0.9120
22892SOL    HW270118   4.653   0.486   1.381 -0.0354  0.4158 -1.4081
22893SOL     OW70119   7.141   7.400   3.093  0.5414 -0.5096 -0.0325
22893SOL    HW170120   7.135   7.350   3.174 -1.5885  2.0458  1.5261
22893SOL    HW270121   7.091   7.348   3.030 -1.2625 -0.6384  1.4205
22894SOL     OW70122   6.599   0.463   4.231  0.8730 -0.1791  0.2658
22894SOL    HW170123   6.669   0.436   4.291  2.0403  0.0831 -0.9137
22894SOL    HW270124   6.646   0.494   4.154 -0.4631  2.3820  0.3815
22895SOL     OW70125   5.828   6.854   3.328  0.6029  0.3439  0.2313
22895SOL    HW170126   5.757   6.916   3.347  0.9712  0.8978 -0.1548
22895SOL    HW270127   5.905   6.892   3.370  0.6825 -0.2406  0.6202
22896SOL     OW70128   6.980   1.126   2.298 -0.0672  0.5573  0.3982
22896SOL    HW170129   6.940   1.102   2.381  0.3713  2.0563  1.0856
22896SOL    HW270130   6.909   1.123   2.235 -0.3517 -0.8521  0.7565
22897SOL     OW70131   6.052   0.286   0.555 -0.0522 -0.2635  0.4867
22897SOL    HW170132   5.979   0.245   0.509 -1.4289  0.9893  1.4620
22897SOL    HW270133   6.014   0.363   0.597  1.7774  0.2688  1.2855
22898SOL     OW70134   6.231   7.459   2.112  0.0600  0.4638 -0.2990
22898SOL    HW170135   6.139   7.434   2.109 -0.1115  1.1090 -0.5264
22898SOL    HW270136   6.266   7.414   2.189 -0.2833 -0.3118 -0.5884
22899SOL     OW70137   6.832   0.121   2.567  0.0885 -0.1392 -0.7416
22899SOL    HW170138   6.913   0.160   2.599 -0.0039  1.3256 -2.2236
22899SOL    HW270139   6.773   0.195   2.550 -3.0224 -1.1442  3.6177
22900SOL     OW70140   6.438   0.045   2.781 -0.1420  0.3701 -0.3377
22900SOL    HW170141   6.503   0.004   2.724 -0.4384  1.4636 -1.5223
22900SOL    HW270142   6.458   0.139   2.775 -2.4887  0.8540 -1.6397
22901SOL     OW70143   6.105   7.282   1.132  0.0243  0.0428  0.5145
22901SOL    HW170144   6.167   7.252   1.067  1.0881  2.4177  0.3304
22901SOL    HW270145   6.138   7.248   1.215 -0.4962 -1.7107  0.0474
22902SOL     OW70146   4.218   7.671   2.162  0.4438 -0.1459 -0.6141
22902SOL    HW170147   4.147   7.639   2.218  1.2113  0.1702  0.5797
22902SOL    HW270148   4.292   7.681   2.221  1.5414 -0.6051 -1.8645
22903SOL     OW70149   4.241   7.538   1.944  0.2368 -0.4399  0.0316
22903SOL    HW170150   4.221   7.599   2.015  0.1490 -0.5270  0.0804
22903SOL    HW270151   4.234   7.451   1.984  0.0827 -0.4923 -0.1100
22904SOL     OW70152   6.267   7.777   3.315  0.3013 -0.1983  0.4058
22904SOL    HW170153   6.251   7.848   3.377 -1.0440 -0.5088  0.4345
22904SOL    HW270154   6.274   7.699   3.369 -0.9879 -0.4874  0.1820
22905SOL     OW70155   5.608   7.118   2.049  0.4436 -0.6795  0.5363
22905SOL    HW170156   5.560   7.119   2.132 -1.7884  1.3052 -0.6543
22905SOL    HW270157   5.682   7.177   2.063  1.3339 -2.0354  1.7279
22906SOL     OW70158   5.944   7.482   2.427  0.0872  0.0656 -0.3385
22906SOL    HW170159   5.891   7.557   2.399  0.2970  0.1583 -0.4932
22906SOL    HW270160   5.949   7.426   2.349  0.9213  0.4667 -0.5825
22907SOL     OW70161   7.182   6.481   3.295 -0.2449 -0.1422 -0.4920
22907SOL    HW170162   7.134   6.563   3.283 -0.1197 -0.0519 -0.3755
22907SOL    HW270163   7.228   6.468   3.212 -1.2126 -0.7229 -0.9606
22908SOL     OW70164   0.098   0.872   3.562  0.7943  0.2777 -0.0717
22908SOL    HW170165   0.158   0.942   3.588  0.6143  1.3958 -2.4009
22908SOL    HW270166   0.025   0.879   3.623  1.4124  1.2281  0.5796
22909SOL     OW70167   6.181   6.671   2.012  0.4584  0.7326  0.0732
22909SOL    HW170168   6.112   6.698   2.073  0.7113  1.5401  0.0178
22909SOL    HW270169   6.134   6.634   1.937  0.1536 -0.4623  0.8385
22910SOL     OW70170   5.758   7.488   1.918 -0.5619  0.1068 -0.2818
22910SOL    HW170171   5.803   7.424   1.975 -2.2918  1.1593  2.4525
22910SOL    HW270172   5.666   7.461   1.920 -0.8947  1.0982 -1.3896
22911SOL     OW70173   7.548   7.115   3.882 -0.1743  0.0273 -0.1510
22911SOL    HW170174   7.575   7.044   3.823  0.4674  0.3578 -0.2694
22911SOL    HW270175   7.579   7.194   3.838 -1.2348  0.4207 -0.2155
22912SOL     OW70176   6.601   6.283   0.819 -0.0580 -0.5899 -0.4502
22912SOL    HW170177   6.523   6.265   0.871  1.3398 -2.0717  1.2752
22912SOL    HW270178   6.575   6.263   0.729 -1.2800 -2.3912  0.2502
22913SOL     OW70179   7.408   7.614   1.787 -0.3049 -0.0176 -0.7914
22913SOL    HW170180   7.372   7.578   1.869  1.3669  1.6621  0.7692
22913SOL    HW270181   7.342   7.678   1.759 -0.8043 -0.4694 -0.6733
22914SOL     OW70182   7.787   0.052   3.510 -0.1280  0.0749 -0.3205
22914SOL    HW170183   7.772  -0.038   3.481 -0.7881  0.0988 -0.0582
22914SOL    HW270184   7.869   0.077   3.467 -0.0454 -0.5774 -0.5593
22915SOL     OW70185   6.609   1.013   4.727  0.5991 -0.4337 -0.0359
22915SOL    HW170186   6.574   1.084   4.781  0.0129  0.9004 -2.0742
22915SOL    HW270187   6.533   0.957   4.709  0.6949 -0.6201  0.1400
22916SOL     OW70188   4.989   7.656   5.328  0.0936 -0.3226 -0.2751
22916SOL    HW170189   4.907   7.682   5.371 -0.0040 -0.0245 -0.6363
22916SOL    HW270190   5.025   7.588   5.385 -0.8345 -1.0749 -0.5443
22917SOL     OW70191   0.500   7.884   3.045  0.4915 -0.3019 -0.3697
22917SOL    HW170192   0.459   7.819   2.989 -1.2244  0.0369  0.4439
22917SOL    HW270193   0.471   7.863   3.133 -0.0857  1.5135 -0.0792
22918SOL     OW70194   7.047   7.086   5.897 -0.2323 -0.6833  0.2579
22918SOL    HW170195   7.129   7.047   5.867 -1.1381 -1.2149 -1.7376
22918SOL    HW270196   7.017   7.139   5.823 -0.7311  1.1190  1.6742
22919SOL     OW70197   7.469   0.530   5.187  1.0231 -0.4712 -0.3085
22919SOL    HW170198   7.462   0.473   5.111  0.5326  0.0719 -0.6794
22919SOL    HW270199   7.488   0.471   5.260 -0.0292 -1.1826 -0.5908
22920SOL     OW70200   6.938   7.864   4.936  0.3973 -0.1525 -0.4485
22920SOL    HW170201   6.872   7.820   4.989 -0.8697 -1.1557 -2.7028
22920SOL    HW270202   7.013   7.804   4.937 -0.1452 -0.8530 -0.9305
22921SOL     OW70203   6.242   0.694   2.565  0.2800  0.4060  0.5689
22921SOL    HW170204   6.286   0.727   2.487  0.5695  1.5619  1.2044
22921SOL    HW270205   6.243   0.767   2.627  1.0198 -0.8271  2.0756
22922SOL     OW70206   6.237   7.512   3.413  0.4010  0.7233 -0.4022
22922SOL    HW170207   6.267   7.462   3.489 -2.7889  1.3858  1.4944
22922SOL    HW270208   6.220   7.446   3.345  0.4509 -0.2516  0.5176
22923SOL     OW70209   6.675   1.441   5.641 -0.3762 -0.2009  0.3232
22923SOL    HW170210   6.612   1.381   5.681 -0.5275  0.9337  1.8893
22923SOL    HW270211   6.628   1.523   5.632 -0.3403 -0.4083 -2.3181
22924SOL     OW70212   7.047   0.726   5.283  0.1554 -0.0528 -0.0275
22924SOL    HW170213   7.006   0.703   5.200  0.6638  0.8549 -0.5424
22924SOL    HW270214   7.131   0.765   5.259 -0.1402  1.1821  0.8529
22925SOL     OW70215   7.962   0.713   4.731  0.3890  0.0153 -0.4548
22925SOL    HW170216   8.040   0.749   4.774 -0.5855  1.2545  0.3384
22925SOL    HW270217   7.889   0.753   4.777 -0.8156 -2.8576  0.3683
22926SOL     OW70218   6.625   7.765   4.620 -0.8804 -0.1581 -0.0572
22926SOL    HW170219   6.669   7.715   4.552 -0.4106  2.2060 -1.5960
22926SOL    HW270220   6.568   7.702   4.663  2.2487 -2.8690  0.5532
22927SOL     OW70221   5.114   0.224   5.707  0.0615 -0.2403  0.1073
22927SOL    HW170222   5.070   0.250   5.788  0.7630 -0.5213  0.5942
22927SOL    HW270223   5.143   0.134   5.723  0.2961 -0.2610 -0.4150
22928SOL     OW70224   5.709   7.746   2.870  0.3422  0.1002 -0.1463
22928SOL    HW170225   5.654   7.751   2.949  0.9046  0.5957  0.2148
22928SOL    HW270226   5.700   7.655   2.841 -0.7231  0.1837 -0.1314
22929SOL     OW70227   0.808   6.295   4.854  0.1453  0.3480 -0.4677
22929SOL    HW170228   0.848   6.239   4.921  0.9871  2.2026  0.6738
22929SOL    HW270229   0.717   6.267   4.849  0.0014  0.3248  1.6709
22930SOL     OW70230   7.017   7.531   5.183 -0.2480 -0.1616  0.0425
22930SOL    HW170231   7.019   7.447   5.229  0.7395 -0.8802 -1.2462
22930SOL    HW270232   7.053   7.594   5.246 -2.9294 -0.2391  1.7898
22931SOL     OW70233   5.416   0.436   5.228 -0.2167 -0.0394 -0.1393
22931SOL    HW170234   5.461   0.370   5.281  0.1300  0.9350  0.8240
22931SOL    HW270235   5.393   0.505   5.291  1.4471  1.8089 -1.4471
22932SOL     OW70236   6.575   1.674   4.201  0.4456  0.7239  0.7176
22932SOL    HW170237   6.670   1.666   4.190  0.3660 -1.4018  1.1027
22932SOL    HW270238   6.556   1.629   4.283 -0.9997  0.1580  0.1084
22933SOL     OW70239   6.241   0.735   6.235  0.1900 -0.3565 -0.5370
22933SOL    HW170240   6.256   0.643   6.254 -0.3628 -0.3592 -0.0673
22933SOL    HW270241   6.256   0.779   6.319 -0.1845 -0.1024 -0.5997
22934SOL     OW70242   7.475   1.071   3.387 -0.0590 -0.1796  0.1527
22934SOL    HW170243   7.515   1.147   3.431  1.0972 -1.0416  0.6440
22934SOL    HW270244   7.445   1.106   3.303 -1.0514  1.1881  1.0341
22935SOL     OW70245   6.168   6.995   4.858 -0.6981 -0.1401 -0.0182
22935SOL    HW170246   6.262   7.000   4.874 -0.8347  0.2862  0.6893
22935SOL    HW270247   6.158   6.929   4.789  0.2811  1.1946 -1.5087
22936SOL     OW70248   5.180   0.984   5.110  0.2496 -0.2159 -0.6843
22936SOL    HW170249   5.249   0.963   5.048  0.5787 -0.0207 -0.3867
22936SOL    HW270250   5.198   0.929   5.186  1.1048  1.0800  0.0942
22937SOL     OW70251   6.695   7.474   3.801  0.1244  0.5188 -0.5197
22937SOL    HW170252   6.723   7.506   3.887  1.0880  1.2513 -1.0739
22937SOL    HW270253   6.750   7.523   3.740  0.1243 -0.6845 -1.5029
22938SOL     OW70254   5.106   7.391   4.969 -0.6309 -0.1610 -0.2500
22938SOL    HW170255   5.042   7.424   5.033 -0.3777  0.4985 -0.3334
22938SOL    HW270256   5.119   7.464   4.908  0.1553 -0.3150 -0.2701
22939SOL     OW70257   6.855   1.594   4.438  0.2617  0.2618  0.1454
22939SOL    HW170258   6.770   1.560   4.409  0.5064 -0.2997  0.0799
22939SOL    HW270259   6.841   1.688   4.446 -0.8081  0.0050  1.6366
22940SOL     OW70260   6.252   0.418   5.005 -0.4047  0.0118 -0.1581
22940SOL    HW170261   6.309   0.383   4.937 -0.1369  0.5457 -0.2197
22940SOL    HW270262   6.164   0.395   4.977 -0.3181  0.4743 -0.8450
22941SOL     OW70263   5.493   0.233   5.392 -0.6790  0.1580  1.0442
22941SOL    HW170264   5.464   0.223   5.482 -1.8724 -0.0191  0.6590
22941SOL    HW270265   5.448   0.164   5.344 -2.0522  1.7469 -0.1008
22942SOL     OW70266   5.998   6.745   4.373  0.0248 -0.1407  0.3968
22942SOL    HW170267   6.091   6.762   4.387 -0.2295  2.4123 -0.4452
22942SOL    HW270268   5.995   6.683   4.301  1.1073  1.2088 -0.8646
22943SOL     OW70269   6.178   1.070   5.534  0.2036  0.4152 -0.6212
22943SOL    HW170270   6.130   1.065   5.617  3.1997 -1.3813  1.2158
22943SOL    HW270271   6.227   1.152   5.540  1.2174 -0.1970 -0.0158
22944SOL     OW70272   6.550   6.654   4.057  0.3585 -0.1937 -0.3336
22944SOL    HW170273   6.533   6.665   4.151  0.2915  0.3021 -0.3971
22944SOL    HW270274   6.480   6.703   4.014  1.1386  0.7330 -0.6151
22945SOL     OW70275   6.497   0.455   5.906 -0.2027 -0.1843  0.0203
22945SOL    HW170276   6.448   0.386   5.862  2.9817 -1.8277 -1.2936
22945SOL    HW270277   6.492   0.530   5.847  1.3182 -1.3341 -1.6578
22946SOL     OW70278   6.109   1.764   3.537  0.1573 -0.2457 -0.2009
22946SOL    HW170279   6.036   1.712   3.570 -0.2581 -0.3531 -1.2281
22946SOL    HW270280   6.090   1.774   3.443  0.4366  1.3812 -0.1128
22947SOL     OW70281   6.072   0.350   4.611 -0.3859 -0.3171 -0.1289
22947SOL    HW170282   6.050   0.325   4.701  1.4653  1.2145  0.8410
22947SOL    HW270283   6.107   0.270   4.572 -2.2437 -1.2874  0.1169
22948SOL     OW70284   6.434   6.060   5.794  0.0778  0.6056  0.4042
22948SOL    HW170285   6.370   6.121   5.758 -2.3995 -0.6389  2.2868
22948SOL    HW270286   6.427   5.982   5.739  0.8428  0.8758 -0.0781
22949SOL     OW70287   5.945   0.074   5.080 -0.0123 -0.0284 -0.0030
22949SOL    HW170288   6.016   0.089   5.142 -0.1639 -1.8100  0.6719
22949SOL    HW270289   5.868   0.111   5.122 -0.0466 -0.9201  0.7599
22950SOL     OW70290   4.786   7.718   5.488  0.3293  0.7975  0.1852
22950SOL    HW170291   4.748   7.781   5.426 -1.7441 -1.5738 -1.1111
22950SOL    HW270292   4.714   7.660   5.511  2.1834 -1.2555  1.1469
22951SOL     OW70293   5.493   6.960   4.724  0.4101 -0.1877  0.2905
22951SOL    HW170294   5.467   6.926   4.639  0.1711  1.0250 -0.1305
22951SOL    HW270295   5.588   6.955   4.724  0.3591 -1.8959  0.6939
22952SOL     OW70296   4.689   7.502   4.563  0.2638 -0.3667  0.0501
22952SOL    HW170297   4.641   7.538   4.489 -0.0369 -1.4339 -0.2984
22952SOL    HW270298   4.686   7.570   4.630  1.4088  1.0401 -1.2435
22953SOL     OW70299   7.490   0.588   3.789  0.2309 -0.6781 -0.3602
22953SOL    HW170300   7.424   0.653   3.813 -1.0359 -0.2996 -4.1470
22953SOL    HW270301   7.442   0.506   3.782  1.2704 -1.5239  1.6504
22954SOL     OW70302   5.034   0.019   3.527 -0.6207  0.6466 -0.4044
22954SOL    HW170303   5.079  -0.065   3.542 -0.7706  0.5068 -0.7260
22954SOL    HW270304   5.083   0.060   3.456 -0.1628  1.1219  0.1739
22955SOL     OW70305   0.101   6.755   5.206  0.5263 -0.5754 -0.0823
22955SOL    HW170306   0.029   6.783   5.148  0.4665 -1.3276 -0.3872
22955SOL    HW270307   0.161   6.708   5.148  1.4283  0.3100  0.1172
22956SOL     OW70308   4.977   1.685   3.524  0.2544 -0.2700 -0.1019
22956SOL    HW170309   5.051   1.676   3.584  0.1376 -0.7762 -0.0325
22956SOL    HW270310   4.907   1.722   3.578  0.1744 -0.6490  0.0516
22957SOL     OW70311   7.019   0.425   6.256  0.1474 -0.2688  0.0597
22957SOL    HW170312   6.954   0.495   6.263  1.0430  0.5673  0.3149
22957SOL    HW270313   6.988   0.370   6.183 -1.1128 -0.2045  0.5285
22958SOL     OW70314   6.161   1.200   4.441  0.3200  0.1225  0.2043
22958SOL    HW170315   6.130   1.109   4.441 -1.4538  0.6646  1.1492
22958SOL    HW270316   6.171   1.222   4.534  1.2741  0.7174 -0.0329
22959SOL     OW70317   4.242   7.216   2.548  0.2689 -0.1298 -0.1661
22959SOL    HW170318   4.150   7.243   2.557  0.4482  0.5155 -0.2005
22959SOL    HW270319   4.275   7.270   2.476  0.7525 -0.1545  0.0356
22960SOL     OW70320   5.718   0.179   5.240 -0.6395  0.0143  0.0072
22960SOL    HW170321   5.635   0.184   5.288 -0.9891  2.1255 -0.7234
22960SOL    HW270322   5.766   0.257   5.266  0.8012 -0.7683 -0.2047
22961SOL     OW70323   6.068   7.202   4.585  0.0495 -0.0879  0.5705
22961SOL    HW170324   6.100   7.134   4.644 -1.0282 -0.6249  0.5689
22961SOL    HW270325   6.007   7.156   4.526 -1.6134  1.0455  1.3215
22962SOL     OW70326   6.050   0.951   4.428 -0.1453  0.1242 -0.0343
22962SOL    HW170327   6.080   0.864   4.402 -0.5640 -0.1178  0.2788
22962SOL    HW270328   5.956   0.941   4.442 -0.1391  0.5462  0.3368
22963SOL     OW70329   5.065   0.333   5.467  0.1378 -0.6395 -0.2987
22963SOL    HW170330   5.049   0.247   5.429  0.5559 -1.6087  1.5961
22963SOL    HW270331   5.081   0.316   5.560  0.1922  1.4927  0.1427
22964SOL     OW70332   1.152   0.886   4.564  0.4114 -0.6099 -0.4806
22964SOL    HW170333   1.233   0.897   4.614 -0.0367 -0.0885  0.1541
22964SOL    HW270334   1.178   0.899   4.473  0.7160  1.4804 -0.1388
22965SOL     OW70335   5.538   0.114   4.075  0.1178  0.1292  0.4299
22965SOL    HW170336   5.459   0.101   4.021 -0.1862 -0.6441  1.0436
22965SOL    HW270337   5.534   0.044   4.140  0.1890  1.3790  1.8142
22966SOL     OW70338   5.845   7.268   3.517 -0.2254  0.0932  0.3768
22966SOL    HW170339   5.777   7.207   3.488  0.4775 -0.0200 -1.1237
22966SOL    HW270340   5.854   7.251   3.611 -2.8359  0.6861  0.8127
22967SOL     OW70341   5.743   6.522   6.014  0.1603  0.0356  0.6341
22967SOL    HW170342   5.680   6.452   6.034 -1.5798  1.7565  1.5427
22967SOL    HW270343   5.694   6.582   5.957  1.4260  0.7704  0.2844
22968SOL     OW70344   0.199   0.577   3.697  0.1779  0.0596  0.0955
22968SOL    HW170345   0.283   0.542   3.668  0.4077  0.7478 -0.0857
22968SOL    HW270346   0.180   0.648   3.635 -0.5150 -0.0675  0.1597
22969SOL     OW70347   5.665   0.245   4.966  0.0670 -0.2383 -0.1331
22969SOL    HW170348   5.676   0.217   5.057 -0.4958 -0.8207 -0.2391
22969SOL    HW270349   5.633   0.167   4.921  0.8239 -0.0967 -0.9363
22970SOL     OW70350   6.147   1.167   5.005 -0.0863 -0.9499 -0.1176
22970SOL    HW170351   6.155   1.185   4.911 -1.8269  1.2963  0.0592
22970SOL    HW270352   6.234   1.187   5.041  1.1397 -3.5506 -1.3974
22971SOL     OW70353   6.898   2.045   4.969  0.0685 -0.5041 -0.7772
22971SOL    HW170354   6.960   1.973   4.977  0.1321 -0.2800  1.8423
22971SOL    HW270355   6.949   2.117   4.931  1.1839 -0.6126  0.4421
22972SOL     OW70356   7.002   1.624   5.258 -0.6221 -0.0657 -0.0833
22972SOL    HW170357   6.973   1.613   5.167 -0.9173  0.5391 -0.0720
22972SOL    HW270358   7.097   1.638   5.251 -0.8595  1.5919 -0.4617
22973SOL     OW70359   6.819   2.334   4.134  0.2045  0.2605  0.2072
22973SOL    HW170360   6.746   2.319   4.194 -0.9499  1.7672 -0.7534
22973SOL    HW270361   6.887   2.374   4.188 -0.4838  0.7828  0.7027
22974SOL     OW70362   6.984   0.606   5.028 -0.5664  0.0275  0.8039
22974SOL    HW170363   6.896   0.574   5.006 -0.2767 -0.5082  0.4047
22974SOL    HW270364   7.037   0.527   5.038  0.1086  0.3670  0.0352
22975SOL     OW70365   6.129   7.644   4.890  0.4938 -0.1223  0.0321
22975SOL    HW170366   6.110   7.581   4.820 -0.7310  1.1770 -0.8749
22975SOL    HW270367   6.221   7.666   4.877  0.5089 -0.5420 -0.6390
22976SOL     OW70368   7.603   7.452   4.045  0.1896 -0.6466 -0.2137
22976SOL    HW170369   7.630   7.536   4.009  2.1904 -0.9900  0.3732
22976SOL    HW270370   7.681   7.397   4.041 -0.6920 -2.0559  0.6669
22977SOL     OW70371   7.465   6.755   6.012  0.3536  0.4567 -0.2993
22977SOL    HW170372   7.397   6.810   6.051  1.4884  1.2629  0.6054
22977SOL    HW270373   7.421   6.710   5.939 -0.6114  2.5704 -1.0924
22978SOL     OW70374   7.113   6.903   4.532 -0.0743 -0.1775 -0.3535
22978SOL    HW170375   7.054   6.977   4.517  1.8010  1.3822 -0.3859
22978SOL    HW270376   7.147   6.916   4.620  0.5506 -0.8205 -0.4880
22979SOL     OW70377   6.086   0.884   4.708  0.5654  0.4589 -0.2053
22979SOL    HW170378   6.066   0.896   4.616  1.4536 -0.0579 -0.4780
22979SOL    HW270379   6.031   0.948   4.753 -0.2416  0.3824 -1.0452
22980SOL     OW70380   7.584   1.141   2.590 -1.0129  0.0394  0.1755
22980SOL    HW170381   7.628   1.211   2.638 -0.6873  0.7265 -1.0747
22980SOL    HW270382   7.628   1.061   2.617 -1.2822  0.3091  1.5041
22981SOL     OW70383   6.500   0.662   4.566  0.1093 -0.1122  0.5132
22981SOL    HW170384   6.447   0.739   4.588 -0.3161  0.2723 -1.6958
22981SOL    HW270385   6.437   0.590   4.560 -0.1808  0.2685 -1.7246
22982SOL     OW70386   4.751   7.081   6.193 -0.0475  0.4405  0.4592
22982SOL    HW170387   4.828   7.033   6.224 -0.2099  0.4633  0.9016
22982SOL    HW270388   4.685   7.066   6.260 -0.1267  1.2150  0.5646
22983SOL     OW70389   7.485   5.641   6.109  0.0113  0.9044 -0.0306
22983SOL    HW170390   7.416   5.707   6.118 -0.0441  0.5882  2.5248
22983SOL    HW270391   7.515   5.624   6.198  2.0870 -0.3917 -0.8824
22984SOL     OW70392   7.267   7.010   5.193 -0.2234  0.0768 -0.4142
22984SOL    HW170393   7.251   6.962   5.274  3.8230 -1.3666 -0.2038
22984SOL    HW270394   7.249   6.946   5.123  0.4795 -0.1629 -0.3850
22985SOL     OW70395   6.194   7.361   5.970  0.1773  0.1222  0.6351
22985SOL    HW170396   6.256   7.302   6.013  1.2592 -0.9237 -2.1026
22985SOL    HW270397   6.247   7.437   5.944 -0.5107  0.8657  1.3748
22986SOL     OW70398   7.425   7.773   7.053 -0.0662 -0.4177 -0.3733
22986SOL    HW170399   7.519   7.753   7.060 -0.1614 -0.8110 -0.1972
22986SOL    HW270400   7.410   7.840   7.120  0.7014  1.9562 -2.4223
22987SOL     OW70401   6.807   2.969   6.690  0.2266 -0.2548 -0.4367
22987SOL    HW170402   6.837   3.052   6.728 -2.2427 -0.4272  2.2090
22987SOL    HW270403   6.742   2.995   6.624  2.0008 -0.0662 -2.1946
22988SOL     OW70404   6.783   6.573   6.823 -0.4671 -0.4069  0.0922
22988SOL    HW170405   6.796   6.482   6.795 -1.6376 -0.3106 -0.8562
22988SOL    HW270406   6.866   6.616   6.803  0.5891 -1.5368  1.8094
22989SOL     OW70407   6.149   7.462   6.420  0.2515  1.0094 -0.1849
22989SOL    HW170408   6.139   7.457   6.325  0.3214  0.0661 -0.1483
22989SOL    HW270409   6.063   7.440   6.455  0.8808 -1.3684  0.0077
22990SOL     OW70410   7.255   6.857   8.205 -0.2317  0.1862 -0.0222
22990SOL    HW170411   7.273   6.763   8.199 -2.0227 -0.1567 -0.6978
22990SOL    HW270412   7.338   6.899   8.182  0.7078 -1.2134  0.6847
22991SOL     OW70413   6.546   6.589   5.073  0.2329  0.1666  0.3149
22991SOL    HW170414   6.542   6.494   5.076  0.3021  0.0618 -1.4735
22991SOL    HW270415   6.639   6.609   5.063  0.0686  0.2605 -1.4674
22992SOL     OW70416   7.093   1.172   6.954 -0.3839  0.6180 -0.9815
22992SOL    HW170417   7.156   1.172   7.026 -0.4451 -0.6477 -0.9074
22992SOL    HW270418   7.132   1.229   6.888  0.4913  0.4270 -0.6387
22993SOL     OW70419   6.616   7.445   5.742 -0.2260  0.0968 -0.3364
22993SOL    HW170420   6.631   7.540   5.739  0.2554  0.1977  2.2903
22993SOL    HW270421   6.584   7.429   5.831  1.5634 -2.4236 -0.0468
22994SOL     OW70422   4.478   7.304   5.894 -0.0436 -0.3016 -0.1862
22994SOL    HW170423   4.499   7.245   5.822 -0.2886 -0.1557 -0.3777
22994SOL    HW270424   4.490   7.250   5.973 -0.0834 -0.5510 -0.3492
22995SOL     OW70425   6.708   7.261   5.545 -0.4229  0.3360  0.2225
22995SOL    HW170426   6.680   7.325   5.610  0.6862 -0.0164  1.0647
22995SOL    HW270427   6.760   7.311   5.483 -1.4413  0.6632 -0.3989
22996SOL     OW70428   7.342   0.815   7.819 -0.1317  0.3822  0.4765
22996SOL    HW170429   7.349   0.904   7.853 -0.8135  0.5777  0.1200
22996SOL    HW270430   7.306   0.765   7.892  1.4732  0.1041  1.1242
22997SOL     OW70431   5.931   7.676   7.041  0.0462  0.0809 -0.2383
22997SOL    HW170432   6.026   7.683   7.028  0.0296  0.4763 -0.1691
22997SOL    HW270433   5.910   7.587   7.014  0.7744 -0.8292  1.9752
22998SOL     OW70434   5.511   6.835   7.433  0.3478  0.2993 -0.0666
22998SOL    HW170435   5.495   6.922   7.394 -2.4699 -0.3335 -0.5720
22998SOL    HW270436   5.604   6.819   7.417  0.4458  2.2276 -2.1047
22999SOL     OW70437   7.765   7.719   5.828  0.4288  0.1271 -0.3987
22999SOL    HW170438   7.769   7.624   5.833  1.7915  0.1541 -0.5267
22999SOL    HW270439   7.704   7.744   5.897 -0.5946 -0.8721 -0.9113
23000SOL     OW70440   0.778   0.055   6.315 -0.1843  0.5205  0.0937
23000SOL    HW170441   0.806   0.051   6.224 -0.3488  0.7168  0.0318
23000SOL    HW270442   0.789  -0.034   6.348  0.0160  0.4823 -0.0762
23001SOL     OW70443   4.761   7.892   4.580 -0.0984  0.0382  0.1954
23001SOL    HW170444   4.772   7.949   4.504 -0.9975 -0.1288 -0.0782
23001SOL    HW270445   4.799   7.941   4.653  0.5952  0.2811 -0.3243
23002SOL     OW70446   4.170   6.165   7.225 -0.2029 -0.1077 -0.5115
23002SOL    HW170447   4.239   6.214   7.182 -0.5860 -0.8396 -2.0220
23002SOL    HW270448   4.103   6.152   7.157 -1.6595  0.2359  0.7846
23003SOL     OW70449   0.028   6.602   6.030  0.8529 -0.3117 -0.0790
23003SOL    HW170450   0.061   6.596   5.940  0.3391 -2.1943 -0.1864
23003SOL    HW270451   0.010   6.512   6.055  0.3445  0.2377  1.6970
23004SOL     OW70452   6.404   6.220   5.564  0.1375 -0.5701  0.1333
23004SOL    HW170453   6.440   6.306   5.546 -1.4277  0.2119  0.5460
23004SOL    HW270454   6.458   6.160   5.513  0.5722  0.7620 -1.0305
23005SOL     OW70455   7.325   5.978   4.629 -0.3594  0.6360 -0.4311
23005SOL    HW170456   7.348   5.999   4.719 -1.3202  4.1106 -0.8225
23005SOL    HW270457   7.234   6.006   4.620 -1.0568 -1.7986 -1.9510
23006SOL     OW70458   5.993   0.624   6.576  0.4052  0.0379  0.5475
23006SOL    HW170459   5.954   0.577   6.503  1.9581  1.9250 -1.6201
23006SOL    HW270460   5.920   0.675   6.613  0.1025  1.1485 -1.4558
23007SOL     OW70461   5.502   1.135   6.608  0.1169  0.3215 -0.5366
23007SOL    HW170462   5.590   1.155   6.576  0.7015 -0.4980  0.4804
23007SOL    HW270463   5.509   1.045   6.641 -0.8370  0.6038  0.4775
23008SOL     OW70464   6.441   7.012   6.401 -0.1953 -0.2124  0.4606
23008SOL    HW170465   6.474   7.014   6.491  2.8321 -0.4275 -0.5566
23008SOL    HW270466   6.445   6.919   6.376  0.2703  0.0066 -0.3132
23009SOL     OW70467   6.753   7.369   6.446 -0.2265  0.1230  0.2676
23009SOL    HW170468   6.786   7.447   6.489 -1.2642  0.8288 -0.1642
23009SOL    HW270469   6.797   7.296   6.490  2.1430  0.9963 -0.5244
23010SOL     OW70470   7.737   5.462   6.777  0.2145 -0.1626 -0.2292
23010SOL    HW170471   7.671   5.393   6.770 -0.9902  1.0341 -1.2365
23010SOL    HW270472   7.809   5.422   6.826 -1.8995 -1.0752  2.3714
23011SOL     OW70473   5.836   7.473   4.667 -0.1936 -0.2268 -0.1080
23011SOL    HW170474   5.831   7.397   4.609  0.0232  0.1922 -0.6813
23011SOL    HW270475   5.929   7.483   4.686 -0.3745 -1.3521  1.6644
23012SOL     OW70476   7.263   0.451   7.616  0.2226  0.2310 -0.3776
23012SOL    HW170477   7.265   0.547   7.611  0.8726  0.1401 -2.9595
23012SOL    HW270478   7.252   0.433   7.710 -0.3269  2.8114  0.1424
23013SOL     OW70479   7.010   7.220   6.175  0.2966  0.2954 -0.1169
23013SOL    HW170480   6.926   7.255   6.144  0.3609  0.0947 -0.5225
23013SOL    HW270481   7.065   7.297   6.186 -0.1593  0.4950  0.8296
23014SOL     OW70482   5.142   6.815   6.728 -0.1888  0.0505  0.2723
23014SOL    HW170483   5.156   6.904   6.698 -1.2106 -0.2736 -1.2791
23014SOL    HW270484   5.051   6.795   6.705 -0.1654 -1.1862  1.1291
23015SOL     OW70485   5.700   0.665   6.828 -0.2156  0.2553  0.0923
23015SOL    HW170486   5.605   0.654   6.831 -0.0698 -0.9563  0.4363
23015SOL    HW270487   5.730   0.640   6.916  0.5637 -0.8296 -0.4637
23016SOL     OW70488   5.941   7.091   6.775 -0.0688  0.1020  0.1667
23016SOL    HW170489   5.882   7.096   6.851  0.7139 -1.4826  0.9372
23016SOL    HW270490   5.951   6.997   6.759  0.5974  0.3935 -1.2735
23017SOL     OW70491   5.362   6.668   5.521  0.1164 -0.3686  0.3853
23017SOL    HW170492   5.453   6.674   5.551  0.2980 -1.5788  0.1091
23017SOL    HW270493   5.336   6.759   5.508  0.9123  0.0673  1.5764
23018SOL     OW70494   5.001   1.875   5.217 -0.7424 -0.1458 -0.0955
23018SOL    HW170495   4.931   1.908   5.160 -0.1176  1.1952 -0.1239
23018SOL    HW270496   4.961   1.867   5.303 -1.2145 -0.4420 -0.3411
23019SOL     OW70497   5.954   7.196   4.949 -0.1886 -0.0239  0.0654
23019SOL    HW170498   5.953   7.289   4.927  0.7531  0.0261  0.2287
23019SOL    HW270499   6.035   7.162   4.911 -0.2888 -0.6788  0.4143
23020SOL     OW70500   1.148   6.764   6.196  0.1777  0.4257 -0.4028
23020SOL    HW170501   1.075   6.747   6.255 -0.0200  0.4045 -0.6566
23020SOL    HW270502   1.177   6.853   6.219  0.4195  0.2266  0.0687
23021SOL     OW70503   7.017   1.026   5.950  0.3454 -0.1287 -0.1649
23021SOL    HW170504   6.989   0.935   5.937  0.8729 -0.8995  3.0294
23021SOL    HW270505   6.939   1.071   5.983  0.1348  0.5592 -1.5621
23022SOL     OW70506   5.663   6.664   5.570  0.5393  0.3361 -0.3519
23022SOL    HW170507   5.646   6.649   5.477 -1.0766 -0.4924  0.0421
23022SOL    HW270508   5.753   6.697   5.573  0.1242  1.8305 -2.3281
23023SOL     OW70509   5.729   5.988   6.403  0.0590  0.3599  0.0740
23023SOL    HW170510   5.803   5.933   6.428 -0.3550 -0.2644 -0.0558
23023SOL    HW270511   5.657   5.927   6.388 -0.3957  0.9305 -0.1287
23024SOL     OW70512   6.744   7.794   6.357 -0.4344 -0.0659  0.2826
23024SOL    HW170513   6.800   7.872   6.360 -0.3758 -0.1317  2.7806
23024SOL    HW270514   6.804   7.723   6.334 -0.4282  0.5152 -1.6826
23025SOL     OW70515   6.243   1.173   6.792 -0.8281  0.0952  0.0118
23025SOL    HW170516   6.266   1.265   6.804 -0.0382  0.2230 -1.9940
23025SOL    HW270517   6.148   1.173   6.783 -0.9042  0.6051  0.7476
23026SOL     OW70518   6.251   7.799   6.352  0.1199  0.6503 -0.5107
23026SOL    HW170519   6.159   7.776   6.365 -0.4535  0.8259 -3.4611
23026SOL    HW270520   6.248   7.885   6.311  1.8670  2.4357  2.6980
23027SOL     OW70521   6.113   1.658   4.592 -0.5401 -0.6273  0.0399
23027SOL    HW170522   6.205   1.675   4.615 -0.1443  0.3438 -1.9854
23027SOL    HW270523   6.094   1.574   4.633  1.3074 -0.9207  0.4174
23028SOL     OW70524   0.549   0.568   7.643 -0.2192  0.5204 -0.0652
23028SOL    HW170525   0.557   0.504   7.572 -0.2937 -0.1929  0.5564
23028SOL    HW270526   0.496   0.638   7.606 -0.5179  0.0130 -0.6220
23029SOL     OW70527   0.629   1.549   6.285 -0.0109 -0.0393 -0.0443
23029SOL    HW170528   0.661   1.549   6.195  0.3695  2.3999  0.0236
23029SOL    HW270529   0.660   1.465   6.322  1.1892 -0.3628 -1.7031
23030SOL     OW70530   7.586   5.461   5.872  0.7100 -0.0652 -0.0799
23030SOL    HW170531   7.645   5.528   5.906  0.4189 -0.6358  1.6405
23030SOL    HW270532   7.562   5.409   5.948  2.3475 -3.2709 -1.5422
23031SOL     OW70533   5.344   7.927   7.683 -0.3514 -0.1351 -0.5493
23031SOL    HW170534   5.275   7.956   7.743  0.9813 -1.8311  1.9716
23031SOL    HW270535   5.410   7.996   7.688 -0.0853 -0.4404  0.2501
23032SOL     OW70536   6.303   7.957   5.833 -0.3962  0.1536  0.1731
23032SOL    HW170537   6.308   8.052   5.846 -2.8038  0.5748 -1.2059
23032SOL    HW270538   6.225   7.931   5.882 -0.5461 -0.8624 -0.5785
23033SOL     OW70539   7.301   7.700   7.965 -0.0494  0.1519 -0.3806
23033SOL    HW170540   7.300   7.639   8.039 -1.3705 -0.4087 -0.8332
23033SOL    HW270541   7.209   7.711   7.941  0.1536  2.4064 -0.2703
23034SOL     OW70542   7.364   0.030   6.364 -0.2606 -0.0485 -0.7178
23034SOL    HW170543   7.442   0.075   6.397 -0.9036  0.7750 -0.2682
23034SOL    HW270544   7.328   0.089   6.298 -2.3119  1.2321  1.3762
23035SOL     OW70545   5.819   7.854   4.848 -0.3108  0.4719  0.6505
23035SOL    HW170546   5.783   7.804   4.774  0.8413 -2.7883  2.0835
23035SOL    HW270547   5.750   7.916   4.871 -2.3623 -1.1636 -0.6997
23036SOL     OW70548   5.807   7.962   5.800  0.5787  0.1302 -0.4417
23036SOL    HW170549   5.766   8.045   5.777  0.3483 -0.2592 -1.5019
23036SOL    HW270550   5.868   7.945   5.728  0.2210 -0.8870 -0.5211
23037SOL     OW70551   7.040   7.452   6.564 -0.4410 -0.2754  0.3879
23037SOL    HW170552   7.028   7.494   6.649  0.5729  1.5439 -0.3316
23037SOL    HW270553   7.104   7.383   6.581 -1.9576 -1.4954  1.5307
23038SOL     OW70554   6.863   5.159   7.915 -0.4902 -0.6258 -0.1252
23038SOL    HW170555   6.857   5.120   8.002  0.8566 -0.0769  0.2298
23038SOL    HW270556   6.883   5.085   7.857 -2.7839 -1.2315 -0.2232
23039SOL     OW70557   5.627   0.080   6.397  0.3298 -0.0740  0.2004
23039SOL    HW170558   5.709   0.033   6.383  0.4423  0.1901 -0.0397
23039SOL    HW270559   5.613   0.075   6.492 -0.4074 -1.8192  0.0226
23040SOL     OW70560   7.592   1.460   7.183 -0.1988 -0.0899 -0.4180
23040SOL    HW170561   7.530   1.532   7.195 -1.0058 -0.7619 -0.4412
23040SOL    HW270562   7.677   1.497   7.206 -0.5395  0.9814 -0.8196
23041SOL     OW70563   5.969   7.708   6.411 -0.5948  0.0433 -0.1591
23041SOL    HW170564   5.954   7.674   6.499  0.4939 -0.3549 -0.1098
23041SOL    HW270565   5.955   7.632   6.354 -1.7548  0.4124 -0.3751
23042SOL     OW70566   6.159   0.582   5.980 -0.2296 -0.2436 -0.0924
23042SOL    HW170567   6.240   0.563   6.027  0.7053 -0.0184 -1.5784
23042SOL    HW270568   6.181   0.574   5.888 -1.5067  1.3555 -0.5812
23043SOL     OW70569   5.836   6.131   5.401  0.0596 -0.4859  0.0181
23043SOL    HW170570   5.746   6.157   5.421  0.2412 -0.0376  0.2666
23043SOL    HW270571   5.829   6.039   5.375 -0.3448 -0.7218  0.9227
23044SOL     OW70572   5.941   6.765   5.516 -0.3502  0.0768 -0.0538
23044SOL    HW170573   5.927   6.843   5.464  2.7882 -0.3473 -1.7167
23044SOL    HW270574   6.009   6.716   5.471  0.5683 -1.7502  2.9576
23045SOL     OW70575   6.977   0.440   3.628  0.3308 -0.2160  0.0270
23045SOL    HW170576   7.009   0.396   3.550  0.9179 -0.7673  0.5657
23045SOL    HW270577   7.054   0.449   3.684 -0.0067  0.5124  0.3827
23046SOL     OW70578   6.508   1.307   5.220 -0.2709 -0.3806  0.0921
23046SOL    HW170579   6.588   1.354   5.198 -0.9647  0.9858  0.3530
23046SOL    HW270580   6.471   1.356   5.294 -0.8530 -1.5636  0.6124
23047SOL     OW70581   6.245   0.775   8.919  0.5931 -0.3465 -0.0796
23047SOL    HW170582   6.186   0.714   8.964 -0.3810  1.5719  1.3987
23047SOL    HW270583   6.259   0.735   8.833 -0.3979 -2.3729  0.6237
23048SOL     OW70584   5.552   7.473   6.527 -0.3501 -0.1351  0.4068
23048SOL    HW170585   5.553   7.535   6.454  1.3467 -1.2632 -0.6083
23048SOL    HW270586   5.607   7.514   6.594 -3.6119  1.9060  2.0790
23049SOL     OW70587   7.174   0.069   7.922  0.3107 -0.0356 -0.1096
23049SOL    HW170588   7.115   0.011   7.971 -0.1591  0.8211  0.3476
23049SOL    HW270589   7.126   0.151   7.913  0.9600  0.2765 -0.7843
23050SOL     OW70590   5.311   7.273   7.801 -0.0205  0.1273  0.5010
23050SOL    HW170591   5.347   7.253   7.887  0.3184  0.7424  0.5087
23050SOL    HW270592   5.248   7.343   7.817 -0.6894 -0.4319  0.3808
23051SOL     OW70593   7.203   0.614   6.407  1.1402 -0.1405 -0.3047
23051SOL    HW170594   7.112   0.592   6.389  1.2818 -0.3821 -0.7309
23051SOL    HW270595   7.220   0.691   6.354  0.9252  0.4563  0.4650
23052SOL     OW70596   0.144   4.740  10.150  0.3593 -0.4449 -0.2881
23052SOL    HW170597   0.155   4.766  10.058 -0.5912  0.5419 -0.1440
23052SOL    HW270598   0.140   4.823  10.197  3.1155 -0.9181  0.9636
23053SOL     OW70599   4.385   1.929   8.316  1.0622 -0.1797 -0.1392
23053SOL    HW170600   4.332   1.902   8.392  1.4858 -0.1567  0.1684
23053SOL    HW270601   4.436   1.852   8.293  3.7188  0.7795  1.9409
23054SOL     OW70602   6.710   1.045   6.716  0.1276 -0.4337  0.1215
23054SOL    HW170603   6.636   1.028   6.658 -0.0850  1.1388 -0.1004
23054SOL    HW270604   6.680   1.116   6.772  1.8434  1.0458 -0.7432
23055SOL     OW70605   5.329   7.478  10.089  0.0623  0.2578  0.8274
23055SOL    HW170606   5.362   7.389  10.101  1.7634  0.8461  0.8303
23055SOL    HW270607   5.368   7.528  10.161  0.1608  1.2518  0.1059
23056SOL     OW70608   7.191   6.590   8.475  0.4090  0.6557 -0.1554
23056SOL    HW170609   7.152   6.667   8.517  0.1749  0.6852 -0.4206
23056SOL    HW270610   7.274   6.577   8.521  1.2609  2.0727 -1.1905
23057SOL     OW70611   5.899   0.478   8.638 -0.6214  0.5408  0.4159
23057SOL    HW170612   5.928   0.569   8.638 -0.2663  0.4409 -0.5381
23057SOL    HW270613   5.948   0.437   8.710 -0.9818  1.1551  1.0164
23058SOL     OW70614   6.724   0.421   7.655  0.2343 -0.0261 -0.5609
23058SOL    HW170615   6.743   0.418   7.748  0.1437  1.0674 -0.4858
23058SOL    HW270616   6.808   0.403   7.612  0.3483 -0.1982 -0.2623
23059SOL     OW70617   6.734   7.568   4.089 -0.3416 -0.0573  0.2874
23059SOL    HW170618   6.694   7.552   4.174 -2.1818  0.8408 -0.3517
23059SOL    HW270619   6.686   7.643   4.054  1.4703  0.6320 -0.8593
23060SOL     OW70620   7.596   0.224  10.913  0.2311  0.4657 -0.3594
23060SOL    HW170621   7.648   0.271  10.848  0.5897 -0.4358 -0.7386
23060SOL    HW270622   7.512   0.209  10.870 -0.9912  3.2717  0.7876
23061SOL     OW70623   7.097   7.555   9.137  0.1312  0.3036  0.3165
23061SOL    HW170624   7.042   7.614   9.189  0.2567  0.7243 -0.0209
23061SOL    HW270625   7.096   7.472   9.185  1.2586  1.0279  1.6787
23062SOL     OW70626   6.466   7.513   9.200 -0.0079  0.8466 -0.1175
23062SOL    HW170627   6.410   7.443   9.232  0.3971  0.7289  0.3514
23062SOL    HW270628   6.416   7.594   9.216  0.8310  0.9652  2.3977
23063SOL     OW70629   0.563   6.419   6.322 -0.3445 -1.0564 -0.3169
23063SOL    HW170630   0.588   6.485   6.386  0.4905  0.2855 -1.9271
23063SOL    HW270631   0.486   6.455   6.279 -0.6077 -1.7066 -0.3954
23064SOL     OW70632   6.315   0.109   9.105  0.5188  0.0527  0.9176
23064SOL    HW170633   6.328   0.119   9.011 -1.8050  0.8241  0.6244
23064SOL    HW270634   6.353   0.023   9.125 -0.0692 -0.6991 -0.9608
23065SOL     OW70635   7.906   0.840   6.777  0.2223 -0.3980  0.7585
23065SOL    HW170636   7.859   0.902   6.832 -0.8971  0.6064 -1.2029
23065SOL    HW270637   7.883   0.865   6.687  0.3206 -3.2037 -0.1514
23066SOL     OW70638   7.889   0.531   8.191 -0.6356  0.0322 -0.2274
23066SOL    HW170639   7.896   0.460   8.127 -0.6145 -0.3952  0.2418
23066SOL    HW270640   7.799   0.561   8.183 -0.8266 -0.4693  0.0086
23067SOL     OW70641   7.381   7.933   8.099 -0.0095  0.2559 -0.1956
23067SOL    HW170642   7.380   7.862   8.035 -1.1718 -1.0777  1.2099
23067SOL    HW270643   7.327   8.002   8.060  0.1645 -0.0989 -1.0850
23068SOL     OW70644   4.386   7.517   6.395 -0.4160 -0.3309 -0.5117
23068SOL    HW170645   4.443   7.553   6.327 -1.1299  0.6917 -0.5985
23068SOL    HW270646   4.299   7.550   6.373 -1.5388 -3.6462 -1.6657
23069SOL     OW70647   5.904   7.781   5.374  0.3405 -0.8218 -0.1529
23069SOL    HW170648   5.980   7.724   5.365 -0.9312 -2.5519 -0.2867
23069SOL    HW270649   5.860   7.751   5.453 -0.3986 -0.0640 -0.2619
23070SOL     OW70650   4.390   0.441   7.091 -0.2212  0.2958 -0.1953
23070SOL    HW170651   4.470   0.488   7.113  0.2288 -0.0874 -0.9726
23070SOL    HW270652   4.402   0.354   7.127 -1.6428  1.0913  2.5025
23071SOL     OW70653   6.475   0.517   8.031  0.1983 -0.1193  0.4067
23071SOL    HW170654   6.389   0.556   8.050 -0.2946 -0.1021 -1.6257
23071SOL    HW270655   6.470   0.491   7.939  1.0127 -3.7548  1.2312
23072SOL     OW70656   6.388   7.568   8.530  0.3483  0.3329  0.4976
23072SOL    HW170657   6.437   7.498   8.573  0.0688 -0.2999 -0.2001
23072SOL    HW270658   6.445   7.645   8.537  1.0817 -0.1912  0.4296
23073SOL     OW70659   5.210   0.143   7.231  0.3048  0.0846  0.3324
23073SOL    HW170660   5.254   0.224   7.205 -0.2752 -0.2269 -1.7768
23073SOL    HW270661   5.139   0.172   7.289  0.9445  0.9232  0.7261
23074SOL     OW70662   6.290   7.202   7.317  0.2865  0.1769  0.6993
23074SOL    HW170663   6.352   7.135   7.290  0.3085 -0.1689  1.5494
23074SOL    HW270664   6.205   7.157   7.318  0.1897  0.3548  0.5864
23075SOL     OW70665   6.416   7.857   9.522 -0.0311 -0.0255 -0.5191
23075SOL    HW170666   6.426   7.950   9.503  2.6213 -0.5395 -2.1667
23075SOL    HW270667   6.368   7.822   9.446  1.6735 -0.4280 -1.4699
23076SOL     OW70668   6.739   1.469   7.753  0.2067 -0.4578  0.2350
23076SOL    HW170669   6.718   1.451   7.845 -3.7215  1.2150 -0.1319
23076SOL    HW270670   6.819   1.522   7.757  0.1335 -0.4109  2.6722
23077SOL     OW70671   6.445   0.148  10.154 -0.2619  0.0826 -0.1584
23077SOL    HW170672   6.382   0.155  10.225  1.2141  1.1190  1.1157
23077SOL    HW270673   6.427   0.224  10.098 -1.8636 -1.0982 -1.3298
23078SOL     OW70674   6.206   0.281   8.596 -0.0056 -0.6054 -0.0225
23078SOL    HW170675   6.267   0.268   8.524 -0.3023  0.6222 -0.5116
23078SOL    HW270676   6.121   0.255   8.561 -0.0796 -0.4249  0.0205
23079SOL     OW70677   6.672   0.139   7.914  0.5338  0.6117 -0.4258
23079SOL    HW170678   6.697   0.072   7.850 -1.1957 -0.4465 -0.0614
23079SOL    HW270679   6.587   0.171   7.884 -1.4497 -1.4785  2.3698
23080SOL     OW70680   6.546   6.684   6.743  0.0078  0.0233 -0.2421
23080SOL    HW170681   6.566   6.751   6.809  1.4035  0.1543 -0.7598
23080SOL    HW270682   6.616   6.619   6.753 -1.4704 -1.5399  0.4343
23081SOL     OW70683   5.762   7.098   8.057  0.0904  0.3555 -0.0116
23081SOL    HW170684   5.702   7.033   8.021 -2.9616  2.8469  0.0964
23081SOL    HW270685   5.736   7.107   8.149  1.2068  0.9303  0.2692
23082SOL     OW70686   7.897   6.736   7.977  1.0377  0.3599  0.4876
23082SOL    HW170687   7.933   6.800   7.916  1.6856  0.2979  0.7971
23082SOL    HW270688   7.949   6.657   7.963  0.5598  0.0413  0.4483
23083SOL     OW70689   7.257   6.740   7.109 -0.0016  0.5215 -0.5569
23083SOL    HW170690   7.317   6.812   7.089  0.6446  0.0718 -0.2983
23083SOL    HW270691   7.290   6.667   7.057 -0.7912  0.4665 -0.9947
23084SOL     OW70692   5.235   7.989   6.485 -0.1288  0.3720  0.1872
23084SOL    HW170693   5.175   7.990   6.560 -0.8345  0.1608 -0.3640
23084SOL    HW270694   5.198   7.924   6.426  0.7798  0.0706 -0.0635
23085SOL     OW70695   5.972   7.155   8.782 -0.6395 -0.2839  0.3751
23085SOL    HW170696   6.030   7.100   8.729 -0.1485  1.7259 -1.2793
23085SOL    HW270697   5.885   7.119   8.767 -0.2286 -1.2219  0.1443
23086SOL     OW70698   5.391   7.567  10.360 -0.4124 -0.2687  0.5393
23086SOL    HW170699   5.407   7.624  10.435  0.4832 -0.2352  0.3313
23086SOL    HW270700   5.299   7.542  10.369 -1.0324  1.7445  0.2670
23087SOL     OW70701   6.080   1.413   7.423 -0.0128  0.2220 -0.2924
23087SOL    HW170702   6.107   1.363   7.500 -1.3828 -0.0816  0.0262
23087SOL    HW270703   6.159   1.458   7.394  0.9862 -1.2415  0.0870
23088SOL     OW70704   4.821   1.180   7.687 -0.3795  0.6702  0.3806
23088SOL    HW170705   4.889   1.193   7.754 -0.6714  0.0042  0.8149
23088SOL    HW270706   4.827   1.258   7.632  0.2300  0.9765  0.8635
23089SOL     OW70707   6.832   7.365   8.482 -0.4065  0.3285 -0.4790
23089SOL    HW170708   6.863   7.285   8.524 -0.4083 -0.3361 -1.6789
23089SOL    HW270709   6.903   7.428   8.494  0.7985 -0.6981 -1.8492
23090SOL     OW70710   7.272   6.587   8.212  0.1588  0.1244  0.0404
23090SOL    HW170711   7.216   6.569   8.288  1.8133 -2.6492  0.7715
23090SOL    HW270712   7.234   6.534   8.142  0.5135  0.0821 -0.1218
23091SOL     OW70713   6.710   0.018   8.185 -0.1706  0.3050  0.2069
23091SOL    HW170714   6.633   0.009   8.130  0.3574 -0.4523 -0.4344
23091SOL    HW270715   6.676   0.029   8.274 -1.0633  2.3590 -0.3222
23092SOL     OW70716   5.358   7.028   8.571 -0.0690  0.1076  0.2075
23092SOL    HW170717   5.449   7.057   8.579  0.2518 -0.2766 -1.6290
23092SOL    HW270718   5.310   7.108   8.548 -0.0426  0.1391  0.2614
23093SOL     OW70719   6.951   6.399   7.567 -0.4003 -0.5678 -0.0998
23093SOL    HW170720   6.910   6.420   7.483 -2.7454 -0.9579  0.8610
23093SOL    HW270721   6.997   6.317   7.551 -1.8370 -1.2960 -0.7578
23094SOL     OW70722   6.499   1.061   8.454  0.0914 -0.8284  0.1481
23094SOL    HW170723   6.497   1.007   8.375  0.4487  0.5102 -0.8003
23094SOL    HW270724   6.506   0.997   8.526  0.1978 -2.0473 -0.9047
23095SOL     OW70725   4.464   7.942   7.799  0.2102  0.0309 -0.3350
23095SOL    HW170726   4.481   7.878   7.731  1.3431 -0.0373 -0.0095
23095SOL    HW270727   4.513   8.020   7.772 -0.4928  0.4950 -0.3122
23096SOL     OW70728   5.271   6.258   9.999  0.0266  0.2137 -0.0289
23096SOL    HW170729   5.337   6.321   9.971  0.4800 -0.1697  0.1573
23096SOL    HW270730   5.320   6.177  10.016 -0.6701 -0.5098 -1.2724
23097SOL     OW70731   5.423   7.675   7.953 -0.7182  0.1397  0.2002
23097SOL    HW170732   5.411   7.671   7.858 -0.9472  0.9913  0.1861
23097SOL    HW270733   5.352   7.622   7.989 -0.3643 -0.5542 -0.1159
23098SOL     OW70734   6.634   7.278   7.284 -0.3799  0.3956 -0.2960
23098SOL    HW170735   6.717   7.230   7.288 -1.0686 -0.7386  2.1007
23098SOL    HW270736   6.598   7.254   7.198  0.7250 -0.9365 -0.4394
23099SOL     OW70737   6.956   7.395   8.223  0.1665 -0.1266  0.2277
23099SOL    HW170738   6.888   7.440   8.173 -1.3544 -0.3164  2.0210
23099SOL    HW270739   6.912   7.367   8.303  1.2022 -4.1552 -0.3905
23100SOL     OW70740   7.414   0.259   8.290  0.0548  0.0349 -0.2212
23100SOL    HW170741   7.340   0.209   8.255  0.1411 -2.2005  2.3915
23100SOL    HW270742   7.436   0.322   8.221  0.0394 -3.6274 -3.9774
23101SOL     OW70743   6.754   0.020   7.336  0.1462 -0.1498  0.2200
23101SOL    HW170744   6.682   0.068   7.376  1.5282  1.4167  0.8994
23101SOL    HW270745   6.830   0.078   7.343  0.9873 -0.6988 -2.6634
23102SOL     OW70746   7.250   6.524   6.865 -0.2937  0.2518 -0.2694
23102SOL    HW170747   7.314   6.592   6.846  1.6880 -1.4936 -0.2313
23102SOL    HW270748   7.179   6.539   6.802 -0.2420  2.6562  0.1557
23103SOL     OW70749   7.552   0.414   9.773 -0.1362 -0.1838 -0.7756
23103SOL    HW170750   7.633   0.463   9.765 -0.8246  0.7822 -2.1734
23103SOL    HW270751   7.483   0.478   9.753 -1.1813 -1.2193 -0.5980
23104SOL     OW70752   5.795   6.979   9.178 -0.3242  0.5580  0.0099
23104SOL    HW170753   5.798   6.936   9.264 -1.6688 -0.0141 -0.2023
23104SOL    HW270754   5.840   7.062   9.191  0.3500  0.0624  1.0157
23105SOL     OW70755   5.673   0.741   8.821 -0.2697 -0.4819  0.2682
23105SOL    HW170756   5.751   0.759   8.872  0.9126 -0.9770 -1.2856
23105SOL    HW270757   5.666   0.645   8.819 -1.0431 -0.4401  0.5692
23106SOL     OW70758   7.910   6.732   9.096  0.0514  0.1377  0.0523
23106SOL    HW170759   7.849   6.691   9.158  0.7644 -0.0445  0.6426
23106SOL    HW270760   7.912   6.824   9.122  1.7186 -0.2562  1.4838
23107SOL     OW70761   6.048   7.809   9.174  0.1769  0.5537  0.3983
23107SOL    HW170762   6.008   7.730   9.212 -1.1391  1.2374  0.4885
23107SOL    HW270763   6.141   7.800   9.195 -0.1204 -0.3944  1.4615
23108SOL     OW70764   6.595   6.743   7.623 -0.1418 -0.2480 -0.4993
23108SOL    HW170765   6.525   6.709   7.678 -0.2152 -1.0023 -1.0589
23108SOL    HW270766   6.573   6.714   7.535  2.0793 -2.5579 -0.4045
23109SOL     OW70767   7.606   0.797   7.636 -0.4124 -0.0448 -0.2376
23109SOL    HW170768   7.518   0.770   7.661 -0.0790  0.4381  1.5841
23109SOL    HW270769   7.624   0.874   7.690  0.8374  0.3437 -1.1614
23110SOL     OW70770   6.483   5.649   9.041 -0.0740 -0.2253  1.0090
23110SOL    HW170771   6.508   5.649   8.948  2.6098  2.4451  1.5712
23110SOL    HW270772   6.393   5.617   9.041 -0.4633  0.3750 -2.6017
23111SOL     OW70773   4.337   0.739  10.154  0.0061 -0.2432  0.0434
23111SOL    HW170774   4.256   0.705  10.192 -0.2041 -0.2821 -0.4396
23111SOL    HW270775   4.389   0.661  10.134 -0.2317 -0.2563 -0.5215
23112SOL     OW70776   4.256   7.994   9.386 -0.0479  0.6932 -0.3374
23112SOL    HW170777   4.328   7.933   9.402 -1.4671 -1.2408 -0.9951
23112SOL    HW270778   4.216   8.006   9.473  0.1404  0.5647 -0.2315
23113SOL     OW70779   7.266   0.274   9.406 -0.2488  0.1297  0.4832
23113SOL    HW170780   7.214   0.297   9.482 -2.6816  2.0277 -1.5757
23113SOL    HW270781   7.217   0.202   9.365  1.2511 -1.1573  0.8427
23114SOL     OW70782   6.519   0.199   9.841  0.8017  0.3041 -0.0395
23114SOL    HW170783   6.532   0.231   9.752 -0.5634  2.5999  0.4921
23114SOL    HW270784   6.443   0.247   9.873  1.3554 -0.2995  2.4330
23115SOL     OW70785   7.569   0.990  10.493 -0.1619 -0.0306  0.1987
23115SOL    HW170786   7.499   0.945  10.446  0.8788 -3.4620  1.6288
23115SOL    HW270787   7.559   0.961  10.584  2.3516  0.3819  0.6807
23116SOL     OW70788   6.864   7.784  10.077 -0.0637  0.1386 -0.1010
23116SOL    HW170789   6.839   7.780  10.170 -1.1255  0.3227 -0.3639
23116SOL    HW270790   6.933   7.850  10.074  0.4769 -0.3795  0.6623
23117SOL     OW70791   5.453   0.746  11.214  0.3737  0.5074 -0.0263
23117SOL    HW170792   5.475   0.775  11.303 -0.0023 -1.4359  0.7619
23117SOL    HW270793   5.538   0.731  11.172  0.5613  0.4991  0.3469
23118SOL     OW70794   7.004   1.147  10.934  0.6730  0.0727 -0.0042
23118SOL    HW170795   7.002   1.053  10.920  0.7999  0.0811 -0.0864
23118SOL    HW270796   7.002   1.184  10.846 -0.4717  0.1752  0.0568
23119SOL     OW70797   5.952   1.398  11.900  0.3003  0.0085 -0.2313
23119SOL    HW170798   5.870   1.351  11.884 -0.9778  1.9555  0.2967
23119SOL    HW270799   5.995   1.348  11.969 -0.0890 -1.4156 -0.9732
23120SOL     OW70800   6.528   0.612  10.653  0.2028 -0.2125  0.2454
23120SOL    HW170801   6.477   0.572  10.724 -0.6666 -0.3421 -0.4381
23120SOL    HW270802   6.616   0.575  10.664 -0.4061 -1.8107  0.0494
23121SOL     OW70803   1.263   1.294  11.622 -0.2316 -0.3690  0.2155
23121SOL    HW170804   1.285   1.207  11.656 -1.5695 -0.5210  0.7356
23121SOL    HW270805   1.168   1.292  11.610 -0.0064  0.1501 -2.2768
23122SOL     OW70806   5.781   0.383   9.495  0.1117 -0.1433  0.2904
23122SOL    HW170807   5.847   0.421   9.553  1.1101  0.9295 -1.4762
23122SOL    HW270808   5.759   0.299   9.536  1.1065  0.3647  1.9518
23123SOL     OW70809   6.628   7.596  11.204  0.0984  0.5012  0.6104
23123SOL    HW170810   6.610   7.650  11.282 -0.5801  0.3186  0.5797
23123SOL    HW270811   6.656   7.659  11.138  0.8482  0.6439  1.0417
23124SOL     OW70812   5.343   0.664   8.923 -0.1794 -0.1694  0.4312
23124SOL    HW170813   5.313   0.676   9.013  2.6026  1.2840  1.3073
23124SOL    HW270814   5.429   0.706   8.922  0.0980 -0.6183 -2.7981
23125SOL     OW70815   7.415   7.310  11.284 -0.0980  0.3527  0.1315
23125SOL    HW170816   7.398   7.322  11.191  0.4712  0.5885  0.0560
23125SOL    HW270817   7.374   7.385  11.326 -3.2220 -1.3280  0.4279
23126SOL     OW70818   7.330   7.795  10.685 -0.0622 -0.1024 -0.0905
23126SOL    HW170819   7.347   7.889  10.670 -0.8673  0.5570  2.6085
23126SOL    HW270820   7.389   7.772  10.757 -2.2958 -0.7144  1.6422
23127SOL     OW70821   7.349   0.742   9.787  0.8229 -0.1983 -0.1987
23127SOL    HW170822   7.442   0.723   9.771  0.9951 -1.8933  2.1791
23127SOL    HW270823   7.302   0.677   9.736  1.0613 -0.8671  0.4142
23128SOL     OW70824   6.527   7.492  10.793 -0.3594 -0.2686 -0.1440
23128SOL    HW170825   6.590   7.563  10.807 -1.8453  1.4610 -1.6768
23128SOL    HW270826   6.540   7.465  10.703 -1.2448 -0.4545 -0.2253
23129SOL     OW70827   6.835   7.118   8.056  0.7241  0.8122  0.6872
23129SOL    HW170828   6.762   7.082   8.105  0.4092  2.6719  1.6651
23129SOL    HW270829   6.913   7.085   8.100  0.4465  1.2812  1.5432
23130SOL     OW70830   6.621   0.135  11.181  0.4989 -0.3206 -0.0420
23130SOL    HW170831   6.666   0.051  11.171 -0.1357 -0.7105  0.3182
23130SOL    HW270832   6.688   0.193  11.218  0.9090 -0.6926 -0.1832
23131SOL     OW70833   7.295   2.053  10.619 -0.1081 -0.0356  0.0094
23131SOL    HW170834   7.200   2.039  10.621  0.0567 -1.1650  0.0958
23131SOL    HW270835   7.332   1.968  10.596  0.8705  0.4898 -0.4312
23132SOL     OW70836   6.129   7.435  10.519  0.6124  0.4595 -0.3185
23132SOL    HW170837   6.159   7.467  10.604  1.9180  1.2548 -1.0439
23132SOL    HW270838   6.184   7.358  10.502 -0.2567 -0.2337 -0.0643
23133SOL     OW70839   5.736   7.012   9.679 -0.4650 -0.3529  0.4128
23133SOL    HW170840   5.644   7.028   9.659  0.3425  1.6111 -2.3008
23133SOL    HW270841   5.756   7.074   9.750 -0.9366  0.1365  0.1262
23134SOL     OW70842   5.819   0.678   7.805 -0.2700 -0.0824  0.4992
23134SOL    HW170843   5.781   0.696   7.891  0.1958 -0.3773  0.7678
23134SOL    HW270844   5.746   0.691   7.744 -0.6028  0.1293  0.9331
23135SOL     OW70845   6.646   7.249  10.883  0.6028  0.5153  0.1123
23135SOL    HW170846   6.612   7.338  10.873  1.1277  0.7876  0.6878
23135SOL    HW270847   6.677   7.225  10.796 -1.5327  0.0433 -0.5754
23136SOL     OW70848   7.403   1.450  11.370 -0.1346 -0.3566  0.1467
23136SOL    HW170849   7.349   1.410  11.438 -1.1770  0.1736 -0.3482
23136SOL    HW270850   7.361   1.425  11.288  0.8761 -0.6527 -0.3038
23137SOL     OW70851   5.856   1.021  10.458  0.4312 -0.3306  0.1172
23137SOL    HW170852   5.911   1.001  10.382  0.9967  1.4970  0.0047
23137SOL    HW270853   5.913   1.004  10.534  0.8874  0.7465  0.0259
23138SOL     OW70854   5.724   1.472  10.012 -0.4784  0.3690  0.1143
23138SOL    HW170855   5.642   1.521  10.003 -0.5614  0.0758 -0.8147
23138SOL    HW270856   5.757   1.465   9.923 -0.9206 -2.0299  0.0690
23139SOL     OW70857   6.921   2.107  11.306 -0.4484 -0.8397  0.2167
23139SOL    HW170858   6.952   2.018  11.320  1.4187 -0.3573 -0.5142
23139SOL    HW270859   6.998   2.154  11.272 -1.5502  0.8892 -0.0079
23140SOL     OW70860   6.080   6.600  10.519  0.7812  0.2421 -0.3062
23140SOL    HW170861   5.987   6.586  10.537  1.0528 -0.5583  0.5751
23140SOL    HW270862   6.094   6.557  10.435  0.9591 -2.4654  0.9738
23141SOL     OW70863   5.318   1.059  10.004 -0.3301 -0.1981 -0.6475
23141SOL    HW170864   5.263   1.022  10.072  0.9285  0.9169  1.0469
23141SOL    HW270865   5.258   1.076   9.931 -2.0139 -0.0370  0.7219
23142SOL     OW70866   7.469   0.992   8.927  0.4170 -0.2550 -0.2466
23142SOL    HW170867   7.528   0.966   8.997  0.4629 -0.9560 -0.5416
23142SOL    HW270868   7.522   0.989   8.847 -0.0494 -1.0647 -0.5402
23143SOL     OW70869   7.654   0.448  11.100  0.9329  0.0897  0.1027
23143SOL    HW170870   7.564   0.477  11.114  0.4743 -0.5357 -1.2946
23143SOL    HW270871   7.646   0.378  11.035  2.5225  0.7619 -0.8747
23144SOL     OW70872   4.882   7.798  10.961 -0.1646  0.7113 -0.5000
23144SOL    HW170873   4.800   7.803  11.011 -0.1988  0.2566 -0.5119
23144SOL    HW270874   4.858   7.832  10.874 -1.4777 -3.2656 -1.9301
23145SOL     OW70875   6.199   0.018  10.499  0.1406  0.3364  0.2753
23145SOL    HW170876   6.222  -0.062  10.451  1.6605  0.3401  0.9334
23145SOL    HW270877   6.119  -0.005  10.547  1.9266 -1.7510  2.5229
23146SOL     OW70878   7.182   0.402  10.659 -0.0558  0.3333  0.4910
23146SOL    HW170879   7.132   0.393  10.578 -2.4639  1.2491  1.7753
23146SOL    HW270880   7.116   0.409  10.728  1.8849 -1.2664  2.6937
23147SOL     OW70881   5.817   7.358  10.414 -0.3355 -0.3770  0.3986
23147SOL    HW170882   5.863   7.409  10.480  1.6577  1.4304 -2.1661
23147SOL    HW270883   5.753   7.419  10.377 -1.1869 -1.2447  0.3980
23148SOL     OW70884   6.740   7.529  11.674 -0.1343 -0.0614  0.2396
23148SOL    HW170885   6.705   7.510  11.586 -0.5666 -0.7376  0.5478
23148SOL    HW270886   6.662   7.549  11.726  0.1898  1.1084  0.2859
23149SOL     OW70887   6.295   0.365   9.305  0.2201 -0.0215 -0.2072
23149SOL    HW170888   6.241   0.324   9.373  1.1247 -0.0739  0.4950
23149SOL    HW270889   6.289   0.305   9.230 -1.2808  0.3482 -0.4040
23150SOL     OW70890   6.153   7.655   9.919  1.1716 -0.3858  0.2110
23150SOL    HW170891   6.213   7.610   9.860  0.5420  1.1368 -1.6997
23150SOL    HW270892   6.068   7.612   9.905  0.5697  1.2499 -1.6174
23151SOL     OW70893   5.692   7.847  11.514 -0.2813 -0.5105  0.3785
23151SOL    HW170894   5.745   7.788  11.566 -0.6466  0.6731  2.1867
23151SOL    HW270895   5.605   7.807  11.513  0.1848 -1.5865 -1.1566
23152SOL     OW70896   7.650   0.160  10.388  0.0423 -0.0981 -0.6937
23152SOL    HW170897   7.663   0.089  10.325 -0.0164  1.2717 -2.3235
23152SOL    HW270898   7.570   0.204  10.358 -0.6108 -0.0306  0.9998
23153SOL     OW70899   0.729   6.845  11.581  0.0231 -0.2572  0.5719
23153SOL    HW170900   0.713   6.940  11.582 -1.6174 -0.4985  1.2315
23153SOL    HW270901   0.693   6.814  11.665  3.3388 -1.0974  1.8479
23154SOL     OW70902   5.806   7.616   9.803 -0.5039 -0.0779 -0.2074
23154SOL    HW170903   5.842   7.563   9.731 -0.1683  0.1688 -0.2230
23154SOL    HW270904   5.788   7.701   9.763  1.1795  0.5757  0.3482
23155SOL     OW70905   5.983   7.763  11.135 -0.0990 -0.0247 -1.0784
23155SOL    HW170906   6.007   7.732  11.222 -1.5571  1.9373  0.1190
23155SOL    HW270907   6.052   7.731  11.077  1.7718 -0.0666  1.0672
23156SOL     OW70908   7.156   1.941   9.018  0.5262  0.1628 -0.3857
23156SOL    HW170909   7.228   1.894   8.975  0.6398  0.5257 -0.5975
23156SOL    HW270910   7.182   1.943   9.111 -0.0709 -1.2631 -0.1576
23157SOL     OW70911   7.561   1.311  10.161  0.1839 -0.4103  0.1216
23157SOL    HW170912   7.598   1.256  10.231 -0.6116 -0.9420  0.1385
23157SOL    HW270913   7.467   1.314  10.180 -0.2008 -1.3348 -1.4239
23158SOL     OW70914   6.810   1.409  11.546  0.1965 -0.2396  0.0985
23158SOL    HW170915   6.867   1.340  11.581  0.2264 -0.9658 -1.2842
23158SOL    HW270916   6.754   1.363  11.483 -1.0475  0.6927  0.4842
23159SOL     OW70917   7.568   1.824  11.626 -0.3667 -0.0415 -0.1281
23159SOL    HW170918   7.639   1.888  11.637 -0.7170  0.4206 -0.4985
23159SOL    HW270919   7.494   1.862  11.674  0.1452 -1.3951  1.8223
23160SOL     OW70920   0.476   0.162   8.144  0.3078 -0.8718 -0.7965
23160SOL    HW170921   0.513   0.081   8.180 -1.3036 -0.6342  1.5698
23160SOL    HW270922   0.515   0.168   8.057  1.4784 -3.5105 -0.5728
23161SOL     OW70923   7.001   1.123  10.424  0.2366 -0.1820  0.0809
23161SOL    HW170924   7.013   1.133  10.330 -2.1094  0.7929 -0.2016
23161SOL    HW270925   6.925   1.064  10.432  0.0829  0.1585  1.3282
23162SOL     OW70926   5.776   7.055  11.012 -0.1236 -0.4341  0.5818
23162SOL    HW170927   5.711   7.101  10.960 -0.9519  0.4042  2.2778
23162SOL    HW270928   5.745   7.064  11.102  1.1961 -1.9126  1.2243
23163SOL     OW70929   7.823   1.357   0.030 -0.6263  0.4635  0.5093
23163SOL    HW170930   7.770   1.278   0.031  0.2543 -0.1552 -0.3284
23163SOL    HW270931   7.914   1.326   0.036 -0.2513  1.3795 -0.1208
23164SOL     OW70932   5.184   7.233  10.702  0.4996  0.4829 -0.0868
23164SOL    HW170933   5.147   7.152  10.667  0.3030  0.8653 -0.7954
23164SOL    HW270934   5.201   7.214  10.794  1.1331 -0.5861 -0.4111
23165SOL     OW70935   4.547   7.670   7.708 -0.0665  0.2681 -0.3021
23165SOL    HW170936   4.561   7.577   7.686  1.0738  0.5736 -0.9762
23165SOL    HW270937   4.550   7.715   7.623 -2.4021  0.7547 -0.1933
23166SOL     OW70938   6.940   1.152   9.395  0.6034 -0.6554  0.8057
23166SOL    HW170939   6.935   1.137   9.300 -1.9365 -0.3947  0.8163
23166SOL    HW270940   6.954   1.065   9.432 -3.0190 -1.6169  0.3200
23167SOL     OW70941   7.112   6.549  11.957  0.2229 -0.6668 -0.1625
23167SOL    HW170942   7.097   6.585  12.044  0.8871 -0.2926 -0.1988
23167SOL    HW270943   7.025   6.546  11.917  0.3279  3.0032 -0.9926
23168SOL     OW70944   6.721   1.299  10.376 -0.4155 -0.3556 -0.4709
23168SOL    HW170945   6.684   1.238  10.312  0.2680 -2.3960  0.9964
23168SOL    HW270946   6.719   1.251  10.459  2.5200  0.6319  0.2782
23169SOL     OW70947   7.698   0.969  11.493 -0.1053 -0.0240 -0.3999
23169SOL    HW170948   7.623   0.952  11.436  0.4340  1.6981 -1.7281
23169SOL    HW270949   7.774   0.964  11.435  0.4847  1.5408  0.1729
23170SOL     OW70950   6.274   1.471  10.871  0.0867 -0.2542  0.1777
23170SOL    HW170951   6.342   1.455  10.806 -0.6841  1.5848 -1.1379
23170SOL    HW270952   6.255   1.564  10.865 -3.0239 -0.7795 -0.0081
23171SOL     OW70953   7.076   1.467   8.961  0.2768 -0.6755  0.3540
23171SOL    HW170954   7.151   1.470   9.021 -0.0403  0.7840  0.7122
23171SOL    HW270955   7.028   1.389   8.988  0.6971 -0.6246  1.3289
23172SOL     OW70956   7.218   1.404  11.157 -0.1139  0.2394  0.7036
23172SOL    HW170957   7.193   1.312  11.171  2.1088 -0.2746  1.6327
23172SOL    HW270958   7.265   1.403  11.074 -0.8374  0.7300  0.2738
23173SOL     OW70959   6.393   7.289   9.374  0.6280  0.1789  0.0493
23173SOL    HW170960   6.414   7.214   9.319  1.7267  1.1480 -0.8742
23173SOL    HW270961   6.299   7.302   9.362  0.6841 -0.2092 -0.8459
23174SOL     OW70962   6.529   1.379  11.161  0.5492  0.0399  0.1332
23174SOL    HW170963   6.539   1.359  11.068  0.3678 -0.2822  0.1838
23174SOL    HW270964   6.495   1.299  11.200  1.1933 -0.0261  0.5820
23175SOL     OW70965   7.268   6.158  10.061  0.3906 -0.0771  0.0862
23175SOL    HW170966   7.245   6.242  10.101 -0.4603 -0.0088 -0.5104
23175SOL    HW270967   7.317   6.111  10.128 -3.3530 -1.1492  2.3477
23176SOL     OW70968   6.264   6.920  11.510 -0.2696 -0.5369 -0.5718
23176SOL    HW170969   6.242   6.843  11.458  0.1251  0.8282 -2.9378
23176SOL    HW270970   6.182   6.967  11.521 -0.3200 -0.7283 -0.1320
23177SOL     OW70971   6.405   0.626  12.204  0.1770  0.4484  0.3536
23177SOL    HW170972   6.402   0.538  12.168  2.2074  0.8655 -1.0704
23177SOL    HW270973   6.314   0.657  12.201 -0.0238 -0.0544 -3.3504
23178SOL     OW70974   5.884   0.319  11.042 -0.8206 -0.1069  0.4309
23178SOL    HW170975   5.926   0.273  11.114 -0.1703  1.5277  1.1583
23178SOL    HW270976   5.921   0.408  11.046 -1.7668  0.3948 -1.0882
23179SOL     OW70977   7.348   7.110  12.384 -0.3801 -0.4785  0.7551
23179SOL    HW170978   7.322   7.075  12.469  1.3685  0.2278  1.6151
23179SOL    HW270979   7.288   7.068  12.322 -0.4916 -2.4316  2.1022
23180SOL     OW70980   5.392   7.349  10.842 -0.3677 -0.7078  0.0355
23180SOL    HW170981   5.436   7.313  10.765 -1.0065 -0.9148 -0.2468
23180SOL    HW270982   5.394   7.443  10.830  1.3692 -0.6151  0.8074
23181SOL     OW70983   5.256   7.544  11.253 -0.0938  0.5014  0.0581
23181SOL    HW170984   5.283   7.513  11.340 -1.2753  1.5361  0.8152
23181SOL    HW270985   5.312   7.619  11.236 -1.8068  2.1370  1.2690
23182SOL     OW70986   5.847   6.168  10.931  0.4007 -0.3429  0.1848
23182SOL    HW170987   5.752   6.169  10.938  0.3732  0.6731 -0.2111
23182SOL    HW270988   5.876   6.122  11.010 -0.4293 -1.1987  0.0202
23183SOL     OW70989   6.825   1.118  11.892  0.3017 -0.3230  0.3039
23183SOL    HW170990   6.738   1.152  11.870  0.6808  0.8939  0.6269
23183SOL    HW270991   6.825   1.114  11.988  0.6106 -0.2853  0.3055
23184SOL     OW70992   6.723   6.770  10.667  0.5237 -0.4553  0.4479
23184SOL    HW170993   6.703   6.837  10.601  1.4189 -1.6894 -1.1485
23184SOL    HW270994   6.809   6.795  10.701  1.2834 -1.2325 -0.8110
23185SOL     OW70995   5.923   6.781   0.084  0.3477 -0.1692 -0.1398
23185SOL    HW170996   5.899   6.767  -0.007 -0.7691 -0.8161  0.2299
23185SOL    HW270997   6.007   6.738   0.095 -0.0291 -1.0305 -0.6040
23186SOL     OW70998   7.293   0.370   9.974  0.4888  0.3722 -0.5243
23186SOL    HW170999   7.217   0.419  10.005  0.6817  0.0652  0.4626
23186SOL    HW271000   7.287   0.375   9.878  0.6779  2.5883 -0.4687
23187SOL     OW71001   5.179   7.610  12.028 -0.3885  0.3669  0.0423
23187SOL    HW171002   5.220   7.539  11.978  0.1050 -0.8360  2.0356
23187SOL    HW271003   5.090   7.580  12.044 -0.5827  0.8044 -0.1984
23188SOL     OW71004   7.374   7.667  11.148  0.1083 -0.1301  0.1240
23188SOL    HW171005   7.415   7.716  11.077 -1.6513  0.9355 -0.2295
23188SOL    HW271006   7.439   7.667  11.218  1.8208 -1.0786 -1.3892
23189SOL     OW71007   6.806   0.043  12.111  0.1152 -0.5902 -0.2981
23189SOL    HW171008   6.827  -0.024  12.176 -1.0709 -1.2680 -0.5850
23189SOL    HW271009   6.712   0.056  12.118  0.2216  0.5642 -0.7294
23190SOL     OW71010   7.142   0.672   0.244  0.6241 -0.0595 -0.0270
23190SOL    HW171011   7.215   0.705   0.297  2.4945 -3.2337 -0.3940
23190SOL    HW271012   7.173   0.681   0.154 -0.5064  0.7874 -0.3483
23191SOL     OW71013   5.876   6.494  12.047 -0.1738  0.0541 -0.2669
23191SOL    HW171014   5.914   6.551  11.980  0.1823  0.7648  0.5071
23191SOL    HW271015   5.856   6.553  12.119 -0.5575 -0.6925  0.2511
23192SOL     OW71016   6.805   6.066   0.570 -0.4454 -0.7412  0.1144
23192SOL    HW171017   6.797   6.154   0.606  1.4183 -0.9363  1.1207
23192SOL    HW271018   6.848   6.078   0.485 -0.9141 -0.6413 -0.1152
23193SOL     OW71019   7.848   6.698   0.380  0.0008 -0.1103 -0.5399
23193SOL    HW171020   7.803   6.626   0.425  2.5494 -2.1452 -1.0129
23193SOL    HW271021   7.867   6.761   0.449 -1.5610 -0.2142  0.0356
23194SOL     OW71022   6.959   1.173   9.789 -0.4025 -0.2437 -0.1999
23194SOL    HW171023   7.023   1.243   9.801  0.9985 -1.6936  1.2585
23194SOL    HW271024   6.996   1.118   9.720  0.5901 -1.6928  1.3880
23195SOL     OW71025   0.272   7.283  12.284  0.6356  0.3491  0.0086
23195SOL    HW171026   0.288   7.353  12.221 -1.0142  2.0460  1.3540
23195SOL    HW271027   0.296   7.203  12.238 -1.1990  1.4031 -3.0528
23196SOL     OW71028   7.526   7.763   0.571  0.0861  0.2710 -0.4229
23196SOL    HW171029   7.499   7.751   0.662  1.8347  1.7695  0.3602
23196SOL    HW271030   7.464   7.710   0.520 -1.1723 -0.2937  1.5868
23197SOL     OW71031   7.632   7.924   0.805  0.3868 -0.0070  0.0525
23197SOL    HW171032   7.666   7.979   0.734  0.3445 -0.6004 -0.4372
23197SOL    HW271033   7.673   7.839   0.791  0.6571 -0.0390  0.9581
23198SOL     OW71034   0.083   0.450  12.117 -0.2396  0.2450 -0.6253
23198SOL    HW171035   0.155   0.405  12.160  1.1279  3.1844  0.4303
23198SOL    HW271036   0.016   0.460  12.185 -0.9169 -0.8540 -1.0984
23199SOL     OW71037   6.549   6.867  11.167  0.3236  0.5979 -0.3777
23199SOL    HW171038   6.557   6.903  11.255 -0.9003 -2.4198  1.1011
23199SOL    HW271039   6.516   6.940  11.114 -1.3087  1.8855  2.2042
23200SOL     OW71040   0.557   1.464  11.732 -0.0257  0.4906  0.2999
23200SOL    HW171041   0.611   1.472  11.811 -1.8417  1.3885  1.5106
23200SOL    HW271042   0.531   1.554  11.712 -1.6478  0.0209  0.1815
23201SOL     OW71043   6.545   7.478  10.013  0.0524  0.0519 -0.0937
23201SOL    HW171044   6.488   7.420   9.963 -1.1321 -0.5501  1.8364
23201SOL    HW271045   6.616   7.499   9.953 -1.8545  0.3373 -2.3923
23202SOL     OW71046   7.161   0.034   1.260 -0.8139  0.2119  0.3916
23202SOL    HW171047   7.250   0.020   1.227 -1.6904 -1.0565 -1.6012
23202SOL    HW271048   7.156   0.129   1.276  0.1026  0.7321 -1.9910
23203SOL     OW71049   7.011   6.156  12.000  0.0145 -0.6731 -0.0698
23203SOL    HW171050   6.944   6.162  12.068 -0.1766 -0.0298 -0.3077
23203SOL    HW271051   6.963   6.128  11.922  0.5216 -3.3352  0.4659
23204SOL     OW71052   7.696   6.591  11.505  0.0987 -0.3587 -0.3645
23204SOL    HW171053   7.621   6.540  11.537  0.7322 -0.5621  0.8420
23204SOL    HW271054   7.679   6.680  11.536  0.0471 -0.2750 -0.6323
23205SOL     OW71055   5.954   2.071  12.239  0.5164 -0.1341  0.5441
23205SOL    HW171056   5.861   2.055  12.251  0.4010 -0.6349 -0.7926
23205SOL    HW271057   5.964   2.166  12.248 -0.8275  0.5216 -3.0586
23206SOL     OW71058   6.001   1.406   0.038  0.0668 -0.2024 -0.1443
23206SOL    HW171059   5.959   1.391  -0.046 -0.2965  0.8103 -0.1625
23206SOL    HW271060   5.977   1.330   0.092 -1.5283  0.1875 -0.2519
23207SOL     OW71061   0.727   0.729   0.341 -0.2980 -0.4080 -0.7380
23207SOL    HW171062   0.777   0.672   0.399  1.9583 -1.7398 -3.7587
23207SOL    HW271063   0.784   0.804   0.325 -1.6638  0.8858  0.0952
23208SOL     OW71064   7.654   0.655   0.067  0.2108 -0.4215 -0.2527
23208SOL    HW171065   7.706   0.734   0.052 -1.4126  0.9108  0.6647
23208SOL    HW271066   7.716   0.592   0.103  1.4216  0.7122 -0.2652
23209SOL     OW71067   7.988   0.363  10.900 -0.2815  0.1185 -0.3392
23209SOL    HW171068   8.025   0.299  10.839 -1.1790  0.2472 -1.0450
23209SOL    HW271069   7.915   0.402  10.852  0.7308  2.2506 -0.2137
23210SOL     OW71070   6.435   6.986  12.339 -0.2050 -0.3436  0.7366
23210SOL    HW171071   6.483   6.907  12.362  0.5756 -0.3586 -0.8240
23210SOL    HW271072   6.454   7.000  12.246 -1.6964  0.7289  0.5551
23211SOL     OW71073   6.584   2.033  10.760  0.0549 -0.7068  0.1433
23211SOL    HW171074   6.540   2.040  10.845  1.1415 -0.8882  0.7385
23211SOL    HW271075   6.668   1.992  10.780  0.3044 -0.8009 -1.0363
23212SOL     OW71076   7.189   1.101  12.198 -0.5947 -0.1665 -0.3974
23212SOL    HW171077   7.156   1.030  12.253  1.7894 -0.6094  0.5902
23212SOL    HW271078   7.132   1.175  12.219 -1.2803 -0.9926  0.8331
23213SOL     OW71079   0.894   0.164  11.554  0.2627 -0.1434  0.5686
23213SOL    HW171080   0.952   0.185  11.482  0.1689 -0.9378  0.2545
23213SOL    HW271081   0.940   0.098  11.605 -1.3291 -2.6390 -1.0577
23214SOL     OW71082   6.145   0.077   9.760  0.0842 -0.1669  0.0457
23214SOL    HW171083   6.081   0.039   9.699  1.0607 -0.1591 -1.0237
23214SOL    HW271084   6.190   0.144   9.708  0.9251 -0.1491  0.7832
23215SOL     OW71085   4.723   6.264  12.196  0.0892  0.0568 -0.1823
23215SOL    HW171086   4.753   6.178  12.227 -1.2121 -0.5939 -0.6820
23215SOL    HW271087   4.784   6.286  12.125  0.3228 -0.5435 -0.1722
23216SOL     OW71088   7.950   6.402   0.111 -0.6117  0.5154  0.6175
23216SOL    HW171089   7.908   6.482   0.079 -0.2122  0.9472  1.1403
23216SOL    HW271090   7.895   6.373   0.184 -0.6209  0.4508  0.5848
23217SOL     OW71091   7.451   7.522  10.252  0.2138  0.0868  0.1314
23217SOL    HW171092   7.494   7.457  10.196 -3.7484 -1.8362 -1.1467
23217SOL    HW271093   7.412   7.470  10.322 -4.4670  0.4708 -1.8018
23218SOL     OW71094   5.311   7.157   9.561 -0.2831 -0.4737  0.3463
23218SOL    HW171095   5.354   7.229   9.609  2.1581 -0.5154 -1.5613
23218SOL    HW271096   5.254   7.201   9.498  0.1897 -0.2412  0.0752
23219SOL     OW71097   5.547   7.121  10.865  0.3543  0.1062  0.6219
23219SOL    HW171098   5.492   7.045  10.843 -0.4053  1.1737 -1.4244
23219SOL    HW271099   5.486   7.193  10.877  1.1869  1.0885 -0.6607
23220SOL     OW71100   0.320   6.875   0.790 -0.6249 -0.1923 -0.8999
23220SOL    HW171101   0.246   6.897   0.846 -0.1962 -2.5790  0.7718
23220SOL    HW271102   0.283   6.819   0.722 -0.5775 -0.2090 -0.9119
23221SOL     OW71103   7.346   0.551  10.815  0.3810 -0.9284  0.3105
23221SOL    HW171104   7.276   0.498  10.776  0.0424 -0.0850 -0.2540
23221SOL    HW271105   7.426   0.516  10.777  0.1334 -0.8202 -0.3317
23222SOL     OW71106   0.127   1.262   0.144 -0.5408 -0.0070  0.7870
23222SOL    HW171107   0.084   1.346   0.154 -1.2905 -0.2667 -0.1605
23222SOL    HW271108   0.087   1.223   0.067 -0.3786 -1.3407  1.3406
23223SOL     OW71109   6.728   7.214  11.200 -0.3055  0.5986 -0.1476
23223SOL    HW171110   6.714   7.269  11.123 -0.6125 -1.9756 -2.0320
23223SOL    HW271111   6.643   7.173  11.217  0.0072  0.3635  0.9646
23224SOL     OW71112   7.075   2.125   0.637  0.5261  0.2602 -0.4766
23224SOL    HW171113   7.095   2.113   0.544 -0.5262 -2.0736 -0.4737
23224SOL    HW271114   7.030   2.209   0.642 -2.0694 -0.8737 -2.5923
23225SOL     OW71115   7.315   7.430   1.608 -0.0348  0.6816  0.2733
23225SOL    HW171116   7.307   7.468   1.521  0.2487  3.2065  1.2839
23225SOL    HW271117   7.325   7.504   1.667  1.7318 -1.0074  2.2888
23226SOL     OW71118   0.343   0.162   1.674  0.2095 -0.1640 -0.0169
23226SOL    HW171119   0.361   0.093   1.738  0.6573 -1.4778 -1.5239
23226SOL    HW271120   0.361   0.243   1.722  0.7697 -1.1127  1.4521
23227SOL     OW71121   7.544   0.633  12.093  0.5001 -0.0612  0.1050
23227SOL    HW171122   7.528   0.683  12.173 -0.7300 -0.4775  0.1438
23227SOL    HW271123   7.528   0.695  12.022  0.1916 -0.0665  0.1691
23228SOL     OW71124   0.538   5.901   1.950 -0.6150 -0.4837 -0.3608
23228SOL    HW171125   0.580   5.877   2.032 -1.8162  0.0609  0.4405
23228SOL    HW271126   0.598   5.870   1.882  1.5583  1.1472  0.7213
23229SOL     OW71127   7.844   2.790   0.318  0.2587 -0.3864  0.2274
23229SOL    HW171128   7.930   2.808   0.357 -0.2687 -2.1387  2.4113
23229SOL    HW271129   7.824   2.700   0.345 -2.0547 -0.1958 -0.6211
23230SOL     OW71130   6.785   0.696   0.594  0.4399  0.2984 -0.0001
23230SOL    HW171131   6.794   0.600   0.593  1.1361  0.3431  0.6757
23230SOL    HW271132   6.875   0.728   0.588  0.2557  0.9027  0.4037
23231SOL     OW71133   7.904   1.004   1.936  0.6744  0.0271 -0.0961
23231SOL    HW171134   7.839   1.016   2.006  2.2866  0.2313  1.4327
23231SOL    HW271135   7.985   1.040   1.972  2.4156 -2.9439 -0.6725
23232SOL     OW71136   7.300   7.614   0.005 -0.3519  0.7516 -0.2438
23232SOL    HW171137   7.378   7.585   0.053 -1.9370 -0.0859  1.9754
23232SOL    HW271138   7.318   7.706  -0.014  1.5543  0.3542 -0.6292
23233SOL     OW71139   7.446   1.047   0.162 -0.2755 -0.0601  0.3726
23233SOL    HW171140   7.523   1.084   0.118  0.0935 -1.5561 -0.3178
23233SOL    HW271141   7.399   1.123   0.196 -0.7277  1.2425 -2.8116
23234SOL     OW71142   7.703   2.307   1.730 -0.2936 -0.8203 -0.0884
23234SOL    HW171143   7.681   2.286   1.639  0.6681  1.1339 -0.8251
23234SOL    HW271144   7.637   2.370   1.757 -0.8251 -1.7111  0.7424
23235SOL     OW71145   7.053   2.877   2.313 -0.4367  0.4326 -0.3133
23235SOL    HW171146   7.045   2.954   2.370 -0.5909  0.2460 -0.0866
23235SOL    HW271147   7.147   2.857   2.315 -0.4502  0.3904 -0.0812
23236SOL     OW71148   6.219   7.469   0.796 -0.4630  0.2312 -0.4896
23236SOL    HW171149   6.271   7.539   0.754 -1.6869  0.8599 -0.9935
23236SOL    HW271150   6.227   7.488   0.890 -0.8854  1.1440 -0.6232
23237SOL     OW71151   6.866   1.332   1.507  0.1788  0.4343  0.3376
23237SOL    HW171152   6.887   1.297   1.593  1.7393  0.8049  0.1477
23237SOL    HW271153   6.809   1.267   1.467  1.5646 -1.0421  0.6572
23238SOL     OW71154   6.693   2.861   2.469 -0.0868 -0.4512  0.5163
23238SOL    HW171155   6.727   2.862   2.558 -2.5959  1.1304  1.5977
23238SOL    HW271156   6.733   2.937   2.427  1.6634 -1.6183  0.0070
23239SOL     OW71157   0.063   0.431   4.097  0.5076 -0.2463  0.3483
23239SOL    HW171158   0.124   0.373   4.052  0.3362 -1.1259  1.1996
23239SOL    HW271159   0.055   0.507   4.040  0.2399 -1.3360 -1.1330
23240SOL     OW71160   7.889   1.734   1.207  0.1086 -0.4644  0.2688
23240SOL    HW171161   7.802   1.751   1.169  0.2348 -0.0420  0.1676
23240SOL    HW271162   7.950   1.778   1.148  0.3980 -0.7875  0.3225
23241SOL     OW71163   0.449   2.135   0.722 -0.0156  0.8027  0.2399
23241SOL    HW171164   0.370   2.178   0.687  0.6705  1.3592 -0.6625
23241SOL    HW271165   0.426   2.043   0.727  0.0765  0.5854 -2.3595
23242SOL     OW71166   0.453   1.262   0.706 -0.0057  0.0403 -0.1766
23242SOL    HW171167   0.503   1.339   0.680 -1.6230  0.5567 -1.9876
23242SOL    HW271168   0.472   1.252   0.799  1.1370  1.9432 -0.1465
23243SOL     OW71169   6.548   7.923   1.656 -0.0475  0.0352 -0.2592
23243SOL    HW171170   6.625   7.960   1.614 -0.3226  0.1823 -0.6358
23243SOL    HW271171   6.478   7.984   1.637  0.3269  1.5725  2.6935
23244SOL     OW71172   0.362   1.256   1.702 -0.0312 -0.0976  0.4132
23244SOL    HW171173   0.387   1.349   1.705  1.0592 -0.0363 -3.8253
23244SOL    HW271174   0.268   1.256   1.720  0.2180  1.5974  1.9862
23245SOL     OW71175   7.653   0.302  11.435  0.0942 -0.0356 -0.6242
23245SOL    HW171176   7.712   0.229  11.451  1.2202  0.7035 -1.2623
23245SOL    HW271177   7.565   0.264  11.438  0.6356 -1.2885 -0.3548
23246SOL     OW71178   7.863   2.045   0.706 -0.2455  0.1321 -0.2863
23246SOL    HW171179   7.785   1.994   0.685 -0.7609  1.2165 -1.1064
23246SOL    HW271180   7.835   2.136   0.698  0.6712  0.5670  1.0597
23247SOL     OW71181   2.727   7.879   0.755 -0.1857  0.2651 -0.1584
23247SOL    HW171182   2.796   7.944   0.767  0.0251  0.1768 -0.8464
23247SOL    HW271183   2.750   7.834   0.673 -2.0307  1.4514 -1.3975
23248SOL     OW71184   1.092   1.019   1.212  0.4257 -0.3205 -0.5731
23248SOL    HW171185   1.063   1.031   1.302  1.0708 -0.2260 -0.3736
23248SOL    HW271186   1.081   0.925   1.195 -2.5216  0.0706 -1.4044
23249SOL     OW71187   6.767   2.152   1.534  0.3606 -0.9395 -0.3506
23249SOL    HW171188   6.693   2.151   1.472  0.5667 -0.7362 -0.5991
23249SOL    HW271189   6.725   2.147   1.620 -0.1967  2.8501 -0.2393
23250SOL     OW71190   0.175   1.006  12.101  0.5241 -0.0710 -0.4173
23250SOL    HW171191   0.101   0.987  12.159  0.5939  0.2126 -0.2286
23250SOL    HW271192   0.149   0.973  12.015  0.1208  0.1449 -0.3793
23251SOL     OW71193   7.999   7.458   1.178  0.1550 -0.2186 -0.0678
23251SOL    HW171194   7.968   7.410   1.255 -1.2765  0.3822 -0.2340
23251SOL    HW271195   7.924   7.511   1.151  0.8296  0.0554 -1.5136
23252SOL     OW71196   1.781   1.849   2.564 -0.5896 -0.0214 -0.0265
23252SOL    HW171197   1.705   1.882   2.612 -0.7550  0.2681 -0.4866
23252SOL    HW271198   1.856   1.881   2.615 -0.7695 -1.0316  0.9127
23253SOL     OW71199   0.826   1.055   2.783  0.1217  0.2502  0.0505
23253SOL    HW171200   0.908   1.070   2.737 -0.1135  0.5032 -0.2931
23253SOL    HW271201   0.759   1.089   2.724 -0.2565 -0.2498  0.1895
23254SOL     OW71202   1.211   6.992   1.267 -0.3748  0.3509 -0.0592
23254SOL    HW171203   1.220   6.921   1.204  0.5827  0.2108  0.2169
23254SOL    HW271204   1.143   6.962   1.327  0.3714 -0.5888  0.3561
23255SOL     OW71205   7.983   1.576   1.738  0.0879  0.2292  0.0828
23255SOL    HW171206   7.932   1.629   1.799  2.0509  1.1124  1.0587
23255SOL    HW271207   7.964   1.613   1.652 -1.3496  0.1387  0.3496
23256SOL     OW71208   0.098   1.248   1.774  0.2870 -0.5842 -0.8780
23256SOL    HW171209   0.006   1.269   1.755  0.0640 -0.9131 -0.1852
23256SOL    HW271210   0.098   1.221   1.866  1.2508  0.4155 -0.5702
23257SOL     OW71211   0.101   2.908   3.714  0.0887  0.1838  0.0449
23257SOL    HW171212   0.064   2.836   3.765  0.4149 -0.7832 -1.0370
23257SOL    HW271213   0.195   2.899   3.724  0.1889 -0.3911 -1.1693
23258SOL     OW71214   0.978   0.391   1.487  0.4214  0.0517 -0.5178
23258SOL    HW171215   1.072   0.374   1.484  0.2357 -0.8806 -1.3954
23258SOL    HW271216   0.957   0.393   1.581  1.1255 -0.7719 -0.3339
23259SOL     OW71217   1.738   1.628   1.913 -0.5269  0.5674  0.0969
23259SOL    HW171218   1.833   1.635   1.904 -0.0938 -0.9690  2.4880
23259SOL    HW271219   1.708   1.718   1.927  0.8553  0.8886  1.1448
23260SOL     OW71220   6.659   1.647   1.768  0.0948 -0.0868  0.2162
23260SOL    HW171221   6.565   1.640   1.786  0.2164 -2.1481  0.1989
23260SOL    HW271222   6.666   1.633   1.674  0.2618  2.4509 -0.2408
23261SOL     OW71223   7.657   0.149   0.989  0.0062  0.7606 -0.5528
23261SOL    HW171224   7.709   0.216   0.946  2.8206 -0.6269  0.4820
23261SOL    HW271225   7.656   0.076   0.928  0.2996  0.3411 -0.0588
23262SOL     OW71226   0.445   1.018   0.543  0.7855 -0.1591  0.0024
23262SOL    HW171227   0.457   1.110   0.569  0.1895 -0.2604  0.6601
23262SOL    HW271228   0.496   0.969   0.608  0.4134 -0.3353  0.1638
23263SOL     OW71229   0.477   7.379   0.353  0.2053  0.7179 -0.1499
23263SOL    HW171230   0.562   7.413   0.383 -0.4895  1.7712  0.7157
23263SOL    HW271231   0.496   7.291   0.321  1.2190 -0.1292  2.4794
23264SOL     OW71232   0.307   0.711   3.109 -0.4520  0.2260  0.1405
23264SOL    HW171233   0.389   0.751   3.082 -0.1253 -0.5841 -0.1193
23264SOL    HW271234   0.301   0.730   3.203 -0.0696  0.4637  0.1201
23265SOL     OW71235   0.741   0.738   2.500  0.3740  0.0903  0.0185
23265SOL    HW171236   0.736   0.764   2.592 -0.4524  0.4987 -0.1244
23265SOL    HW271237   0.733   0.821   2.451  1.8483 -0.0055 -0.4174
23266SOL     OW71238   0.258   0.537  10.736  0.0007 -0.0300  0.2498
23266SOL    HW171239   0.277   0.443  10.741 -2.1858 -0.4590  2.2285
23266SOL    HW271240   0.185   0.543  10.674 -0.6047  0.2028  0.9726
23267SOL     OW71241   0.076   0.749   2.877 -0.8726 -0.4424  0.5653
23267SOL    HW171242   0.128   0.715   2.950  1.7278  2.6405  0.3380
23267SOL    HW271243   0.106   0.699   2.801  1.8463  1.1582  0.4647
23268SOL     OW71244   7.802   0.737   1.930 -0.0135 -0.6952 -1.2325
23268SOL    HW171245   7.878   0.706   1.979 -1.1067  1.6543  2.3970
23268SOL    HW271246   7.818   0.831   1.918 -1.5325 -0.4936 -1.9164
23269SOL     OW71247   6.149   2.567   2.275 -0.1053  0.6788  0.1262
23269SOL    HW171248   6.088   2.590   2.206 -1.0185  0.9291  0.9895
23269SOL    HW271249   6.220   2.521   2.231 -1.4277 -0.5895 -0.7914
23270SOL     OW71250   0.034   7.646   1.379 -0.0565  0.5495 -0.6137
23270SOL    HW171251   0.092   7.613   1.447 -0.2167  1.9728  0.2443
23270SOL    HW271252   0.044   7.584   1.307 -0.9826 -1.8906  1.1869
23271SOL     OW71253   7.238   0.330   4.215  0.0009 -0.7746  0.0060
23271SOL    HW171254   7.321   0.287   4.236  0.9108  1.4461  1.2258
23271SOL    HW271255   7.219   0.386   4.290 -2.1518 -0.5087 -0.6515
23272SOL     OW71256   7.923   7.648   0.522  0.2065  0.2235  0.4030
23272SOL    HW171257   7.880   7.566   0.500  0.8878  0.2575 -1.2522
23272SOL    HW271258   7.997   7.653   0.461  1.3099  1.1642  1.7438
23273SOL     OW71259   6.830   0.695   0.159 -0.0998 -0.4729 -0.1947
23273SOL    HW171260   6.921   0.693   0.188  0.6761 -1.4661 -2.4379
23273SOL    HW271261   6.827   0.768   0.098 -0.6908 -0.7136 -0.4550
23274SOL     OW71262   0.252   0.944   1.895 -0.4038  0.3077  0.0669
23274SOL    HW171263   0.209   1.029   1.902  0.5994  1.0085 -1.4955
23274SOL    HW271264   0.194   0.883   1.940 -1.1272  1.8238  1.2497
23275SOL     OW71265   7.726   0.049   0.289 -0.5110  0.1050  0.0916
23275SOL    HW171266   7.721   0.145   0.288 -0.0781  0.1416  0.9452
23275SOL    HW271267   7.793   0.028   0.224 -0.6707  0.3733 -0.1627
23276SOL     OW71268   7.962   1.346   0.969  0.1440  0.0375 -0.7495
23276SOL    HW171269   7.984   1.258   0.937  0.9118 -0.8387  1.8963
23276SOL    HW271270   7.989   1.345   1.060 -2.9014  1.9194  0.3214
23277SOL     OW71271   7.049   1.793   2.133 -0.1998 -0.0805 -0.1351
23277SOL    HW171272   6.971   1.765   2.086 -0.0855 -0.3781 -0.1470
23277SOL    HW271273   7.016   1.852   2.201 -0.3733  0.2996 -0.5396
23278SOL     OW71274   6.890   0.842  11.739  0.0058  0.1409 -0.4406
23278SOL    HW171275   6.874   0.913  11.801  0.2962  0.9836 -1.3078
23278SOL    HW271276   6.977   0.862  11.702 -0.7272  0.4218 -2.1022
23279SOL     OW71277   7.644   1.145   3.038  0.1273 -0.2695  0.5778
23279SOL    HW171278   7.697   1.225   3.045 -1.4321  0.7628  1.2402
23279SOL    HW271279   7.677   1.101   2.960  1.8778  0.3663  0.9260
23280SOL     OW71280   1.684   0.638   3.428 -0.0924  0.3039 -0.3118
23280SOL    HW171281   1.740   0.623   3.505 -1.5105  1.5644  1.0400
23280SOL    HW271282   1.601   0.668   3.465 -1.1757 -0.0836 -2.3280
23281SOL     OW71283   6.679   1.337   0.644 -0.0296  0.6419 -0.8134
23281SOL    HW171284   6.730   1.349   0.563 -0.5062 -1.3179 -1.4528
23281SOL    HW271285   6.746   1.322   0.711  0.3655  2.0969 -0.8498
23282SOL     OW71286   0.345   7.574   0.481  0.5811  0.3798  0.0798
23282SOL    HW171287   0.397   7.505   0.441 -1.2308 -1.3335  0.4961
23282SOL    HW271288   0.376   7.579   0.571  1.0880  0.4995 -0.1004
23283SOL     OW71289   7.808   0.613   4.178 -0.9641  0.4682 -0.4685
23283SOL    HW171290   7.777   0.629   4.089  1.7217  1.1415 -1.3830
23283SOL    HW271291   7.904   0.615   4.171 -0.6352 -1.0299  2.1731
23284SOL     OW71292   6.945   7.505   2.027  0.0332 -0.3344 -0.1015
23284SOL    HW171293   6.941   7.534   2.119 -0.4986 -1.0456  0.1054
23284SOL    HW271294   7.037   7.480   2.015  0.0468 -0.5001  0.3186
23285SOL     OW71295   7.344   1.550   2.656 -0.0928 -0.5808  0.0246
23285SOL    HW171296   7.327   1.470   2.705  2.1477 -0.6673  0.7308
23285SOL    HW271297   7.294   1.617   2.703  0.0110 -1.1101  0.9152
23286SOL     OW71298   0.175   2.119   3.620  0.0086  0.1362  0.6416
23286SOL    HW171299   0.254   2.070   3.597 -0.5110 -1.4320  1.9937
23286SOL    HW271300   0.206   2.188   3.679  0.5800  0.6282 -0.2212
23287SOL     OW71301   6.938   2.377   0.715 -0.0712 -0.3746 -0.5627
23287SOL    HW171302   6.868   2.350   0.656 -0.9202  0.8815 -0.1707
23287SOL    HW271303   6.913   2.465   0.743  1.0026 -0.4176  0.6143
23288SOL     OW71304   0.609   1.725   3.431  0.1560 -0.0098  0.1101
23288SOL    HW171305   0.544   1.686   3.490  0.7843  0.0456  0.8528
23288SOL    HW271306   0.564   1.802   3.394 -0.4084 -0.3141  0.1488
23289SOL     OW71307   7.827   1.715   1.940 -0.1120 -0.1903 -0.0671
23289SOL    HW171308   7.736   1.694   1.919 -0.6792  0.9960  1.0306
23289SOL    HW271309   7.821   1.768   2.019  1.2957  2.3853 -1.5309
23290SOL     OW71310   7.413   1.040   3.091 -0.4874  0.0504  0.0050
23290SOL    HW171311   7.461   0.968   3.131 -0.1997  0.6635  0.7719
23290SOL    HW271312   7.480   1.104   3.068 -0.7041 -0.0614 -1.0021
23291SOL     OW71313   6.195   2.468   2.646 -0.3521 -0.1135  0.6515
23291SOL    HW171314   6.119   2.413   2.629 -0.3250 -0.0728  0.3934
23291SOL    HW271315   6.211   2.459   2.740 -1.8140  1.3448  1.0961
23292SOL     OW71316   6.385   7.798   1.084 -0.2539 -1.2300  0.3221
23292SOL    HW171317   6.357   7.862   1.150 -1.0682 -2.2808  1.0296
23292SOL    HW271318   6.479   7.788   1.099  0.5341  1.8933 -1.6871
23293SOL     OW71319   1.641   1.412   2.042 -0.3682 -0.6897  0.0296
23293SOL    HW171320   1.669   1.484   1.986 -1.1485 -1.1209 -0.9490
23293SOL    HW271321   1.601   1.454   2.118 -1.9061 -0.0493 -1.0836
23294SOL     OW71322   6.854   1.275   1.844  0.3180 -0.0219 -0.3902
23294SOL    HW171323   6.861   1.196   1.898  1.2819 -1.4075 -2.4113
23294SOL    HW271324   6.769   1.312   1.866 -0.3648 -1.8918  0.2916
23295SOL     OW71325   7.466   1.825   3.118  0.0173 -0.1176  0.2772
23295SOL    HW171326   7.381   1.803   3.081 -1.6716  2.8712  1.9638
23295SOL    HW271327   7.461   1.796   3.209  0.0793  1.5269  0.8397
23296SOL     OW71328   6.883   2.036   2.753 -0.0085  0.5408  0.0360
23296SOL    HW171329   6.834   1.959   2.779 -3.0246  2.3358  0.1366
23296SOL    HW271330   6.944   2.052   2.826 -0.3811 -0.8378  0.6861
23297SOL     OW71331   6.715   1.564   1.498  0.0360  1.0304 -0.0632
23297SOL    HW171332   6.734   1.588   1.408 -2.0288  0.6575 -0.6512
23297SOL    HW271333   6.743   1.472   1.505 -0.5886  0.7983 -0.5856
23298SOL     OW71334   0.350   7.990   3.875  0.4972 -0.5589 -0.2760
23298SOL    HW171335   0.284   7.994   3.806  0.2723  0.4267 -0.0197
23298SOL    HW271336   0.383   8.080   3.881  0.0236 -0.4698  1.3728
23299SOL     OW71337   0.968   3.110   3.530  0.6156  0.1152 -0.1565
23299SOL    HW171338   0.905   3.105   3.602  1.5920  0.8573  0.7667
23299SOL    HW271339   1.048   3.071   3.564  0.6699 -0.9030 -1.3551
23300SOL     OW71340   7.139   0.568   2.543 -0.1693  0.0051 -0.2606
23300SOL    HW171341   7.167   0.579   2.452  0.5406  0.4718  0.0039
23300SOL    HW271342   7.160   0.652   2.585 -2.2359  0.4779 -0.0966
23301SOL     OW71343   7.262   2.160   3.197 -0.0513 -0.4377  0.2569
23301SOL    HW171344   7.301   2.144   3.283 -1.2946  3.3463  1.7514
23301SOL    HW271345   7.333   2.145   3.135  1.1466 -2.3782  1.9884
23302SOL     OW71346   6.606   7.240   1.768  0.2370  0.0339 -0.5665
23302SOL    HW171347   6.603   7.199   1.854 -0.6318  0.1459 -0.5336
23302SOL    HW271348   6.693   7.279   1.763  0.4270 -0.2896  0.1093
23303SOL     OW71349   7.437   0.380   2.982  0.1765 -0.0838 -0.4036
23303SOL    HW171350   7.499   0.381   3.055  0.0663  0.4074 -0.3131
23303SOL    HW271351   7.479   0.436   2.916 -0.6775  1.1713  0.0852
23304SOL     OW71352   0.646   6.955   2.208  0.9275 -0.0679  0.3931
23304SOL    HW171353   0.621   6.909   2.128 -0.9242 -2.3594  2.1754
23304SOL    HW271354   0.586   7.030   2.212  2.0924  1.0236 -1.0737
23305SOL     OW71355   2.344   0.404   3.671 -0.2161  0.3925  0.6509
23305SOL    HW171356   2.337   0.339   3.741 -0.2139  0.9465  1.1774
23305SOL    HW271357   2.427   0.449   3.689  0.7249 -0.6897 -0.7946
23306SOL     OW71358   6.105   1.349   2.318 -0.0410 -0.2599  0.4416
23306SOL    HW171359   6.015   1.370   2.345  0.6340  0.6325  2.1295
23306SOL    HW271360   6.159   1.416   2.360  1.4866 -1.0980 -0.1094
23307SOL     OW71361   0.957   0.605   2.634  0.2189  0.1259  0.4555
23307SOL    HW171362   0.983   0.654   2.713  2.0237  1.0837 -0.6725
23307SOL    HW271363   0.900   0.666   2.587  3.7138  2.0279 -1.7367
23308SOL     OW71364   7.546   1.855   3.415 -0.5896 -0.1358 -0.5403
23308SOL    HW171365   7.637   1.831   3.395 -0.1166  0.4802  0.7328
23308SOL    HW271366   7.512   1.779   3.461  0.4927  0.9712  2.3028
23309SOL     OW71367   5.588   1.265   2.079  0.2433  0.3738  0.2877
23309SOL    HW171368   5.547   1.349   2.102 -0.7289 -0.4077  1.5857
23309SOL    HW271369   5.629   1.280   1.994 -0.8694  1.8392 -0.0227
23310SOL     OW71370   0.750   0.985   3.051 -0.1797  0.5868  0.1437
23310SOL    HW171371   0.766   1.040   3.127  1.1723  0.0182  0.3037
23310SOL    HW271372   0.753   1.045   2.976  1.3758  0.7598  0.3034
23311SOL     OW71373   6.855   7.958   4.076 -0.4271 -0.5030  0.8586
23311SOL    HW171374   6.862   7.904   3.998 -1.1391 -0.1974  0.5757
23311SOL    HW271375   6.791   8.025   4.053 -1.0437 -0.7224  1.8853
23312SOL     OW71376   7.783   7.968   1.998 -0.5088 -0.5459  0.2227
23312SOL    HW171377   7.861   7.982   2.051  1.0566  0.2264 -2.0884
23312SOL    HW271378   7.718   8.028   2.034  1.3299  1.8949 -0.2558
23313SOL     OW71379   7.932   0.453   3.729 -0.0232  0.4489 -0.1099
23313SOL    HW171380   7.849   0.494   3.754 -0.0941 -0.6902  1.7419
23313SOL    HW271381   7.995   0.524   3.732 -1.0827  1.6272 -2.8704
23314SOL     OW71382   6.984   7.221   2.970 -0.1780  0.3302 -0.4154
23314SOL    HW171383   6.902   7.203   3.017  0.9291 -2.3235  0.6599
23314SOL    HW271384   6.959   7.217   2.877 -1.1645 -1.1244 -0.1152
23315SOL     OW71385   6.824   1.861   4.445  1.0116  0.1325 -0.0964
23315SOL    HW171386   6.753   1.904   4.396  1.3770  0.5418 -0.2713
23315SOL    HW271387   6.811   1.889   4.536 -1.1471 -2.5528  0.5556
23316SOL     OW71388   0.469   1.006   1.720 -0.2322  0.2506  0.4990
23316SOL    HW171389   0.430   1.088   1.689  0.0052  0.5059  0.8656
23316SOL    HW271390   0.402   0.968   1.776 -1.0386 -0.6717 -1.0189
23317SOL     OW71391   7.780   1.345   3.358  0.3233  0.6364  0.1303
23317SOL    HW171392   7.770   1.251   3.374  1.7640  0.4901  0.2361
23317SOL    HW271393   7.853   1.371   3.413 -0.6042  2.0109  0.7566
23318SOL     OW71394   6.795   0.765   3.614 -0.0411  0.0634 -0.2472
23318SOL    HW171395   6.787   0.689   3.672 -2.4530 -1.3222 -2.2183
23318SOL    HW271396   6.876   0.750   3.565 -0.4513 -1.2455 -0.5657
23319SOL     OW71397   6.903   0.028   1.838 -1.0242  0.1190  0.3289
23319SOL    HW171398   6.964   0.008   1.767 -2.2121  0.0034 -0.6929
23319SOL    HW271399   6.949   0.092   1.892 -0.6095  1.2898 -1.3311
23320SOL     OW71400   7.630   0.879   2.399  0.0813  0.5166  0.4481
23320SOL    HW171401   7.548   0.925   2.384 -0.1974  0.7501  2.3574
23320SOL    HW271402   7.689   0.947   2.435  0.8645  0.1860 -0.1775
23321SOL     OW71403   6.455   1.091   3.533 -0.2899 -0.2883 -0.5851
23321SOL    HW171404   6.431   1.181   3.555 -0.5163 -0.3063 -0.7488
23321SOL    HW271405   6.544   1.081   3.567  0.0962  0.2996 -1.3772
23322SOL     OW71406   0.736   0.979   1.680 -0.2204 -0.4055  0.5903
23322SOL    HW171407   0.758   1.069   1.705 -0.8657 -0.2976  0.7958
23322SOL    HW271408   0.640   0.978   1.677 -0.1996 -0.9278 -0.0191
23323SOL     OW71409   0.940   0.934   4.006 -0.2756  0.1916 -0.2442
23323SOL    HW171410   0.957   0.937   3.912 -1.6850  4.0886 -0.6029
23323SOL    HW271411   1.008   0.989   4.044 -1.1215  0.6573  0.6492
23324SOL     OW71412   7.960   7.473   3.698  0.2325 -0.0264  0.2293
23324SOL    HW171413   7.974   7.471   3.793 -0.8632 -0.7345  0.3925
23324SOL    HW271414   8.035   7.425   3.663 -0.6437 -2.0597  0.9456
23325SOL     OW71415   0.381   0.630   4.570 -0.1854  0.0847  0.2633
23325SOL    HW171416   0.327   0.708   4.561  2.1332  1.8462  0.4954
23325SOL    HW271417   0.459   0.649   4.517  0.9369 -1.6134  1.2136
23326SOL     OW71418   1.016   7.812   2.187  0.4105 -0.0337 -0.2726
23326SOL    HW171419   1.060   7.751   2.128 -1.2472 -1.2188 -0.3472
23326SOL    HW271420   0.954   7.758   2.236  0.8164  1.1309  1.6498
23327SOL     OW71421   7.511   2.094   3.058  0.4628  0.6221  0.6376
23327SOL    HW171422   7.557   2.119   3.139  1.7340 -0.7032  0.3753
23327SOL    HW271423   7.495   2.000   3.068  0.3582  0.5071 -0.5186
23328SOL     OW71424   0.240   1.739   3.475  0.3768 -0.5378  0.8763
23328SOL    HW171425   0.191   1.756   3.556 -0.1710 -0.5940  0.5633
23328SOL    HW271426   0.300   1.669   3.498 -0.8966 -1.6967  0.8247
23329SOL     OW71427   6.542   0.922   2.366  0.1719 -0.3056  0.0555
23329SOL    HW171428   6.539   1.013   2.338  1.1411  0.4066  2.0483
23329SOL    HW271429   6.630   0.893   2.342  0.4812 -0.1478  0.9563
23330SOL     OW71430   7.355   0.175   2.639  0.3123 -0.0029  0.2459
23330SOL    HW171431   7.331   0.184   2.547 -0.6655 -0.6618  0.4139
23330SOL    HW271432   7.282   0.215   2.686  1.3936  1.4860  0.7368
23331SOL     OW71433   7.780   0.296   1.546  0.3510  0.3304 -0.0270
23331SOL    HW171434   7.715   0.349   1.500  0.7147 -0.0795 -1.0507
23331SOL    HW271435   7.864   0.330   1.517  0.5918 -0.7487 -0.6638
23332SOL     OW71436   7.272   1.307   2.764  0.0141 -0.3007 -0.3753
23332SOL    HW171437   7.230   1.279   2.845  2.4403 -0.2780  0.9775
23332SOL    HW271438   7.257   1.235   2.703 -0.8986 -0.8108  0.4197
23333SOL     OW71439   6.551   2.080   3.765  0.4275 -0.1242  0.1507
23333SOL    HW171440   6.529   2.154   3.709 -0.5422 -0.0809  0.5713
23333SOL    HW271441   6.515   2.004   3.719  0.0942 -0.1525  0.4617
23334SOL     OW71442   0.738   7.605   1.276  0.1222 -0.3294  0.0157
23334SOL    HW171443   0.784   7.688   1.264 -0.4478  0.4057  2.3967
23334SOL    HW271444   0.658   7.615   1.225  0.5481  0.1386 -0.5833
23335SOL     OW71445   7.586   1.512   2.934  0.1099 -0.0109 -0.5656
23335SOL    HW171446   7.649   1.487   3.002  0.1174  0.0018 -0.5679
23335SOL    HW271447   7.504   1.472   2.961 -0.3314  1.4755  0.4027
23336SOL     OW71448   7.430   2.990   2.664 -0.4271  0.1174 -0.3193
23336SOL    HW171449   7.382   2.996   2.746 -0.6589 -1.1262 -0.3543
23336SOL    HW271450   7.522   2.982   2.690 -0.2924  1.5799 -0.2393
23337SOL     OW71451   0.156   2.165   3.276  0.0381 -0.2815  0.3484
23337SOL    HW171452   0.230   2.184   3.333  1.4633  0.4597 -1.6297
23337SOL    HW271453   0.195   2.122   3.200 -1.2393  1.8634 -1.6414
23338SOL     OW71454   6.585   1.232   2.933  0.2257 -0.2121  0.5465
23338SOL    HW171455   6.664   1.223   2.880  0.0678  1.9279 -0.1546
23338SOL    HW271456   6.532   1.155   2.912  0.7396 -0.0657 -1.4311
23339SOL     OW71457   1.226   0.078   5.914  0.2882 -0.5170  0.5383
23339SOL    HW171458   1.250   0.168   5.893 -0.6715 -0.3220  0.1940
23339SOL    HW271459   1.166   0.053   5.844  0.3298 -1.3278  0.7865
23340SOL     OW71460   7.444   1.894   3.792  0.1060  0.3428  0.5563
23340SOL    HW171461   7.529   1.934   3.778  0.8319 -1.0983  0.7150
23340SOL    HW271462   7.454   1.804   3.762 -2.0552  0.7437 -1.7500
23341SOL     OW71463   7.678   0.349   2.308  0.1668 -0.1318 -0.0132
23341SOL    HW171464   7.751   0.299   2.270 -1.0679 -1.1788 -1.0910
23341SOL    HW271465   7.619   0.282   2.342 -0.6498  0.6680  0.1610
23342SOL     OW71466   0.138   0.438   3.032 -0.0532 -0.1634  0.2214
23342SOL    HW171467   0.206   0.445   3.099  0.3975 -3.4876  0.2622
23342SOL    HW271468   0.057   0.456   3.080  0.5463  1.1655  0.7822
23343SOL     OW71469   7.462   7.276   6.836  0.1464 -0.1790  0.0036
23343SOL    HW171470   7.546   7.312   6.808 -0.3325  0.8118 -0.1965
23343SOL    HW271471   7.483   7.225   6.914  1.4395 -2.6751 -1.8387
23344SOL     OW71472   7.228   1.627   6.129  0.5087 -0.4743  0.1165
23344SOL    HW171473   7.319   1.601   6.143  0.6081 -1.6414 -2.2586
23344SOL    HW271474   7.234   1.707   6.076  0.1217  0.7553  1.8464
23345SOL     OW71475   6.592   2.153   6.024  0.1178 -0.2613  0.3258
23345SOL    HW171476   6.662   2.098   6.061 -0.3348 -0.9603  0.1644
23345SOL    HW271477   6.513   2.122   6.067 -0.3070 -0.5329 -0.6398
23346SOL     OW71478   2.011   1.226   4.405  0.6540  0.4734  0.2029
23346SOL    HW171479   1.917   1.247   4.404 -0.2721 -2.9476  1.3338
23346SOL    HW271480   2.031   1.204   4.314 -0.7874 -2.5931  0.4988
23347SOL     OW71481   0.403   1.522   4.557  0.2498 -0.2272  0.4928
23347SOL    HW171482   0.370   1.432   4.566 -2.3240  0.5929  0.0014
23347SOL    HW271483   0.446   1.540   4.640 -0.4360 -1.4539  1.1509
23348SOL     OW71484   0.779   1.356   4.852  0.0561 -0.4167  0.6204
23348SOL    HW171485   0.737   1.282   4.807 -0.3310  0.1753 -0.0055
23348SOL    HW271486   0.706   1.410   4.881  0.3407 -0.2883  1.0918
23349SOL     OW71487   0.783   0.629   4.170  0.4780  0.7015 -0.1674
23349SOL    HW171488   0.809   0.688   4.099  0.8061 -0.0903 -0.7236
23349SOL    HW271489   0.865   0.589   4.199  0.7897  3.0137  2.5707
23350SOL     OW71490   7.096   2.175   2.036  0.2838 -0.1928  0.4587
23350SOL    HW171491   7.089   2.213   2.124  1.1815  1.1264 -0.0075
23350SOL    HW271492   7.018   2.206   1.990  0.6177  0.4453  0.3176
23351SOL     OW71493   7.768   0.199   5.262  0.4568 -0.6006 -0.1267
23351SOL    HW171494   7.766   0.105   5.280  0.2976 -0.6596 -0.4551
23351SOL    HW271495   7.704   0.236   5.322  0.4725 -0.7091 -0.0423
23352SOL     OW71496   7.372   1.894   5.227 -0.1082  0.4668  0.0705
23352SOL    HW171497   7.367   1.989   5.222  1.7387  0.6201  0.4706
23352SOL    HW271498   7.462   1.876   5.254 -0.5557 -1.3823  0.4709
23353SOL     OW71499   1.682   0.074   5.309 -0.2473 -0.6091  0.1003
23353SOL    HW171500   1.667  -0.016   5.283 -2.1830 -0.0166 -0.9801
23353SOL    HW271501   1.686   0.123   5.227  2.2517  0.1375  0.5821
23354SOL     OW71502   1.286   0.304   4.615 -0.1954  0.0470  0.5638
23354SOL    HW171503   1.340   0.225   4.606 -1.5175 -0.7420 -0.9646
23354SOL    HW271504   1.344   0.369   4.655  1.2011 -1.4092  0.9924
23355SOL     OW71505   0.021   1.770   5.194 -0.0005 -0.3898 -0.0515
23355SOL    HW171506  -0.071   1.742   5.185  0.5306 -2.1705 -0.3271
23355SOL    HW271507   0.015   1.864   5.214 -1.8501 -0.2501 -0.9698
23356SOL     OW71508   0.895   0.060   5.493  0.5282 -0.4169  0.4012
23356SOL    HW171509   0.831   0.041   5.424 -0.5431  0.9418  0.9644
23356SOL    HW271510   0.870   0.002   5.564  0.0355 -0.0425  0.5409
23357SOL     OW71511   1.105   0.557   5.493 -0.3480  0.6752 -0.3106
23357SOL    HW171512   1.047   0.484   5.474 -1.0681  0.9894  0.6042
23357SOL    HW271513   1.122   0.597   5.407 -0.8802  0.1252 -0.6783
23358SOL     OW71514   0.916   0.894   4.699  0.0168  0.6936 -0.6929
23358SOL    HW171515   0.998   0.873   4.655 -0.0136 -0.1487 -0.3740
23358SOL    HW271516   0.854   0.910   4.628  0.5115  1.6158 -0.9354
23359SOL     OW71517   0.890   1.942   3.098  0.3236 -0.0704  0.1560
23359SOL    HW171518   0.968   1.982   3.060 -0.8878  0.8987 -1.3979
23359SOL    HW271519   0.865   2.000   3.170  0.6182 -0.0109  0.2113
23360SOL     OW71520   0.567   7.609   6.716  0.4023  0.1958 -0.3662
23360SOL    HW171521   0.627   7.684   6.719 -0.7048  1.1477 -1.2775
23360SOL    HW271522   0.480   7.647   6.718 -0.1942 -1.0931 -0.5765
23361SOL     OW71523   7.718   0.518   4.837 -0.1886  0.1340 -0.3664
23361SOL    HW171524   7.727   0.611   4.858  2.0481 -0.0197 -0.4157
23361SOL    HW271525   7.757   0.473   4.912  0.6612 -0.6602 -1.2585
23362SOL     OW71526   7.050   2.344   5.933  0.0358  0.1271  0.4018
23362SOL    HW171527   7.019   2.322   5.844  0.8361 -0.0286  0.1517
23362SOL    HW271528   6.974   2.384   5.975 -0.8803 -1.3233  0.2058
23363SOL     OW71529   0.684   0.133   5.309  0.1837  0.0400  0.1186
23363SOL    HW171530   0.677   0.224   5.339  0.4509  0.2125 -0.3175
23363SOL    HW271531   0.601   0.117   5.264  0.9003  0.7526 -1.5633
23364SOL     OW71532   7.706   6.677   4.533 -0.2632 -0.1508 -0.3959
23364SOL    HW171533   7.664   6.686   4.447 -0.7679 -1.1100 -0.2594
23364SOL    HW271534   7.655   6.734   4.591 -0.0123  0.3848 -0.6961
23365SOL     OW71535   1.033   0.538   4.231  0.1048 -0.0748  0.2327
23365SOL    HW171536   1.027   0.559   4.324  0.2817  0.0167  0.2237
23365SOL    HW271537   1.091   0.462   4.227  1.2449  0.7814  0.0815
23366SOL     OW71538   0.543   1.749   4.990 -0.2546 -0.5176 -0.0714
23366SOL    HW171539   0.479   1.808   5.029  0.9290  0.4367  0.5372
23366SOL    HW271540   0.557   1.681   5.056 -1.6299 -1.5427 -0.7788
23367SOL     OW71541   6.289   7.960   3.899 -0.2499 -0.0307 -0.0669
23367SOL    HW171542   6.328   7.878   3.869  0.1179 -0.1989  0.8346
23367SOL    HW271543   6.230   7.935   3.969 -1.2492  0.3362 -0.7486
23368SOL     OW71544   0.524   1.512   4.844  0.1395 -0.2972 -0.7574
23368SOL    HW171545   0.565   1.598   4.835 -0.9921  0.2667 -0.6007
23368SOL    HW271546   0.476   1.516   4.927  0.8535 -1.4161 -0.2600
23369SOL     OW71547   7.839   2.024   4.504 -0.1442 -0.3042 -0.4127
23369SOL    HW171548   7.769   2.056   4.447  0.7885  1.2822 -0.7365
23369SOL    HW271549   7.918   2.066   4.471  0.6630 -0.5497  1.1177
23370SOL     OW71550   0.961   1.900   4.000  0.9067  0.3844 -1.1391
23370SOL    HW171551   0.912   1.822   3.976  1.4094 -0.4219  0.3674
23370SOL    HW271552   0.937   1.964   3.933 -1.1811 -0.3704 -1.1864
23371SOL     OW71553   7.835   0.687   5.284 -0.5384  0.5579 -0.2088
23371SOL    HW171554   7.811   0.633   5.209 -0.0097 -0.6353  0.4416
23371SOL    HW271555   7.790   0.646   5.358  0.3151  0.6678  0.3836
23372SOL     OW71556   0.136   1.766   3.752  0.2296 -0.1957  0.1201
23372SOL    HW171557   0.111   1.690   3.805 -0.7787 -0.9690 -1.3673
23372SOL    HW271558   0.104   1.841   3.801  1.0618 -0.7360  1.5282
23373SOL     OW71559   0.423   1.211   5.350 -0.4314  0.3065 -0.6496
23373SOL    HW171560   0.495   1.249   5.300 -0.2633  1.7736  0.6078
23373SOL    HW271561   0.439   1.240   5.440 -1.8865 -0.4195 -0.1183
23374SOL     OW71562   0.912   0.372   5.563 -0.2610 -0.2240 -0.3461
23374SOL    HW171563   0.819   0.393   5.555 -0.9251 -1.3979  2.6958
23374SOL    HW271564   0.923   0.292   5.511 -0.7147  0.4130 -1.4524
23375SOL     OW71565   1.356   2.623   3.682 -0.2118  0.3232 -0.1562
23375SOL    HW171566   1.438   2.590   3.646 -0.6465  0.6807 -1.5668
23375SOL    HW271567   1.380   2.664   3.765  0.6724 -1.5008  0.5275
23376SOL     OW71568   6.196   2.649   5.020 -0.5249 -0.0505 -0.2189
23376SOL    HW171569   6.291   2.660   5.030 -0.8308  2.5505  0.6941
23376SOL    HW271570   6.185   2.614   4.932  1.2729 -0.4558 -0.3273
23377SOL     OW71571   7.949   1.283   5.370 -0.0509 -0.2276  0.9180
23377SOL    HW171572   8.001   1.203   5.370  1.8281  0.9421  0.3027
23377SOL    HW271573   8.012   1.354   5.358 -1.8065  1.2628 -0.1276
23378SOL     OW71574   0.874   1.331   4.154 -0.2334  0.1079 -0.1656
23378SOL    HW171575   0.918   1.306   4.073  0.8418  1.1291  0.0761
23378SOL    HW271576   0.943   1.336   4.219 -1.2234 -1.7552  1.1309
23379SOL     OW71577   7.590   1.820   4.058 -0.3636 -0.4680  0.3023
23379SOL    HW171578   7.500   1.851   4.061 -0.2575 -0.2052  0.9885
23379SOL    HW271579   7.598   1.762   4.134 -1.1886 -4.0011 -2.0738
23380SOL     OW71580   7.017   0.725   4.198  0.4864 -0.1624  0.1630
23380SOL    HW171581   6.927   0.725   4.231 -0.0354 -0.0829 -1.1996
23380SOL    HW271582   7.030   0.635   4.166  1.0203 -0.2725  0.6791
23381SOL     OW71583   6.653   1.802   3.904  0.5357 -0.5016 -0.4390
23381SOL    HW171584   6.557   1.794   3.898  0.0760  3.1855  0.0417
23381SOL    HW271585   6.682   1.810   3.813  0.4022 -1.3229 -0.5663
23382SOL     OW71586   0.241   1.133   2.946 -0.4615 -0.7945  0.1930
23382SOL    HW171587   0.250   1.195   2.874  0.2768 -1.9584 -0.7513
23382SOL    HW271588   0.264   1.183   3.024 -2.4018  0.8133 -0.1729
23383SOL     OW71589   7.739   7.291   6.094  0.2600  0.2272 -1.1494
23383SOL    HW171590   7.748   7.315   6.186 -1.0942  0.8875 -1.1714
23383SOL    HW271591   7.666   7.229   6.091  0.4632  0.0037 -1.7456
23384SOL     OW71592   1.861   0.849   6.246  0.0055 -0.8530  0.0967
23384SOL    HW171593   1.880   0.943   6.256 -0.2378 -0.7650 -0.2338
23384SOL    HW271594   1.879   0.831   6.154 -2.0258 -0.6284 -0.3946
23385SOL     OW71595   7.017   1.033   4.490  0.0048  0.2541  0.0200
23385SOL    HW171596   7.081   1.016   4.422  1.9495 -1.9779  2.1875
23385SOL    HW271597   6.935   1.049   4.443  1.5567  0.5360 -2.8047
23386SOL     OW71598   0.171   1.437   4.917  0.2423  0.1121  0.1082
23386SOL    HW171599   0.088   1.397   4.889  1.8875 -1.6729 -2.7210
23386SOL    HW271600   0.148   1.527   4.937 -2.3117 -0.1625 -1.1483
23387SOL     OW71601   6.631   2.257   5.717  0.1809 -0.3207 -0.1151
23387SOL    HW171602   6.644   2.351   5.712  2.0339 -0.5132  0.0363
23387SOL    HW271603   6.631   2.237   5.811 -1.5300 -0.3389 -0.1050
23388SOL     OW71604   0.897   0.425   5.176  0.1020 -0.7455 -0.2909
23388SOL    HW171605   0.813   0.422   5.222  0.9034  0.0086  1.2751
23388SOL    HW271606   0.908   0.337   5.140 -0.0372 -1.7534  1.9523
23389SOL     OW71607   6.789   2.670   6.209  0.7801 -0.0485 -0.2276
23389SOL    HW171608   6.798   2.687   6.303  0.9754  0.2760 -0.3044
23389SOL    HW271609   6.794   2.757   6.168 -1.0407  0.0068 -0.4056
23390SOL     OW71610   6.825   0.818   4.696  0.4765 -0.1236 -0.1650
23390SOL    HW171611   6.914   0.849   4.713  0.1999  1.3513 -1.1829
23390SOL    HW271612   6.773   0.899   4.686 -0.8058 -0.9464 -0.4358
23391SOL     OW71613   0.912   1.250   5.641 -0.4771  0.4082  0.5873
23391SOL    HW171614   0.993   1.232   5.688  1.3185  0.5806 -2.1995
23391SOL    HW271615   0.893   1.342   5.659  1.7159  1.2790 -1.0139
23392SOL     OW71616   7.340   2.594   4.857  0.0785 -0.1663  0.1822
23392SOL    HW171617   7.261   2.554   4.823 -1.0206  0.6889  1.6145
23392SOL    HW271618   7.370   2.535   4.926  0.0036  0.1146  0.4569
23393SOL     OW71619   1.033   0.843   2.400 -0.3455 -0.3884  0.4422
23393SOL    HW171620   1.094   0.822   2.471 -0.5018 -0.4937  0.5443
23393SOL    HW271621   1.018   0.937   2.408 -1.3248 -0.6044  1.3109
23394SOL     OW71622   0.722   0.662   3.775  0.2135 -0.5574  0.7155
23394SOL    HW171623   0.749   0.586   3.828  0.9278  0.0987  1.3191
23394SOL    HW271624   0.801   0.689   3.730  0.1447  0.2779  1.0760
23395SOL     OW71625   0.240   1.423   4.221 -0.4017  0.9674 -0.1726
23395SOL    HW171626   0.280   1.369   4.153  0.7855  2.3123 -0.6058
23395SOL    HW271627   0.165   1.372   4.252 -0.7612  0.1588 -2.2322
23396SOL     OW71628   7.753   3.058   5.153 -0.2347 -0.4149  0.1555
23396SOL    HW171629   7.742   2.979   5.206  0.8212 -0.8864 -0.3021
23396SOL    HW271630   7.691   3.047   5.080 -0.9315 -0.2569  0.7103
23397SOL     OW71631   7.525   1.557   6.128  0.0397 -0.3089  0.0225
23397SOL    HW171632   7.560   1.555   6.217 -0.9793 -0.0222  0.4419
23397SOL    HW271633   7.530   1.466   6.098  0.0175 -0.4800  0.5268
23398SOL     OW71634   0.133   1.354   3.291  0.1602  0.2077  0.3136
23398SOL    HW171635   0.092   1.354   3.205  1.2292 -0.0653 -0.2183
23398SOL    HW271636   0.061   1.370   3.352 -0.4545  1.5495 -0.7017
23399SOL     OW71637   6.534   2.318   4.362 -0.3594 -0.3211 -0.6779
23399SOL    HW171638   6.482   2.318   4.282  0.5819  0.0417 -1.3084
23399SOL    HW271639   6.562   2.409   4.372  1.1124 -0.7047 -1.0140
23400SOL     OW71640   1.755   1.314   3.676  0.1218 -0.2784  0.1931
23400SOL    HW171641   1.805   1.254   3.621 -0.2682 -0.0249 -0.4481
23400SOL    HW271642   1.701   1.257   3.731 -1.3633 -0.5369 -1.4448
23401SOL     OW71643   1.086   0.317   4.432  0.7039  0.7094  0.2795
23401SOL    HW171644   1.009   0.345   4.481 -0.2348 -0.7643 -0.2886
23401SOL    HW271645   1.157   0.318   4.497  0.1744  1.7974  0.8809
23402SOL     OW71646   0.061   0.711   5.847  0.2751 -0.1385 -0.3163
23402SOL    HW171647   0.078   0.701   5.753 -1.9869  0.3381 -0.8223
23402SOL    HW271648   0.020   0.628   5.873  0.1448  0.0501  0.0844
23403SOL     OW71649   0.100   0.549   6.607  0.2627  0.1196 -0.0186
23403SOL    HW171650   0.133   0.592   6.685 -1.4777  0.4179  0.5724
23403SOL    HW271651   0.105   0.616   6.538 -0.4651  0.6167  0.4063
23404SOL     OW71652   7.475   0.815   5.088  0.6074 -0.2490 -0.3242
23404SOL    HW171653   7.485   0.720   5.100  0.8853 -0.1770  0.0035
23404SOL    HW271654   7.532   0.836   5.015 -1.1176 -0.6946 -1.8874
23405SOL     OW71655   7.429   1.353   6.511 -0.2976  0.6625 -0.0031
23405SOL    HW171656   7.497   1.294   6.480 -0.1991  0.7518  0.0441
23405SOL    HW271657   7.457   1.377   6.600 -0.6899  0.2340  0.2406
23406SOL     OW71658   0.884   1.186   6.210  0.0214  0.6698  0.2228
23406SOL    HW171659   0.836   1.255   6.163  1.7067  0.4471 -1.9850
23406SOL    HW271660   0.965   1.228   6.238  0.4635 -0.0691  0.0635
23407SOL     OW71661   7.315   2.172   7.242  0.1154  0.0785 -0.2830
23407SOL    HW171662   7.233   2.220   7.237 -1.3000 -2.2796 -1.9447
23407SOL    HW271663   7.377   2.222   7.188  0.0862  2.2559  1.5585
23408SOL     OW71664   5.533   2.162   6.715 -0.1228 -0.2485 -0.0648
23408SOL    HW171665   5.468   2.195   6.653  0.9672  0.3729 -0.9113
23408SOL    HW271666   5.590   2.237   6.732 -0.9731 -0.0745  2.5261
23409SOL     OW71667   7.515   0.886   5.768  0.1192  0.1921  0.2570
23409SOL    HW171668   7.454   0.887   5.694 -1.0794 -0.1183  1.2146
23409SOL    HW271669   7.601   0.899   5.728 -0.3976 -0.8825 -1.2900
23410SOL     OW71670   7.133   0.228   6.495 -0.0959  0.2451 -0.0957
23410SOL    HW171671   7.089   0.144   6.483  0.1940 -0.0161  0.6257
23410SOL    HW271672   7.084   0.288   6.438 -2.2393  0.2619  1.6057
23411SOL     OW71673   6.829   1.796   5.612  0.6223  0.1441  0.0558
23411SOL    HW171674   6.786   1.821   5.694  1.1027  0.5870  0.1801
23411SOL    HW271675   6.920   1.826   5.623  1.1799 -1.4688  0.1100
23412SOL     OW71676   0.142   1.936   6.334 -0.1801 -0.1640 -0.0795
23412SOL    HW171677   0.159   1.848   6.300 -1.0796 -0.5417  0.4198
23412SOL    HW271678   0.128   1.924   6.428  1.9729  0.8378  0.4151
23413SOL     OW71679   6.629   0.924   7.031  0.5177  0.8814  0.2949
23413SOL    HW171680   6.715   0.966   7.033 -0.1098  2.3172 -0.9069
23413SOL    HW271681   6.573   0.986   6.984 -0.8344 -0.6610 -0.2278
23414SOL     OW71682   0.510   0.418   7.425  0.1104 -0.0713 -0.0240
23414SOL    HW171683   0.511   0.325   7.402  0.0226 -0.2240  0.5773
23414SOL    HW271684   0.425   0.449   7.395  0.8800  0.2900 -2.0066
23415SOL     OW71685   1.042   0.308   6.066  0.7905 -0.4447  0.3739
23415SOL    HW171686   0.999   0.281   5.985  0.8105  0.2951  0.1104
23415SOL    HW271687   1.091   0.387   6.042 -1.1432  1.2445  1.6179
23416SOL     OW71688   7.376   2.060   4.726 -0.2425  0.0212  0.4427
23416SOL    HW171689   7.373   2.106   4.810 -0.6428  0.3502  0.2523
23416SOL    HW271690   7.444   1.994   4.737 -0.2873  0.0664  1.0257
23417SOL     OW71691   7.072   1.780   6.818 -0.0660  0.6095  0.9608
23417SOL    HW171692   7.082   1.865   6.862 -1.4182  0.0302  2.4702
23417SOL    HW271693   7.026   1.725   6.881 -1.0442 -0.6444 -0.7611
23418SOL     OW71694   7.668   0.040   6.189  0.7619 -0.1817  0.1422
23418SOL    HW171695   7.687   0.091   6.268 -1.6601  2.7848 -0.9883
23418SOL    HW271696   7.603  -0.024   6.217 -1.9082  2.3786  0.3121
23419SOL     OW71697   7.035   1.182   4.877  0.3075  0.3461  0.4823
23419SOL    HW171698   7.113   1.238   4.875  0.4143  0.2041  0.6476
23419SOL    HW271699   6.977   1.219   4.811  1.1901 -0.5138 -0.8462
23420SOL     OW71700   0.828   2.023   3.781 -0.4589 -0.7413 -0.5775
23420SOL    HW171701   0.771   2.073   3.840 -0.4618  0.4760 -1.5815
23420SOL    HW271702   0.781   1.942   3.765 -0.4452 -1.1221  1.1055
23421SOL     OW71703   7.682   3.256   6.461 -0.2879  0.0934 -0.1647
23421SOL    HW171704   7.605   3.258   6.518 -0.2533  1.2138 -0.1495
23421SOL    HW271705   7.732   3.180   6.492 -1.4046 -0.6930 -0.2130
23422SOL     OW71706   6.880   0.845   6.631 -0.5017 -0.2587  0.6280
23422SOL    HW171707   6.954   0.811   6.682  0.1066 -0.4115 -0.3356
23422SOL    HW271708   6.847   0.917   6.684  3.1789  2.8819 -0.9021
23423SOL     OW71709   7.578   0.934   6.492  1.0749 -0.3711  0.2295
23423SOL    HW171710   7.569   0.945   6.587  1.2225  1.7296  0.0581
23423SOL    HW271711   7.489   0.915   6.461  0.6991  0.6730  0.6226
23424SOL     OW71712   0.526   0.863   5.726  0.4219 -0.6203  0.0107
23424SOL    HW171713   0.433   0.885   5.724  0.0142 -2.1965 -1.9083
23424SOL    HW271714   0.530   0.776   5.766  0.3796 -2.7273 -3.9927
23425SOL     OW71715   0.898   7.160   5.774 -0.4457  0.1635  0.2113
23425SOL    HW171716   0.809   7.141   5.744 -1.1808  3.5215 -0.1146
23425SOL    HW271717   0.904   7.117   5.859 -2.7103  0.5218  0.6180
23426SOL     OW71718   0.543   7.657   5.130  0.2458 -0.0139  0.2667
23426SOL    HW171719   0.497   7.573   5.120 -0.0428 -0.1276  2.2190
23426SOL    HW271720   0.501   7.714   5.066 -1.9194 -0.4196  1.2448
23427SOL     OW71721   0.231   1.715   6.147  0.7854  0.4128 -0.4414
23427SOL    HW171722   0.199   1.779   6.084  0.2797  2.5784  1.8697
23427SOL    HW271723   0.158   1.655   6.160  0.5936  0.4705 -1.2192
23428SOL     OW71724   0.746   1.996   6.633 -0.0065 -0.3258 -0.1113
23428SOL    HW171725   0.650   1.994   6.635 -0.0171 -0.2736 -0.5235
23428SOL    HW271726   0.772   1.906   6.649 -0.1573 -0.6376 -1.5247
23429SOL     OW71727   7.716   1.065   5.867 -0.4611 -0.1514  0.3230
23429SOL    HW171728   7.790   1.114   5.902  0.0311  0.2268 -1.1480
23429SOL    HW271729   7.757   1.002   5.807 -1.2990 -0.3287 -0.0701
23430SOL     OW71730   6.864   1.294   5.217  0.0316 -0.2326 -0.1325
23430SOL    HW171731   6.860   1.279   5.311 -1.6724 -0.2079 -0.1755
23430SOL    HW271732   6.901   1.382   5.208  0.9497 -0.5430  0.4598
23431SOL     OW71733   7.137   1.299   5.392  0.6151  0.5045  0.0696
23431SOL    HW171734   7.211   1.326   5.446  0.0064  0.2122  1.0811
23431SOL    HW271735   7.066   1.282   5.455  0.1292 -0.6488 -0.7535
23432SOL     OW71736   0.055   1.933   5.972 -0.2513 -0.1615 -0.6305
23432SOL    HW171737  -0.025   1.959   5.926  0.7614  2.5913 -1.0068
23432SOL    HW271738   0.105   2.014   5.980  1.7878 -1.5008  1.0586
23433SOL     OW71739   7.618   2.318   5.750  0.3404 -0.2228  0.1610
23433SOL    HW171740   7.644   2.230   5.722  0.6824  0.1315 -0.6725
23433SOL    HW271741   7.565   2.351   5.678 -0.8931 -0.2225  1.0330
23434SOL     OW71742   6.761   1.946   6.111 -0.4424 -0.3700  0.1838
23434SOL    HW171743   6.844   1.993   6.119 -0.5275 -0.4207  1.5220
23434SOL    HW271744   6.787   1.853   6.108 -0.4591 -0.3997  0.8654
23435SOL     OW71745   0.859   0.669   5.981 -0.7308  0.5896 -0.1309
23435SOL    HW171746   0.882   0.645   6.071  1.4959 -0.0879 -0.7970
23435SOL    HW271747   0.813   0.593   5.947 -1.2079  0.6807  0.3029
23436SOL     OW71748   1.129   0.977   7.240 -0.3298  0.1616  0.2479
23436SOL    HW171749   1.205   0.921   7.257  0.6343  1.2389 -0.4097
23436SOL    HW271750   1.058   0.936   7.290  0.7009 -0.7942  0.9808
23437SOL     OW71751   0.045   1.258   5.730 -0.1367  0.2850 -0.6299
23437SOL    HW171752  -0.017   1.202   5.683 -0.3291 -0.2325  0.2230
23437SOL    HW271753   0.009   1.265   5.818  1.8779 -1.4925  0.4423
23438SOL     OW71754   0.949   1.832   7.689  0.3612 -0.6161  0.1106
23438SOL    HW171755   0.887   1.835   7.762  0.4561  1.8022  0.1696
23438SOL    HW271756   0.906   1.776   7.624 -1.2688 -0.1036  0.6944
23439SOL     OW71757   0.117   7.391   6.596  0.2185  0.3611 -0.2973
23439SOL    HW171758   0.077   7.316   6.552 -0.0099  0.5847 -0.4781
23439SOL    HW271759   0.160   7.439   6.525  0.2079  0.4980 -0.2101
23440SOL     OW71760   7.820   1.635   7.234  0.4381 -0.9561  0.3918
23440SOL    HW171761   7.848   1.622   7.143  2.2581  1.1317  0.5516
23440SOL    HW271762   7.779   1.721   7.234  3.4719  0.6396  2.0433
23441SOL     OW71763   0.140   1.928   4.630  0.4922 -0.1885 -0.2095
23441SOL    HW171764   0.107   1.841   4.651  0.6483 -0.5900 -1.5461
23441SOL    HW271765   0.076   1.988   4.669 -0.3845 -0.9181 -0.4938
23442SOL     OW71766   7.645   1.620   8.200  0.1271 -0.3961 -0.3237
23442SOL    HW171767   7.587   1.555   8.238  0.3412 -1.3424 -1.5738
23442SOL    HW271768   7.716   1.630   8.265 -0.3263 -0.7795  0.2418
23443SOL     OW71769   0.585   0.780   7.005 -0.0753  0.3501  0.3726
23443SOL    HW171770   0.676   0.810   7.013  0.4374 -0.8392 -0.7142
23443SOL    HW271771   0.549   0.790   7.093  1.5413 -0.5117  1.1758
23444SOL     OW71772   2.157   0.218   8.112  0.1817 -0.5425 -0.1007
23444SOL    HW171773   2.064   0.225   8.131  0.3564 -2.2878  1.8239
23444SOL    HW271774   2.171   0.125   8.090  1.8843 -1.1782  3.0121
23445SOL     OW71775   6.614   0.634   5.503  0.2440 -0.3967  0.3372
23445SOL    HW171776   6.539   0.635   5.562 -0.5307 -0.5898 -0.6047
23445SOL    HW271777   6.630   0.726   5.483 -1.6017 -0.4074 -1.6556
23446SOL     OW71778   7.310   7.416   6.345  0.6868 -0.3311  0.1703
23446SOL    HW171779   7.380   7.463   6.390  0.4703 -0.1102  0.2793
23446SOL    HW271780   7.281   7.350   6.408  1.4168 -1.0383 -0.2135
23447SOL     OW71781   7.515   0.424   4.674  0.1534 -0.0072 -0.3684
23447SOL    HW171782   7.436   0.411   4.726  0.9203 -1.1674  0.5531
23447SOL    HW271783   7.571   0.479   4.727 -0.0708  0.9371 -1.0830
23448SOL     OW71784   6.945   1.343   7.110 -0.2083 -0.0504 -0.0314
23448SOL    HW171785   6.874   1.294   7.152 -1.5042  1.0171 -0.8914
23448SOL    HW271786   6.984   1.281   7.049  0.4141 -1.0082  1.2773
23449SOL     OW71787   6.388   1.679   5.952 -0.2286 -0.6034 -0.6665
23449SOL    HW171788   6.479   1.661   5.977  0.0938  1.0364 -0.5367
23449SOL    HW271789   6.390   1.769   5.919 -1.6976 -0.7702 -1.2693
23450SOL     OW71790   7.486   2.439   8.338  0.5045  0.4569 -0.2865
23450SOL    HW171791   7.485   2.359   8.285 -1.7571 -0.1386  0.5380
23450SOL    HW271792   7.418   2.494   8.300 -2.3539 -0.6338  2.7164
23451SOL     OW71793   7.915   1.200   6.670  0.2369 -0.3575 -0.3469
23451SOL    HW171794   7.932   1.294   6.669  0.7897 -0.4171  1.0602
23451SOL    HW271795   7.971   1.166   6.740 -0.8639 -1.5585 -0.0124
23452SOL     OW71796   7.956   0.757   7.029 -0.3833  0.1644  0.2105
23452SOL    HW171797   7.957   0.766   6.934  0.5128 -0.1790  0.1773
23452SOL    HW271798   8.048   0.760   7.054 -0.5123 -1.0967  0.9212
23453SOL     OW71799   6.306   1.190   6.258  0.0587 -0.1786 -0.6465
23453SOL    HW171800   6.215   1.213   6.244  0.5195  1.8561 -0.5732
23453SOL    HW271801   6.325   1.125   6.191 -1.3012 -0.2816 -0.9599
23454SOL     OW71802   7.279   3.422   6.505 -0.5088 -0.6290 -0.1459
23454SOL    HW171803   7.245   3.379   6.427  0.8577 -0.2742 -0.9694
23454SOL    HW271804   7.338   3.490   6.471 -1.3125  0.7757  1.1477
23455SOL     OW71805   1.131   2.472   7.929  0.4063  0.3488  0.3847
23455SOL    HW171806   1.037   2.489   7.922  0.5553  0.8023 -0.9735
23455SOL    HW271807   1.138   2.387   7.973 -0.7037 -0.4160 -0.8541
23456SOL     OW71808   0.167   0.114   4.335 -0.8274 -0.2168  0.1688
23456SOL    HW171809   0.197   0.096   4.246 -1.2245  1.0029 -0.2409
23456SOL    HW271810   0.071   0.109   4.329 -0.9017  0.8969  0.2721
23457SOL     OW71811   0.635   0.802   6.145 -0.0749  0.3977 -0.2836
23457SOL    HW171812   0.616   0.739   6.076  1.9854 -0.4791 -0.1219
23457SOL    HW271813   0.692   0.867   6.104 -0.8279  1.2590 -0.0092
23458SOL     OW71814   7.316   1.878   6.015  0.3792  0.7650 -0.2359
23458SOL    HW171815   7.276   1.930   5.945  0.3223  0.9783 -0.0485
23458SOL    HW271816   7.331   1.941   6.086  1.5260  0.7926 -0.4969
23459SOL     OW71817   0.764   1.471   7.948  0.1234 -0.6580 -0.2376
23459SOL    HW171818   0.783   1.408   8.017 -1.8855  0.4156  1.4057
23459SOL    HW271819   0.825   1.543   7.964  1.4918 -1.5553 -1.2811
23460SOL     OW71820   0.422   1.964   5.353 -0.5693  0.3526  0.1763
23460SOL    HW171821   0.510   1.994   5.374  0.0846 -0.4340 -1.3344
23460SOL    HW271822   0.409   1.886   5.407  0.1637 -0.2635 -0.5238
23461SOL     OW71823   6.756   2.927   7.626  0.1971  0.0437  0.2289
23461SOL    HW171824   6.846   2.931   7.657  0.1999 -0.0840  0.2357
23461SOL    HW271825   6.756   2.860   7.558 -0.0622 -0.5408  0.7919
23462SOL     OW71826   7.410   3.273   7.406 -0.3038  0.4707  0.2858
23462SOL    HW171827   7.392   3.183   7.382  0.4882  0.9182 -2.2136
23462SOL    HW271828   7.463   3.266   7.486  1.2761 -1.3855 -0.8381
23463SOL     OW71829   0.070   0.444   5.861 -0.3666 -0.1786  0.6056
23463SOL    HW171830  -0.016   0.421   5.825  0.2235  0.3266 -1.2450
23463SOL    HW271831   0.131   0.383   5.819  0.1713 -0.7757  2.1773
23464SOL     OW71832   0.481   1.773   6.336  0.7595  0.2776 -0.0028
23464SOL    HW171833   0.544   1.701   6.336  0.9465  0.4394 -0.3046
23464SOL    HW271834   0.406   1.739   6.287  1.3516  0.7150 -1.2535
23465SOL     OW71835   7.846   0.740   7.908  0.3571 -0.2493  0.3565
23465SOL    HW171836   7.903   0.811   7.938  0.7052 -0.1643 -0.4672
23465SOL    HW271837   7.896   0.660   7.924  1.1375 -0.1210 -1.2029
23466SOL     OW71838   7.243   7.178   9.613 -0.0197  0.0125  0.4364
23466SOL    HW171839   7.295   7.127   9.551 -0.3498 -1.9138  1.6558
23466SOL    HW271840   7.166   7.124   9.630 -0.6102  1.1238  1.4875
23467SOL     OW71841   7.612   0.534   8.793  0.0477  0.3409  0.0870
23467SOL    HW171842   7.548   0.486   8.845  1.7515 -1.1574  0.9050
23467SOL    HW271843   7.641   0.472   8.726  3.1199 -0.3631  1.8500
23468SOL     OW71844   0.711   7.226   9.724 -0.6577 -0.5033 -0.4200
23468SOL    HW171845   0.629   7.205   9.679 -0.5975 -0.1166 -0.7143
23468SOL    HW271846   0.682   7.267   9.805 -0.7988  2.6151 -1.9138
23469SOL     OW71847   7.875   3.162   8.427  0.5823 -0.1488 -0.1099
23469SOL    HW171848   7.795   3.170   8.375  1.4576  0.2155 -1.4790
23469SOL    HW271849   7.852   3.199   8.512 -0.2492  1.5825 -1.0145
23470SOL     OW71850   7.880   7.516   8.155  0.2648  0.1667  0.4934
23470SOL    HW171851   7.850   7.470   8.077  2.6427 -2.2103  0.8035
23470SOL    HW271852   7.868   7.453   8.226  1.8965  0.6735  1.2815
23471SOL     OW71853   7.760   0.513   7.615 -0.4951 -0.4971 -0.0003
23471SOL    HW171854   7.670   0.482   7.612 -0.3834 -0.9027  0.6984
23471SOL    HW271855   7.813   0.437   7.591 -0.2036 -0.9748  1.9725
23472SOL     OW71856   0.273   2.582   6.895 -0.2414  0.6557 -0.2526
23472SOL    HW171857   0.271   2.576   6.990 -0.9990 -1.4023 -0.3404
23472SOL    HW271858   0.238   2.669   6.875 -1.7474  0.4589  1.3113
23473SOL     OW71859   7.045   3.436   8.344 -0.1465 -0.1352  0.1533
23473SOL    HW171860   7.077   3.469   8.428  3.7919  0.4211 -1.3074
23473SOL    HW271861   6.988   3.506   8.311  0.9453  1.2063  0.9681
23474SOL     OW71862   7.931   2.686   9.033  0.0209 -0.4629 -0.1489
23474SOL    HW171863   7.986   2.659   9.106  0.1206 -2.0980 -0.7996
23474SOL    HW271864   7.965   2.639   8.957 -0.5228  0.6614 -1.1324
23475SOL     OW71865   0.411   7.927   8.907 -0.5116  0.0969  0.3229
23475SOL    HW171866   0.411   7.846   8.956 -0.3715 -0.2756 -0.2759
23475SOL    HW271867   0.500   7.961   8.916 -0.0527 -0.7166 -0.8463
23476SOL     OW71868   0.443   0.316  10.151 -0.3678 -0.2882 -0.2711
23476SOL    HW171869   0.401   0.280  10.229  1.3264 -0.5270  0.5747
23476SOL    HW271870   0.455   0.240  10.094 -0.1420 -0.3985 -0.0758
23477SOL     OW71871   7.011   1.559   8.008 -1.0372 -0.5150 -0.5907
23477SOL    HW171872   6.988   1.569   8.100 -0.3811 -1.1684 -0.3462
23477SOL    HW271873   6.943   1.607   7.961 -2.2026 -1.3524  0.1608
23478SOL     OW71874   7.720   0.677  10.555  0.4525  0.2173 -0.0650
23478SOL    HW171875   7.741   0.768  10.571  0.7802 -0.2760  2.8023
23478SOL    HW271876   7.720   0.668  10.459  0.0660  3.2485 -0.4280
23479SOL     OW71877   7.934   7.252   9.909 -0.1364 -0.4176  0.2937
23479SOL    HW171878   7.864   7.191   9.885 -0.2640 -1.0752  2.1854
23479SOL    HW271879   7.892   7.316   9.967 -0.2410  2.1868 -2.4435
23480SOL     OW71880   7.726   2.615   8.108 -0.3901 -0.1530  0.9180
23480SOL    HW171881   7.642   2.592   8.068 -0.4106 -0.8791  1.3508
23480SOL    HW271882   7.759   2.532   8.143  0.1949  0.2472  1.3336
23481SOL     OW71883   1.019   1.227   7.273 -0.1424 -0.2537 -0.5631
23481SOL    HW171884   1.104   1.248   7.312  0.0950  0.5026 -1.4496
23481SOL    HW271885   1.028   1.137   7.244  1.1188  0.4303 -2.5048
23482SOL     OW71886   6.712   0.753   8.848  0.0558 -0.5838 -0.0005
23482SOL    HW171887   6.671   0.712   8.924  0.7802 -2.2414 -0.4714
23482SOL    HW271888   6.667   0.715   8.773  0.6485 -0.4033 -0.4546
23483SOL     OW71889   7.885   1.422   8.874  0.5494 -0.1966 -0.2688
23483SOL    HW171890   7.894   1.474   8.954 -2.4786 -1.0412  0.7456
23483SOL    HW271891   7.927   1.338   8.895  0.9408  0.0445 -0.0733
23484SOL     OW71892   7.675   2.096   8.043 -0.5440  0.0403 -0.0300
23484SOL    HW171893   7.632   2.011   8.042 -1.3198  0.4186 -0.9048
23484SOL    HW271894   7.710   2.107   7.955 -0.3576  0.5733  0.1020
23485SOL     OW71895   0.571   6.820   8.571 -0.2104  0.2829 -0.2378
23485SOL    HW171896   0.647   6.811   8.514 -1.1804  0.5330 -1.6074
23485SOL    HW271897   0.536   6.731   8.579  0.3354  0.1261  0.5933
23486SOL     OW71898   0.436   6.168   6.305 -0.3339  0.2748  0.6185
23486SOL    HW171899   0.454   6.105   6.375  0.8953  1.0751  1.0723
23486SOL    HW271900   0.469   6.251   6.339 -1.9166  1.1850  0.0347
23487SOL     OW71901   6.904   1.612   6.945  0.7152  0.0027  0.7710
23487SOL    HW171902   6.816   1.638   6.972  0.4462 -1.3662  1.3001
23487SOL    HW271903   6.933   1.551   7.013  0.4770 -2.6940 -1.3860
23488SOL     OW71904   0.272   2.252   7.427  0.1240  0.0333  0.6906
23488SOL    HW171905   0.363   2.281   7.418 -0.3359  1.0578 -1.3430
23488SOL    HW271906   0.277   2.157   7.436  1.3657 -0.4008 -2.7811
23489SOL     OW71907   0.485   0.616   6.797  0.5213  0.4396 -0.1745
23489SOL    HW171908   0.390   0.615   6.806  0.5786  0.0129  0.3963
23489SOL    HW271909   0.518   0.650   6.880  0.8652  0.6150 -0.3788
23490SOL     OW71910   7.047   1.788   8.544  0.1812 -0.0993  0.1932
23490SOL    HW171911   6.985   1.804   8.615  0.9599  1.6194  0.5283
23490SOL    HW271912   7.133   1.787   8.586  0.5670 -0.2140 -0.5721
23491SOL     OW71913   6.882   0.569   8.024 -0.1005 -0.1073  0.1109
23491SOL    HW171914   6.888   0.482   7.984 -1.5557 -1.4629  2.6319
23491SOL    HW271915   6.973   0.596   8.035  0.4248 -1.9303  0.5135
23492SOL     OW71916   6.725   1.396   8.013  0.3645 -0.0580  0.1319
23492SOL    HW171917   6.684   1.310   8.003  1.7692 -0.9196  1.3312
23492SOL    HW271918   6.819   1.378   8.018  0.8947  1.7623 -1.6787
23493SOL     OW71919   7.295   1.671   9.716  0.5171 -0.2941  0.1068
23493SOL    HW171920   7.260   1.718   9.792 -0.2534  1.4353 -1.2381
23493SOL    HW271921   7.224   1.674   9.652  1.6913 -0.3271 -1.2414
23494SOL     OW71922   7.054   0.888   8.646  0.0285 -0.0381  0.1056
23494SOL    HW171923   7.064   0.951   8.576  0.9441 -1.8553 -1.4985
23494SOL    HW271924   6.980   0.920   8.698 -1.0419  1.0893 -2.0035
23495SOL     OW71925   7.326   7.705   9.308 -0.7049  0.0638 -0.1741
23495SOL    HW171926   7.322   7.745   9.222  0.3333  1.7928  0.5291
23495SOL    HW271927   7.268   7.759   9.362  2.8277  2.6583  1.4692
23496SOL     OW71928   7.871   1.744   8.896  0.4863  0.4421 -0.1349
23496SOL    HW171929   7.897   1.702   8.977  1.4450  1.6746  0.2133
23496SOL    HW271930   7.910   1.831   8.899  1.0446  0.3304 -2.1677
23497SOL     OW71931   7.474   7.808   8.321  0.0532  0.1957  0.3546
23497SOL    HW171932   7.462   7.868   8.248  0.4350  0.9115  0.8685
23497SOL    HW271933   7.567   7.786   8.319 -0.2345 -1.0850 -0.3528
23498SOL     OW71934   6.865   0.969   8.844  0.2040 -0.2545  0.0784
23498SOL    HW171935   6.867   1.000   8.935  0.0049  0.0790 -0.0276
23498SOL    HW271936   6.826   0.882   8.849 -1.0605  0.2869  0.1832
23499SOL     OW71937   7.146   0.939   8.178  0.0317 -0.3417  0.0963
23499SOL    HW171938   7.101   0.859   8.151  0.5649 -0.0157 -1.8691
23499SOL    HW271939   7.212   0.954   8.111 -1.4905  2.9742 -0.8982
23500SOL     OW71940   7.113   1.658   9.498 -0.5181 -0.0098  0.3400
23500SOL    HW171941   7.073   1.745   9.495  0.6456  0.5105 -1.1557
23500SOL    HW271942   7.140   1.641   9.408 -0.9524 -2.0481  0.5496
23501SOL     OW71943   7.320   0.207   7.248 -0.8667  0.3513  0.8188
23501SOL    HW171944   7.288   0.117   7.256 -0.3815  0.1776  0.8437
23501SOL    HW271945   7.410   0.204   7.282 -1.0824  0.9904  1.4619
23502SOL     OW71946   0.513   1.768   6.805  0.1366  0.4961  0.4795
23502SOL    HW171947   0.584   1.747   6.744 -0.2520 -0.2731  0.2840
23502SOL    HW271948   0.480   1.853   6.775 -0.3256 -0.0637 -0.6534
23503SOL     OW71949   0.297   1.335   7.254  0.4979  0.4594  0.0216
23503SOL    HW171950   0.202   1.336   7.268  0.8234 -0.3757  3.0323
23503SOL    HW271951   0.317   1.242   7.241  0.9135  0.6334 -0.5843
23504SOL     OW71952   7.162   2.877   8.638 -0.1068 -0.0121  0.4768
23504SOL    HW171953   7.150   2.968   8.611 -0.6340 -0.0787  0.4705
23504SOL    HW271954   7.115   2.826   8.572  1.1759 -0.3680 -0.1879
23505SOL     OW71955   0.043   7.241   7.874 -0.3902  0.0413  0.0088
23505SOL    HW171956   0.134   7.258   7.897  0.0153  1.0156 -2.1277
23505SOL    HW271957   0.043   7.151   7.841 -0.9599 -1.3344  3.3552
23506SOL     OW71958   7.631   1.206   8.122 -0.1988  0.3548 -0.2638
23506SOL    HW171959   7.569   1.239   8.057  0.6717  0.1960 -1.2065
23506SOL    HW271960   7.626   1.111   8.114  0.7594  0.3477 -0.9522
23507SOL     OW71961   7.437   3.016   9.480  0.0489 -0.2629 -0.0048
23507SOL    HW171962   7.424   3.107   9.507 -1.5012 -0.7322  0.9322
23507SOL    HW271963   7.508   3.020   9.416  0.5823  1.4971  0.6401
23508SOL     OW71964   1.232   7.711   7.330 -0.3082 -0.6288 -0.9530
23508SOL    HW171965   1.211   7.618   7.330 -1.3122 -0.4215 -0.2305
23508SOL    HW271966   1.194   7.744   7.412  0.4934  0.3140 -0.9492
23509SOL     OW71967   0.166   7.908   9.225 -0.3752 -0.1267 -0.0144
23509SOL    HW171968   0.137   7.861   9.147 -0.7648 -0.1303  0.1315
23509SOL    HW271969   0.191   7.994   9.193 -0.3451 -0.1945 -0.1741
23510SOL     OW71970   0.374   1.121   7.539 -0.7798 -0.1993 -0.1791
23510SOL    HW171971   0.284   1.149   7.556 -0.7616  0.1311 -0.6172
23510SOL    HW271972   0.375   1.100   7.445 -0.3507 -0.0114 -0.2175
23511SOL     OW71973   7.734   2.537   8.765 -0.5320  0.1576 -0.2289
23511SOL    HW171974   7.691   2.451   8.763  0.0140 -0.1365  0.3013
23511SOL    HW271975   7.825   2.519   8.740  0.1552  0.1993  2.0351
23512SOL     OW71976   0.004   0.341   6.758  0.2466  0.4476 -0.0774
23512SOL    HW171977   0.030   0.416   6.705  1.9212 -0.7664 -1.0722
23512SOL    HW271978   0.004   0.374   6.848  0.3894  1.7558 -0.5392
23513SOL     OW71979   7.109   1.163   8.317 -0.1037 -0.3133 -0.3149
23513SOL    HW171980   7.158   1.151   8.399  0.6096  2.0250 -0.3264
23513SOL    HW271981   7.134   1.089   8.263  1.9682 -0.1849  0.3973
23514SOL     OW71982   7.830   0.645   9.818  0.2297  0.4709  0.2937
23514SOL    HW171983   7.903   0.584   9.827 -0.1020  0.2758  2.0847
23514SOL    HW271984   7.822   0.685   9.905 -1.2141  1.1334 -0.1227
23515SOL     OW71985   1.281   3.790   7.584 -0.3303 -0.0777  0.5656
23515SOL    HW171986   1.205   3.821   7.536 -0.3159 -0.2245  0.4445
23515SOL    HW271987   1.252   3.710   7.627 -0.4942  0.3444  1.2419
23516SOL     OW71988   6.572   1.751   9.175 -0.1762  0.3777 -0.0679
23516SOL    HW171989   6.544   1.697   9.101  0.8170  0.4523 -0.5179
23516SOL    HW271990   6.583   1.839   9.138  1.0198  0.2696 -0.0209
23517SOL     OW71991   1.391   0.876   7.276  0.0401 -0.0465 -0.3457
23517SOL    HW171992   1.412   0.794   7.231 -1.9306  0.0309 -1.4906
23517SOL    HW271993   1.435   0.868   7.361  1.3977 -1.4779 -1.1349
23518SOL     OW71994   7.862   0.330   7.993 -0.3444 -0.1357  0.2735
23518SOL    HW171995   7.817   0.248   7.969  2.1446 -1.5160 -0.0479
23518SOL    HW271996   7.936   0.334   7.932  0.0780  1.9307  0.8747
23519SOL     OW71997   7.393   0.411   8.888  0.2353  0.6100  0.2737
23519SOL    HW171998   7.347   0.379   8.966  0.4632  0.8159  0.4918
23519SOL    HW271999   7.392   0.507   8.897  1.0474  0.6045  0.4744
23520SOL     OW72000   0.746   1.871   8.877 -0.4358  0.2707  0.0311
23520SOL    HW172001   0.721   1.826   8.958 -0.0871 -0.4455 -0.2539
23520SOL    HW272002   0.668   1.866   8.821  0.0257 -1.1773 -0.5165
23521SOL     OW72003   0.496   7.681   8.363 -0.4177 -0.0815  0.3419
23521SOL    HW172004   0.401   7.689   8.373 -0.5402 -0.9689 -0.0109
23521SOL    HW272005   0.508   7.601   8.312  0.4923  0.4179 -0.2563
23522SOL     OW72006   7.517   1.911   9.548 -0.1464 -0.7425 -0.2029
23522SOL    HW172007   7.444   1.920   9.487 -0.6689 -0.1615  0.4888
23522SOL    HW272008   7.594   1.935   9.497 -0.7998  1.7971 -0.1286
23523SOL     OW72009   7.913   1.271   9.840  0.2838 -0.1343  0.6153
23523SOL    HW172010   7.827   1.275   9.882 -0.1192 -0.0239 -0.2010
23523SOL    HW272011   7.975   1.278   9.913 -0.3878  0.9205  1.1212
23524SOL     OW72012   7.358   1.141   7.460 -0.7455  0.5943  0.1101
23524SOL    HW172013   7.321   1.199   7.394 -1.5243  0.3683  0.3369
23524SOL    HW272014   7.321   1.055   7.440  0.5198  0.1215 -0.3220
23525SOL     OW72015   6.797   0.980   8.532  0.0521 -0.3183  0.2393
23525SOL    HW172016   6.741   1.043   8.487  1.2115  0.6998  0.1822
23525SOL    HW272017   6.778   0.992   8.625  0.2785  0.1377  0.2296
23526SOL     OW72018   0.358   1.073  10.998 -0.5016  0.1305 -0.6523
23526SOL    HW172019   0.269   1.088  10.964 -0.9018  1.2499  0.7976
23526SOL    HW272020   0.347   1.070  11.093  0.5620 -3.0812 -0.5205
23527SOL     OW72021   7.595   0.728   9.735 -0.1067 -0.1446 -0.4397
23527SOL    HW172022   7.683   0.704   9.766 -0.4059 -0.9399 -0.1952
23527SOL    HW272023   7.611   0.770   9.650  0.5447  0.1592 -0.1797
23528SOL     OW72024   7.945   2.740  10.271 -0.0495 -0.0903  0.1252
23528SOL    HW172025   7.915   2.777  10.188  2.8524  0.4037 -0.8153
23528SOL    HW272026   7.948   2.645  10.255  1.9135  0.0977 -0.9435
23529SOL     OW72027   7.289   1.324  10.235  0.0205 -0.0857  0.3795
23529SOL    HW172028   7.281   1.233  10.206  0.7064 -0.0755  0.1413
23529SOL    HW272029   7.263   1.376  10.158  1.1505 -0.0703 -0.0226
23530SOL     OW72030   7.197   1.469  10.695 -0.4794  0.1251  0.0484
23530SOL    HW172031   7.171   1.561  10.693  0.6509  0.4873  1.2382
23530SOL    HW272032   7.265   1.462  10.629  0.1602  0.3858  0.6715
23531SOL     OW72033   7.462   2.132   8.827 -0.0966 -0.0662 -0.8815
23531SOL    HW172034   7.434   2.040   8.824 -0.3248 -0.0353  0.1133
23531SOL    HW272035   7.409   2.175   8.760 -2.7200  0.0444  1.1258
23532SOL     OW72036   0.403   1.036   9.586 -0.2769 -0.0184  0.0047
23532SOL    HW172037   0.374   1.036   9.495  1.1120 -0.1373 -0.4630
23532SOL    HW272038   0.323   1.029   9.637 -1.0889  0.2274 -1.2059
23533SOL     OW72039   7.379   2.104  10.348  0.4765 -0.6468 -0.4544
23533SOL    HW172040   7.287   2.077  10.351 -0.0444  0.4166 -3.4259
23533SOL    HW272041   7.395   2.142  10.435 -3.1036  2.5612 -0.8799
23534SOL     OW72042   7.989   1.555   9.394  0.0206 -0.1343 -0.3173
23534SOL    HW172043   8.048   1.627   9.375 -0.2033  0.2793  0.5404
23534SOL    HW272044   8.021   1.517   9.476 -3.1120  2.5832  2.4336
23535SOL     OW72045   0.134   2.333  11.129  0.7233 -0.2030 -0.3014
23535SOL    HW172046   0.164   2.346  11.219 -0.1501 -0.2339  0.0041
23535SOL    HW272047   0.073   2.260  11.134  1.1907 -0.6558 -1.0448
23536SOL     OW72048   0.389   0.603  11.219  0.3760 -0.3081 -0.2064
23536SOL    HW172049   0.449   0.533  11.194 -2.7650 -2.8829 -1.2644
23536SOL    HW272050   0.362   0.642  11.136  0.7102  0.9919  0.2713
23537SOL     OW72051   0.894   1.091  11.461  0.0884 -0.0833  0.3734
23537SOL    HW172052   0.969   1.080  11.402  0.3467 -0.7844  0.8068
23537SOL    HW272053   0.930   1.140  11.535 -0.0054  0.0089  0.3566
23538SOL     OW72054   6.651   1.669   8.356 -0.0789  0.3253 -0.1904
23538SOL    HW172055   6.647   1.671   8.260 -0.5598  2.0202 -0.1545
23538SOL    HW272056   6.736   1.629   8.375  1.3681  2.5896 -1.3934
23539SOL     OW72057   0.476   0.802  12.449  0.3623  0.5279 -0.1453
23539SOL    HW172058   0.414   0.766  12.386 -0.5020  2.1452 -0.2768
23539SOL    HW272059   0.554   0.823  12.398  0.2334  0.4158 -0.3862
23540SOL     OW72060   0.181   2.227  11.679 -0.0597  0.3723  0.7116
23540SOL    HW172061   0.123   2.292  11.718  0.5947  1.4628 -0.0795
23540SOL    HW272062   0.224   2.273  11.607  0.9124 -0.7460  0.5448
23541SOL     OW72063   0.226   0.548  11.443 -0.0807 -0.6544 -0.3487
23541SOL    HW172064   0.235   0.470  11.499 -0.7018 -1.0663 -0.8048
23541SOL    HW272065   0.312   0.559  11.403  0.5530 -0.0093  1.1150
23542SOL     OW72066   0.503   2.542   9.723  0.0582  0.1727  0.1262
23542SOL    HW172067   0.431   2.528   9.785 -0.9450 -0.2253 -1.0668
23542SOL    HW272068   0.520   2.636   9.727 -1.9807  0.6722 -1.0224
23543SOL     OW72069   7.290   6.986   7.749  0.3136  0.4935  0.3752
23543SOL    HW172070   7.350   6.913   7.765 -1.7300 -1.0388  1.6031
23543SOL    HW272071   7.305   7.045   7.823  0.5449  0.2714  0.5100
23544SOL     OW72072   0.575   2.292  10.660  0.4346 -0.1000 -0.0409
23544SOL    HW172073   0.620   2.210  10.683 -0.3960 -0.1038  1.7520
23544SOL    HW272074   0.616   2.358  10.714 -0.9220  0.0939  0.8017
23545SOL     OW72075   0.618   1.660   9.673  0.4432  0.2473 -0.1581
23545SOL    HW172076   0.576   1.575   9.656  0.4558  0.2389 -0.1479
23545SOL    HW272077   0.608   1.709   9.592  0.0463  0.3998 -0.0188
23546SOL     OW72078   0.417   0.721  10.139 -0.7363 -0.1218 -0.3930
23546SOL    HW172079   0.458   0.808  10.145 -1.6253  0.1994  1.5392
23546SOL    HW272080   0.433   0.681  10.224 -1.7297 -1.2422 -0.7131
23547SOL     OW72081   0.026   0.569  10.192  0.3991 -0.2708  0.4554
23547SOL    HW172082   0.038   0.479  10.224 -0.8194 -1.0051 -0.9979
23547SOL    HW272083  -0.066   0.589  10.210  0.8016  0.9203  1.2790
23548SOL     OW72084   0.864   0.951   9.382 -0.8554  0.0690 -0.1929
23548SOL    HW172085   0.811   1.031   9.380 -0.3574  0.3947 -0.9046
23548SOL    HW272086   0.856   0.915   9.293  0.7590  0.5636 -0.5726
23549SOL     OW72087   1.038   1.711   9.143 -0.0565  0.5236 -0.0226
23549SOL    HW172088   1.117   1.675   9.182  0.4265  0.1074 -1.3389
23549SOL    HW272089   1.006   1.642   9.085 -0.9453  0.9964 -0.1140
23550SOL     OW72090   0.488   1.520   0.189  0.4263  0.7525 -0.3097
23550SOL    HW172091   0.507   1.451   0.125 -0.0471 -0.2146  0.5450
23550SOL    HW272092   0.473   1.598   0.137  0.6885  0.1340 -1.3381
23551SOL     OW72093   7.859   7.852  11.243 -0.4593 -0.0773 -0.3078
23551SOL    HW172094   7.821   7.787  11.184 -1.6335 -0.1600  0.5105
23551SOL    HW272095   7.917   7.801  11.301  0.2358 -0.0780 -0.9853
23552SOL     OW72096   7.349   1.303  10.849 -0.3808 -0.6989 -0.0421
23552SOL    HW172097   7.431   1.341  10.817 -0.5566 -0.0015  0.3307
23552SOL    HW272098   7.281   1.350  10.801 -0.5985 -0.5663  0.3996
23553SOL     OW72099   7.629   1.269   9.917  0.1267 -0.2969  0.4016
23553SOL    HW172100   7.548   1.295   9.873  0.8541  0.2542 -0.6474
23553SOL    HW272101   7.607   1.268  10.011 -1.3807 -1.2372  0.0707
23554SOL     OW72102   0.445   1.621   9.226 -0.1781  0.6532 -0.1890
23554SOL    HW172103   0.386   1.641   9.153 -0.7917 -1.6006 -0.3867
23554SOL    HW272104   0.507   1.557   9.191 -0.7217 -0.7739  1.3107
23555SOL     OW72105   1.354   1.015  12.141  0.4308 -0.2437  0.0638
23555SOL    HW172106   1.384   0.975  12.223 -0.1858 -0.2828  0.2779
23555SOL    HW272107   1.259   1.005  12.143  0.4667 -1.0045 -1.0516
23556SOL     OW72108   2.736   0.095  11.567  0.0748  0.2994 -0.1938
23556SOL    HW172109   2.817   0.045  11.555  0.4526  1.1193 -1.2037
23556SOL    HW272110   2.671   0.029  11.591  0.6220 -0.6444 -1.2066
23557SOL     OW72111   0.323   6.958   9.800  0.7409 -0.7084 -0.3140
23557SOL    HW172112   0.364   7.044   9.797 -0.9264  0.1817  0.9366
23557SOL    HW272113   0.340   6.926   9.888 -2.0177  0.1728  0.6595
23558SOL     OW72114   2.678   1.216  10.516 -0.4452 -0.2911  0.0732
23558SOL    HW172115   2.671   1.131  10.472  1.5151  0.0503 -1.0224
23558SOL    HW272116   2.610   1.269  10.475  1.6825  0.1991 -3.2258
23559SOL     OW72117   6.935   0.236   9.026  0.1485 -0.2970  0.4592
23559SOL    HW172118   6.923   0.256   8.933 -0.9150  0.4441  0.7229
23559SOL    HW272119   7.011   0.179   9.030  0.9394  0.6382 -0.7553
23560SOL     OW72120   7.538   1.508  10.748  0.1687  0.1613  0.3158
23560SOL    HW172121   7.579   1.592  10.766  1.6031 -0.1531 -1.2742
23560SOL    HW272122   7.571   1.483  10.662 -2.1324 -0.8953 -0.3379
23561SOL     OW72123   0.059   7.821   9.483  0.1054 -0.2978  0.1303
23561SOL    HW172124   0.125   7.865   9.429  0.1445 -0.4518  0.0545
23561SOL    HW272125   0.000   7.779   9.420  0.1491 -0.4747  0.2077
23562SOL     OW72126   7.154   0.902  11.672 -0.1552 -0.2441 -0.0342
23562SOL    HW172127   7.229   0.842  11.675 -0.2435 -0.3296  0.5806
23562SOL    HW272128   7.192   0.988  11.652  0.1936 -0.1569  0.9558
23563SOL     OW72129   0.593   0.342  11.146  0.1668  0.0207  0.0285
23563SOL    HW172130   0.527   0.274  11.141  0.5733 -0.3136 -1.0041
23563SOL    HW272131   0.602   0.360  11.240 -1.8892  0.5900  0.1755
23564SOL     OW72132   7.192   0.059   9.858  0.4680 -0.6595 -0.2795
23564SOL    HW172133   7.101   0.090   9.859  0.9072  0.7258 -0.9425
23564SOL    HW272134   7.214   0.047   9.950 -0.0979 -0.0804 -0.0591
23565SOL     OW72135   7.969   1.516  11.163 -0.1759 -0.0902 -0.7372
23565SOL    HW172136   7.969   1.422  11.182 -0.7423  0.1785  0.7136
23565SOL    HW272137   7.920   1.524  11.082 -1.3128 -0.9295 -0.1620
23566SOL     OW72138   6.721   7.959  10.525 -0.1950 -0.2010  0.8485
23566SOL    HW172139   6.701   8.023  10.456  1.7359 -0.9647 -0.5236
23566SOL    HW272140   6.784   8.004  10.581 -0.6764 -0.0844  1.3060
23567SOL     OW72141   0.841   2.305   8.885  0.3256 -0.0087 -0.0678
23567SOL    HW172142   0.775   2.372   8.899 -1.6727 -1.8045 -0.3791
23567SOL    HW272143   0.924   2.352   8.887 -0.9988  2.5509 -0.9395
23568SOL     OW72144   7.022   0.421  10.068  0.1582  0.1639  0.1268
23568SOL    HW172145   7.002   0.425  10.162  1.8107  0.4868  0.4939
23568SOL    HW272146   7.027   0.513  10.041  2.5230  0.1805  0.4124
23569SOL     OW72147   6.695   1.630  11.155  0.0463  0.2037 -0.2132
23569SOL    HW172148   6.652   1.545  11.167  2.7723 -1.1734  0.6267
23569SOL    HW272149   6.688   1.672  11.240  2.4562 -1.1818  0.7964
23570SOL     OW72150   6.990   0.075   8.759 -0.5750 -0.3775 -0.3118
23570SOL    HW172151   6.949   0.162   8.756 -0.5355 -0.2377  1.6916
23570SOL    HW272152   7.084   0.093   8.761 -0.5819 -0.3571  1.3327
23571SOL     OW72153   7.992   1.203  10.348  0.3487  0.0023 -0.3437
23571SOL    HW172154   7.947   1.263  10.407 -1.4801 -1.5368 -0.0799
23571SOL    HW272155   8.006   1.253  10.268 -0.9435  0.8425 -0.0555
23572SOL     OW72156   7.208   1.739   0.184 -0.4382  0.2953  0.0540
23572SOL    HW172157   7.166   1.776   0.106 -0.2983  1.8225  0.6684
23572SOL    HW272158   7.295   1.713   0.154 -1.1898 -1.3573 -0.8364
23573SOL     OW72159   7.871   0.640   0.711 -0.0953  0.0948  0.1904
23573SOL    HW172160   7.820   0.625   0.631  0.7944 -0.3727 -0.3016
23573SOL    HW272161   7.805   0.659   0.778 -0.9394 -0.9196 -0.3297
23574SOL     OW72162   7.714   1.353  10.996  0.4772 -0.0848  0.3177
23574SOL    HW172163   7.668   1.305  11.065 -0.1845  1.2185  0.8168
23574SOL    HW272164   7.701   1.300  10.917  0.4190 -1.0976  0.9871
23575SOL     OW72165   7.172   1.658  11.626 -0.0053  0.1578 -0.5098
23575SOL    HW172166   7.122   1.685  11.549 -1.5931  0.0660  0.4414
23575SOL    HW272167   7.235   1.729  11.640 -1.7405  1.7093 -0.1228
23576SOL     OW72168   6.308   2.116  11.095 -0.1362  0.8870  0.7190
23576SOL    HW172169   6.366   2.192  11.105  0.1082  0.7784  0.1554
23576SOL    HW272170   6.303   2.079  11.183  2.2656 -0.2526  0.4648
23577SOL     OW72171   7.544   1.399   8.955 -0.0431  0.7087  0.0940
23577SOL    HW172172   7.520   1.346   8.880 -0.9930  1.2357  0.0112
23577SOL    HW272173   7.610   1.346   9.002 -0.4145 -0.1976 -0.3829
23578SOL     OW72174   0.017   1.202  11.591 -0.0026 -0.3388  0.4600
23578SOL    HW172175   0.064   1.223  11.672 -0.8430  0.9180  0.6447
23578SOL    HW272176   0.046   1.113  11.569  2.1296  0.2058  0.7979
23579SOL     OW72177   6.352   1.594   9.779  0.2032  0.5918  0.6662
23579SOL    HW172178   6.373   1.505   9.750  2.6419  0.7593  1.7290
23579SOL    HW272179   6.314   1.582   9.866 -0.6981  0.5362  0.2771
23580SOL     OW72180   5.359   6.960  10.773  0.0201 -0.1905 -0.0643
23580SOL    HW172181   5.286   6.911  10.810 -0.4997  1.1292  0.7571
23580SOL    HW272182   5.318   7.013  10.703  0.4906 -0.6314 -0.6772
23581SOL     OW72183   0.344   3.731  12.160 -0.4282  0.2384 -0.2679
23581SOL    HW172184   0.345   3.638  12.182 -0.0441  0.4580  0.7214
23581SOL    HW272185   0.404   3.771  12.223  0.0607  1.0428 -1.2112
23582SOL     OW72186   0.689   0.504   9.567  0.1545  0.2076 -0.3921
23582SOL    HW172187   0.720   0.535   9.482  0.5320  0.2747 -0.2312
23582SOL    HW272188   0.639   0.425   9.547 -0.0620  0.4234 -0.7111
23583SOL     OW72189   0.325   2.200   9.809  0.2100 -0.5539  0.5843
23583SOL    HW172190   0.400   2.141   9.816  0.8146 -0.0184 -0.8784
23583SOL    HW272191   0.315   2.213   9.715  0.4307  2.0859  0.8644
23584SOL     OW72192   1.292   0.069  11.762  0.4572 -0.0686 -0.1961
23584SOL    HW172193   1.378   0.033  11.740  1.1940  0.5744  1.4583
23584SOL    HW272194   1.310   0.133  11.831 -1.4521 -0.5814  0.8604
23585SOL     OW72195   5.468   0.826  10.565 -0.1694  0.0375 -0.1578
23585SOL    HW172196   5.427   0.904  10.603  0.2838  0.4714 -0.5502
23585SOL    HW272197   5.471   0.843  10.471  1.8372  0.4958 -0.0610
23586SOL     OW72198   6.426   1.345   9.761 -0.0506  0.0456  0.1632
23586SOL    HW172199   6.457   1.291   9.689  0.5150  1.0039 -0.3416
23586SOL    HW272200   6.503   1.358   9.816  0.2978  1.7162 -0.6324
23587SOL     OW72201   0.794   1.256   9.921 -0.0685  0.0832  0.0907
23587SOL    HW172202   0.851   1.314   9.871 -1.0733 -0.6840 -2.0752
23587SOL    HW272203   0.853   1.207   9.978  1.0230  1.6242  0.3676
23588SOL     OW72204   7.163   2.127   0.371 -0.1782  0.3982 -0.0842
23588SOL    HW172205   7.085   2.175   0.342  0.4409  1.6420  0.2373
23588SOL    HW272206   7.232   2.156   0.311  0.1210 -0.4345 -0.1546
23589SOL     OW72207   6.446   7.373  11.622 -0.4404 -0.1748 -0.2132
23589SOL    HW172208   6.522   7.385  11.566 -0.3140  0.9422  0.1685
23589SOL    HW272209   6.482   7.345  11.706 -0.0973  3.1335  0.8934
23590SOL     OW72210   0.415   2.083  11.798 -0.0329  0.6117 -0.6161
23590SOL    HW172211   0.370   2.004  11.826 -1.3461  1.4703 -0.1889
23590SOL    HW272212   0.360   2.119  11.729  0.7230  0.9761 -1.0373
23591SOL     OW72213   0.559   1.919   0.335 -0.3546  0.0369 -0.4035
23591SOL    HW172214   0.498   1.992   0.346  0.9392  0.9568  1.2621
23591SOL    HW272215   0.518   1.846   0.381 -0.1349  0.7259  0.9404
23592SOL     OW72216   0.805   1.775  11.691  0.2380  0.6212  0.1514
23592SOL    HW172217   0.729   1.799  11.744  0.5383 -0.3630  1.0705
23592SOL    HW272218   0.768   1.753  11.605 -0.1711  2.9521 -0.3298
23593SOL     OW72219   7.023   1.847   0.364 -0.3564 -0.5272  0.7377
23593SOL    HW172220   7.066   1.794   0.297 -1.9811 -0.1843 -0.6350
23593SOL    HW272221   7.051   1.937   0.345 -0.1156 -0.5276  1.0828
23594SOL     OW72222   0.371   3.059   9.778 -0.4563  0.2607 -0.4613
23594SOL    HW172223   0.391   3.150   9.759 -2.0598  0.4589 -1.3197
23594SOL    HW272224   0.388   3.012   9.696  1.0681 -0.3869  0.1667
23595SOL     OW72225   0.908   2.452  11.377 -0.3552 -0.1271 -0.7559
23595SOL    HW172226   0.982   2.511  11.365 -1.6413  1.3245 -1.9210
23595SOL    HW272227   0.894   2.450  11.472  0.4863  0.4471 -0.6165
23596SOL     OW72228   6.628   7.916  12.402  0.3487  0.6203  0.1200
23596SOL    HW172229   6.581   7.999  12.412  1.4233  1.3874 -0.8150
23596SOL    HW272230   6.616   7.892  12.310 -1.1547 -1.0683  0.6990
23597SOL     OW72231   7.157   0.612  11.413  0.4597 -0.1372 -0.8759
23597SOL    HW172232   7.121   0.536  11.459  0.7715 -0.3306 -0.9538
23597SOL    HW272233   7.228   0.642  11.470  1.4702 -0.9437 -1.6860
23598SOL     OW72234   0.671   7.476   0.528 -0.4746 -0.3196  0.1269
23598SOL    HW172235   0.763   7.451   0.536 -0.6778 -1.7945 -1.6496
23598SOL    HW272236   0.626   7.422   0.594 -0.1956 -0.3117  0.3254
23599SOL     OW72237   0.555   0.522  12.188 -0.4876 -0.1848 -0.4644
23599SOL    HW172238   0.524   0.471  12.114 -2.2846 -3.7872  2.4287
23599SOL    HW272239   0.488   0.588  12.203 -1.6046 -1.3047 -0.4049
23600SOL     OW72240   0.696   1.049   1.350  0.3633  0.0450 -0.5905
23600SOL    HW172241   0.701   1.087   1.438  0.2472 -0.0375 -0.5475
23600SOL    HW272242   0.755   0.974   1.352  0.6383  0.2573 -0.6936
23601SOL     OW72243   1.089   1.357   1.099  0.3786  0.0877  0.6019
23601SOL    HW172244   1.160   1.402   1.055  0.6562 -0.5412  0.3983
23601SOL    HW272245   1.039   1.316   1.029  0.5106 -0.4670  0.8247
23602SOL     OW72246   2.024   0.147  11.294  0.1055 -0.8481 -0.7576
23602SOL    HW172247   1.997   0.089  11.364  1.8577 -0.3527  0.3704
23602SOL    HW272248   2.042   0.231  11.337  1.1924 -0.5257 -1.7689
23603SOL     OW72249   0.728   2.345  10.914  0.5691 -0.0992 -0.0763
23603SOL    HW172250   0.783   2.419  10.941  0.0045  0.9166 -1.5889
23603SOL    HW272251   0.640   2.368  10.944  0.3156  0.0511 -0.9209
23604SOL     OW72252   6.641   2.789  12.030  0.0315  0.0175 -0.3522
23604SOL    HW172253   6.701   2.806  12.102 -1.6114  0.9110  0.8809
23604SOL    HW272254   6.679   2.836  11.956  2.2144 -1.6371 -0.3603
23605SOL     OW72255   0.106   0.790  11.348  0.1986  0.0357  0.2434
23605SOL    HW172256   0.130   0.805  11.257  0.1740  0.4409  0.3008
23605SOL    HW272257   0.131   0.700  11.365  1.1075  0.2624  0.1274
23606SOL     OW72258   0.491   7.656  12.004  0.2110 -0.4569 -0.0618
23606SOL    HW172259   0.555   7.723  11.981  1.9091 -2.2012 -0.6903
23606SOL    HW272260   0.493   7.594  11.931 -1.3999 -1.1592  0.4261
23607SOL     OW72261   1.456   1.271   0.690  0.4882  0.3516 -0.5389
23607SOL    HW172262   1.520   1.334   0.726 -1.0941  0.9439  1.4164
23607SOL    HW272263   1.376   1.322   0.679 -0.2862 -0.8865 -0.8116
23608SOL     OW72264   6.405   1.206   0.542  0.4740 -0.2089 -0.3284
23608SOL    HW172265   6.465   1.273   0.509  2.9708 -1.8167  0.6970
23608SOL    HW272266   6.423   1.129   0.489 -1.0404 -0.6408 -0.2775
23609SOL     OW72267   0.722   2.943  11.616  0.3160 -0.0076  0.5431
23609SOL    HW172268   0.665   2.951  11.539 -1.9925 -1.1494  2.0299
23609SOL    HW272269   0.794   2.887  11.586  0.5854  1.2230 -1.3133
23610SOL     OW72270   1.463   6.462  11.784  0.0892  0.0410  0.0872
23610SOL    HW172271   1.509   6.529  11.733  0.8712  1.6543  2.6727
23610SOL    HW272272   1.372   6.490  11.787  0.2620  0.5771  0.4757
23611SOL     OW72273   7.801   2.219   1.111  0.1931  0.2175  0.1088
23611SOL    HW172274   7.753   2.302   1.106 -0.5599 -0.2802 -1.9391
23611SOL    HW272275   7.749   2.158   1.058  2.7994 -0.4870 -1.8496
23612SOL     OW72276   6.477   0.322   1.731  0.2366 -0.0431  0.0917
23612SOL    HW172277   6.529   0.355   1.658 -0.7170  0.2984 -0.4592
23612SOL    HW272278   6.539   0.274   1.786  1.2132  0.7301 -0.3000
23613SOL     OW72279   0.855   1.671   0.816 -0.5022  0.3014 -0.2019
23613SOL    HW172280   0.779   1.711   0.772 -0.7590  0.8635  0.7271
23613SOL    HW272281   0.884   1.737   0.879  0.6568  0.0133 -0.4183
23614SOL     OW72282   6.029   2.385  11.769 -0.2653 -0.1585 -0.0509
23614SOL    HW172283   6.044   2.466  11.720  0.4290 -0.9408 -1.1669
23614SOL    HW272284   6.104   2.380  11.829 -0.3194  0.0212  0.0347
23615SOL     OW72285   7.681   1.450  12.249 -0.1029  0.4411  0.1740
23615SOL    HW172286   7.702   1.369  12.297  0.3807  1.0228  0.9629
23615SOL    HW272287   7.645   1.419  12.166  1.3975 -0.6094 -0.1299
23616SOL     OW72288   7.103   0.254  10.920  0.2093 -0.3058 -0.2049
23616SOL    HW172289   7.190   0.217  10.904  0.5086  0.1292  0.3806
23616SOL    HW272290   7.069   0.204  10.994  0.1950 -0.0929 -0.0680
23617SOL     OW72291   1.076   0.261  10.877 -0.0033  0.3697  0.1520
23617SOL    HW172292   0.996   0.256  10.929  0.0227 -3.5772  0.1258
23617SOL    HW272293   1.047   0.247  10.787  0.6293 -0.8310  0.1118
23618SOL     OW72294   7.452   2.090  10.896  0.2159  0.4561  0.5226
23618SOL    HW172295   7.363   2.055  10.906 -0.5979  2.5187  0.9666
23618SOL    HW272296   7.471   2.079  10.803  0.0532 -1.1814  0.6470
23619SOL     OW72297   0.099   2.882   0.351 -0.4314  0.1759 -0.2781
23619SOL    HW172298   0.164   2.939   0.392 -0.3816 -1.0487  1.4857
23619SOL    HW272299   0.150   2.819   0.300 -0.1969 -0.7159  1.0154
23620SOL     OW72300   7.830   0.726   1.636  0.1239  0.2107  0.1552
23620SOL    HW172301   7.816   0.642   1.679  1.9419 -1.4896 -2.2857
23620SOL    HW272302   7.888   0.774   1.696  0.5705 -1.0351  0.7556
23621SOL     OW72303   7.885   0.945   0.554 -0.3311  0.0613  0.0302
23621SOL    HW172304   7.804   0.904   0.584 -0.4699 -0.2850 -0.8175
23621SOL    HW272305   7.913   0.893   0.479  0.6201  0.2450  0.2413
23622SOL     OW72306   1.924   0.568  11.712 -0.3244 -0.7257 -0.3532
23622SOL    HW172307   1.975   0.610  11.643  0.5494  0.6233  1.0485
23622SOL    HW272308   1.843   0.542  11.669 -0.5955  1.7434 -1.5245
23623SOL     OW72309   7.548   0.889  10.744 -0.0256  0.4529 -0.2454
23623SOL    HW172310   7.558   0.834  10.822 -0.1739  1.3332  0.4103
23623SOL    HW272311   7.468   0.939  10.760 -0.8451 -0.3732 -1.6106
23624SOL     OW72312   7.692   2.313   0.416  0.1958  0.4732  0.3360
23624SOL    HW172313   7.604   2.286   0.388  0.9619 -1.3461 -0.4402
23624SOL    HW272314   7.702   2.402   0.381 -0.7020  0.0608 -1.0329
23625SOL     OW72315   6.994   1.184  10.154  0.1575  0.1723  0.1565
23625SOL    HW172316   7.066   1.183  10.091  0.3375  1.3542  0.3215
23625SOL    HW272317   6.916   1.198  10.101  0.4294  2.3770  0.2546
23626SOL     OW72318   0.243   2.340  10.048  0.0079 -0.3352  0.5092
23626SOL    HW172319   0.255   2.250  10.079 -3.3033 -1.6939 -1.6147
23626SOL    HW272320   0.254   2.334   9.953 -1.4811  1.2452  0.1994
23627SOL     OW72321   0.021   1.598   0.830 -0.3372 -0.1865  0.0747
23627SOL    HW172322  -0.016   1.526   0.881  0.8868 -1.0310 -0.1863
23627SOL    HW272323  -0.028   1.676   0.859 -2.2349 -1.2081 -0.2055
23628SOL     OW72324   6.699   0.205  10.335 -0.2846  0.2822 -0.0055
23628SOL    HW172325   6.717   0.183  10.244 -0.4540  1.2736 -0.2872
23628SOL    HW272326   6.605   0.220  10.338 -0.2669  0.3390  0.3171
23629SOL     OW72327   0.382   1.364   2.081 -0.2613 -0.8578 -0.1422
23629SOL    HW172328   0.307   1.312   2.053 -0.2212 -1.3824  0.6813
23629SOL    HW272329   0.429   1.385   2.000 -1.4664 -0.2300 -0.7112
23630SOL     OW72330   7.877   0.520  11.272  0.1075 -0.6575  0.4643
23630SOL    HW172331   7.791   0.496  11.236  0.1457  0.2151 -0.2408
23630SOL    HW272332   7.916   0.576  11.205  1.3244 -1.2009  0.6925
23631SOL     OW72333   0.245   1.250  11.740  0.5845 -0.0161  0.5918
23631SOL    HW172334   0.303   1.258  11.664 -0.6903  0.8604 -0.3298
23631SOL    HW272335   0.255   1.332  11.787  1.9695 -0.8615  1.8703
23632SOL     OW72336   0.627   1.277   2.242 -0.1312 -0.1128 -0.0433
23632SOL    HW172337   0.706   1.274   2.187 -0.8269  0.0667 -1.0789
23632SOL    HW272338   0.558   1.305   2.182 -1.1584 -1.1148  0.6575
23633SOL     OW72339   7.732   1.895   1.670  0.1501  0.7716  0.3277
23633SOL    HW172340   7.689   1.923   1.589 -1.1865 -1.0321  0.3377
23633SOL    HW272341   7.661   1.885   1.733  1.0095  0.8854  1.3376
23634SOL     OW72342   6.081   1.089   2.238 -0.4335 -0.5816  0.2285
23634SOL    HW172343   6.080   1.081   2.143 -1.1225 -0.4592  0.2169
23634SOL    HW272344   6.098   1.182   2.254 -0.3095 -0.6037  0.2246
23635SOL     OW72345   6.780   4.930   1.599  0.7050 -0.8214 -0.2020
23635SOL    HW172346   6.819   4.854   1.557  0.7969  0.0229 -1.7202
23635SOL    HW272347   6.686   4.913   1.597  0.7587 -1.1427 -0.0192
23636SOL     OW72348   7.605   4.288   2.777  0.0040 -0.3928  0.0117
23636SOL    HW172349   7.574   4.349   2.710  2.3896  1.1381  0.2075
23636SOL    HW272350   7.558   4.314   2.856 -0.7121 -0.3680 -0.4091
23637SOL     OW72351   6.648   2.140   0.180 -0.2973 -0.3163 -0.1778
23637SOL    HW172352   6.671   2.087   0.257 -0.4988  0.6443  0.5598
23637SOL    HW272353   6.727   2.139   0.126 -0.7614 -2.6005 -0.9350
23638SOL     OW72354   7.306   2.318   0.246 -0.1040  0.5339  0.0903
23638SOL    HW172355   7.385   2.357   0.207 -0.8150  1.0611 -0.8871
23638SOL    HW272356   7.235   2.348   0.189 -1.0070  0.0465  0.9391
23639SOL     OW72357   1.420   2.080   1.437  0.1472  0.0884 -0.5970
23639SOL    HW172358   1.461   2.011   1.384  0.6414 -0.4988  0.5302
23639SOL    HW272359   1.328   2.057   1.440  0.3246 -0.5856 -0.1485
23640SOL     OW72360   0.487   1.631   0.434 -0.2109  0.2757  0.3039
23640SOL    HW172361   0.410   1.684   0.413 -0.5663  0.6893  2.3793
23640SOL    HW272362   0.515   1.595   0.350 -2.0723  0.9175 -0.6602
23641SOL     OW72363   0.203   2.833  12.401  0.0966 -0.1434  0.1982
23641SOL    HW172364   0.150   2.763  12.439 -0.6461  1.2363  1.8517
23641SOL    HW272365   0.153   2.861  12.325  0.1612 -1.0723 -0.2006
23642SOL     OW72366   6.505   1.956   0.881  0.0645  0.2529  0.5777
23642SOL    HW172367   6.476   1.905   0.957 -0.2012  2.7301  2.2883
23642SOL    HW272368   6.459   2.040   0.890 -0.4678  0.4675 -2.7283
23643SOL     OW72369   7.961   0.460   1.882  0.2377 -0.7748 -0.0526
23643SOL    HW172370   7.922   0.392   1.938  0.4866 -0.6420  0.2890
23643SOL    HW272371   8.008   0.516   1.943  1.9672 -1.6007 -0.5647
23644SOL     OW72372   5.230   2.770   1.787  0.2975 -0.3800  0.0830
23644SOL    HW172373   5.239   2.704   1.855  0.2858  0.1670  0.6232
23644SOL    HW272374   5.314   2.771   1.742  0.3223 -0.7053  0.1219
23645SOL     OW72375   7.275   2.642   0.967  0.8053 -0.1409  0.1267
23645SOL    HW172376   7.243   2.729   0.943  0.4709 -0.2930  0.0039
23645SOL    HW272377   7.345   2.624   0.904  1.0642  0.1561  0.3326
23646SOL     OW72378   7.929   3.691   1.071  0.0437 -0.7233  0.2953
23646SOL    HW172379   8.014   3.732   1.056 -0.9282  0.7581 -1.8014
23646SOL    HW272380   7.871   3.734   1.008 -1.8846 -2.9123  0.4380
23647SOL     OW72381   0.407   1.877   1.108  0.0794  0.1150  0.6109
23647SOL    HW172382   0.434   1.893   1.198 -1.0910  2.8227  0.5899
23647SOL    HW272383   0.415   1.962   1.065 -0.4939 -0.8373 -1.5439
23648SOL     OW72384   0.209   3.031   0.770  0.1728  0.4748  0.2227
23648SOL    HW172385   0.226   3.080   0.690  2.2976  0.1214  0.4068
23648SOL    HW272386   0.204   2.940   0.741 -3.0251  0.6040 -0.0112
23649SOL     OW72387   7.985   4.654   0.538 -1.0209 -0.2431 -0.8839
23649SOL    HW172388   7.953   4.573   0.498 -0.1182 -0.9155 -0.2786
23649SOL    HW272389   8.001   4.712   0.464  0.5061 -1.4280 -1.5539
23650SOL     OW72390   6.956   1.547   0.716 -0.1918  0.4197 -0.2913
23650SOL    HW172391   6.958   1.634   0.678 -1.1263 -0.0660 -1.5062
23650SOL    HW272392   6.992   1.489   0.649 -0.3806 -0.2521  0.1657
23651SOL     OW72393   7.197   1.925   1.624  0.2377 -0.1404 -0.2955
23651SOL    HW172394   7.180   1.838   1.587 -3.5942 -0.5627  1.9155
23651SOL    HW272395   7.203   1.910   1.718 -1.3262  2.0178  0.2178
23652SOL     OW72396   6.940   4.044   3.738 -0.0565 -0.3757  0.0175
23652SOL    HW172397   7.006   3.977   3.754  2.3711  1.8448  0.1193
23652SOL    HW272398   6.991   4.120   3.707 -2.7347  1.0572 -1.2196
23653SOL     OW72399   7.889   4.446   0.335 -0.3621 -0.8362  0.2665
23653SOL    HW172400   7.947   4.409   0.268  0.0646  1.6477 -0.8580
23653SOL    HW272401   7.803   4.411   0.315 -0.1302 -0.6126 -1.2400
23654SOL     OW72402   7.529   0.851  11.294 -0.1827  0.1026  0.2216
23654SOL    HW172403   7.582   0.864  11.215  0.7271  0.5185  0.8861
23654SOL    HW272404   7.448   0.811  11.262  0.1994  0.2011 -0.9135
23655SOL     OW72405   7.423   0.951  12.295 -0.3268 -0.4368  0.2156
23655SOL    HW172406   7.338   0.984  12.267  0.5052  1.2092 -0.5350
23655SOL    HW272407   7.413   0.935  12.389 -2.1014 -2.5100 -0.2561
23656SOL     OW72408   1.220   1.409   0.687 -0.3395  0.0126 -0.9979
23656SOL    HW172409   1.134   1.368   0.671 -1.5209  0.3468  3.2190
23656SOL    HW272410   1.217   1.491   0.639 -3.0648  0.6492  0.0481
23657SOL     OW72411   0.318   1.503   0.996  0.0620 -0.3418  0.2009
23657SOL    HW172412   0.254   1.525   0.929 -1.3420  0.2851  1.6942
23657SOL    HW272413   0.384   1.572   0.990 -1.3513  1.1518  1.0647
23658SOL     OW72414   0.792   2.127   1.497  0.3425 -0.1151 -0.1201
23658SOL    HW172415   0.852   2.162   1.563  1.9760 -1.6825 -0.6797
23658SOL    HW272416   0.741   2.061   1.543  0.4762 -0.2096 -0.1085
23659SOL     OW72417   6.664   1.712   0.697 -0.2313  0.1211 -0.3189
23659SOL    HW172418   6.664   1.616   0.696 -0.3666  0.0178  2.3225
23659SOL    HW272419   6.733   1.735   0.758 -0.6016  1.7101 -0.4567
23660SOL     OW72420   6.295   2.752   1.703 -0.5766  0.6042  0.1916
23660SOL    HW172421   6.227   2.754   1.635  1.0229 -1.9714 -1.6649
23660SOL    HW272422   6.340   2.835   1.694 -1.7239  1.1790 -0.4646
23661SOL     OW72423   1.362   1.852   0.620  0.1245  0.6394  0.2058
23661SOL    HW172424   1.363   1.938   0.663  2.1977  0.7152  0.0811
23661SOL    HW272425   1.440   1.807   0.653 -0.1917 -0.6861 -0.7659
23662SOL     OW72426   0.666   3.711   0.861 -0.3812  0.3010 -0.2910
23662SOL    HW172427   0.714   3.785   0.898 -0.2581 -0.5170  1.2585
23662SOL    HW272428   0.711   3.692   0.778  1.0091  0.5274  0.3840
23663SOL     OW72429   7.144   1.934   1.264 -0.1368 -0.2665 -0.1383
23663SOL    HW172430   7.184   1.854   1.299 -1.0673 -0.5658  0.2879
23663SOL    HW272431   7.156   1.999   1.334  2.6768  0.6891 -1.3759
23664SOL     OW72432   0.659   1.419   1.624 -0.2702  0.0553  0.1376
23664SOL    HW172433   0.604   1.456   1.693  0.6534 -0.0872  0.9775
23664SOL    HW272434   0.599   1.404   1.551 -0.8596  2.3942  0.0395
23665SOL     OW72435   0.153   2.410  11.946  0.8008  0.5449 -0.4900
23665SOL    HW172436   0.100   2.330  11.942  0.7447  0.6161 -1.5740
23665SOL    HW272437   0.132   2.448  12.031  0.4377 -0.3283 -0.1710
23666SOL     OW72438   7.445   2.102   1.535  0.0527  0.5586 -0.7621
23666SOL    HW172439   7.527   2.056   1.520  1.2802  3.2345 -3.1476
23666SOL    HW272440   7.386   2.035   1.571  2.7828 -1.8061 -0.3260
23667SOL     OW72441   7.129   2.512   0.531 -0.4930 -0.1271  1.0972
23667SOL    HW172442   7.135   2.603   0.560 -1.8715  1.6122 -3.2276
23667SOL    HW272443   7.064   2.473   0.590 -1.1334  2.1923  2.0472
23668SOL     OW72444   0.446   1.779   2.088 -0.8174  0.1219 -0.4846
23668SOL    HW172445   0.393   1.711   2.128 -1.0011 -0.9243 -2.4030
23668SOL    HW272446   0.493   1.735   2.018  0.6729  1.5551 -0.4559
23669SOL     OW72447   0.227   3.430   1.284  0.6995 -0.5333 -0.2441
23669SOL    HW172448   0.137   3.398   1.291  0.4090  0.3825  0.4201
23669SOL    HW272449   0.280   3.352   1.270 -0.1402 -1.1352 -0.1106
23670SOL     OW72450   6.681   2.772   1.509  0.1111  0.4885  0.0320
23670SOL    HW172451   6.651   2.686   1.479 -0.4283  0.5654  0.3406
23670SOL    HW272452   6.609   2.831   1.488  0.3985  0.8319  0.0073
23671SOL     OW72453   0.809   1.549   1.904  0.2365 -0.3061 -0.8258
23671SOL    HW172454   0.715   1.557   1.886  0.0341 -0.3085  0.1762
23671SOL    HW272455   0.815   1.484   1.974  0.8474  0.8540  0.2352
23672SOL     OW72456   0.073   3.808   0.685  0.2759  0.2715  0.1677
23672SOL    HW172457  -0.022   3.798   0.684  0.1294  1.5078  0.4632
23672SOL    HW272458   0.106   3.720   0.703 -0.8288 -0.0484  0.6932
23673SOL     OW72459   5.585   3.198   1.120  0.0864  0.3551 -0.0393
23673SOL    HW172460   5.538   3.248   1.053  1.1185  0.7741 -0.4673
23673SOL    HW272461   5.521   3.189   1.191 -1.1312 -0.3466 -1.1725
23674SOL     OW72462   4.739   2.137   1.902  0.6207 -0.0235 -0.1680
23674SOL    HW172463   4.760   2.195   1.829 -0.3896 -1.2674 -1.5062
23674SOL    HW272464   4.651   2.164   1.930 -1.2476 -2.6557 -2.8039
23675SOL     OW72465   6.774   3.283   1.192  0.3116 -0.4630 -0.1507
23675SOL    HW172466   6.736   3.370   1.178  0.9336 -0.2743 -0.7143
23675SOL    HW272467   6.843   3.297   1.257 -2.0427 -1.2050  2.7688
23676SOL     OW72468   7.520   1.664   1.422  0.2674 -0.2914  0.0623
23676SOL    HW172469   7.602   1.683   1.467  0.5566  0.3425 -0.7085
23676SOL    HW272470   7.526   1.711   1.339  0.4148 -2.6284 -1.3581
23677SOL     OW72471   6.882   3.894   1.907 -0.0375  0.3487  0.1923
23677SOL    HW172472   6.959   3.878   1.962 -1.0669  0.1537  1.6175
23677SOL    HW272473   6.918   3.903   1.818  1.6865  0.8207  0.8932
23678SOL     OW72474   0.379   2.373  11.549 -0.2173 -0.5013 -0.1660
23678SOL    HW172475   0.374   2.317  11.472 -0.3969 -0.0969 -0.4553
23678SOL    HW272476   0.465   2.414  11.544  0.5829 -1.9761  0.9257
23679SOL     OW72477   7.159   3.076   1.347  0.1890 -0.4348  0.1430
23679SOL    HW172478   7.245   3.034   1.350  0.8198  0.8470  1.8425
23679SOL    HW272479   7.105   3.018   1.293  2.1183 -1.2429 -0.9897
23680SOL     OW72480   6.358   3.322   2.528  0.0438 -0.0829  0.1324
23680SOL    HW172481   6.449   3.311   2.557  0.6106  0.0065 -1.5447
23680SOL    HW272482   6.329   3.233   2.509  0.1422 -0.0043 -0.3857
23681SOL     OW72483   0.304   3.571  12.482 -0.0569  0.1757 -0.4629
23681SOL    HW172484   0.327   3.525  12.401 -1.0921 -0.0469 -0.6498
23681SOL    HW272485   0.373   3.549  12.544 -0.7590 -2.0382 -0.3998
23682SOL     OW72486   0.332   4.648   1.686 -0.0691  0.2243 -0.7482
23682SOL    HW172487   0.362   4.738   1.672 -0.7464  0.7847  1.0108
23682SOL    HW272488   0.251   4.658   1.737  1.8853 -1.3652  3.0581
23683SOL     OW72489   0.966   2.918   0.718  0.5602 -0.1526  0.3360
23683SOL    HW172490   0.874   2.944   0.705  0.2008 -1.0840  0.9275
23683SOL    HW272491   0.972   2.831   0.679  1.3742  0.1868 -0.3109
23684SOL     OW72492   0.706   3.426   1.328 -0.1647 -0.3533  0.4236
23684SOL    HW172493   0.669   3.373   1.258 -1.9050 -0.2794  1.2447
23684SOL    HW272494   0.645   3.499   1.339  1.8266  1.5186 -0.2296
23685SOL     OW72495   6.854   4.084   3.277 -0.0330  0.1021  0.2065
23685SOL    HW172496   6.939   4.115   3.245  0.9780 -2.3129  0.2869
23685SOL    HW272497   6.812   4.048   3.199 -0.6477  0.5511  0.3249
23686SOL     OW72498   0.005   2.766   1.919 -0.2418  0.3086 -0.1672
23686SOL    HW172499  -0.027   2.676   1.915 -0.0531  0.0222  2.7390
23686SOL    HW272500  -0.049   2.808   1.987  0.7022  1.9334 -0.3712
23687SOL     OW72501   6.659   2.133   3.013  0.3049  0.2178  0.3103
23687SOL    HW172502   6.700   2.205   2.965  0.0353 -0.8043 -1.5197
23687SOL    HW272503   6.565   2.147   3.002  0.2454 -1.1318 -1.2677
23688SOL     OW72504   7.757   2.265   1.469  0.6068 -0.0640 -0.2278
23688SOL    HW172505   7.701   2.340   1.451 -0.4966 -0.4589  1.3392
23688SOL    HW272506   7.705   2.189   1.445  0.4464 -0.4369  1.1856
23689SOL     OW72507   7.069   3.101   2.457  0.0791  0.3424 -0.0128
23689SOL    HW172508   7.124   3.171   2.422  0.8072  0.3676  1.1309
23689SOL    HW272509   7.080   3.106   2.552 -0.8768 -0.5020  0.1685
23690SOL     OW72510   1.069   2.301   0.535 -0.4439 -0.5501  0.9956
23690SOL    HW172511   0.994   2.282   0.479  0.1458 -3.6730  1.0835
23690SOL    HW272512   1.133   2.233   0.513  1.7193  1.0016  2.1084
23691SOL     OW72513   7.378   2.146   2.374  0.6226  0.1288 -0.2664
23691SOL    HW172514   7.331   2.218   2.333  0.4484 -0.9313 -1.9964
23691SOL    HW272515   7.463   2.144   2.330  0.3437 -1.1804 -0.8091
23692SOL     OW72516   6.407   2.421   2.442  0.0959 -0.1443 -0.2120
23692SOL    HW172517   6.345   2.449   2.509 -0.7967 -0.5378 -0.8425
23692SOL    HW272518   6.488   2.467   2.462 -0.2125 -0.1105  1.0116
23693SOL     OW72519   7.273   3.158   3.211  0.0385  0.6824 -0.1239
23693SOL    HW172520   7.226   3.149   3.294  0.5357 -1.4304 -0.0260
23693SOL    HW272521   7.365   3.150   3.234  0.1262 -1.2149 -0.9931
23694SOL     OW72522   0.652   4.032   4.185 -0.0312 -0.0711  0.4844
23694SOL    HW172523   0.622   4.056   4.272  1.1685 -1.0075  1.1824
23694SOL    HW272524   0.583   4.064   4.126 -1.7806 -1.0406  1.9093
23695SOL     OW72525   6.215   1.671   5.450 -0.0656 -0.2053  0.3613
23695SOL    HW172526   6.222   1.756   5.493  0.5746 -0.5516  0.9660
23695SOL    HW272527   6.121   1.656   5.440 -0.2010  0.1554  1.0805
23696SOL     OW72528   5.151   4.864   1.957 -0.5885  0.4514  0.4264
23696SOL    HW172529   5.058   4.852   1.942 -0.6025  0.4546  0.5144
23696SOL    HW272530   5.179   4.786   2.005 -0.5329  0.4204  0.3448
23697SOL     OW72531   0.009   3.245   1.212  0.0374  0.1441 -0.1639
23697SOL    HW172532   0.044   3.182   1.149 -0.8454 -0.9449  0.4065
23697SOL    HW272533  -0.009   3.193   1.290 -0.8604  1.0779  0.2681
23698SOL     OW72534   7.082   3.378   1.846 -0.6009  0.0794  0.1059
23698SOL    HW172535   7.141   3.394   1.920 -0.5719  0.9225 -0.0845
23698SOL    HW272536   7.023   3.310   1.876  0.4832 -0.7972  0.2987
23699SOL     OW72537   6.517   4.340   2.615 -0.1246  0.2527  0.1023
23699SOL    HW172538   6.605   4.379   2.612  0.2264 -0.5355 -0.1993
23699SOL    HW272539   6.492   4.346   2.707  0.3144  0.3449  0.2220
23700SOL     OW72540   5.909   4.070   2.048 -0.2308  0.4419  0.0156
23700SOL    HW172541   5.830   4.104   2.090 -0.9853 -1.9068  0.6493
23700SOL    HW272542   5.981   4.109   2.097 -1.0674 -1.8115  3.3743
23701SOL     OW72543   6.574   3.817   4.301  0.2649  0.2148 -0.2181
23701SOL    HW172544   6.496   3.862   4.268 -0.2377  0.4809  1.2646
23701SOL    HW272545   6.643   3.839   4.238 -0.9998 -0.6198 -1.9416
23702SOL     OW72546   7.453   2.421   4.133 -0.3639  0.3459  0.1304
23702SOL    HW172547   7.384   2.475   4.171 -0.2185  1.4089 -1.0453
23702SOL    HW272548   7.437   2.424   4.039  0.9866  0.2004 -0.1258
23703SOL     OW72549   7.904   3.997   4.092 -0.4575  0.1011  0.1612
23703SOL    HW172550   7.947   3.937   4.032 -0.3078  1.4163 -1.1137
23703SOL    HW272551   7.964   4.071   4.099 -1.5305  1.0191  0.0401
23704SOL     OW72552   7.860   2.836   1.253  0.3289  0.1061  0.0844
23704SOL    HW172553   7.805   2.835   1.175 -0.3768 -1.1832  0.5677
23704SOL    HW272554   7.833   2.914   1.301  0.6181  0.7905 -0.8435
23705SOL     OW72555   7.855   2.733   3.241 -0.0885  0.1460 -0.8899
23705SOL    HW172556   7.931   2.791   3.241 -1.5398  2.1763  0.2075
23705SOL    HW272557   7.890   2.647   3.219  2.9617  0.4285  2.1117
23706SOL     OW72558   7.592   1.879   4.829 -0.0979 -0.0972  0.2509
23706SOL    HW172559   7.637   1.828   4.761  2.1992  0.6544  1.1202
23706SOL    HW272560   7.591   1.821   4.905 -1.2793 -0.3552  0.0639
23707SOL     OW72561   7.392   2.595   3.407 -0.4844  0.4422  0.2362
23707SOL    HW172562   7.409   2.658   3.337  1.4905 -0.5042 -0.1954
23707SOL    HW272563   7.323   2.538   3.371  0.0609  0.3533 -0.7008
23708SOL     OW72564   7.530   1.852   2.598  0.2789  0.0541 -0.2771
23708SOL    HW172565   7.566   1.800   2.670  1.3372  0.4407 -0.5056
23708SOL    HW272566   7.537   1.943   2.629  1.6638  0.3019 -1.2217
23709SOL     OW72567   5.512   3.766   2.207  0.5295  0.5495 -0.4877
23709SOL    HW172568   5.504   3.682   2.163 -1.3205  0.2494  0.3263
23709SOL    HW272569   5.607   3.782   2.212  1.1020 -2.5910  1.3723
23710SOL     OW72570   0.009   3.864   3.333 -0.2495  0.1823  0.4938
23710SOL    HW172571   0.006   3.912   3.250 -0.1693 -0.1236  0.3118
23710SOL    HW272572   0.087   3.897   3.377  0.6332 -0.8148 -0.2743
23711SOL     OW72573   7.576   1.028   4.268  0.2009  0.5584  0.1987
23711SOL    HW172574   7.520   0.997   4.340 -0.6982  2.5657  0.4242
23711SOL    HW272575   7.662   0.989   4.287 -0.2121  0.3822  1.9195
23712SOL     OW72576   5.549   3.896   5.096  0.4764 -0.7614  0.4185
23712SOL    HW172577   5.513   3.875   5.010  0.5442 -0.6189  0.3546
23712SOL    HW272578   5.474   3.926   5.147  0.5126 -0.3984  0.2645
23713SOL     OW72579   7.564   4.015   2.111  0.4722 -0.0466  0.4236
23713SOL    HW172580   7.619   4.062   2.173  0.5430  0.3517  0.0671
23713SOL    HW272581   7.528   4.083   2.054  0.2891 -0.3868  0.1231
23714SOL     OW72582   7.887   3.804   2.783 -0.4257 -0.2153 -0.3969
23714SOL    HW172583   7.833   3.729   2.807  1.4590 -2.1137 -1.7782
23714SOL    HW272584   7.918   3.839   2.867  1.7419 -3.4067  0.2836
23715SOL     OW72585   7.422   3.654   2.504 -0.0119 -0.1671 -0.7832
23715SOL    HW172586   7.427   3.580   2.444  1.0184 -0.5461 -0.2416
23715SOL    HW272587   7.483   3.719   2.469 -0.2883  0.0913 -0.7951
23716SOL     OW72588   1.353   1.026   2.086 -0.7293  0.4265  0.4626
23716SOL    HW172589   1.351   1.061   2.175 -0.0275  2.9508 -0.4195
23716SOL    HW272590   1.446   1.017   2.066 -0.8948 -1.0209  0.2776
23717SOL     OW72591   6.147   3.588   5.324 -0.2061 -0.0350  0.0495
23717SOL    HW172592   6.060   3.553   5.340 -0.1076 -0.6469 -0.7505
23717SOL    HW272593   6.205   3.512   5.323 -0.0401  0.0623 -2.0655
23718SOL     OW72594   0.716   3.844   3.510  0.5291  0.3797 -0.7619
23718SOL    HW172595   0.682   3.776   3.569 -1.2903  2.0812  0.2636
23718SOL    HW272596   0.710   3.804   3.423  1.7502 -1.6009 -0.0178
23719SOL     OW72597   7.897   1.097   1.173  0.3412  0.0262  0.3271
23719SOL    HW172598   7.902   1.167   1.238  0.5656 -0.3490  0.7182
23719SOL    HW272599   7.964   1.034   1.200 -1.0873 -1.2350  1.0429
23720SOL     OW72600   6.703   4.205   3.476 -0.1689 -0.1019 -0.5881
23720SOL    HW172601   6.621   4.185   3.430  0.5095  0.8285 -2.3081
23720SOL    HW272602   6.771   4.181   3.414  0.8469  0.0619  0.4367
23721SOL     OW72603   7.685   3.235   1.674  0.6213 -0.6895  0.4940
23721SOL    HW172604   7.635   3.310   1.641  0.0403 -0.6783  1.3725
23721SOL    HW272605   7.672   3.167   1.609 -0.2941 -0.5843  0.5546
23722SOL     OW72606   0.371   2.909   3.757 -0.1311  0.8718 -0.4410
23722SOL    HW172607   0.455   2.931   3.716  0.3698  0.2740  0.2297
23722SOL    HW272608   0.394   2.844   3.824 -1.1067  0.8575 -0.1108
23723SOL     OW72609   7.998   3.850   3.850  0.6144  0.2562  0.0986
23723SOL    HW172610   7.959   3.765   3.830  0.0681  1.0072 -2.3847
23723SOL    HW272611   8.091   3.839   3.832  0.7171 -0.1147  0.8603
23724SOL     OW72612   0.834   4.076   5.283 -0.3227 -0.7575  0.2532
23724SOL    HW172613   0.810   3.984   5.270 -0.3483 -0.8648  1.0048
23724SOL    HW272614   0.881   4.077   5.367 -0.2622 -0.0931  0.2180
23725SOL     OW72615   0.158   2.989   2.271  0.5898 -0.0032  0.0397
23725SOL    HW172616   0.157   2.976   2.366  0.7661 -0.9046 -0.0699
23725SOL    HW272617   0.194   2.908   2.237 -1.7861 -0.7431 -0.9570
23726SOL     OW72618   6.888   2.460   2.935  0.0153 -0.1051  0.2358
23726SOL    HW172619   6.833   2.518   2.987  0.6715 -1.3206  2.4179
23726SOL    HW272620   6.964   2.442   2.991  0.6339 -1.7244 -1.0273
23727SOL     OW72621   6.662   2.279   5.269 -0.4378 -0.1249  0.1674
23727SOL    HW172622   6.738   2.331   5.295 -1.6012  1.1370  1.2141
23727SOL    HW272623   6.637   2.232   5.349 -0.7918 -0.4852 -0.1490
23728SOL     OW72624   6.941   3.613   4.860 -0.4885 -0.8698  1.1824
23728SOL    HW172625   6.972   3.578   4.776 -0.1785  2.0255 -0.0032
23728SOL    HW272626   6.857   3.652   4.839  0.8788  2.5017  1.4235
23729SOL     OW72627   0.561   3.370   2.270 -0.1403 -0.1898 -0.5687
23729SOL    HW172628   0.615   3.358   2.192  0.6046  1.4952 -0.3606
23729SOL    HW272629   0.499   3.297   2.268  1.7099 -1.8253 -1.1546
23730SOL     OW72630   0.508   3.183   5.441 -0.3802 -0.4799 -0.0463
23730SOL    HW172631   0.491   3.095   5.407  1.5506 -0.6609 -0.6638
23730SOL    HW272632   0.603   3.193   5.434 -0.7474  2.6330 -2.4352
23731SOL     OW72633   6.443   2.849   2.354 -0.6785  0.2576 -0.2450
23731SOL    HW172634   6.436   2.941   2.327 -0.1963  0.4202  0.1624
23731SOL    HW272635   6.533   2.841   2.387 -0.4770 -0.5339 -0.9317
23732SOL     OW72636   6.262   3.958   3.666  0.6960  0.5182 -0.0163
23732SOL    HW172637   6.208   3.976   3.743 -2.3219 -1.2874 -1.5099
23732SOL    HW272638   6.316   4.036   3.655  0.4963  1.2600  3.2463
23733SOL     OW72639   5.507   3.340   2.334  0.2031  0.0137 -0.2151
23733SOL    HW172640   5.556   3.405   2.284 -0.7671  0.7238 -0.2737
23733SOL    HW272641   5.573   3.276   2.361  0.8938  0.1007 -1.6119
23734SOL     OW72642   7.924   4.375   3.483 -0.5980  0.6805  0.0338
23734SOL    HW172643   7.940   4.288   3.446  0.0571 -0.5036  2.8320
23734SOL    HW272644   8.012   4.407   3.504 -0.9530  1.2450  0.6554
23735SOL     OW72645   6.203   2.574   4.272 -0.2102 -0.0405  0.1012
23735SOL    HW172646   6.273   2.510   4.267  0.5378  0.8464 -2.5974
23735SOL    HW272647   6.247   2.658   4.261 -1.4377  0.7517  1.0342
23736SOL     OW72648   7.297   2.112   3.729  0.6136  0.1094  0.5548
23736SOL    HW172649   7.338   2.026   3.719  0.1754 -0.0809  0.3607
23736SOL    HW272650   7.274   2.138   3.640 -0.9607 -0.4237  0.7700
23737SOL     OW72651   6.842   3.068   1.038 -0.1693 -0.1284 -0.2283
23737SOL    HW172652   6.840   3.105   0.950 -2.3647 -0.1691 -0.2547
23737SOL    HW272653   6.820   3.141   1.095 -1.9303 -0.7534 -0.0457
23738SOL     OW72654   0.146   2.452   1.342 -0.2948  0.5647 -0.5057
23738SOL    HW172655   0.065   2.499   1.324 -0.2296  0.4025 -1.2915
23738SOL    HW272656   0.183   2.434   1.255  0.9465  1.2725 -0.1582
23739SOL     OW72657   6.951   2.646   2.229 -0.0036  0.1970 -0.2145
23739SOL    HW172658   6.981   2.728   2.268 -2.5540  1.8128 -1.4260
23739SOL    HW272659   6.982   2.578   2.289 -0.4020  2.2572  2.5066
23740SOL     OW72660   7.441   2.369   1.602 -0.0002 -0.2693  0.0429
23740SOL    HW172661   7.470   2.406   1.518 -1.2732  2.2603  0.6019
23740SOL    HW272662   7.441   2.275   1.589  1.0559  0.0063 -2.3820
23741SOL     OW72663   7.975   3.087   0.197 -0.1874  0.4775  0.7848
23741SOL    HW172664   8.066   3.101   0.170  0.1660 -0.6918  1.3296
23741SOL    HW272665   7.979   3.018   0.263 -1.4411  0.6405  1.0589
23742SOL     OW72666   0.809   3.906   2.081 -0.7753 -0.1096  0.5022
23742SOL    HW172667   0.894   3.901   2.126  0.6518 -1.6696 -2.0744
23742SOL    HW272668   0.830   3.943   1.995 -2.6341 -0.8624 -0.3196
23743SOL     OW72669   6.581   3.724   2.897  0.1271 -0.0173  0.1321
23743SOL    HW172670   6.660   3.703   2.946 -0.2638  2.3096  1.9637
23743SOL    HW272671   6.514   3.738   2.964 -0.4762  3.1941 -0.9259
23744SOL     OW72672   0.769   4.504   4.815 -0.3010 -0.4140  0.8706
23744SOL    HW172673   0.700   4.571   4.810 -1.1069 -1.2231  0.7062
23744SOL    HW272674   0.758   4.454   4.734 -0.2206 -1.2174  1.3511
23745SOL     OW72675   0.654   4.138   2.666  0.5195  0.4813  0.1976
23745SOL    HW172676   0.613   4.057   2.635 -0.3121  0.6881  0.6965
23745SOL    HW272677   0.686   4.117   2.754 -0.8407  1.0202  0.8524
23746SOL     OW72678   6.379   3.250   2.057  0.2510 -0.2108  0.1394
23746SOL    HW172679   6.465   3.248   2.013  0.4188 -1.5196  0.4868
23746SOL    HW272680   6.335   3.171   2.026  0.5028 -1.3832  2.5335
23747SOL     OW72681   7.482   2.528   3.850 -0.3177  0.2570  0.0697
23747SOL    HW172682   7.424   2.456   3.873  0.3466 -0.2960  0.0117
23747SOL    HW272683   7.478   2.532   3.754 -1.3568  1.1418  0.1239
23748SOL     OW72684   6.040   0.549   2.433  0.0051 -0.3027 -0.7243
23748SOL    HW172685   6.124   0.580   2.466 -0.9196  0.8660  0.5981
23748SOL    HW272686   6.039   0.577   2.341  0.3378  1.2343 -0.2838
23749SOL     OW72687   7.200   2.448   3.612 -0.2391 -0.2275 -0.1887
23749SOL    HW172688   7.208   2.380   3.545 -1.1018  0.9713 -1.5798
23749SOL    HW272689   7.259   2.518   3.582  0.8836 -0.4483  1.3819
23750SOL     OW72690   0.294   2.439   3.005 -0.1376 -0.5545 -0.2258
23750SOL    HW172691   0.297   2.349   3.038  0.8826 -0.6093 -0.4238
23750SOL    HW272692   0.314   2.493   3.082  1.5168 -0.6434 -0.5467
23751SOL     OW72693   0.223   1.886   4.361 -0.4123  0.2309 -0.1051
23751SOL    HW172694   0.169   1.911   4.436 -1.7703 -1.6787 -0.3803
23751SOL    HW272695   0.273   1.810   4.392 -1.6213 -1.1237 -1.3162
23752SOL     OW72696   0.095   3.413   2.768 -0.0485  0.1871  0.5774
23752SOL    HW172697   0.061   3.325   2.786  2.2275 -0.4300  2.3711
23752SOL    HW272698   0.021   3.460   2.731 -1.2908 -2.5421 -0.7308
23753SOL     OW72699   1.452   0.331   2.942  0.3483 -0.1571  0.6520
23753SOL    HW172700   1.479   0.291   2.860  0.5785  1.4359 -0.0739
23753SOL    HW272701   1.370   0.376   2.922  0.4352  0.3006  1.2668
23754SOL     OW72702   0.173   3.124   3.966 -0.5105 -0.4519  0.0838
23754SOL    HW172703   0.180   3.214   3.936 -0.3183 -0.3069  0.5683
23754SOL    HW272704   0.079   3.111   3.982 -0.3522  0.2369  1.7653
23755SOL     OW72705   7.753   2.680   2.772  0.4004  0.1596 -0.0742
23755SOL    HW172706   7.730   2.767   2.742  1.6019  0.8653  0.9436
23755SOL    HW272707   7.712   2.673   2.859  3.7098  1.4395  1.7735
23756SOL     OW72708   0.373   2.763   5.623 -0.4626  0.2050  0.0792
23756SOL    HW172709   0.417   2.844   5.648 -0.3003  0.3396 -0.6317
23756SOL    HW272710   0.444   2.702   5.602 -0.6058  0.3857 -0.9493
23757SOL     OW72711   7.557   2.495   3.596  0.0079 -0.0619  0.3880
23757SOL    HW172712   7.622   2.564   3.606 -0.6665  0.6140  0.1575
23757SOL    HW272713   7.503   2.523   3.522  0.8055 -1.7057 -0.8946
23758SOL     OW72714   0.177   2.559   3.808  0.1153 -0.0977  0.3995
23758SOL    HW172715   0.242   2.629   3.798  0.5199 -0.0395  2.8891
23758SOL    HW272716   0.095   2.605   3.829  0.0168 -0.3080  0.4835
23759SOL     OW72717   6.571   4.425   3.943 -0.4532 -0.1734  0.3750
23759SOL    HW172718   6.586   4.368   3.867  0.0385  1.0365 -0.4529
23759SOL    HW272719   6.594   4.370   4.018  1.2912 -0.6855 -0.4679
23760SOL     OW72720   1.238   2.929   3.599  0.0834  0.2742 -0.7037
23760SOL    HW172721   1.251   2.967   3.512  1.2545 -0.8580 -1.0556
23760SOL    HW272722   1.306   2.862   3.607 -0.9509 -0.6941  0.4930
23761SOL     OW72723   5.621   4.172   4.259 -0.2861 -0.1342  0.2464
23761SOL    HW172724   5.528   4.156   4.244 -0.4207 -0.4609  1.3262
23761SOL    HW272725   5.637   4.259   4.223 -0.6276 -0.7178 -1.4307
23762SOL     OW72726   7.717   1.382   3.821  0.3597  0.3568 -0.0609
23762SOL    HW172727   7.627   1.380   3.854 -0.2774  0.3678 -1.6933
23762SOL    HW272728   7.762   1.312   3.868 -0.6748 -0.0679  0.3118
23763SOL     OW72729   0.233   1.609   5.274 -0.0046 -0.2588 -0.3062
23763SOL    HW172730   0.246   1.630   5.366  0.5468  0.8178 -0.6171
23763SOL    HW272731   0.167   1.672   5.244  0.9836  0.4545 -1.0280
23764SOL     OW72732   5.826   4.396   5.488 -0.0840  0.3291 -0.1208
23764SOL    HW172733   5.756   4.380   5.426  0.1120  1.1087 -0.5586
23764SOL    HW272734   5.890   4.448   5.439 -0.0279  1.1493  0.7910
23765SOL     OW72735   6.662   3.939   3.872 -1.2737  0.6798 -0.3250
23765SOL    HW172736   6.715   3.899   3.941 -1.5308 -1.7037 -1.4115
23765SOL    HW272737   6.725   3.991   3.821 -0.5959  0.3754  0.1770
23766SOL     OW72738   0.858   3.307   6.081  0.5067 -0.0009  1.0015
23766SOL    HW172739   0.765   3.326   6.077  0.3782  0.1173  3.4406
23766SOL    HW272740   0.901   3.391   6.068  0.2849  0.0339  0.4466
23767SOL     OW72741   6.434   2.790   5.655 -0.2406 -0.1799  0.0995
23767SOL    HW172742   6.422   2.883   5.673 -0.1076 -0.2212  0.4143
23767SOL    HW272743   6.521   2.784   5.614 -1.3265  0.1543 -2.4343
23768SOL     OW72744   6.228   1.975   4.874  0.0682 -0.2121 -0.3877
23768SOL    HW172745   6.175   1.962   4.796  0.0066  1.7530 -0.7085
23768SOL    HW272746   6.169   2.014   4.938  0.9912  1.8285 -0.6859
23769SOL     OW72747   6.093   3.086   5.516  0.3558 -0.4629 -0.4936
23769SOL    HW172748   6.162   3.094   5.449  1.0256  0.5263  0.2859
23769SOL    HW272749   6.107   3.162   5.573 -1.2922 -0.3420 -0.2250
23770SOL     OW72750   7.906   3.045   5.515 -0.1027 -0.3508  0.7633
23770SOL    HW172751   7.812   3.061   5.524  0.0111 -0.4751  2.4076
23770SOL    HW272752   7.928   2.985   5.585  1.1661 -0.5893  0.2006
23771SOL     OW72753   1.031   2.449   6.254  0.3042 -0.1217 -0.0171
23771SOL    HW172754   1.048   2.482   6.342  0.3483  1.0818 -0.4455
23771SOL    HW272755   1.011   2.528   6.203 -3.6095 -1.0428 -0.2529
23772SOL     OW72756   7.247   4.174   5.397  0.2331 -0.0465 -0.5171
23772SOL    HW172757   7.270   4.252   5.346  0.1073 -0.5042 -1.2769
23772SOL    HW272758   7.316   4.169   5.464 -0.3905  1.3634  0.2739
23773SOL     OW72759   7.268   1.332   3.596 -0.3653 -0.2617  0.5749
23773SOL    HW172760   7.312   1.294   3.671  1.2739 -1.8942 -1.1097
23773SOL    HW272761   7.332   1.393   3.558 -0.4596 -0.8149 -0.5144
23774SOL     OW72762   7.971   2.388   5.536 -0.0946 -0.2510  0.0038
23774SOL    HW172763   7.893   2.442   5.553 -0.1731  0.0774 -1.2807
23774SOL    HW272764   8.040   2.451   5.517 -0.2018 -0.5565 -1.5711
23775SOL     OW72765   7.352   3.911   3.835  0.2009  1.1006  0.1401
23775SOL    HW172766   7.289   3.855   3.790  0.0876  1.2141  0.1584
23775SOL    HW272767   7.302   3.988   3.861 -0.4618 -0.2091  3.0504
23776SOL     OW72768   7.799   3.653   6.315 -0.1173 -0.0467 -0.1045
23776SOL    HW172769   7.821   3.597   6.389 -0.3710  1.1070  0.8729
23776SOL    HW272770   7.827   3.741   6.342  0.1682  0.3414 -1.5489
23777SOL     OW72771   7.491   0.208   3.258 -0.2401  0.3188  0.1326
23777SOL    HW172772   7.548   0.259   3.201  1.2014 -0.8110  0.4984
23777SOL    HW272773   7.515   0.235   3.346  3.5683 -3.6734  0.6466
23778SOL     OW72774   7.237   2.252   4.274 -0.2406  0.2968  0.0627
23778SOL    HW172775   7.330   2.262   4.253 -0.0966 -0.0844  0.5241
23778SOL    HW272776   7.235   2.207   4.358 -0.8342  0.8634  0.3649
23779SOL     OW72777   6.314   2.650   5.343  0.0097 -0.2221 -0.2682
23779SOL    HW172778   6.405   2.630   5.319  0.2990 -1.0950  1.4299
23779SOL    HW272779   6.304   2.615   5.431 -1.6474  0.8974  0.0377
23780SOL     OW72780   6.127   2.223   6.120 -0.2940 -0.2718  0.6220
23780SOL    HW172781   6.142   2.282   6.194  1.0690 -0.7288  0.7415
23780SOL    HW272782   6.036   2.196   6.129 -0.4811  0.5659  1.4719
23781SOL     OW72783   7.939   1.318   4.615  0.4511  0.2358  0.2533
23781SOL    HW172784   7.918   1.281   4.701  0.3896  0.9143  0.5410
23781SOL    HW272785   7.986   1.248   4.570  1.2290  0.1552  1.1546
23782SOL     OW72786   7.874   2.426   5.204  0.5446 -0.5754  0.2385
23782SOL    HW172787   7.964   2.459   5.215  0.4453 -0.0372 -0.4248
23782SOL    HW272788   7.878   2.336   5.234  1.1765 -0.3873  0.7580
23783SOL     OW72789   7.866   2.261   5.940  0.7485  0.1965 -0.7474
23783SOL    HW172790   7.893   2.173   5.917 -0.3874 -0.7374  1.2532
23783SOL    HW272791   7.804   2.286   5.871  1.7532 -0.1813 -1.8125
23784SOL     OW72792   7.616   4.396   3.519  0.0346 -0.9403  0.0495
23784SOL    HW172793   7.607   4.456   3.593 -1.0086 -1.3745  0.3006
23784SOL    HW272794   7.701   4.417   3.480  0.2489 -0.1829  0.9033
23785SOL     OW72795   6.290   2.959   5.031  0.0891  0.2518 -0.0914
23785SOL    HW172796   6.373   2.998   5.004  1.2869 -0.3703  2.3798
23785SOL    HW272797   6.314   2.873   5.066 -1.3819  0.5698  1.8882
23786SOL     OW72798   7.461   4.585   5.086 -0.3187 -0.0545 -0.3782
23786SOL    HW172799   7.479   4.569   4.993  0.1799 -2.0930  0.0082
23786SOL    HW272800   7.488   4.675   5.100  1.8673 -0.4108 -1.7214
23787SOL     OW72801   0.731   2.559   6.903  0.6332 -0.0330 -0.1210
23787SOL    HW172802   0.802   2.499   6.926  0.5727 -0.0132  0.1160
23787SOL    HW272803   0.749   2.638   6.955 -0.6502 -0.7282  1.4299
23788SOL     OW72804   0.874   1.834   5.616 -0.2307  0.1758 -0.1529
23788SOL    HW172805   0.868   1.739   5.622 -2.1863  0.3486  2.1511
23788SOL    HW272806   0.817   1.857   5.543 -0.5644 -0.3536 -0.0647
23789SOL     OW72807   6.251   2.169   5.485 -0.3733  0.9209  0.1003
23789SOL    HW172808   6.204   2.119   5.418 -0.1987  0.4556  0.3250
23789SOL    HW272809   6.197   2.247   5.499 -1.1037  0.3753  0.3808
23790SOL     OW72810   7.853   1.891   6.393  0.6480 -0.3477  0.4014
23790SOL    HW172811   7.883   1.837   6.321 -0.5342  1.5179 -1.6010
23790SOL    HW272812   7.866   1.981   6.364 -2.1141  0.5089  1.4361
23791SOL     OW72813   0.118   2.616   4.909  0.0805 -0.1347  0.2905
23791SOL    HW172814   0.084   2.559   4.978 -1.4144  0.5499  0.1507
23791SOL    HW272815   0.055   2.687   4.903  0.8011  0.4322 -0.9972
23792SOL     OW72816   0.554   0.941   4.265  0.0633  0.1192  0.2724
23792SOL    HW172817   0.467   0.958   4.302  0.3506  0.5761  0.7529
23792SOL    HW272818   0.573   1.020   4.213 -0.2056 -0.3837 -0.6173
23793SOL     OW72819   0.253   2.809   7.376 -0.0277 -0.2978  0.3938
23793SOL    HW172820   0.326   2.834   7.433  0.2767  1.0315 -0.5317
23793SOL    HW272821   0.177   2.805   7.434  0.3938  0.3755  1.0020
23794SOL     OW72822   6.922   1.703   5.986  0.4099 -0.3982 -0.1898
23794SOL    HW172823   6.954   1.697   5.896 -0.6498  1.8368 -0.7895
23794SOL    HW272824   7.001   1.704   6.040  1.1433 -0.1615 -1.2331
23795SOL     OW72825   6.497   2.836   3.868  0.4936  0.3000 -0.4731
23795SOL    HW172826   6.528   2.862   3.782  1.3453 -0.5910 -0.4469
23795SOL    HW272827   6.445   2.911   3.898 -0.4274  0.3402 -2.0458
23796SOL     OW72828   6.788   3.370   5.645  0.2170 -0.5986  0.1038
23796SOL    HW172829   6.849   3.383   5.718  2.5494 -2.3004 -1.3784
23796SOL    HW272830   6.741   3.290   5.666  1.8847 -1.8790 -0.7732
23797SOL     OW72831   0.391   2.042   4.562 -0.2852  0.1687  0.1910
23797SOL    HW172832   0.306   2.002   4.580  0.2164 -1.0175  0.0202
23797SOL    HW272833   0.409   2.096   4.638 -0.0292 -1.6036  1.4370
23798SOL     OW72834   5.550   1.702   6.175  0.2544  0.7544  0.3147
23798SOL    HW172835   5.478   1.657   6.219  0.2868  1.3764  1.0269
23798SOL    HW272836   5.508   1.757   6.109  0.0453  1.3068  0.8975
23799SOL     OW72837   0.499   2.695   6.266  0.1966 -0.0629  0.5511
23799SOL    HW172838   0.544   2.707   6.349 -0.2833 -0.5280  0.8834
23799SOL    HW272839   0.509   2.602   6.246 -1.4251 -0.3875  1.1223
23800SOL     OW72840   7.343   7.854   1.630 -0.8385 -0.1644  0.4025
23800SOL    HW172841   7.366   7.849   1.723 -0.9360 -1.5297  0.3765
23800SOL    HW272842   7.414   7.904   1.590 -1.6709  2.0023  1.4687
23801SOL     OW72843   7.673   3.298   5.283  0.6941  0.0115 -0.0435
23801SOL    HW172844   7.703   3.208   5.273 -2.6955 -1.3673  0.8300
23801SOL    HW272845   7.642   3.322   5.196  2.6397  0.8380 -0.5549
23802SOL     OW72846   7.691   4.364   3.160  0.1096 -0.1711  0.4085
23802SOL    HW172847   7.646   4.306   3.222  1.7910 -2.7463 -0.5891
23802SOL    HW272848   7.627   4.381   3.091  0.1914 -2.9057 -0.4610
23803SOL     OW72849   0.448   1.275   5.981 -0.5153  0.3977  0.0358
23803SOL    HW172850   0.536   1.287   6.016 -0.4789 -1.2595  0.6073
23803SOL    HW272851   0.461   1.243   5.892 -0.5882  1.6107 -0.4396
23804SOL     OW72852   7.592   4.562   3.733  0.3468 -0.7689 -0.0330
23804SOL    HW172853   7.500   4.566   3.761  0.9176 -0.2656  1.8929
23804SOL    HW272854   7.642   4.556   3.814  2.0551 -0.6354 -1.0272
23805SOL     OW72855   0.759   3.458   6.331 -0.8357 -0.0948  0.5364
23805SOL    HW172856   0.780   3.385   6.272 -0.3996 -0.0622  0.6538
23805SOL    HW272857   0.714   3.521   6.275  0.4940  0.3974 -0.0131
23806SOL     OW72858   5.782   2.629   5.797  0.0738  0.0764  0.1488
23806SOL    HW172859   5.789   2.724   5.792  2.3308 -0.0099  0.5195
23806SOL    HW272860   5.783   2.601   5.705 -2.0646  0.4273 -0.0295
23807SOL     OW72861   7.488   4.623   4.461  0.1061 -0.7551  0.2471
23807SOL    HW172862   7.512   4.675   4.539 -1.3283  0.0768  0.1715
23807SOL    HW272863   7.507   4.681   4.387  1.0182 -1.3668 -0.0085
23808SOL     OW72864   0.348   3.682   3.917 -0.1096  0.4454 -0.5594
23808SOL    HW172865   0.414   3.749   3.901  0.2243  0.3759  0.4327
23808SOL    HW272866   0.318   3.656   3.830  2.0360 -0.3776 -1.1242
23809SOL     OW72867   7.519   4.220   4.630 -0.2968  0.2470 -0.1334
23809SOL    HW172868   7.554   4.139   4.593  1.4257  0.0398  1.7729
23809SOL    HW272869   7.428   4.200   4.650 -0.2333 -0.8123 -0.8235
23810SOL     OW72870   7.012   2.686   3.474  0.2597  0.3928 -0.5075
23810SOL    HW172871   7.024   2.753   3.542  1.3193  0.4647 -0.7599
23810SOL    HW272872   7.039   2.605   3.516 -1.2705  0.0447 -0.1176
23811SOL     OW72873   5.791   2.391   4.890 -0.1849  0.4548  0.3845
23811SOL    HW172874   5.723   2.327   4.914 -0.8681  0.7343 -0.7168
23811SOL    HW272875   5.745   2.474   4.886 -0.0877  0.4644 -1.5965
23812SOL     OW72876   1.747   2.899   5.797  0.2626  0.0308 -0.3270
23812SOL    HW172877   1.818   2.958   5.773  1.0548 -1.4334 -1.8415
23812SOL    HW272878   1.774   2.814   5.762 -0.0434 -1.6642  3.2077
23813SOL     OW72879   7.107   3.996   5.605 -0.2860 -0.4773 -0.6931
23813SOL    HW172880   7.170   4.047   5.554  0.7945 -0.2029  0.8452
23813SOL    HW272881   7.029   4.050   5.609  0.6021  0.7905  0.3193
23814SOL     OW72882   7.583   3.561   4.413  0.0524 -0.2233  0.1805
23814SOL    HW172883   7.557   3.558   4.320  0.7800 -0.5300 -0.0204
23814SOL    HW272884   7.667   3.516   4.415  0.8047  1.1684  0.7298
23815SOL     OW72885   1.124   3.555   5.127  0.1597  0.1368  0.1925
23815SOL    HW172886   1.161   3.615   5.062  2.6686 -0.2865  1.1302
23815SOL    HW272887   1.073   3.493   5.076  0.2652  1.0936 -1.1355
23816SOL     OW72888   7.400   4.219   4.093 -0.0164  0.2537  0.1368
23816SOL    HW172889   7.391   4.244   4.185 -1.4084 -0.7583  0.3028
23816SOL    HW272890   7.430   4.128   4.096 -0.3211  0.1342 -0.4112
23817SOL     OW72891   5.462   2.696   4.529  0.1018 -0.4632 -0.0609
23817SOL    HW172892   5.465   2.600   4.525 -1.3075 -0.5027 -2.3888
23817SOL    HW272893   5.373   2.717   4.556  0.8710  0.2612  2.1331
23818SOL     OW72894   5.621   1.976   5.697 -0.7134 -0.4252 -0.4168
23818SOL    HW172895   5.525   1.980   5.699 -0.6603  0.7663  0.4815
23818SOL    HW272896   5.649   2.060   5.662 -0.0042 -1.2943 -2.0245
23819SOL     OW72897   1.302   1.815   7.447 -0.4486  0.2203  0.3688
23819SOL    HW172898   1.393   1.807   7.419 -0.0393  3.2327  0.5377
23819SOL    HW272899   1.251   1.804   7.366  0.0911 -0.4964  0.1119
23820SOL     OW72900   6.366   3.346   5.696 -0.0107 -0.1940 -0.1867
23820SOL    HW172901   6.271   3.343   5.697  0.0102 -1.5871 -0.6432
23820SOL    HW272902   6.388   3.423   5.749 -1.3488 -0.4557  0.7861
23821SOL     OW72903   1.114   1.292   6.346 -0.1771 -0.5109 -0.1727
23821SOL    HW172904   1.196   1.297   6.394 -0.5331  1.9935  0.3449
23821SOL    HW272905   1.046   1.303   6.413 -0.9041 -1.4725 -0.7221
23822SOL     OW72906   7.304   4.470   6.214 -0.5136  0.6948 -0.0863
23822SOL    HW172907   7.227   4.447   6.162 -0.9096  1.6767  0.0435
23822SOL    HW272908   7.369   4.404   6.191 -1.9996 -1.3460  1.2584
23823SOL     OW72909   2.197   3.532   7.248 -0.1319 -0.4562  0.3522
23823SOL    HW172910   2.237   3.446   7.261  1.1666  0.1548  0.4963
23823SOL    HW272911   2.223   3.583   7.325 -0.1303  0.3438 -0.1658
23824SOL     OW72912   7.800   3.292   5.769 -0.0540 -0.4581  0.3962
23824SOL    HW172913   7.774   3.204   5.742 -0.4916 -0.0437 -0.6107
23824SOL    HW272914   7.772   3.348   5.696 -0.5292  0.6274  1.3843
23825SOL     OW72915   0.566   3.304   5.716 -0.5809 -0.3969  0.0365
23825SOL    HW172916   0.661   3.315   5.708 -0.7712  0.2406 -1.6744
23825SOL    HW272917   0.547   3.225   5.664 -1.3774  1.5299 -2.8255
23826SOL     OW72918   7.356   3.717   5.117  0.0688 -0.0104 -0.2469
23826SOL    HW172919   7.347   3.735   5.023 -0.6112  0.1506 -0.1528
23826SOL    HW272920   7.397   3.796   5.152  0.8799 -0.3087 -0.4992
23827SOL     OW72921   0.531   3.519   7.168  0.1084 -0.0264 -0.6502
23827SOL    HW172922   0.550   3.524   7.074 -1.1264 -0.2531 -0.9302
23827SOL    HW272923   0.446   3.560   7.177  0.7324  1.0504  0.5627
23828SOL     OW72924   7.951   4.067   6.733  0.3118  0.0055 -0.0344
23828SOL    HW172925   7.962   4.107   6.647 -0.3363 -0.0877 -0.1626
23828SOL    HW272926   7.860   4.084   6.757  0.7387  0.8512  1.0530
23829SOL     OW72927   0.960   2.856   6.410  0.1929 -0.0235  0.0679
23829SOL    HW172928   1.019   2.926   6.439  0.7566 -0.6901  0.5622
23829SOL    HW272929   0.995   2.777   6.451 -0.9445 -0.4637  0.2017
23830SOL     OW72930   0.579   3.374   3.890  0.1316  0.2490  0.6966
23830SOL    HW172931   0.655   3.318   3.873 -0.7656 -1.2943  1.6000
23830SOL    HW272932   0.617   3.458   3.915  1.5154  0.5724 -2.0490
23831SOL     OW72933   0.324   0.106   5.998  0.3260 -0.7117 -0.2580
23831SOL    HW172934   0.308   0.015   5.974 -0.2931 -0.6814  0.0020
23831SOL    HW272935   0.277   0.157   5.932 -0.1750 -0.6053  0.1698
23832SOL     OW72936   7.893   3.925   5.661  0.5131 -0.1172  0.1667
23832SOL    HW172937   7.897   3.832   5.639  0.0383 -0.1181  0.0648
23832SOL    HW272938   7.933   3.931   5.747 -0.6312 -0.6163  0.7528
23833SOL     OW72939   0.431   2.212   7.726 -0.2064 -0.3721 -0.4831
23833SOL    HW172940   0.410   2.121   7.749  1.8430 -0.7892 -0.0061
23833SOL    HW272941   0.483   2.205   7.646  1.0583  0.2292  0.2427
23834SOL     OW72942   6.473   2.605   5.893 -0.3365  0.6323 -0.1690
23834SOL    HW172943   6.401   2.543   5.882  0.5018 -0.2309 -0.8999
23834SOL    HW272944   6.444   2.683   5.845 -1.0627  0.5488  0.1114
23835SOL     OW72945   0.180   3.849   5.547  0.0667 -0.3170  0.9216
23835SOL    HW172946   0.269   3.885   5.550  0.3741 -0.3611 -2.8819
23835SOL    HW272947   0.188   3.761   5.584  1.4626 -0.1228  1.1258
23836SOL     OW72948   7.177   2.660   7.274 -0.4286  0.2359  0.0324
23836SOL    HW172949   7.227   2.621   7.345 -0.1424 -0.9004 -0.7671
23836SOL    HW272950   7.087   2.633   7.289 -0.4402  0.3837  0.2235
23837SOL     OW72951   5.658   3.238   6.635 -0.1729  0.4033 -0.5198
23837SOL    HW172952   5.738   3.240   6.581 -0.6665 -0.4135 -1.3106
23837SOL    HW272953   5.587   3.227   6.571 -1.1439  3.2155 -0.0359
23838SOL     OW72954   7.272   1.648   5.181 -0.2395  0.4556 -0.4684
23838SOL    HW172955   7.300   1.735   5.152 -1.3364 -0.0702 -3.4700
23838SOL    HW272956   7.354   1.600   5.195  0.4140  1.0229 -2.1132
23839SOL     OW72957   0.946   2.692   6.179 -0.1267  0.3791 -0.2701
23839SOL    HW172958   0.965   2.748   6.254 -0.1552 -0.3557  0.2956
23839SOL    HW272959   0.874   2.737   6.134 -0.2691  0.7110  0.2737
23840SOL     OW72960   6.140   1.453   4.366  0.4280 -0.0023 -0.4204
23840SOL    HW172961   6.122   1.473   4.458  0.0758  0.6492 -0.6220
23840SOL    HW272962   6.135   1.357   4.361  1.2949 -0.1049  0.4035
23841SOL     OW72963   0.872   2.411   6.004 -0.2102  0.0552 -0.4500
23841SOL    HW172964   0.785   2.395   5.968 -0.5343  0.2891  0.2134
23841SOL    HW272965   0.857   2.427   6.098  0.6437 -0.8474 -0.1456
23842SOL     OW72966   7.674   4.060   5.850  0.2169 -0.1432 -0.5193
23842SOL    HW172967   7.758   4.016   5.833 -0.2655 -1.9573  1.3967
23842SOL    HW272968   7.688   4.150   5.820  2.7430 -0.4569 -0.5318
23843SOL     OW72969   6.466   2.209   7.685  0.0706 -0.5580 -1.0563
23843SOL    HW172970   6.500   2.295   7.659  0.4242 -1.0017 -2.0862
23843SOL    HW272971   6.380   2.204   7.645  0.0605 -0.7003 -1.0153
23844SOL     OW72972   1.519   3.630   8.791 -0.0829 -0.1075 -0.3439
23844SOL    HW172973   1.458   3.629   8.717  0.9788 -0.6565 -1.2512
23844SOL    HW272974   1.475   3.578   8.858 -0.7781 -0.1839 -0.8436
23845SOL     OW72975   7.262   2.929   6.791  0.3496 -0.2821 -0.0755
23845SOL    HW172976   7.321   2.861   6.759  0.8744 -0.4070  1.0862
23845SOL    HW272977   7.195   2.882   6.841  0.2029 -0.0187 -0.0199
23846SOL     OW72978   6.950   3.991   6.760 -0.3971 -0.1098  0.1896
23846SOL    HW172979   6.992   4.059   6.812 -0.3524  1.5141 -1.8379
23846SOL    HW272980   6.961   4.020   6.669  0.5899 -3.3961 -0.8511
23847SOL     OW72981   0.006   3.931   5.900  0.8684 -0.3103 -0.0854
23847SOL    HW172982  -0.003   3.872   5.975  0.1760  1.5979  1.3824
23847SOL    HW272983   0.100   3.950   5.896  0.8336  0.0128  0.6291
23848SOL     OW72984   1.215   3.243   6.775 -0.7451 -0.1926 -0.0561
23848SOL    HW172985   1.211   3.155   6.737  0.3461 -0.2730 -0.0165
23848SOL    HW272986   1.162   3.297   6.717 -2.3216 -1.0705  0.5115
23849SOL     OW72987   7.202   2.674   8.378 -0.5963  0.5560  0.0910
23849SOL    HW172988   7.129   2.625   8.416 -0.4532  1.1289  1.1389
23849SOL    HW272989   7.228   2.622   8.303  0.1651 -1.5179  1.6869
23850SOL     OW72990   1.356   3.934   6.122  0.1853  0.7202 -0.1519
23850SOL    HW172991   1.423   4.002   6.129  0.1350  0.6804  0.7970
23850SOL    HW272992   1.397   3.856   6.158  0.2260  0.2371 -1.1913
23851SOL     OW72993   1.253   1.659   7.869  0.2108 -0.2206  0.2814
23851SOL    HW172994   1.170   1.693   7.901  0.1490 -0.5049  0.4253
23851SOL    HW272995   1.244   1.658   7.773 -0.1716 -0.7978  0.3160
23852SOL     OW72996   0.627   3.628   6.165  0.1354 -0.3695  0.3501
23852SOL    HW172997   0.615   3.709   6.215 -0.5380 -0.9688  1.1851
23852SOL    HW272998   0.607   3.654   6.075 -3.2315 -0.2170  0.9902
23853SOL     OW72999   7.454   1.802   6.438  0.3343  0.7304 -0.0464
23853SOL    HW173000   7.522   1.734   6.433  0.4066  0.7662  0.4109
23853SOL    HW273001   7.474   1.861   6.366 -0.2177 -0.1761 -0.9812
23854SOL     OW73002   7.307   3.424   7.771 -0.5916  0.6602 -0.8131
23854SOL    HW173003   7.212   3.409   7.777 -0.5061  0.4989  0.3483
23854SOL    HW273004   7.325   3.489   7.840  0.3946 -0.6234  0.1940
23855SOL     OW73005   7.973   2.629   5.815  0.0123  0.0548 -0.1766
23855SOL    HW173006   7.897   2.611   5.759 -0.2849  0.2040  0.1765
23855SOL    HW273007   7.953   2.586   5.898  0.3871 -0.0392 -0.1318
23856SOL     OW73008   0.389   2.553   7.475 -0.1159 -0.0793  0.2424
23856SOL    HW173009   0.456   2.484   7.480  0.5053  0.5741  1.7673
23856SOL    HW273010   0.439   2.634   7.467 -0.7722  0.3229  0.1470
23857SOL     OW73011   0.167   2.596   4.644 -0.4432  0.1811  0.0803
23857SOL    HW173012   0.074   2.621   4.653  0.3360  3.3579  0.7783
23857SOL    HW273013   0.207   2.626   4.725  1.3003 -0.7198 -0.4134
23858SOL     OW73014   7.621   0.846   6.238 -0.0593  0.5689  0.1787
23858SOL    HW173015   7.605   0.862   6.331 -1.3596  1.1046 -0.1240
23858SOL    HW273016   7.626   0.933   6.199 -3.3266  0.4183 -0.8464
23859SOL     OW73017   0.822   2.516   6.645 -0.4877 -0.1805 -0.0067
23859SOL    HW173018   0.802   2.426   6.620  0.1783 -0.2072 -0.4455
23859SOL    HW273019   0.796   2.521   6.737  3.2259 -2.0369  1.3130
23860SOL     OW73020   6.948   2.826   8.255  0.8497 -0.3586  0.3038
23860SOL    HW173021   7.025   2.815   8.200  0.3640 -1.9332 -0.1272
23860SOL    HW273022   6.973   2.789   8.340  1.5712  1.9924  1.1887
23861SOL     OW73023   0.984   3.527   6.026  0.1433  0.3761  0.4875
23861SOL    HW173024   0.968   3.538   5.932 -1.3650 -0.7077  0.5890
23861SOL    HW273025   1.069   3.482   6.030 -0.6950 -1.3781 -0.4669
23862SOL     OW73026   1.673   1.967   5.911 -0.1035 -0.4291  0.2266
23862SOL    HW173027   1.601   1.977   5.974  0.3823  0.9961  0.5929
23862SOL    HW273028   1.665   2.044   5.854  0.8592 -0.5001 -0.0105
23863SOL     OW73029   7.237   3.422   6.021  0.4156 -0.2496 -0.1413
23863SOL    HW173030   7.333   3.418   6.019  0.4431 -0.9594  1.2150
23863SOL    HW273031   7.216   3.514   6.009  1.1840 -0.2700 -2.0275
23864SOL     OW73032   6.369   2.797   6.133  0.0022  0.8072 -0.0468
23864SOL    HW173033   6.378   2.864   6.065  1.6373  0.6626 -0.0158
23864SOL    HW273034   6.316   2.839   6.200 -1.9622  0.8405 -1.5186
23865SOL     OW73035   7.426   2.587   5.831  0.1392 -0.5815 -0.3139
23865SOL    HW173036   7.484   2.606   5.905  0.3785  0.2716 -0.7058
23865SOL    HW273037   7.456   2.646   5.762  0.0371 -1.4785 -1.1571
23866SOL     OW73038   0.262   2.306   7.113  0.2320  0.4045  0.1063
23866SOL    HW173039   0.282   2.215   7.136  0.9996  0.9332  1.6521
23866SOL    HW273040   0.179   2.324   7.157 -0.4427  0.1725 -1.0262
23867SOL     OW73041   7.479   3.813   9.526  0.1643 -0.0355  0.2356
23867SOL    HW173042   7.463   3.818   9.431 -0.7208  0.8563  0.4152
23867SOL    HW273043   7.570   3.786   9.533 -0.0140 -1.0492 -0.8703
23868SOL     OW73044   0.952   3.283   6.677 -0.6949 -0.5495  0.5802
23868SOL    HW173045   0.878   3.236   6.638 -0.7684  0.8802 -1.1102
23868SOL    HW273046   0.928   3.292   6.769 -1.4994 -2.2158  0.5630
23869SOL     OW73047   7.052   3.896   7.138  0.8016  1.1609 -0.2415
23869SOL    HW173048   7.041   3.943   7.221  0.4886  0.4746  0.1146
23869SOL    HW273049   7.112   3.825   7.159 -1.1941 -0.5086  0.0199
23870SOL     OW73050   6.513   3.506   6.305  0.0028  0.0863 -0.2280
23870SOL    HW173051   6.442   3.456   6.265  0.7515  0.0246 -1.5292
23870SOL    HW273052   6.585   3.499   6.244  0.2715  2.4507 -0.2853
23871SOL     OW73053   0.171   1.071   5.072 -0.1515 -0.5814 -0.3553
23871SOL    HW173054   0.204   1.079   5.162  0.9097  0.7489 -0.8358
23871SOL    HW273055   0.079   1.046   5.083  0.1090 -1.0092  1.0850
23872SOL     OW73056   5.552   2.858   6.628 -0.6807 -0.4697  0.5868
23872SOL    HW173057   5.508   2.940   6.652 -0.8603 -0.4019  0.0416
23872SOL    HW273058   5.532   2.798   6.700 -1.9897 -0.5576  0.1683
23873SOL     OW73059   7.652   2.144   4.873  0.0725  0.0876  0.1658
23873SOL    HW173060   7.649   2.049   4.861 -0.7337  0.0937  0.2806
23873SOL    HW273061   7.565   2.168   4.905  0.6119  0.7287  1.2047
23874SOL     OW73062   5.368   3.004   5.920 -0.7394 -0.0258  0.1917
23874SOL    HW173063   5.277   3.019   5.895 -0.7674 -2.2621 -1.2831
23874SOL    HW273064   5.419   3.035   5.845 -0.4675 -1.3687 -0.1989
23875SOL     OW73065   0.089   3.595   5.439  0.4329 -0.4613 -0.1649
23875SOL    HW173066   0.071   3.503   5.454  0.9043 -0.3215  1.4560
23875SOL    HW273067   0.031   3.641   5.499 -0.4032  0.3602 -1.5461
23876SOL     OW73068   6.345   2.881   6.930  0.1714  0.5505 -0.2783
23876SOL    HW173069   6.434   2.850   6.915  0.9284  2.6028 -0.3402
23876SOL    HW273070   6.354   2.976   6.940 -1.6358  0.5603  2.4519
23877SOL     OW73071   6.411   3.321   6.848  0.0226 -0.3008  0.5363
23877SOL    HW173072   6.412   3.273   6.931 -3.9549  2.0452  2.2820
23877SOL    HW273073   6.361   3.265   6.788 -0.7411 -0.2743  1.1309
23878SOL     OW73074   0.719   4.050   7.069 -0.1074 -0.0663 -0.1094
23878SOL    HW173075   0.776   4.092   7.134 -0.3884 -1.0608  0.8118
23878SOL    HW273076   0.636   4.097   7.076 -0.0545  0.0040  0.0580
23879SOL     OW73077   0.459   1.575   5.956  0.2543  0.0292  0.0674
23879SOL    HW173078   0.439   1.485   5.930 -1.4143  0.7899 -1.5085
23879SOL    HW273079   0.396   1.595   6.025  1.0890 -0.1914  0.9265
23880SOL     OW73080   7.624   3.780   5.919 -0.0979 -0.8293  0.1485
23880SOL    HW173081   7.606   3.805   6.010  0.0416 -0.2118  0.0098
23880SOL    HW273082   7.635   3.863   5.873  2.6354 -1.1185  0.1161
23881SOL     OW73083   0.516   4.016   7.371 -0.0573  0.4930 -0.0705
23881SOL    HW173084   0.607   4.035   7.390  0.5164 -2.3783  0.5508
23881SOL    HW273085   0.488   4.086   7.312  2.7369  1.0466 -0.8584
23882SOL     OW73086   7.152   2.833   8.061 -0.3161  0.1570  0.7278
23882SOL    HW173087   7.168   2.925   8.040 -0.8576 -0.3880 -2.5589
23882SOL    HW273088   7.229   2.787   8.028 -0.8917 -0.7581  0.6200
23883SOL     OW73089   7.472   3.779   7.838  0.2412 -0.3736  0.4135
23883SOL    HW173090   7.463   3.847   7.771  0.0695  0.2765  1.0780
23883SOL    HW273091   7.551   3.732   7.814 -0.1214 -0.5113 -0.5578
23884SOL     OW73092   0.852   3.938   8.000 -0.2470 -0.4179 -0.3981
23884SOL    HW173093   0.780   3.876   7.997  0.9988 -2.1504  2.0220
23884SOL    HW273094   0.926   3.891   7.960  0.9295 -0.9863  2.2047
23885SOL     OW73095   0.069   2.604   6.109 -0.2528 -0.2691  0.0400
23885SOL    HW173096   0.085   2.545   6.182 -0.3075  0.8611  1.0037
23885SOL    HW273097   0.135   2.673   6.119 -1.9100  1.3180  0.6223
23886SOL     OW73098   7.373   4.530   6.985 -0.0658  0.6796  0.0452
23886SOL    HW173099   7.319   4.501   6.912  2.4856 -2.5739 -0.8339
23886SOL    HW273100   7.458   4.551   6.945  0.8492  0.6351  1.8514
23887SOL     OW73101   7.305   1.905   8.665 -0.0444 -0.4218  0.7798
23887SOL    HW173102   7.394   1.907   8.630  0.0395  0.0339  1.0080
23887SOL    HW273103   7.260   1.977   8.620 -0.2384 -0.5211  0.8143
23888SOL     OW73104   1.049   4.070   8.578  0.2993 -0.1156  0.5947
23888SOL    HW173105   1.049   4.017   8.659  2.6851  1.4319  1.7028
23888SOL    HW273106   1.136   4.056   8.540  0.4067  1.7689  0.0811
23889SOL     OW73107   7.125   3.390   6.747  0.0922 -0.1288 -0.0060
23889SOL    HW173108   7.069   3.454   6.703 -1.2101 -1.2832 -0.0989
23889SOL    HW273109   7.212   3.402   6.708 -0.0268  1.8083  0.2473
23890SOL     OW73110   7.646   5.444   8.530  0.0793  0.0888  0.2823
23890SOL    HW173111   7.616   5.419   8.443  1.1094 -0.2768  0.0101
23890SOL    HW273112   7.642   5.540   8.530  1.1102  0.1561 -0.5859
23891SOL     OW73113   0.075   1.985   9.796 -0.5389 -0.0350  0.4666
23891SOL    HW173114   0.137   1.924   9.756 -1.1712 -0.1525 -0.3671
23891SOL    HW273115   0.127   2.061   9.821 -0.1889  0.2554 -1.0399
23892SOL     OW73116   7.480   3.671   7.225 -0.2144  0.3806  0.4485
23892SOL    HW173117   7.485   3.630   7.138 -0.6943 -0.0358  0.6113
23892SOL    HW273118   7.528   3.753   7.215  0.6439 -0.1526  0.0779
23893SOL     OW73119   7.331   0.966   9.420  0.1695 -0.0179  0.3445
23893SOL    HW173120   7.327   1.015   9.337  0.3351 -0.5559  0.0145
23893SOL    HW273121   7.240   0.952   9.443  0.0895 -1.2334 -0.5790
23894SOL     OW73122   7.769   2.528   6.631  0.3014 -0.0059  0.0274
23894SOL    HW173123   7.686   2.493   6.598  0.9125 -2.9140  1.2926
23894SOL    HW273124   7.815   2.560   6.553 -0.8065 -1.0102 -1.0711
23895SOL     OW73125   6.764   2.125   7.433  0.3358 -0.1290  0.0900
23895SOL    HW173126   6.741   2.180   7.358 -0.3702 -1.2783 -0.5692
23895SOL    HW273127   6.778   2.187   7.505 -1.6611  0.8523 -0.2974
23896SOL     OW73128   7.866   4.514   9.602  0.2849  0.0762  0.5561
23896SOL    HW173129   7.859   4.584   9.537  0.2615  0.0635  0.5452
23896SOL    HW273130   7.947   4.532   9.648  1.3352 -1.0133 -0.7763
23897SOL     OW73131   0.860   2.247   7.813 -0.2490 -0.8323  0.7833
23897SOL    HW173132   0.867   2.342   7.804  0.3926 -0.7707  1.8077
23897SOL    HW273133   0.848   2.216   7.723 -0.8965  0.2372  0.4748
23898SOL     OW73134   1.674   5.954   8.285  0.3307  0.5561  0.6978
23898SOL    HW173135   1.647   5.954   8.376  0.8886  1.0090  0.8706
23898SOL    HW273136   1.770   5.962   8.288  0.9180 -3.9629  0.1755
23899SOL     OW73137   7.895   3.571   8.043 -0.1598  0.7159  0.3043
23899SOL    HW173138   7.960   3.623   7.995 -0.8682  1.2553 -0.0810
23899SOL    HW273139   7.920   3.580   8.135  0.3808  0.8142  0.1517
23900SOL     OW73140   7.224   2.453   9.464 -0.5870 -0.0871  0.1308
23900SOL    HW173141   7.248   2.457   9.371 -1.2193  0.7616 -0.0089
23900SOL    HW273142   7.209   2.360   9.480  3.0836 -0.7748  0.3454
23901SOL     OW73143   7.476   0.476   8.153  0.2526  0.5624  0.1298
23901SOL    HW173144   7.405   0.535   8.129  0.9095  1.6175  0.6666
23901SOL    HW273145   7.553   0.512   8.109  0.6103 -0.0766  0.2124
23902SOL     OW73146   0.797   3.550   8.423  0.0619  0.1509  0.6592
23902SOL    HW173147   0.865   3.614   8.442 -0.1788  0.9943 -1.1189
23902SOL    HW273148   0.825   3.471   8.470  1.9332  0.6545  0.4853
23903SOL     OW73149   0.941   3.553   6.500 -0.8948 -0.4058 -0.6720
23903SOL    HW173150   0.949   3.488   6.569 -2.1500  1.1428  1.0179
23903SOL    HW273151   0.882   3.514   6.436  0.2438 -1.8393 -0.9019
23904SOL     OW73152   0.405   1.173   7.987  0.0493 -0.4382  0.3043
23904SOL    HW173153   0.437   1.262   7.968  0.7953 -0.9655 -1.0654
23904SOL    HW273154   0.318   1.170   7.947  0.6701 -0.7977 -1.0979
23905SOL     OW73155   2.073   1.718   8.115 -0.2597 -0.4895  0.3363
23905SOL    HW173156   2.164   1.690   8.108 -0.5613 -1.1324 -2.0198
23905SOL    HW273157   2.071   1.804   8.072 -0.8985 -0.9355 -0.5697
23906SOL     OW73158   0.268   2.111   6.852 -0.2379  0.0927  0.0981
23906SOL    HW173159   0.216   2.119   6.772  2.3511 -0.0948 -1.7462
23906SOL    HW273160   0.255   2.195   6.897 -0.0608  1.1298 -1.6796
23907SOL     OW73161   7.088   3.163   7.846 -1.0025  0.4625 -0.0975
23907SOL    HW173162   7.030   3.127   7.912 -0.7263 -2.5482 -1.3610
23907SOL    HW273163   7.176   3.150   7.882 -0.9036 -0.0914 -0.5264
23908SOL     OW73164   6.951   2.511   8.726 -0.0305  0.0709 -0.4676
23908SOL    HW173165   7.000   2.464   8.794  1.8582  0.9913 -1.1275
23908SOL    HW273166   6.898   2.574   8.774  2.0756  1.4504  0.1753
23909SOL     OW73167   0.150   1.498   9.020  0.2511  0.2640  0.3204
23909SOL    HW173168   0.161   1.592   9.011 -1.1628  0.3379 -1.0100
23909SOL    HW273169   0.060   1.487   9.051 -0.4585 -0.6801 -1.8438
23910SOL     OW73170   1.306   3.473   8.158 -0.4875 -0.3541 -0.0471
23910SOL    HW173171   1.227   3.427   8.129 -0.1547 -0.1022 -1.4220
23910SOL    HW273172   1.288   3.565   8.140 -1.0412  0.0787  2.4386
23911SOL     OW73173   0.548   5.319   8.855 -0.2114 -0.1996 -0.1085
23911SOL    HW173174   0.596   5.237   8.845  0.0100  0.0797 -1.6038
23911SOL    HW273175   0.616   5.387   8.851 -0.6377  0.1696 -1.6915
23912SOL     OW73176   6.274   2.574   7.680 -0.8655 -0.4656  0.3258
23912SOL    HW173177   6.270   2.644   7.615  1.0346  0.1981  0.8476
23912SOL    HW273178   6.284   2.619   7.764  1.6089 -1.2890  0.5693
23913SOL     OW73179   0.016   3.407   8.463  0.2242 -1.1781 -0.2638
23913SOL    HW173180   0.095   3.353   8.465 -1.1712 -3.3566 -0.3439
23913SOL    HW273181  -0.036   3.376   8.538 -0.5192  0.2892 -0.1312
23914SOL     OW73182   6.959   3.579   7.438  0.0333  0.2390  0.5822
23914SOL    HW173183   6.955   3.674   7.446  0.0737  0.1413  2.0882
23914SOL    HW273184   7.039   3.554   7.485 -0.6573 -0.6152  1.3676
23915SOL     OW73185   0.002   0.769   9.467 -0.2949 -0.1664  0.6153
23915SOL    HW173186  -0.059   0.739   9.400 -0.4193 -0.7972  0.9968
23915SOL    HW273187  -0.052   0.821   9.527 -0.1986  0.3343  0.2730
23916SOL     OW73188   0.579   2.103   8.791  0.6684  0.0003  0.7165
23916SOL    HW173189   0.488   2.112   8.764  0.7060 -1.6176 -0.0653
23916SOL    HW273190   0.579   2.028   8.850  1.6844 -0.9168 -0.3908
23917SOL     OW73191   0.677   2.989   6.770 -0.5942 -0.1288  0.0208
23917SOL    HW173192   0.623   2.910   6.772 -1.2336  0.3073  0.6556
23917SOL    HW273193   0.723   2.985   6.686 -1.0978 -0.8582 -0.2263
23918SOL     OW73194   1.247   2.343   7.294 -0.1240 -0.3767 -0.2158
23918SOL    HW173195   1.277   2.299   7.374 -0.3801  0.0024  0.0888
23918SOL    HW273196   1.325   2.346   7.238  0.2001 -0.1456  0.2401
23919SOL     OW73197   6.921   3.342   7.646 -0.5178 -0.1166 -0.3146
23919SOL    HW173198   6.943   3.427   7.683 -1.6824 -0.3335  0.9907
23919SOL    HW273199   6.987   3.282   7.682 -0.9081 -0.1059  0.4396
23920SOL     OW73200   7.924   1.288   9.239  0.4889 -0.2713  0.2266
23920SOL    HW173201   7.955   1.226   9.305  1.6478  0.5157  0.4648
23920SOL    HW273202   7.943   1.374   9.276 -0.8203  0.2305 -0.2223
23921SOL     OW73203   0.358   3.946   9.536  0.0552 -0.0216 -0.0908
23921SOL    HW173204   0.303   3.872   9.563 -0.4840 -0.3195 -1.9023
23921SOL    HW273205   0.306   3.992   9.471  1.5148  0.3389 -1.0418
23922SOL     OW73206   6.946   1.615   8.363 -0.0300 -0.4460 -0.1460
23922SOL    HW173207   6.954   1.532   8.410 -0.5741 -0.9769 -0.9664
23922SOL    HW273208   6.983   1.680   8.423  1.8631 -1.4804 -0.1130
23923SOL     OW73209   6.896   5.743   8.758  0.5015  0.0429 -0.0404
23923SOL    HW173210   6.969   5.681   8.767  0.6790  0.1265 -0.8340
23923SOL    HW273211   6.889   5.758   8.664  0.2077  0.9427  0.1204
23924SOL     OW73212   0.967   3.775   8.458  0.3133  0.1860 -0.0768
23924SOL    HW173213   0.985   3.783   8.552 -0.0620  1.1912 -0.0687
23924SOL    HW273214   1.054   3.772   8.417  0.4901 -1.5308  0.3702
23925SOL     OW73215   6.523   2.159   9.198  0.6612  0.1971  0.2543
23925SOL    HW173216   6.545   2.118   9.115 -1.8452  0.3364 -0.5712
23925SOL    HW273217   6.606   2.165   9.245  2.3536  1.0264 -2.6142
23926SOL     OW73218   0.294   3.347   8.803  0.0234  0.1242 -0.0360
23926SOL    HW173219   0.215   3.382   8.844  0.3208 -0.5401  1.1631
23926SOL    HW273220   0.301   3.394   8.720 -0.5106  1.6711  0.7447
23927SOL     OW73221   0.037   1.538   7.012  0.3166  1.0589  0.0725
23927SOL    HW173222   0.110   1.564   7.069  0.3861 -1.1729  1.1500
23927SOL    HW273223   0.080   1.494   6.938  0.1314  1.5287 -0.3117
23928SOL     OW73224   7.863   2.033   9.518 -0.1593  0.2420  0.3296
23928SOL    HW173225   7.874   1.945   9.481 -0.3052 -0.7467  2.4930
23928SOL    HW273226   7.920   2.089   9.464  2.5504 -1.7690  0.8748
23929SOL     OW73227   7.418   3.098   7.754 -0.0313  0.0699 -0.3625
23929SOL    HW173228   7.488   3.152   7.717  1.0802 -0.1456  1.2856
23929SOL    HW273229   7.392   3.145   7.834 -1.1412 -0.3215 -0.4759
23930SOL     OW73230   0.076   2.724   8.427 -0.2000 -0.7977 -0.3443
23930SOL    HW173231   0.003   2.772   8.466  0.9798  0.5594  0.2750
23930SOL    HW273232   0.068   2.742   8.333 -0.8212 -0.9083 -0.3194
23931SOL     OW73233   0.496   3.181   8.923  0.2312  0.2191 -0.4367
23931SOL    HW173234   0.480   3.087   8.932  0.3713  0.2451  0.1608
23931SOL    HW273235   0.424   3.212   8.869 -1.0748  0.1156  1.1438
23932SOL     OW73236   0.879   2.568  10.925  0.0237 -0.0022  0.5872
23932SOL    HW173237   0.942   2.587  10.856 -0.6807  0.8715  0.1769
23932SOL    HW273238   0.930   2.574  11.006  1.0684 -1.9319  0.1317
23933SOL     OW73239   7.496   2.641   6.192 -0.4008 -0.2196 -0.5169
23933SOL    HW173240   7.440   2.707   6.231 -1.1151 -0.7124 -0.6869
23933SOL    HW273241   7.568   2.690   6.152 -2.1447  0.7009 -2.7805
23934SOL     OW73242   7.925   3.333   7.901  0.0299 -0.0770  0.6062
23934SOL    HW173243   7.905   3.424   7.882  0.3203 -0.5168 -2.4045
23934SOL    HW273244   8.013   3.334   7.939 -0.2195  0.9224  1.1695
23935SOL     OW73245   1.762   4.176   8.180 -0.2230  0.4543 -0.0233
23935SOL    HW173246   1.783   4.084   8.165  0.7066  0.7958 -0.9254
23935SOL    HW273247   1.746   4.212   8.093  1.3735  1.5792  0.0986
23936SOL     OW73248   6.111   4.029   7.693 -0.1414  0.2832  0.1056
23936SOL    HW173249   6.052   4.100   7.668  0.0038  0.0251 -0.9795
23936SOL    HW273250   6.194   4.051   7.651  0.8191  1.0420  2.2156
23937SOL     OW73251   7.020   2.228   7.761 -0.2467 -0.0543  0.0414
23937SOL    HW173252   7.003   2.149   7.812  0.7404  0.2591  0.9159
23937SOL    HW273253   7.102   2.209   7.715  2.0360  1.6369  3.0237
23938SOL     OW73254   6.583   1.209   6.944  0.6925 -0.3328  0.0977
23938SOL    HW173255   6.520   1.274   6.913  1.0264  0.2060  0.5214
23938SOL    HW273256   6.618   1.247   7.025  1.7080 -0.5299 -0.2428
23939SOL     OW73257   7.220   1.106   8.546 -0.4653 -0.2803 -0.3276
23939SOL    HW173258   7.250   1.125   8.636 -0.0581  1.4034 -0.7827
23939SOL    HW273259   7.300   1.086   8.498 -0.4848  0.5035 -0.6954
23940SOL     OW73260   0.099   5.962   8.504  0.5276  0.5401 -0.1233
23940SOL    HW173261   0.042   5.970   8.581  2.0432  0.4857  1.0385
23940SOL    HW273262   0.188   5.971   8.538  1.2252  1.3327 -1.9900
23941SOL     OW73263   2.001   3.423   9.438 -0.3413 -0.3948 -0.6949
23941SOL    HW173264   1.970   3.333   9.426  0.7227 -0.9579  0.6080
23941SOL    HW273265   2.060   3.419   9.514  1.0945  1.0679 -1.6620
23942SOL     OW73266   7.013   2.261   8.592 -0.0884  0.3150 -0.5241
23942SOL    HW173267   7.015   2.355   8.612 -1.2750  0.0715  0.8682
23942SOL    HW273268   6.961   2.222   8.662  1.8054 -1.6429 -0.0755
23943SOL     OW73269   7.919   2.770   9.653 -0.0592  0.6255  0.0843
23943SOL    HW173270   7.910   2.861   9.682 -0.6413 -0.1942  2.7443
23943SOL    HW273271   7.993   2.736   9.704 -0.2954 -0.5777 -0.3536
23944SOL     OW73272   0.712   2.736   7.739 -0.3094  0.3355 -0.2181
23944SOL    HW173273   0.621   2.707   7.747 -0.4099  0.8270  0.4712
23944SOL    HW273274   0.744   2.692   7.660 -0.2036 -2.3312  1.2093
23945SOL     OW73275   7.727   3.672   7.790 -0.9701 -0.2452  0.2121
23945SOL    HW173276   7.722   3.652   7.697  1.1011 -0.4650  0.0906
23945SOL    HW273277   7.814   3.642   7.816 -0.3738  2.4129  1.5889
23946SOL     OW73278   0.555   1.754   8.738  0.1246 -0.3341 -0.3930
23946SOL    HW173279   0.460   1.743   8.731 -0.0623  0.4831  0.5771
23946SOL    HW273280   0.590   1.666   8.747 -0.7167 -0.5594  0.9300
23947SOL     OW73281   0.132   2.921  10.422 -0.0502  0.5592 -0.3176
23947SOL    HW173282   0.070   2.869  10.371  0.5643 -0.7522  0.2494
23947SOL    HW273283   0.210   2.866  10.429  0.5817  1.5135  0.3895
23948SOL     OW73284   7.671   1.427  10.526 -0.3614  0.2617 -0.3064
23948SOL    HW173285   7.669   1.357  10.460  0.4670  0.1884 -0.2543
23948SOL    HW273286   7.742   1.484  10.498  0.5246 -0.1993  0.9703
23949SOL     OW73287   7.765   3.352   9.635  0.1545  0.1469  0.0259
23949SOL    HW173288   7.757   3.317   9.547 -0.4019 -0.5397  0.3384
23949SOL    HW273289   7.721   3.437   9.631 -0.1527 -0.0233 -0.2838
23950SOL     OW73290   1.428   3.946  11.768  0.2773 -0.3995  0.2647
23950SOL    HW173291   1.392   3.871  11.721 -0.8815  0.1182  0.2802
23950SOL    HW273292   1.372   3.954  11.846  0.3220  0.5264  0.2125
23951SOL     OW73293   6.327   4.049   9.237 -0.5959  0.5467  0.1128
23951SOL    HW173294   6.288   4.023   9.321  0.4438  0.0738  0.4801
23951SOL    HW273295   6.302   3.979   9.176 -1.0495  0.7001  0.1249
23952SOL     OW73296   6.798   2.856  10.121 -0.0182 -0.2106 -0.0059
23952SOL    HW173297   6.734   2.804  10.169 -0.2583 -0.1635 -0.2710
23952SOL    HW273298   6.879   2.850  10.173 -0.5641  0.7445  0.9950
23953SOL     OW73299   7.356   4.381  10.052 -0.5348  0.6347 -0.0083
23953SOL    HW173300   7.447   4.353  10.042 -0.3514  0.3921  1.8805
23953SOL    HW273301   7.334   4.424   9.970  0.7282 -0.8125 -1.1589
23954SOL     OW73302   7.929   1.561   9.770 -0.0752  0.2073 -0.1107
23954SOL    HW173303   7.948   1.468   9.781 -0.9079 -0.1915 -1.7586
23954SOL    HW273304   8.012   1.599   9.740  0.7263  0.3518  2.0857
23955SOL     OW73305   7.329   5.340   9.288 -0.0912  0.0837 -0.0682
23955SOL    HW173306   7.352   5.383   9.370  0.0578  0.9191 -0.5249
23955SOL    HW273307   7.329   5.247   9.308 -1.3530  0.3193  1.2012
23956SOL     OW73308   7.216   1.816   9.937  0.3587 -0.5434 -0.4018
23956SOL    HW173309   7.152   1.886   9.950  0.8548  0.0243 -1.0063
23956SOL    HW273310   7.281   1.829  10.006  0.1276 -0.7909 -0.1310
23957SOL     OW73311   6.879   2.149   0.041 -0.0944  0.1629  0.0194
23957SOL    HW173312   6.856   2.148  -0.052 -0.9789 -0.1635  0.2208
23957SOL    HW273313   6.923   2.065   0.055  0.9726  0.6579 -0.3113
23958SOL     OW73314   0.951   3.336  11.491 -0.4095 -0.6244 -0.4118
23958SOL    HW173315   0.992   3.264  11.444 -1.0326 -0.2800 -1.5218
23958SOL    HW273316   1.007   3.411  11.474 -1.1145 -0.2984 -1.3887
23959SOL     OW73317   7.705   1.190  10.358  0.2598  0.1529 -0.1214
23959SOL    HW173318   7.793   1.158  10.336 -0.4343 -0.9322 -1.4636
23959SOL    HW273319   7.661   1.116  10.398 -0.7032  0.0082 -1.3757
23960SOL     OW73320   6.751   1.769   9.932 -0.3243  0.1190 -0.0957
23960SOL    HW173321   6.674   1.818   9.902 -0.7761 -1.1311 -1.0786
23960SOL    HW273322   6.728   1.741  10.020  0.4494  2.6465  1.0202
23961SOL     OW73323   7.427   4.436  10.299 -0.0772  0.1904 -1.1830
23961SOL    HW173324   7.390   4.397  10.220 -1.5995  1.0341 -0.9176
23961SOL    HW273325   7.472   4.364  10.343  0.6092 -0.3434 -2.6800
23962SOL     OW73326   7.522   2.064  11.479 -0.1661 -0.3201 -0.0815
23962SOL    HW173327   7.500   1.978  11.443  1.8040 -0.0533 -2.1429
23962SOL    HW273328   7.438   2.105  11.495 -1.2283 -1.1540 -2.8786
23963SOL     OW73329   7.398   2.694   9.172 -0.6405 -0.1343  0.6574
23963SOL    HW173330   7.318   2.692   9.119 -0.8243  1.0834  0.8442
23963SOL    HW273331   7.468   2.710   9.108 -1.0453  3.0727  0.8464
23964SOL     OW73332   7.799   2.467   7.264 -0.3431  0.0431  0.0473
23964SOL    HW173333   7.890   2.462   7.294 -1.0139  0.1777  2.2680
23964SOL    HW273334   7.798   2.544   7.207  0.8203  0.3764  0.4360
23965SOL     OW73335   0.667   3.329  10.706  0.4475 -0.0387 -0.2658
23965SOL    HW173336   0.740   3.359  10.761  1.0612 -1.4733 -0.2564
23965SOL    HW273337   0.612   3.277  10.765  0.2363 -0.2323 -0.6289
23966SOL     OW73338   7.310   2.278  11.751  0.0510  0.1796  0.0219
23966SOL    HW173339   7.234   2.225  11.776  0.9300 -1.0868  0.1119
23966SOL    HW273340   7.296   2.296  11.658 -1.2065  1.4663  0.4141
23967SOL     OW73341   6.677   4.887  11.135  0.2264  0.1098  0.3476
23967SOL    HW173342   6.668   4.830  11.212 -1.5037  1.8450  1.5468
23967SOL    HW273343   6.616   4.959  11.153  1.4539  1.7152 -1.6422
23968SOL     OW73344   1.562   3.661  10.519 -0.2222 -0.0739 -0.3682
23968SOL    HW173345   1.534   3.728  10.456 -0.1653 -1.7908 -2.3478
23968SOL    HW273346   1.586   3.710  10.597 -2.0698  2.0389 -1.0169
23969SOL     OW73347   7.729   3.096  11.854  0.0064  0.7329 -0.2198
23969SOL    HW173348   7.636   3.073  11.855  0.4700 -1.4308 -0.9124
23969SOL    HW273349   7.741   3.151  11.932 -1.6651  0.2230  0.4374
23970SOL     OW73350   0.585   1.833   8.095  0.3029  0.3437  0.3903
23970SOL    HW173351   0.526   1.763   8.067  0.4683  0.8532 -1.3585
23970SOL    HW273352   0.613   1.808   8.183  0.2273 -1.7025 -0.1282
23971SOL     OW73353   0.469   2.371   8.917 -0.2003  0.3394 -0.6163
23971SOL    HW173354   0.442   2.323   8.995 -0.5435  0.9228 -0.3616
23971SOL    HW273355   0.417   2.333   8.846 -0.6883  0.5208 -0.3663
23972SOL     OW73356   7.913   3.216  11.017  0.1233 -0.4922  0.2626
23972SOL    HW173357   7.990   3.179  11.061  1.2601  0.0183 -1.2079
23972SOL    HW273358   7.897   3.299  11.062 -0.8241 -1.5125  1.8704
23973SOL     OW73359   7.546   2.256  11.999 -0.2541  0.1413  0.2954
23973SOL    HW173360   7.482   2.246  11.929  0.5035  1.8354 -0.7071
23973SOL    HW273361   7.624   2.210  11.968 -0.3486 -0.2457  0.6278
23974SOL     OW73362   7.928   1.248  10.658 -0.4597 -0.1304  0.4097
23974SOL    HW173363   7.999   1.313  10.655  0.7814 -1.3748 -2.8419
23974SOL    HW273364   7.953   1.188  10.728 -0.9621  2.1079  2.6083
23975SOL     OW73365   7.383   4.034  10.436 -0.3516 -0.0542 -0.2950
23975SOL    HW173366   7.345   4.045  10.523 -0.7623 -0.4129 -0.4282
23975SOL    HW273367   7.441   4.110  10.426 -3.3761  2.3745 -1.3115
23976SOL     OW73368   0.014   3.201   9.081 -0.3706 -0.2675 -0.6438
23976SOL    HW173369  -0.025   3.277   9.125  1.2408 -0.1910  0.7607
23976SOL    HW273370   0.004   3.129   9.144  0.0298 -0.6924 -1.0595
23977SOL     OW73371   0.515   3.339   9.165 -0.2738 -0.6666 -0.0981
23977SOL    HW173372   0.510   3.276   9.093  0.3263 -0.1919 -0.5601
23977SOL    HW273373   0.563   3.292   9.234 -2.8212 -1.9647  0.9275
23978SOL     OW73374   0.055   2.593  11.290  0.1132 -0.0896 -0.2115
23978SOL    HW173375   0.100   2.577  11.207  0.9843 -0.5048  0.3318
23978SOL    HW273376   0.041   2.688  11.291  0.1361 -0.0721 -0.8065
23979SOL     OW73377   7.947   1.959  10.940  0.7340 -0.4904  0.0200
23979SOL    HW173378   8.008   1.893  10.906 -0.2327 -0.8928 -1.0022
23979SOL    HW273379   7.912   2.002  10.861 -0.5700 -0.5304  0.5531
23980SOL     OW73380   1.097   1.680  11.069 -0.5990 -0.1291  0.0654
23980SOL    HW173381   1.046   1.657  10.991 -0.3987 -0.6674  0.0890
23980SOL    HW273382   1.172   1.729  11.035 -0.9866  0.4390  0.0064
23981SOL     OW73383   6.221   2.892  10.472 -0.0544 -0.6506 -0.3434
23981SOL    HW173384   6.151   2.957  10.478  1.0907  0.7152 -0.8577
23981SOL    HW273385   6.299   2.939  10.503  0.7447 -1.9097 -0.3830
23982SOL     OW73386   0.138   2.530  10.213 -0.6967 -0.1677  0.4016
23982SOL    HW173387   0.164   2.452  10.165  1.1411  0.2212  0.6955
23982SOL    HW273388   0.118   2.595  10.145  1.7929  0.3517  0.0811
23983SOL     OW73389   0.370   3.322  11.509 -0.3501  0.8538 -0.0057
23983SOL    HW173390   0.414   3.278  11.435 -0.6493 -1.4189  1.0736
23983SOL    HW273391   0.277   3.318  11.487 -0.4628 -0.0778  0.5674
23984SOL     OW73392   1.112   2.043   9.875 -0.0514  0.1759  0.3831
23984SOL    HW173393   1.162   2.109   9.828  0.2409 -0.2569  0.0781
23984SOL    HW273394   1.021   2.062   9.852  0.1636 -1.3328 -2.1889
23985SOL     OW73395   1.022   3.218  10.918 -0.0857 -0.3959 -0.0166
23985SOL    HW173396   0.940   3.220  10.967  0.2814  0.1372  0.5990
23985SOL    HW273397   1.023   3.302  10.871 -0.4752 -0.9384 -1.0245
23986SOL     OW73398   0.466   1.263   8.841 -0.8480  0.1218  0.3631
23986SOL    HW173399   0.399   1.329   8.821 -0.0048  0.6558 -0.7881
23986SOL    HW273400   0.514   1.299   8.915 -0.7869  0.5067  0.1382
23987SOL     OW73401   0.419   2.601  10.065 -0.2455 -0.3741 -0.0901
23987SOL    HW173402   0.413   2.657   9.987 -0.5387  1.7601  1.3752
23987SOL    HW273403   0.356   2.531  10.049 -1.1241  0.6491 -1.3078
23988SOL     OW73404   6.860   4.205  10.051  0.0194  0.4710 -0.2339
23988SOL    HW173405   6.900   4.156   9.979 -0.8090 -0.2156 -0.2419
23988SOL    HW273406   6.934   4.238  10.101  0.7312 -2.7239  1.0847
23989SOL     OW73407   7.439   2.749   8.570 -1.0112  0.4659  0.1842
23989SOL    HW173408   7.401   2.717   8.488 -2.8872  0.1202  1.1307
23989SOL    HW273409   7.372   2.807   8.606  0.3675  1.7354  0.8162
23990SOL     OW73410   6.743   3.075  11.219  0.2051  0.2359  0.0333
23990SOL    HW173411   6.669   3.079  11.279  0.9907 -0.1892  1.0802
23990SOL    HW273412   6.818   3.101  11.273  0.8508  0.4188 -0.9303
23991SOL     OW73413   0.748   0.840  12.339  0.6148 -0.5452  0.0464
23991SOL    HW173414   0.790   0.758  12.313 -0.7752 -1.0082 -0.8936
23991SOL    HW273415   0.749   0.894  12.260 -0.6119 -0.6236 -0.0500
23992SOL     OW73416   0.949   2.477   9.625 -0.1192 -0.4679  0.2146
23992SOL    HW173417   0.856   2.465   9.605 -0.7137  0.6181  2.0284
23992SOL    HW273418   0.981   2.389   9.644 -0.3569 -1.0565 -1.8594
23993SOL     OW73419   0.596   4.604  12.050 -0.6067 -0.1990  0.1693
23993SOL    HW173420   0.640   4.670  11.996 -0.0458 -0.1860  0.6338
23993SOL    HW273421   0.581   4.531  11.990  1.0018 -0.6300  0.2226
23994SOL     OW73422   0.005   2.490   8.542  0.4768  0.2454  0.2265
23994SOL    HW173423  -0.069   2.457   8.491  0.1448  0.5098  0.5359
23994SOL    HW273424   0.026   2.575   8.502  1.9940 -0.7556 -1.2347
23995SOL     OW73425   0.992   2.716  11.150  0.1029  0.2486 -0.2558
23995SOL    HW173426   1.074   2.699  11.197 -1.9721  1.2089  4.2390
23995SOL    HW273427   0.972   2.808  11.169 -2.2996 -0.1075 -0.7164
23996SOL     OW73428   0.614   3.935  11.887  0.8646 -0.2764 -0.3702
23996SOL    HW173429   0.653   3.848  11.895  0.9864 -0.5289 -2.8718
23996SOL    HW273430   0.680   3.994  11.925  1.2863 -1.1592  0.3191
23997SOL     OW73431   0.171   2.905  10.806  0.4007  0.3439 -0.1581
23997SOL    HW173432   0.179   2.853  10.886 -1.4895 -0.9750 -0.7455
23997SOL    HW273433   0.227   2.860  10.742 -0.9338 -0.8054 -0.5574
23998SOL     OW73434   0.322   2.965   8.218 -0.3889 -0.0295 -0.0378
23998SOL    HW173435   0.262   3.037   8.238 -2.4915 -2.1028  1.8693
23998SOL    HW273436   0.270   2.906   8.163  0.8547 -0.6660 -0.5509
23999SOL     OW73437   0.626   3.412  10.213 -0.2865  0.0104 -0.2083
23999SOL    HW173438   0.680   3.488  10.233  0.2348 -0.6328  0.9457
23999SOL    HW273439   0.592   3.383  10.299 -1.0436 -0.6376 -0.7086
24000SOL     OW73440   0.104   5.213   9.448  0.0835 -0.1546 -0.4183
24000SOL    HW173441   0.198   5.199   9.439  0.3198  1.5146 -0.9888
24000SOL    HW273442   0.084   5.279   9.381 -1.8822 -1.9792 -1.7522
24001SOL     OW73443   1.049   4.028   9.167  0.1685  0.2566 -0.0912
24001SOL    HW173444   0.988   4.061   9.100  1.8005  0.7739 -1.3990
24001SOL    HW273445   1.131   4.073   9.148  0.5767  0.8585  2.6467
24002SOL     OW73446   6.852   2.998  10.505 -0.8144 -0.1023 -0.4444
24002SOL    HW173447   6.886   3.080  10.469  1.4787 -0.0555  1.5577
24002SOL    HW273448   6.900   2.929  10.458  0.2638 -0.1105  0.6050
24003SOL     OW73449   0.268   1.709   8.738  0.1204  0.4337  0.2827
24003SOL    HW173450   0.241   1.749   8.820 -0.3827  0.5526  0.0644
24003SOL    HW273451   0.199   1.734   8.675  0.8705  0.9698 -0.3508
24004SOL     OW73452   7.179   1.374   9.788  0.5198 -0.0105  0.2803
24004SOL    HW173453   7.141   1.404   9.706  0.7820  0.1765  0.2260
24004SOL    HW273454   7.271   1.358   9.767  0.5733 -0.0234  0.5228
24005SOL     OW73455   1.528   3.033  11.399  0.2441  0.2471 -0.3576
24005SOL    HW173456   1.490   3.031  11.311 -0.9059  0.5373  0.1158
24005SOL    HW273457   1.477   3.099  11.446 -0.3032 -1.0996  1.0305
24006SOL     OW73458   0.512   3.320   9.540  0.3317 -0.5340  0.4438
24006SOL    HW173459   0.451   3.272   9.484 -0.1984 -1.8600  2.0811
24006SOL    HW273460   0.541   3.393   9.486 -1.5006 -0.7470 -0.9317
24007SOL     OW73461   7.150   2.725  10.124  0.2172  0.0675  0.0509
24007SOL    HW173462   7.177   2.646  10.077 -0.6225  0.5674 -1.3384
24007SOL    HW273463   7.151   2.794  10.058  0.0278  1.0325  1.0226
24008SOL     OW73464   6.967   3.502  10.230 -0.7788  0.4674 -0.2605
24008SOL    HW173465   6.923   3.582  10.202  0.9397  1.3387 -0.6213
24008SOL    HW273466   7.003   3.465  10.150  2.6260  2.0149  0.3936
24009SOL     OW73467   7.730   1.592   9.589  0.5984  0.2474  0.3896
24009SOL    HW173468   7.797   1.591   9.657  1.3014 -1.3694 -0.2592
24009SOL    HW273469   7.755   1.520   9.530 -2.2269 -1.0763  0.6401
24010SOL     OW73470   0.389   0.719  11.901 -0.5548 -0.9171 -0.1521
24010SOL    HW173471   0.483   0.709  11.884 -0.2791 -1.4408  1.4395
24010SOL    HW273472   0.374   0.813  11.899  0.2437 -0.7566  0.6214
24011SOL     OW73473   7.398   2.073  12.438 -0.0769  0.2797  0.1066
24011SOL    HW173474   7.351   1.995  12.411  1.6235 -0.2237 -1.5932
24011SOL    HW273475   7.329   2.137  12.459 -1.4980 -0.8241 -1.0080
24012SOL     OW73476   6.835   4.349  11.194  0.4902  0.2034  0.3218
24012SOL    HW173477   6.793   4.357  11.108 -0.6777  1.3791  0.9704
24012SOL    HW273478   6.862   4.438  11.216 -0.7902  0.2467  1.9189
24013SOL     OW73479   7.220   2.357  12.386 -0.1471  0.4154 -0.3169
24013SOL    HW173480   7.178   2.288  12.335 -0.3033 -0.4662  0.9319
24013SOL    HW273481   7.170   2.359  12.468  0.5989  1.1997  0.1338
24014SOL     OW73482   6.700   5.127  10.584 -0.0174  0.2428  0.5546
24014SOL    HW173483   6.691   5.113  10.490 -0.5706 -0.4382  0.6951
24014SOL    HW273484   6.729   5.217  10.593 -0.6204  0.5270 -0.2424
24015SOL     OW73485   0.121   1.829   0.146 -0.0191  0.6708  0.2808
24015SOL    HW173486   0.044   1.798   0.194  0.1471  0.9864  0.7655
24015SOL    HW273487   0.121   1.779   0.065  0.6095 -1.0712  1.2957
24016SOL     OW73488   1.144   2.825  11.521  0.8011  0.7519  0.1011
24016SOL    HW173489   1.231   2.810  11.560  0.7108 -1.8551 -0.4842
24016SOL    HW273490   1.161   2.829  11.427  0.3787  1.2095  0.0417
24017SOL     OW73491   0.195   2.826  11.424  0.1461 -0.2060 -0.0824
24017SOL    HW173492   0.278   2.873  11.431  0.0032  0.1561 -0.7337
24017SOL    HW273493   0.173   2.802  11.514 -0.6267  2.4773  0.5245
24018SOL     OW73494   0.017   3.563  10.561 -0.4416 -0.3721 -0.1500
24018SOL    HW173495   0.093   3.621  10.546  0.0453 -1.0758 -0.4974
24018SOL    HW273496   0.054   3.475  10.558 -1.2241 -0.7130  0.0614
24019SOL     OW73497   7.711   2.897   0.763 -0.3542 -0.3453 -0.2343
24019SOL    HW173498   7.747   2.837   0.827 -1.2412 -0.0416  0.5734
24019SOL    HW273499   7.770   2.973   0.765 -1.4959  0.5715  1.7883
24020SOL     OW73500   0.418   2.125   1.001 -0.3915 -0.0470 -0.6817
24020SOL    HW173501   0.455   2.147   0.915  2.1171  1.0278  0.5564
24020SOL    HW273502   0.363   2.200   1.023  0.4242  0.5426 -0.5996
24021SOL     OW73503   1.334   3.794   0.561  0.5395  0.0846  0.0852
24021SOL    HW173504   1.384   3.740   0.621  0.8995 -0.0728 -0.3509
24021SOL    HW273505   1.328   3.742   0.481 -1.0505 -0.2580  0.3951
24022SOL     OW73506   0.406   3.431  12.267 -0.2150 -0.3883  0.2593
24022SOL    HW173507   0.374   3.340  12.272 -0.2047 -0.3645  0.7620
24022SOL    HW273508   0.484   3.432  12.321 -1.9854  0.6708  2.9787
24023SOL     OW73509   7.551   2.088   0.282 -0.8274 -0.0939 -0.1876
24023SOL    HW173510   7.643   2.084   0.255 -0.4291  0.2892  1.0634
24023SOL    HW273511   7.504   2.112   0.202 -0.1849 -2.8008 -1.5191
24024SOL     OW73512   0.391   4.868  12.447 -0.0798 -0.0893  0.4194
24024SOL    HW173513   0.332   4.858  12.522 -1.5636  3.5429 -0.0428
24024SOL    HW273514   0.338   4.912  12.381  2.0055 -0.5777 -1.7177
24025SOL     OW73515   0.775   3.222  11.057 -0.6137  0.4593 -0.4240
24025SOL    HW173516   0.686   3.202  11.027 -0.9089  1.7813 -0.4849
24025SOL    HW273517   0.795   3.152  11.120 -1.4583 -0.1850 -0.8526
24026SOL     OW73518   7.065   2.369   0.105  0.4970  0.0250  0.0424
24026SOL    HW173519   7.021   2.446   0.142 -1.5434 -1.1059  0.0966
24026SOL    HW273520   7.007   2.296   0.126  2.4442 -1.5873  0.1096
24027SOL     OW73521   0.226   1.282  11.321 -0.1792  0.3821  0.3443
24027SOL    HW173522   0.304   1.336  11.312  1.0887 -1.4194 -0.1499
24027SOL    HW273523   0.250   1.198  11.281 -3.2216  0.5123 -2.1024
24028SOL     OW73524   0.084   0.912   1.224 -0.0816 -0.0690  0.2033
24028SOL    HW173525   0.174   0.884   1.211  0.5101  1.6385  0.4837
24028SOL    HW273526   0.039   0.833   1.256  1.5051 -0.7076  0.9467
24029SOL     OW73527   0.707   2.817  12.105  0.0355  0.6403 -0.0770
24029SOL    HW173528   0.797   2.848  12.111  0.2390  0.0554 -0.0635
24029SOL    HW273529   0.687   2.784  12.193  0.2436 -0.4017 -0.4157
24030SOL     OW73530   7.416   0.932  11.027  0.5992  0.2102  0.0541
24030SOL    HW173531   7.357   0.877  11.078  2.1709 -1.4811  0.1434
24030SOL    HW273532   7.373   0.940  10.941 -0.1586 -0.2551  0.3872
24031SOL     OW73533   0.443   2.915  10.490 -0.2662  0.4231 -0.4053
24031SOL    HW173534   0.401   2.851  10.548  1.1867  0.8086  1.1645
24031SOL    HW273535   0.479   2.981  10.549 -2.1350  3.0437 -1.9859
24032SOL     OW73536   7.728   1.227   0.416  0.6661 -0.2383 -0.5059
24032SOL    HW173537   7.802   1.202   0.359  0.1243 -0.2950 -1.2000
24032SOL    HW273538   7.650   1.210   0.362  0.0947 -1.0457  0.5341
24033SOL     OW73539   6.641   1.842   1.397  0.2774 -0.1474 -0.2864
24033SOL    HW173540   6.697   1.793   1.457 -3.0868 -2.6234  1.1337
24033SOL    HW273541   6.651   1.797   1.312  0.9058 -0.1289 -0.2276
24034SOL     OW73542   1.706   3.510  10.794  0.3264  0.5021 -0.1941
24034SOL    HW173543   1.640   3.446  10.768 -0.5166  1.1578  0.2859
24034SOL    HW273544   1.756   3.527  10.714 -1.3700  1.5006 -1.0888
24035SOL     OW73545   0.814   1.635   0.020  0.4769 -0.5705 -0.0344
24035SOL    HW173546   0.747   1.567   0.007 -0.5613  0.2650  0.7943
24035SOL    HW273547   0.765   1.711   0.050  1.7194  0.3282 -0.2209
24036SOL     OW73548   7.176   2.912   0.428 -0.0826  0.0829  0.1570
24036SOL    HW173549   7.134   2.960   0.357  0.8870 -0.2626 -0.6740
24036SOL    HW273550   7.254   2.964   0.450 -0.3345  0.1512  0.9303
24037SOL     OW73551   7.522   3.342   0.032  0.2843 -0.0052  0.7759
24037SOL    HW173552   7.582   3.274   0.064 -0.3039 -0.8291  0.1524
24037SOL    HW273553   7.461   3.296  -0.024  0.9946  1.3172 -1.1839
24038SOL     OW73554   1.016   4.220   1.251  0.1094  0.8083 -0.0053
24038SOL    HW173555   0.924   4.242   1.267  0.2131 -0.2349  2.3681
24038SOL    HW273556   1.058   4.230   1.336  1.5951 -1.5358 -0.3795
24039SOL     OW73557   0.958   3.014  11.168 -0.1909 -0.2845  0.4495
24039SOL    HW173558   0.928   3.040  11.255  1.3155 -0.8763  1.1925
24039SOL    HW273559   1.044   3.056  11.159  0.2817 -1.3308 -0.1628
24040SOL     OW73560   7.723   3.270  12.094  0.0754 -0.2689 -0.2643
24040SOL    HW173561   7.642   3.317  12.115 -0.2767 -0.7321 -0.5821
24040SOL    HW273562   7.729   3.202  12.161 -1.3055 -2.0650 -1.8686
24041SOL     OW73563   7.340   2.341   0.514  0.0920 -0.0165 -0.5978
24041SOL    HW173564   7.275   2.408   0.494 -0.6660 -0.9125 -1.2132
24041SOL    HW273565   7.357   2.299   0.430  0.2142 -0.9006 -0.1365
24042SOL     OW73566   0.053   3.592   0.180 -0.1449 -1.0717 -0.4096
24042SOL    HW173567   0.029   3.667   0.234  0.2158 -0.3310 -1.2453
24042SOL    HW273568   0.028   3.516   0.232 -0.2631 -0.3811  0.5762
24043SOL     OW73569   7.426   4.632  11.547  0.3076 -0.2581  0.1179
24043SOL    HW173570   7.428   4.633  11.643 -0.7171  1.6631  0.1493
24043SOL    HW273571   7.341   4.595  11.525  0.1922  0.1143 -0.0532
24044SOL     OW73572   6.794   3.285  12.137 -0.7804  0.6697  0.0783
24044SOL    HW173573   6.851   3.343  12.188  0.0269  0.3995 -0.4999
24044SOL    HW273574   6.770   3.216  12.199 -0.6917  0.9228  0.4027
24045SOL     OW73575   7.441   3.149  10.380 -0.4689  0.0130 -0.0034
24045SOL    HW173576   7.515   3.198  10.344 -1.8259  1.0241 -1.5191
24045SOL    HW273577   7.481   3.089  10.443  1.3304  2.8525  1.7914
24046SOL     OW73578   0.192   1.027   0.413  0.1435  0.1892  0.2524
24046SOL    HW173579   0.149   1.085   0.475  0.2153 -1.5673  2.0536
24046SOL    HW273580   0.273   1.001   0.457  0.2298 -1.0598 -0.6010
24047SOL     OW73581   6.973   2.833  11.815  0.4497 -0.1900 -0.4079
24047SOL    HW173582   6.993   2.746  11.849  0.3132 -0.3096 -0.6266
24047SOL    HW273583   7.047   2.887  11.842 -0.1525 -0.0255  0.9851
24048SOL     OW73584   0.269   1.485  11.506  0.0083  0.2003 -0.0046
24048SOL    HW173585   0.260   1.553  11.573  1.9658 -1.3008  1.9166
24048SOL    HW273586   0.310   1.530  11.432 -2.9931  2.1050 -0.6969
24049SOL     OW73587   1.230   1.655  11.308 -0.0812 -0.2233 -0.0710
24049SOL    HW173588   1.175   1.661  11.231  0.5425 -2.7108 -0.8271
24049SOL    HW273589   1.310   1.701  11.284 -0.2324 -0.2227 -0.5922
24050SOL     OW73590   0.216   3.516  11.250  0.1031  0.1728 -0.1368
24050SOL    HW173591   0.304   3.551  11.264  0.7827 -0.5101 -2.2978
24050SOL    HW273592   0.227   3.421  11.257 -0.9672  0.1443  1.8690
24051SOL     OW73593   7.796   2.814   0.056 -0.4470 -0.0295 -0.3320
24051SOL    HW173594   7.867   2.758   0.025  1.1092  2.6387 -2.0797
24051SOL    HW273595   7.809   2.819   0.151  2.4404  1.1331 -0.6787
24052SOL     OW73596   1.677   3.051  10.501 -0.3326  0.6626  0.0031
24052SOL    HW173597   1.732   3.110  10.450 -1.5175  0.8547 -1.0950
24052SOL    HW273598   1.598   3.101  10.520 -0.6310  0.0021  0.5450
24053SOL     OW73599   0.199   3.493   1.022 -0.4282 -0.0098 -0.0236
24053SOL    HW173600   0.195   3.586   1.041 -3.0408 -0.0923  0.1961
24053SOL    HW273601   0.192   3.450   1.107 -1.8136 -0.3701 -0.2931
24054SOL     OW73602   7.415   3.985   0.197 -0.1769 -0.2203 -0.6994
24054SOL    HW173603   7.504   4.009   0.171 -0.3210  0.9019 -0.2385
24054SOL    HW273604   7.360   4.056   0.165 -0.6853 -0.0722  0.4301
24055SOL     OW73605   6.570   3.751  11.034 -0.3429  0.1522 -0.5289
24055SOL    HW173606   6.663   3.763  11.015 -0.1594  3.5732  1.5912
24055SOL    HW273607   6.553   3.812  11.106 -3.8240 -1.7911  0.5137
24056SOL     OW73608   7.805   4.212   1.859 -0.0970 -0.4039 -0.4019
24056SOL    HW173609   7.742   4.263   1.910 -0.2033  1.8942 -2.6287
24056SOL    HW273610   7.887   4.220   1.908 -0.3626  1.0686 -0.1403
24057SOL     OW73611   6.387   2.821   0.121  0.0082 -0.0426  0.5226
24057SOL    HW173612   6.305   2.856   0.087  0.4144  1.2339  0.8022
24057SOL    HW273613   6.371   2.807   0.215 -0.2498 -0.9383  0.3554
24058SOL     OW73614   7.610   2.061   0.988  0.4651 -0.3061 -0.3944
24058SOL    HW173615   7.567   2.039   0.906  2.5196 -0.6917 -1.4355
24058SOL    HW273616   7.616   1.978   1.035  0.4920 -0.3361 -0.4509
24059SOL     OW73617   0.216   6.285   0.360 -0.4022 -0.2552  0.8436
24059SOL    HW173618   0.190   6.193   0.350  0.3724 -0.3395 -0.9348
24059SOL    HW273619   0.227   6.315   0.270 -0.0342  1.4137  1.4256
24060SOL     OW73620   7.626   3.434   1.938  0.2907 -0.5499  0.4069
24060SOL    HW173621   7.610   3.401   2.026 -2.3253 -0.7686 -0.0759
24060SOL    HW273622   7.668   3.361   1.892 -1.6618 -1.8127  0.5081
24061SOL     OW73623   0.311   5.918  12.321 -0.2797 -0.3031 -0.4369
24061SOL    HW173624   0.232   5.942  12.273  0.9045  0.4739 -2.0986
24061SOL    HW273625   0.316   5.823  12.314 -2.9905 -0.8553  2.9241
24062SOL     OW73626   1.257   6.321   0.943  0.2384 -0.1586  0.0852
24062SOL    HW173627   1.191   6.258   0.970  0.8775 -0.7745  0.2547
24062SOL    HW273628   1.326   6.267   0.904 -0.4786  0.6609 -2.4779
24063SOL     OW73629   5.869   4.271  12.284 -0.5575 -0.6520  0.7470
24063SOL    HW173630   5.961   4.283  12.264 -0.5476 -0.8238  0.6896
24063SOL    HW273631   5.823   4.324  12.218 -0.5638 -2.1826 -0.5149
24064SOL     OW73632   7.117   4.212   1.470 -0.3767  0.0354 -0.2088
24064SOL    HW173633   7.211   4.194   1.465 -0.3373  0.2475 -0.2298
24064SOL    HW273634   7.096   4.205   1.563 -0.6402 -1.5266 -0.3538
24065SOL     OW73635   6.930   3.423  11.462 -0.2006  0.5071  0.0186
24065SOL    HW173636   6.909   3.492  11.398  2.2624  0.8546 -0.5211
24065SOL    HW273637   7.006   3.378  11.425 -1.2359 -2.0558  0.7431
24066SOL     OW73638   6.298   3.612   2.577 -0.0063 -0.1138 -0.3834
24066SOL    HW173639   6.325   3.522   2.556  0.9052  0.0055  0.2207
24066SOL    HW273640   6.380   3.658   2.594 -0.5497  0.4753  0.7457
24067SOL     OW73641   6.805   3.697   1.418 -0.0704  0.3949 -0.4390
24067SOL    HW173642   6.882   3.686   1.473 -2.2431  0.9062  2.9465
24067SOL    HW273643   6.841   3.711   1.330  3.5157 -4.2248 -0.0710
24068SOL     OW73644   0.183   6.289   0.081 -0.3411 -0.8589  0.1284
24068SOL    HW173645   0.093   6.321   0.076 -0.7635 -2.1464 -1.5964
24068SOL    HW273646   0.231   6.345   0.020  0.2230  0.3157  1.6072
24069SOL     OW73647   7.391   5.533   2.589 -0.1761 -0.0504 -0.4718
24069SOL    HW173648   7.300   5.551   2.612  0.5607  1.9774  1.1729
24069SOL    HW273649   7.411   5.450   2.631 -1.1059 -0.2582 -0.4229
24070SOL     OW73650   6.885   3.408   2.064  0.2528 -0.3020 -0.1955
24070SOL    HW173651   6.860   3.499   2.046 -0.3535 -0.3609  0.2893
24070SOL    HW273652   6.949   3.415   2.134  0.7378 -0.2119 -0.6449
24071SOL     OW73653   0.134   5.926   0.604  0.7695  0.0124 -0.1431
24071SOL    HW173654   0.060   5.909   0.547  1.1542 -2.0841 -0.0892
24071SOL    HW273655   0.096   5.929   0.692  0.2945  2.4688 -0.3560
24072SOL     OW73656   0.804   5.358   0.730  0.3903  0.6708  0.3040
24072SOL    HW173657   0.737   5.299   0.764  1.5333 -1.0915 -0.3179
24072SOL    HW273658   0.882   5.336   0.781  2.1281 -1.9367 -3.0378
24073SOL     OW73659   6.046   5.770   3.384  0.1023 -0.0454 -0.4022
24073SOL    HW173660   6.009   5.803   3.302 -0.4460 -1.1621 -0.6322
24073SOL    HW273661   6.079   5.683   3.361 -1.1841 -0.8958  0.8149
24074SOL     OW73662   1.074   3.348   2.066  0.0882  0.3723  0.1300
24074SOL    HW173663   1.003   3.284   2.076 -1.4249  1.9054 -0.3423
24074SOL    HW273664   1.134   3.307   2.004  0.0328 -1.2753  1.0874
24075SOL     OW73665   6.065   7.782   0.169  0.3507 -0.1900 -0.0677
24075SOL    HW173666   6.081   7.690   0.193  0.3993 -0.9587 -2.7959
24075SOL    HW273667   5.971   7.788   0.158  0.3781  0.0060 -0.2012
24076SOL     OW73668   1.298   5.355   1.875 -0.3477  0.0449 -0.5848
24076SOL    HW173669   1.289   5.346   1.969 -1.6899  0.6272 -0.6376
24076SOL    HW273670   1.252   5.437   1.854  1.2365  0.7359 -1.5537
24077SOL     OW73671   0.693   3.287   1.082  0.2375  0.1271  0.0748
24077SOL    HW173672   0.770   3.263   1.132 -0.0913 -1.4280 -0.1155
24077SOL    HW273673   0.723   3.356   1.022  1.2603  0.1124  0.5631
24078SOL     OW73674   7.822   2.032   0.150  0.0728  0.3093  0.0262
24078SOL    HW173675   7.848   2.105   0.093  0.0672 -0.1368 -0.5527
24078SOL    HW273676   7.867   2.049   0.233 -0.0569  1.0592 -0.0520
24079SOL     OW73677   0.074   3.538  11.500 -0.5776 -0.3977  0.2520
24079SOL    HW173678   0.110   3.477  11.436 -1.9479 -1.5731  0.5452
24079SOL    HW273679  -0.004   3.495  11.533 -0.7263  0.8424  1.6425
24080SOL     OW73680   7.831   3.563   1.728  0.6307  0.1187  0.2377
24080SOL    HW173681   7.837   3.497   1.659 -1.4558  0.0323  0.0652
24080SOL    HW273682   7.921   3.579   1.753  1.6283  0.9787 -3.2830
24081SOL     OW73683   7.929   3.084   1.805  0.3916 -0.2703 -0.4638
24081SOL    HW173684   7.887   3.136   1.737 -0.3509 -1.3169 -0.8415
24081SOL    HW273685   7.871   3.090   1.881  0.6597  0.0144 -0.2801
24082SOL     OW73686   0.052   4.529  12.492 -0.1297  0.1668 -0.2072
24082SOL    HW173687   0.079   4.577  12.414  1.0905  1.0962  0.7486
24082SOL    HW273688   0.010   4.450  12.458  0.7708  0.3304 -1.8050
24083SOL     OW73689   0.833   4.545   1.048  0.9568 -0.0470  0.4710
24083SOL    HW173690   0.772   4.596   0.995 -0.4456 -1.5359  0.5550
24083SOL    HW273691   0.859   4.604   1.119 -0.9406  0.4380  0.8089
24084SOL     OW73692   0.408   4.212  12.097 -0.3258 -0.0547  0.4574
24084SOL    HW173693   0.359   4.133  12.077  0.5195 -0.4872  0.0148
24084SOL    HW273694   0.451   4.194  12.180  1.4012 -0.8424 -0.5593
24085SOL     OW73695   0.189   3.454   0.501 -0.3764  0.2206  0.3066
24085SOL    HW173696   0.103   3.436   0.463 -0.2718 -1.4565  0.7447
24085SOL    HW273697   0.171   3.512   0.575 -0.7795  2.0620 -1.1597
24086SOL     OW73698   0.091   4.347   1.858  0.4534 -0.0028 -0.1091
24086SOL    HW173699   0.089   4.348   1.762 -0.4568 -0.8834 -0.1107
24086SOL    HW273700   0.148   4.274   1.880 -0.6997 -0.8969  0.0038
24087SOL     OW73701   6.888   3.142   1.946  0.3669  0.2399 -0.3134
24087SOL    HW173702   6.885   3.064   2.002  0.1247  0.2702 -0.2833
24087SOL    HW273703   6.862   3.214   2.004  1.7974  0.5452 -0.0001
24088SOL     OW73704   7.539   3.475   1.611  0.3933  0.1810  0.0556
24088SOL    HW173705   7.450   3.443   1.603  1.1523 -1.9442 -0.4703
24088SOL    HW273706   7.550   3.536   1.538 -0.3017 -0.3438 -0.4935
24089SOL     OW73707   0.004   5.339   1.125 -0.6999 -0.1750 -0.2698
24089SOL    HW173708  -0.039   5.292   1.054 -0.7992 -1.7075  0.7643
24089SOL    HW273709   0.095   5.311   1.122 -0.6278  0.0154  0.0020
24090SOL     OW73710   1.265   2.828   0.996  0.4349 -0.3918  0.0305
24090SOL    HW173711   1.231   2.763   0.933 -0.9245  1.3939 -1.1726
24090SOL    HW273712   1.291   2.902   0.942  0.6438  0.6271  1.4768
24091SOL     OW73713   7.847   3.213   1.003 -0.2853  0.1950  0.2558
24091SOL    HW173714   7.868   3.249   1.089 -0.5620  1.4874 -0.1959
24091SOL    HW273715   7.769   3.160   1.018 -0.6220  0.8097  0.7226
24092SOL     OW73716   0.424   3.570   0.339 -0.5493  0.3206 -0.2374
24092SOL    HW173717   0.359   3.500   0.338  0.8944 -1.0711 -0.3465
24092SOL    HW273718   0.377   3.646   0.375 -2.1156 -0.7156  0.0095
24093SOL     OW73719   7.934   3.496   1.294  0.6033 -0.0641 -0.1588
24093SOL    HW173720   7.934   3.569   1.231  1.5497  0.7018  0.6944
24093SOL    HW273721   7.933   3.418   1.240  1.9661  0.5682 -1.1684
24094SOL     OW73722   0.276   2.940   1.879  0.3138  0.7918  0.0092
24094SOL    HW173723   0.292   2.893   1.961 -0.2277  0.1432 -0.2556
24094SOL    HW273724   0.354   2.995   1.868  1.3452 -0.6353 -0.0934
24095SOL     OW73725   0.597   4.222   0.818 -0.1205 -0.2083  0.4756
24095SOL    HW173726   0.585   4.179   0.903  0.9395  0.8965  1.2106
24095SOL    HW273727   0.565   4.158   0.755 -3.1616 -0.1724  1.7958
24096SOL     OW73728   0.753   7.862   1.024  0.3949  0.0606 -0.3015
24096SOL    HW173729   0.721   7.916   0.952 -1.8485 -1.9685 -0.9639
24096SOL    HW273730   0.684   7.868   1.091  0.1049 -1.7803 -0.3565
24097SOL     OW73731   6.045   5.057   1.931 -0.2572  0.3086  0.7770
24097SOL    HW173732   6.012   5.008   2.006 -0.4119 -0.6369  0.1201
24097SOL    HW273733   6.137   5.072   1.951 -0.5782  1.1372  1.6914
24098SOL     OW73734   5.836   4.121   3.142  0.2953  0.3720  0.5422
24098SOL    HW173735   5.859   4.057   3.075 -1.3506  0.0457  0.2385
24098SOL    HW273736   5.803   4.069   3.215  2.0972  0.7180  1.6764
24099SOL     OW73737   1.062   4.655   2.242  0.2700  0.0143  0.2164
24099SOL    HW173738   1.051   4.750   2.238  1.1433  0.0932 -0.6849
24099SOL    HW273739   0.978   4.620   2.212  0.3429  0.5255 -0.6199
24100SOL     OW73740   7.478   4.496   0.878 -0.4450  0.1588 -0.3490
24100SOL    HW173741   7.444   4.414   0.916 -0.3088 -0.7278 -2.0446
24100SOL    HW273742   7.571   4.479   0.863 -0.1985  0.9886  0.1736
24101SOL     OW73743   1.588   4.675   1.366 -0.5804 -0.1016 -0.1904
24101SOL    HW173744   1.497   4.649   1.385 -1.1068  0.6530 -1.5499
24101SOL    HW273745   1.639   4.631   1.434 -1.9689 -0.4404  0.7015
24102SOL     OW73746   4.920   6.073   0.292 -1.2325 -0.5151  0.0151
24102SOL    HW173747   4.950   6.139   0.229 -0.0610  0.4931  1.5742
24102SOL    HW273748   4.988   6.006   0.292 -0.7205 -0.0095  0.9267
24103SOL     OW73749   7.772   5.509   1.178 -0.0360  0.4465 -0.3251
24103SOL    HW173750   7.837   5.439   1.186  0.0917  0.4888 -0.9427
24103SOL    HW273751   7.688   5.466   1.195  0.1717  0.4709  0.8747
24104SOL     OW73752   7.979   3.352  12.087  0.2323  0.3893  0.0837
24104SOL    HW173753   8.017   3.390  12.008  2.3490 -0.2239  0.7401
24104SOL    HW273754   7.890   3.327  12.062  0.3060  1.6906 -1.6123
24105SOL     OW73755   1.057   5.155   1.054  0.4191 -0.1483  0.4221
24105SOL    HW173756   1.130   5.142   0.994  0.3355  0.4015  0.1922
24105SOL    HW273757   0.984   5.108   1.016  0.7852 -1.1480  0.9242
24106SOL     OW73758   6.797   4.920  12.357 -0.1102  0.2230 -0.0807
24106SOL    HW173759   6.725   4.867  12.389 -0.4878 -0.0211 -1.2789
24106SOL    HW273760   6.810   4.988  12.424 -0.2292 -0.8158  1.0152
24107SOL     OW73761   6.103   3.906   1.465  0.1948 -0.2517  0.5602
24107SOL    HW173762   6.072   3.954   1.542 -0.6674  0.8753 -0.4615
24107SOL    HW273763   6.163   3.966   1.422  1.3746 -1.2152  0.7949
24108SOL     OW73764   7.309   4.999  12.123  0.3662 -0.4875 -0.3308
24108SOL    HW173765   7.384   5.051  12.096 -0.9762  1.3358 -0.7562
24108SOL    HW273766   7.342   4.909  12.127  3.2180  0.5105  2.0524
24109SOL     OW73767   7.587   5.040   1.638  0.0941  0.2302  0.2080
24109SOL    HW173768   7.627   5.092   1.569  1.0903 -0.2495  0.3958
24109SOL    HW273769   7.575   5.101   1.711 -2.1554  1.0646 -0.7562
24110SOL     OW73770   7.194   4.967   1.620 -0.6313 -0.4774 -0.1004
24110SOL    HW173771   7.201   5.057   1.590  1.2319 -1.1730 -1.9609
24110SOL    HW273772   7.103   4.943   1.604 -0.6131  0.4087 -1.7093
24111SOL     OW73773   0.671   4.127   1.665 -0.2286  0.1224 -0.3643
24111SOL    HW173774   0.691   4.205   1.718 -1.4091 -0.0429  0.3521
24111SOL    HW273775   0.576   4.119   1.669 -0.0391 -2.4738  1.2479
24112SOL     OW73776   7.939   4.948   1.063  0.6989  0.0703  0.0795
24112SOL    HW173777   7.937   5.000   0.982 -1.5406 -1.4100 -0.9478
24112SOL    HW273778   7.977   4.865   1.036  1.7208  0.2126  1.0472
24113SOL     OW73779   7.084   3.277   0.604 -0.3374 -0.2603 -0.0368
24113SOL    HW173780   7.025   3.275   0.529 -1.9586  1.5685  1.0838
24113SOL    HW273781   7.135   3.358   0.593  0.1991 -0.5430  0.2898
24114SOL     OW73782   0.376   4.889   1.507  0.4232  0.0536  0.2619
24114SOL    HW173783   0.393   4.831   1.432  0.2577 -0.9100  0.9521
24114SOL    HW273784   0.324   4.961   1.470 -1.7897 -1.6346 -0.1476
24115SOL     OW73785   5.090   4.061   2.699 -0.1595 -0.1360  0.1264
24115SOL    HW173786   5.052   4.148   2.708  0.9940  0.1547  3.2079
24115SOL    HW273787   5.074   4.037   2.608 -0.3719  3.3387 -0.8723
24116SOL     OW73788   0.165   5.409   2.581 -0.6408  0.3111 -0.6525
24116SOL    HW173789   0.169   5.489   2.529 -1.8523  0.5587 -0.3906
24116SOL    HW273790   0.082   5.415   2.629 -1.3185 -1.5969 -1.4579
24117SOL     OW73791   7.543   4.635   2.179  0.9852 -0.1975  0.2407
24117SOL    HW173792   7.449   4.645   2.193  0.7334 -1.6118 -0.2220
24117SOL    HW273793   7.576   4.724   2.166 -0.4323  0.2421 -0.4719
24118SOL     OW73794   7.855   4.139   2.131 -0.0546 -0.3004 -0.5192
24118SOL    HW173795   7.870   4.224   2.172 -3.9818 -0.1679  1.0855
24118SOL    HW273796   7.875   4.076   2.201  2.2867 -0.7682 -1.5258
24119SOL     OW73797   0.899   2.763   2.257  0.0882  0.1071 -0.4947
24119SOL    HW173798   0.840   2.835   2.275  0.8577  0.8238 -0.7423
24119SOL    HW273799   0.899   2.755   2.161 -1.6695 -1.6944 -0.4194
24120SOL     OW73800   7.141   6.028   1.444  0.2689  0.0702  0.7204
24120SOL    HW173801   7.122   6.019   1.538  0.3634  0.9112  0.8192
24120SOL    HW273802   7.217   6.085   1.440  1.0339 -0.9479  0.1740
24121SOL     OW73803   0.883   2.976   2.705 -0.2487  0.8402  0.3619
24121SOL    HW173804   0.925   3.057   2.675 -1.4029  1.1111 -0.6065
24121SOL    HW273805   0.833   2.947   2.629  1.2784 -1.5813  0.1888
24122SOL     OW73806   7.658   2.642   3.060  0.1833  0.0449  0.1204
24122SOL    HW173807   7.569   2.672   3.074  0.0737 -0.8063  1.4602
24122SOL    HW273808   7.708   2.681   3.131  0.8994  0.5509 -0.6463
24123SOL     OW73809   6.683   4.100   2.285 -0.0268  0.2951  0.0155
24123SOL    HW173810   6.668   4.007   2.301 -2.8865  0.3213 -1.8196
24123SOL    HW273811   6.770   4.104   2.245 -1.5264 -2.3019 -4.1485
24124SOL     OW73812   7.165   5.526   2.309  0.4161  0.1632 -0.1249
24124SOL    HW173813   7.124   5.441   2.296  0.1530 -0.1921  2.4461
24124SOL    HW273814   7.100   5.578   2.355  1.8528  0.4335  1.7509
24125SOL     OW73815   7.246   4.094   3.566  0.6746  0.3310 -0.2180
24125SOL    HW173816   7.338   4.112   3.585  0.6630 -0.2262  0.4103
24125SOL    HW273817   7.200   4.174   3.590  1.0397  0.7341 -0.8691
24126SOL     OW73818   6.736   5.088   1.993 -0.1004 -0.3763 -0.1936
24126SOL    HW173819   6.725   5.023   1.923  1.1963  1.1364 -1.8745
24126SOL    HW273820   6.828   5.111   1.990 -0.6304  1.9586 -0.0517
24127SOL     OW73821   5.337   4.467   3.101 -0.4981  0.4734  0.1099
24127SOL    HW173822   5.374   4.385   3.069  0.9678  1.0749  0.1972
24127SOL    HW273823   5.252   4.442   3.137  1.2347 -1.6439  3.2110
24128SOL     OW73824   7.429   4.189   1.494 -0.5071  0.1622 -0.2526
24128SOL    HW173825   7.483   4.148   1.561  0.4381  1.0427 -0.4456
24128SOL    HW273826   7.418   4.279   1.524 -0.9975  0.2730 -0.7387
24129SOL     OW73827   6.439   5.375   1.222  0.5059 -0.5859 -0.5310
24129SOL    HW173828   6.416   5.457   1.179  0.2474 -0.7647 -0.7319
24129SOL    HW273829   6.403   5.306   1.166  2.8742 -0.9503 -1.7272
24130SOL     OW73830   7.738   5.667   2.974 -0.2021 -0.4974  0.0356
24130SOL    HW173831   7.749   5.621   2.890 -3.0061 -2.2203  0.4711
24130SOL    HW273832   7.812   5.727   2.978  1.1929 -1.8203 -2.7021
24131SOL     OW73833   0.554   4.599   4.038  0.0957 -0.1367 -0.1474
24131SOL    HW173834   0.475   4.590   3.984 -0.9867  0.7325  1.2119
24131SOL    HW273835   0.622   4.628   3.977 -0.8464 -0.0709 -1.1993
24132SOL     OW73836   0.927   3.141   1.166 -0.1470 -0.5655 -0.1661
24132SOL    HW173837   0.975   3.079   1.221 -0.8597 -0.7993  0.2113
24132SOL    HW273838   0.950   3.117   1.076 -2.3824 -3.1358 -0.1855
24133SOL     OW73839   6.915   4.024   2.486  0.1328  0.0411  0.6154
24133SOL    HW173840   7.002   4.028   2.525 -0.5215  0.3717  2.1048
24133SOL    HW273841   6.931   4.023   2.391  1.7221  0.5118  0.8519
24134SOL     OW73842   6.322   4.284   2.119  0.2134 -0.3508  0.1738
24134SOL    HW173843   6.317   4.284   2.214 -1.1793  0.2096  0.1303
24134SOL    HW273844   6.361   4.200   2.096 -0.0082 -0.7445  1.2200
24135SOL     OW73845   1.105   3.730   3.272  0.0488 -0.6313 -0.1584
24135SOL    HW173846   1.097   3.636   3.287 -1.9855 -0.5820 -0.6428
24135SOL    HW273847   1.065   3.770   3.349  0.7840 -0.1645 -0.0160
24136SOL     OW73848   7.754   6.346   2.666 -0.2549 -0.1791  0.1515
24136SOL    HW173849   7.754   6.439   2.687  0.8250 -0.5114  1.7207
24136SOL    HW273850   7.737   6.302   2.749 -0.0037 -1.4119 -0.4278
24137SOL     OW73851   0.376   4.205   1.380 -0.0374  0.1014  0.1607
24137SOL    HW173852   0.341   4.288   1.412  0.1016 -0.2571  1.2874
24137SOL    HW273853   0.310   4.174   1.318 -0.3683  0.7700  0.1670
24138SOL     OW73854   6.632   4.382   1.208  0.1549 -0.1729 -0.2664
24138SOL    HW173855   6.684   4.413   1.133 -0.2455  1.4836  0.1225
24138SOL    HW273856   6.600   4.296   1.180  1.9446 -0.6282 -1.0638
24139SOL     OW73857   7.404   4.043   1.263  0.1176  0.4126 -0.2487
24139SOL    HW173858   7.405   4.063   1.356  2.4038  1.3564 -0.4140
24139SOL    HW273859   7.473   3.978   1.251  0.0869  0.5504 -1.3250
24140SOL     OW73860   6.010   3.633   2.974  0.4671  0.0046  0.0589
24140SOL    HW173861   5.941   3.637   2.908  0.6145  0.2782 -0.0813
24140SOL    HW273862   5.982   3.565   3.035  0.7904 -0.9663 -0.8308
24141SOL     OW73863   7.293   6.990   1.481  0.4647 -0.2181  0.1774
24141SOL    HW173864   7.227   7.047   1.440  0.2238 -1.6549 -1.5609
24141SOL    HW273865   7.376   7.021   1.445  0.2624 -1.4126 -1.4778
24142SOL     OW73866   7.139   5.702   2.093  0.1952 -0.2844 -0.3584
24142SOL    HW173867   7.111   5.646   2.165  0.0860 -1.1575 -1.0706
24142SOL    HW273868   7.234   5.701   2.097  0.1862  0.0187  0.0289
24143SOL     OW73869   0.157   3.039   2.534  0.1578 -0.4272 -0.1688
24143SOL    HW173870   0.215   3.064   2.606  0.5844 -0.4963 -0.4845
24143SOL    HW273871   0.112   3.120   2.510  1.8990  0.2091 -1.5147
24144SOL     OW73872   7.651   7.588   3.340 -0.5361 -0.2877 -0.0676
24144SOL    HW173873   7.669   7.578   3.246 -1.2561 -1.9718 -0.0649
24144SOL    HW273874   7.555   7.582   3.347 -0.5125  0.1623  0.7438
24145SOL     OW73875   7.731   5.934   2.679 -0.4602  0.1928  0.7491
24145SOL    HW173876   7.801   5.968   2.624 -1.9707  2.6969  0.2523
24145SOL    HW273877   7.734   5.989   2.758  0.4511 -2.1160  2.4568
24146SOL     OW73878   1.592   4.599   2.417 -0.2000  0.1752 -0.0243
24146SOL    HW173879   1.577   4.504   2.424 -1.8671  0.0863 -3.1174
24146SOL    HW273880   1.686   4.607   2.401 -0.0862 -0.9812 -0.0167
24147SOL     OW73881   0.406   5.431   3.166 -0.6034 -0.5839  0.1266
24147SOL    HW173882   0.347   5.372   3.117 -1.2917  0.0971  0.1161
24147SOL    HW273883   0.405   5.398   3.255  0.4513 -1.6783 -0.2354
24148SOL     OW73884   6.952   4.079   2.211 -0.2999 -0.0248  0.1295
24148SOL    HW173885   6.969   4.056   2.120  1.3620  0.2019  0.3517
24148SOL    HW273886   7.012   4.151   2.229  0.2496 -0.8434  1.7473
24149SOL     OW73887   1.496   3.493   3.330  0.1690 -0.3202 -0.2314
24149SOL    HW173888   1.564   3.543   3.286 -1.1303  1.7313 -0.0498
24149SOL    HW273889   1.524   3.491   3.422  0.8220 -0.9871 -0.4403
24150SOL     OW73890   6.589   4.069   1.419 -0.2416 -0.4839 -0.2192
24150SOL    HW173891   6.519   4.009   1.446 -1.0241  0.9447  1.0610
24150SOL    HW273892   6.602   4.126   1.495  0.5627  0.8781 -1.3372
24151SOL     OW73893   7.546   5.152   1.879 -0.5445 -0.6571 -0.1815
24151SOL    HW173894   7.469   5.094   1.880 -1.9159  1.0381 -1.4175
24151SOL    HW273895   7.512   5.239   1.898  1.0444  0.1787 -0.9133
24152SOL     OW73896   6.931   4.590   3.644  0.2116  0.2037  0.0083
24152SOL    HW173897   6.977   4.506   3.646  2.4842  1.3621  0.3428
24152SOL    HW273898   6.920   4.613   3.737 -0.6737  0.1643 -0.0761
24153SOL     OW73899   6.733   4.957   2.863 -0.1032  0.6787  0.4958
24153SOL    HW173900   6.754   4.959   2.770  2.5372  1.0287  1.0182
24153SOL    HW273901   6.704   4.867   2.879  1.6353 -0.0690 -0.2970
24154SOL     OW73902   7.562   6.023   1.378  0.7487 -0.1230  0.2612
24154SOL    HW173903   7.565   6.085   1.451  1.3963  0.3825 -0.1744
24154SOL    HW273904   7.522   5.944   1.414 -2.0285  1.2024  0.3409
24155SOL     OW73905   2.535   4.806   1.368 -0.2166 -1.1653 -0.2047
24155SOL    HW173906   2.593   4.877   1.339 -0.0098 -1.5509 -0.7631
24155SOL    HW273907   2.459   4.850   1.404 -0.2072 -0.6553 -0.7827
24156SOL     OW73908   0.558   2.309   3.568  0.2417 -0.2932 -0.2341
24156SOL    HW173909   0.555   2.348   3.656 -0.3503 -1.0567  0.0939
24156SOL    HW273910   0.618   2.365   3.520 -1.3573  1.6542 -0.0853
24157SOL     OW73911   7.026   4.953   0.148  0.1592  0.4113  0.6188
24157SOL    HW173912   7.094   4.939   0.083 -1.0965 -2.1081 -0.2709
24157SOL    HW273913   6.959   5.005   0.103  0.4721  0.9474  0.7682
24158SOL     OW73914   0.497   6.521   3.191 -0.4556 -0.0413 -0.0061
24158SOL    HW173915   0.521   6.597   3.244  1.2766  0.6229 -1.6247
24158SOL    HW273916   0.572   6.463   3.195 -0.8406 -0.6009 -0.6370
24159SOL     OW73917   0.384   3.499   2.845 -1.0194  0.0080  0.3803
24159SOL    HW173918   0.293   3.472   2.832 -0.3401 -1.7803 -0.9894
24159SOL    HW273919   0.426   3.483   2.761  0.1383  2.8465  0.2976
24160SOL     OW73920   7.734   4.527   3.960  0.0145 -0.3332  0.9466
24160SOL    HW173921   7.747   4.604   4.016  1.0994 -0.7151  1.2415
24160SOL    HW273922   7.804   4.532   3.895  0.6073 -1.4951  1.4667
24161SOL     OW73923   7.142   3.543   2.801 -0.5302  0.3264  0.4727
24161SOL    HW173924   7.136   3.466   2.857  0.4039 -1.6330 -1.9101
24161SOL    HW273925   7.229   3.579   2.818 -0.9932  0.9440  1.6393
24162SOL     OW73926   7.410   5.358   2.965  0.2964 -0.5254 -0.0673
24162SOL    HW173927   7.338   5.422   2.963 -0.0280 -0.8950 -0.4917
24162SOL    HW273928   7.435   5.354   3.057  0.6432  0.5654 -0.0942
24163SOL     OW73929   7.309   3.859   2.781 -0.4872  0.3513  0.3869
24163SOL    HW173930   7.329   3.788   2.842 -1.3514 -1.2489 -1.0982
24163SOL    HW273931   7.385   3.917   2.786  0.7887 -1.2776  0.8420
24164SOL     OW73932   7.124   4.126   3.153  0.3029  0.6272 -0.4202
24164SOL    HW173933   7.108   4.211   3.192 -0.7403  0.0803  0.3920
24164SOL    HW273934   7.220   4.121   3.144  0.4677  1.3184  0.7802
24165SOL     OW73935   7.014   1.741   3.660  0.1653 -0.1771 -0.0572
24165SOL    HW173936   7.075   1.738   3.587  0.8077  0.5003  0.4333
24165SOL    HW273937   7.008   1.651   3.691  0.3831 -0.3593 -0.5394
24166SOL     OW73938   0.823   6.653   4.234  0.1102  0.6304 -0.2152
24166SOL    HW173939   0.798   6.740   4.200  1.1324  1.3754  0.8628
24166SOL    HW273940   0.761   6.593   4.192  0.9801  1.5223 -3.0165
24167SOL     OW73941   7.590   4.831   0.880  0.1145 -0.3492 -0.8138
24167SOL    HW173942   7.655   4.890   0.842  0.2289 -0.5429 -0.9152
24167SOL    HW273943   7.506   4.860   0.844  0.0532  0.3442 -0.1561
24168SOL     OW73944   7.386   3.829   2.193  0.6299  0.1161 -0.3568
24168SOL    HW173945   7.446   3.900   2.168 -0.0633  1.4804  1.5851
24168SOL    HW273946   7.353   3.855   2.279  0.3620 -2.6158  0.4512
24169SOL     OW73947   0.096   6.463   1.731  0.2325 -0.0059 -0.3500
24169SOL    HW173948   0.039   6.528   1.690 -0.3119 -0.5569 -0.5005
24169SOL    HW273949   0.154   6.513   1.788  1.9597  0.9872 -2.7698
24170SOL     OW73950   6.613   4.661   2.860  0.4751  0.1653  0.3090
24170SOL    HW173951   6.542   4.658   2.923  0.4138  0.5578  0.2576
24170SOL    HW273952   6.672   4.590   2.887 -0.5923 -1.0500 -0.4379
24171SOL     OW73953   6.695   6.049   2.033 -0.0735 -0.3739  0.1938
24171SOL    HW173954   6.609   6.078   2.001  0.5171 -0.0666 -1.1817
24171SOL    HW273955   6.685   6.045   2.128 -1.4848  0.0668  0.0883
24172SOL     OW73956   7.298   4.749   3.483  0.5033  0.1553  0.3855
24172SOL    HW173957   7.306   4.755   3.578  1.3251  0.3142  0.3125
24172SOL    HW273958   7.385   4.771   3.450  0.7939 -1.8839 -0.3319
24173SOL     OW73959   0.165   6.966   2.532  0.0806 -0.1005 -0.7564
24173SOL    HW173960   0.224   6.943   2.604 -0.5290  1.5979  0.3389
24173SOL    HW273961   0.189   6.905   2.462 -0.0259 -2.5799  1.1964
24174SOL     OW73962   7.717   5.952   3.545  0.4337 -0.5599  0.6671
24174SOL    HW173963   7.663   5.988   3.615 -1.0006  0.7229 -0.9952
24174SOL    HW273964   7.777   5.892   3.589 -0.1339  0.4882  3.0068
24175SOL     OW73965   6.267   3.960   2.495 -0.4270  0.2357 -0.5027
24175SOL    HW173966   6.292   3.910   2.417 -0.1820  1.3536 -1.1551
24175SOL    HW273967   6.309   4.045   2.484 -0.1704  0.3268  0.9846
24176SOL     OW73968   6.790   3.075   3.380 -0.2305 -0.4586 -0.0090
24176SOL    HW173969   6.775   3.015   3.453  0.6372  0.0658  0.6214
24176SOL    HW273970   6.783   3.162   3.418  1.1709 -0.1779 -0.3260
24177SOL     OW73971   0.449   5.914   3.098 -0.3327  0.2121 -0.2357
24177SOL    HW173972   0.404   5.887   3.178 -1.5213  2.1067 -0.1915
24177SOL    HW273973   0.482   6.002   3.118  1.3070 -0.1553 -1.1146
24178SOL     OW73974   7.414   5.304   2.302  0.1453  0.0050 -0.2840
24178SOL    HW173975   7.468   5.225   2.307  0.3932  0.0506 -1.8088
24178SOL    HW273976   7.390   5.311   2.210 -1.1304  0.8902  0.0922
24179SOL     OW73977   6.992   3.079   4.120  0.0349 -0.1946 -0.2142
24179SOL    HW173978   6.921   3.104   4.179 -2.6196 -2.1606 -2.3137
24179SOL    HW273979   7.015   3.160   4.075 -1.6700  0.3143 -0.2428
24180SOL     OW73980   7.144   6.244   2.534  0.6304 -0.3666  0.1286
24180SOL    HW173981   7.049   6.233   2.541  0.3046  2.2678  0.9650
24180SOL    HW273982   7.159   6.264   2.442  0.2050  0.3042  0.1969
24181SOL     OW73983   0.858   4.183   4.847  0.0503  0.3855 -0.2343
24181SOL    HW173984   0.941   4.149   4.880 -0.8129 -0.5755  1.0351
24181SOL    HW273985   0.813   4.217   4.925 -1.2605 -0.2293 -0.6966
24182SOL     OW73986   0.930   5.804   5.383 -0.1974  0.0464 -0.3767
24182SOL    HW173987   0.944   5.711   5.401 -1.9996  0.0236  1.2397
24182SOL    HW273988   0.835   5.814   5.383 -0.2416  1.3076 -3.9375
24183SOL     OW73989   0.443   3.866   5.607  0.5488 -0.0477 -0.3790
24183SOL    HW173990   0.491   3.797   5.560  1.2582  1.1598 -1.4764
24183SOL    HW273991   0.509   3.933   5.624  0.0073  0.1145  1.2456
24184SOL     OW73992   7.287   4.696   4.705  0.0294 -0.3210 -0.5012
24184SOL    HW173993   7.378   4.722   4.695  0.1835 -0.4639  0.4010
24184SOL    HW273994   7.244   4.727   4.625  0.3556  2.0223  0.1327
24185SOL     OW73995   7.823   5.538   4.127  0.2153  0.3542 -0.2670
24185SOL    HW173996   7.863   5.587   4.199  1.2784  2.0258 -1.8933
24185SOL    HW273997   7.732   5.568   4.125  0.5117  1.2853 -0.4054
24186SOL     OW73998   7.580   3.854   3.684  0.9457  0.4175 -0.0282
24186SOL    HW173999   7.551   3.780   3.631  2.4710  0.4800 -1.0349
24186SOL    HW274000   7.515   3.861   3.753 -0.4233 -0.4815 -1.1588
24187SOL     OW74001   7.007   4.860   3.585  0.7893 -0.3214  0.1329
24187SOL    HW174002   7.041   4.921   3.651  1.1138 -0.1951 -0.1503
24187SOL    HW274003   7.015   4.774   3.626  1.9047 -0.3423 -0.1143
24188SOL     OW74004   7.898   4.071   3.737 -0.0486  0.1144  0.3510
24188SOL    HW174005   7.989   4.088   3.712  0.0582  0.2565  0.8225
24188SOL    HW274006   7.900   3.987   3.782 -0.3257 -0.3998 -0.5797
24189SOL     OW74007   0.192   4.480   4.804 -0.4198  0.0617  0.0480
24189SOL    HW174008   0.229   4.471   4.716 -2.1303 -1.8121 -0.5635
24189SOL    HW274009   0.118   4.539   4.794  0.8867  1.9082  0.7974
24190SOL     OW74010   7.093   2.598   6.408 -0.6071  0.0447 -0.0462
24190SOL    HW174011   7.042   2.578   6.487  0.5682  2.0677  1.2993
24190SOL    HW274012   7.093   2.516   6.359  0.3855 -2.0093  3.0623
24191SOL     OW74013   7.289   5.045   1.862  0.3533 -0.1752  0.3334
24191SOL    HW174014   7.218   5.067   1.922  0.6323 -1.6056  1.2386
24191SOL    HW274015   7.247   5.001   1.788  0.2313 -0.5094  0.6003
24192SOL     OW74016   6.551   4.879   4.404 -0.2184 -0.2274  0.1312
24192SOL    HW174017   6.614   4.816   4.368  0.5154 -0.1122  1.1924
24192SOL    HW274018   6.465   4.844   4.378  0.1017 -2.2405  1.5706
24193SOL     OW74019   0.661   5.823   5.421  0.4149  0.3197 -0.2067
24193SOL    HW174020   0.659   5.734   5.386 -0.1427  0.0324  0.5344
24193SOL    HW274021   0.573   5.857   5.407 -0.3326 -0.3729  2.2969
24194SOL     OW74022   0.053   4.852   3.776 -0.3844  0.3402 -0.2256
24194SOL    HW174023   0.149   4.858   3.773 -0.2548 -0.1114  1.7954
24194SOL    HW274024   0.030   4.813   3.692  1.3358 -0.8893 -0.1880
24195SOL     OW74025   1.651   6.050   2.964  0.5238  0.6606 -0.6618
24195SOL    HW174026   1.655   6.079   3.055  0.1113 -2.7109  0.5900
24195SOL    HW274027   1.569   6.086   2.930  0.6100  1.8444  0.3456
24196SOL     OW74028   6.898   5.000   3.312 -0.1021  0.5548 -0.2252
24196SOL    HW174029   6.810   5.002   3.350 -0.1233  1.2547 -0.3024
24196SOL    HW274030   6.889   5.045   3.229 -0.2478 -1.7122 -1.5197
24197SOL     OW74031   7.609   4.983   4.484  0.1686  0.4346 -0.0010
24197SOL    HW174032   7.586   5.041   4.411  1.6133  1.5106  0.3554
24197SOL    HW274033   7.697   4.953   4.463  0.1185 -0.2228  0.7091
24198SOL     OW74034   7.481   3.363   5.867 -0.8074 -0.1889 -0.4529
24198SOL    HW174035   7.424   3.319   5.804 -1.5546 -0.0634  0.1160
24198SOL    HW274036   7.476   3.456   5.843 -2.0266  0.0134  0.4803
24199SOL     OW74037   0.223   5.287   3.007  0.4996  0.0933 -0.3297
24199SOL    HW174038   0.197   5.218   2.946  2.2992 -1.3051  0.3985
24199SOL    HW274039   0.176   5.365   2.976 -1.6294 -1.4218 -1.1553
24200SOL     OW74040   0.107   5.018   2.179  0.1263  0.2832  0.0261
24200SOL    HW174041   0.166   4.960   2.227 -0.0003  0.5432  0.4979
24200SOL    HW274042   0.078   5.082   2.244  0.1895  0.8198 -0.4712
24201SOL     OW74043   0.295   4.117   4.925  0.2768  0.1700 -0.2802
24201SOL    HW174044   0.222   4.102   4.865 -0.2815  1.4805  0.0321
24201SOL    HW274045   0.371   4.130   4.868 -0.0960  0.6304 -0.6826
24202SOL     OW74046   7.385   3.241   4.201  0.3076 -0.2472 -0.7430
24202SOL    HW174047   7.317   3.221   4.266  0.7336  0.3915 -0.0670
24202SOL    HW274048   7.381   3.170   4.138  0.5728 -1.4684  0.5572
24203SOL     OW74049   7.202   4.152   3.923  0.3215  0.3654 -0.4469
24203SOL    HW174050   7.186   4.216   3.853  1.8792 -0.0004 -1.1738
24203SOL    HW274051   7.263   4.197   3.982  2.2024 -0.7386 -1.4700
24204SOL     OW74052   7.313   4.895   6.868  0.2110 -0.5891 -0.4580
24204SOL    HW174053   7.382   4.842   6.908 -0.3157  0.2397  1.6866
24204SOL    HW274054   7.287   4.846   6.790  1.1444 -2.4462  0.3402
24205SOL     OW74055   1.551   3.996   4.394 -0.6665  0.3712  0.5277
24205SOL    HW174056   1.594   4.076   4.424  0.7377  0.1372 -0.7152
24205SOL    HW274057   1.499   3.967   4.469 -1.7865  2.8058  0.7801
24206SOL     OW74058   7.326   3.563   3.312  0.4026  0.1754  0.0780
24206SOL    HW174059   7.305   3.647   3.271 -0.5593 -0.0749  0.0261
24206SOL    HW274060   7.419   3.549   3.293  0.5105  1.1039 -0.1267
24207SOL     OW74061   1.212   5.038   5.820  0.0250  0.5858  0.3149
24207SOL    HW174062   1.225   4.959   5.768  0.6278  0.0586  1.2400
24207SOL    HW274063   1.195   5.005   5.908 -2.4781  1.3961  0.2078
24208SOL     OW74064   0.270   6.729   3.895 -0.3043 -0.7057  0.0066
24208SOL    HW174065   0.232   6.790   3.832 -0.4042  1.1648  1.7631
24208SOL    HW274066   0.339   6.780   3.939 -0.5707 -1.7515  1.7208
24209SOL     OW74067   7.456   4.255   3.697  0.3557  0.0686 -0.3835
24209SOL    HW174068   7.506   4.305   3.632 -0.2101  0.8814 -0.2068
24209SOL    HW274069   7.375   4.305   3.709  0.2732 -0.2842  0.6515
24210SOL     OW74070   7.747   4.097   5.495  0.4090  0.3074 -0.2010
24210SOL    HW174071   7.801   4.033   5.542  0.1681  0.0859 -0.2207
24210SOL    HW274072   7.767   4.082   5.403 -0.3305 -0.3713 -0.2607
24211SOL     OW74073   7.321   4.921   5.444 -0.1932  0.2418 -0.3944
24211SOL    HW174074   7.256   4.851   5.444 -1.5822  1.4962  0.7447
24211SOL    HW274075   7.341   4.934   5.351  0.6590 -2.1200 -0.6116
24212SOL     OW74076   7.922   3.882   4.478 -0.2000 -0.9292  0.0180
24212SOL    HW174077   7.900   3.816   4.413  1.4987 -2.4463  0.8884
24212SOL    HW274078   8.011   3.910   4.455 -0.8189  0.9724 -0.2275
24213SOL     OW74079   7.884   4.949   4.724  0.1801  1.1166  0.2852
24213SOL    HW174080   7.968   4.952   4.769  0.1918  1.0724  0.2661
24213SOL    HW274081   7.825   4.907   4.787  0.2008  1.0388  0.2530
24214SOL     OW74082   0.530   3.510   6.901  0.0332 -0.1775 -0.1636
24214SOL    HW174083   0.503   3.421   6.883  0.0136 -0.2582  0.2455
24214SOL    HW274084   0.598   3.529   6.836  0.9340 -0.9275  0.5306
24215SOL     OW74085   0.753   4.839   3.066 -0.2726  0.4603 -0.5535
24215SOL    HW174086   0.751   4.928   3.032  0.5121 -0.1537 -2.2993
24215SOL    HW274087   0.726   4.784   2.992 -0.2989 -0.7979  0.3533
24216SOL     OW74088   6.910   3.434   4.563  0.7568 -0.1037  0.2837
24216SOL    HW174089   6.842   3.483   4.518 -0.1936 -1.4718  0.1661
24216SOL    HW274090   6.991   3.480   4.541 -0.0505  1.2163 -0.0471
24217SOL     OW74091   7.361   4.396   5.285  0.3442 -0.4168 -0.0698
24217SOL    HW174092   7.338   4.460   5.354 -0.9249 -0.2575 -0.6016
24217SOL    HW274093   7.397   4.449   5.214 -1.4937 -0.1275 -0.8532
24218SOL     OW74094   0.067   4.074   5.423  0.1543 -0.1478 -0.2652
24218SOL    HW174095   0.032   4.138   5.485 -1.0233 -0.4612 -0.5674
24218SOL    HW274096   0.119   4.014   5.477 -1.6726 -1.0090  0.6476
24219SOL     OW74097   0.007   4.691   4.904 -0.2690 -0.0378 -0.0911
24219SOL    HW174098   0.046   4.778   4.901 -0.1896 -0.1034 -1.6207
24219SOL    HW274099   0.032   4.657   4.990  2.1384  0.3614 -0.5530
24220SOL     OW74100   7.555   5.219   2.765 -0.9240  0.1449  0.4044
24220SOL    HW174101   7.510   5.263   2.836 -0.8388  1.6180 -0.4179
24220SOL    HW274102   7.488   5.208   2.697 -0.2065  1.9837 -0.6640
24221SOL     OW74103   0.040   6.325   4.209  0.1262 -0.0926  0.4013
24221SOL    HW174104  -0.004   6.300   4.128  0.6538  0.0940  0.0564
24221SOL    HW274105  -0.018   6.390   4.249  0.7891  1.2724 -0.7837
24222SOL     OW74106   7.070   3.405   3.674  0.0112 -0.0787  0.2181
24222SOL    HW174107   7.009   3.440   3.739 -0.4728  1.8875 -1.2274
24222SOL    HW274108   7.142   3.469   3.672 -0.5746  0.5894 -2.0206
24223SOL     OW74109   7.573   4.931   7.699 -0.4311  0.3840 -0.1538
24223SOL    HW174110   7.498   4.939   7.758  0.2573 -1.1196  0.9964
24223SOL    HW274111   7.542   4.874   7.629 -0.7391  0.7957 -0.3556
24224SOL     OW74112   7.420   4.411   2.616  0.4100  0.0105  0.2283
24224SOL    HW174113   7.391   4.340   2.673 -1.5995  1.1936  0.7945
24224SOL    HW274114   7.378   4.489   2.652  1.3020  1.2517 -1.2779
24225SOL     OW74115   7.819   5.459   5.393 -0.1518 -0.0126 -0.1164
24225SOL    HW174116   7.869   5.388   5.434 -0.3955  0.3442  0.8150
24225SOL    HW274117   7.860   5.471   5.308  0.2827 -0.8603 -0.0401
24226SOL     OW74118   7.059   3.603   4.417  0.2692 -0.2571 -0.1900
24226SOL    HW174119   7.016   3.658   4.482  0.6999 -1.7380  1.4350
24226SOL    HW274120   7.152   3.623   4.427  0.3705 -0.7764 -0.0631
24227SOL     OW74121   5.946   4.716   6.790 -0.7324  0.4153  0.1002
24227SOL    HW174122   6.005   4.713   6.866  0.6477 -1.2320 -0.9748
24227SOL    HW274123   5.967   4.800   6.748  0.2169  0.2702  0.2429
24228SOL     OW74124   7.783   4.549   3.334 -1.0098 -0.4191 -0.6874
24228SOL    HW174125   7.740   4.487   3.274  3.0195 -2.3829 -1.9457
24228SOL    HW274126   7.840   4.493   3.388 -0.5683  1.8589  1.3635
24229SOL     OW74127   7.414   5.614   4.903  0.8198 -0.3676 -0.0357
24229SOL    HW174128   7.421   5.520   4.915  0.8853 -0.5811 -1.5725
24229SOL    HW274129   7.321   5.630   4.887  0.7716 -0.1318  0.4579
24230SOL     OW74130   6.753   4.416   4.486  0.2731  0.3062  0.0121
24230SOL    HW174131   6.792   4.494   4.445 -1.0623  0.9414 -0.1077
24230SOL    HW274132   6.661   4.439   4.498  0.3822 -0.2575  2.4398
24231SOL     OW74133   7.717   3.712   4.602 -0.3526  0.1609 -0.2193
24231SOL    HW174134   7.669   3.666   4.534 -1.2452  0.9191 -0.1253
24231SOL    HW274135   7.770   3.776   4.555 -1.3182  0.9992 -0.1953
24232SOL     OW74136   0.790   4.873   5.235  0.3852  0.4470  0.3706
24232SOL    HW174137   0.729   4.944   5.214  0.9131  0.6561 -0.5158
24232SOL    HW274138   0.854   4.876   5.164  0.0435 -1.3470 -0.0431
24233SOL     OW74139   7.960   4.853   5.366  0.5968  0.0956 -0.7579
24233SOL    HW174140   8.020   4.826   5.297  1.4012 -1.7868  0.5839
24233SOL    HW274141   7.977   4.792   5.438 -0.4468  1.7400  0.9835
24234SOL     OW74142   0.338   3.253   5.174  0.2396 -0.5016 -0.4021
24234SOL    HW174143   0.364   3.203   5.252 -0.1518  0.1716  0.1764
24234SOL    HW274144   0.310   3.187   5.111  0.8507 -1.0753 -0.0837
24235SOL     OW74145   6.200   4.317   3.301  0.2057 -0.0652 -0.4929
24235SOL    HW174146   6.120   4.364   3.279  0.4491  0.5781 -0.0332
24235SOL    HW274147   6.169   4.233   3.334 -0.3856  0.8055  1.2962
24236SOL     OW74148   6.815   4.457   4.181 -0.0480  0.0956  0.8600
24236SOL    HW174149   6.884   4.430   4.121 -0.6302 -0.4827  0.4363
24236SOL    HW274150   6.746   4.392   4.169 -1.8878  2.1561 -0.8046
24237SOL     OW74151   0.262   5.891   4.928 -0.3242  0.2962  0.1326
24237SOL    HW174152   0.205   5.958   4.890  0.8038  1.2960  0.1120
24237SOL    HW274153   0.244   5.893   5.022 -0.1867  0.7646  0.1532
24238SOL     OW74154   7.050   5.168   5.473 -0.0864  0.3631  0.8125
24238SOL    HW174155   6.981   5.137   5.532  0.4219  1.0234  1.7669
24238SOL    HW274156   7.126   5.181   5.529  0.8753 -0.4681 -0.2503
24239SOL     OW74157   6.142   4.048   4.343 -0.2352 -0.5617 -0.8699
24239SOL    HW174158   6.232   4.068   4.316 -0.2017  0.5753  0.0136
24239SOL    HW274159   6.141   4.067   4.437 -1.0424 -1.8975 -0.5792
24240SOL     OW74160   0.811   4.511   5.760  0.3697  0.0462  0.0393
24240SOL    HW174161   0.776   4.428   5.728 -2.2116  0.1991  2.1439
24240SOL    HW274162   0.822   4.498   5.854 -0.0799  2.0728  0.4145
24241SOL     OW74163   0.220   4.935   5.061 -0.4103 -0.2690  0.3216
24241SOL    HW174164   0.215   4.854   5.113  2.4224 -0.7963 -0.0760
24241SOL    HW274165   0.221   5.005   5.126 -2.9012 -0.4681  0.6721
24242SOL     OW74166   7.984   5.327   3.728  0.6144  0.1410  0.0473
24242SOL    HW174167   7.937   5.318   3.645  0.6531  0.1494  0.0249
24242SOL    HW274168   8.038   5.405   3.718 -0.0858  0.6944  0.4190
24243SOL     OW74169   0.125   5.444   4.130  0.1546  0.0637 -0.2897
24243SOL    HW174170   0.152   5.498   4.204 -0.1744  1.9663 -1.4957
24243SOL    HW274171   0.034   5.470   4.113 -0.0117 -0.8701 -0.9310
24244SOL     OW74172   6.428   3.689   6.798 -0.2975 -0.0199  0.0994
24244SOL    HW174173   6.460   3.776   6.775  0.4788 -0.6941 -1.5498
24244SOL    HW274174   6.333   3.693   6.782 -0.4333  0.7830  1.0064
24245SOL     OW74175   1.133   1.972   6.130  0.4198  0.2579  0.7010
24245SOL    HW174176   1.128   2.062   6.161  1.3112  0.6456 -0.2184
24245SOL    HW274177   1.096   1.974   6.042  1.1665 -0.1051  0.3633
24246SOL     OW74178   1.065   7.547   7.029  0.1789 -0.0483 -0.1864
24246SOL    HW174179   1.144   7.493   7.030  0.8083  0.8628  0.4268
24246SOL    HW274180   1.038   7.553   7.121  0.2512  0.8566 -0.2134
24247SOL     OW74181   0.411   3.939   4.644  0.3118  0.5106  0.5881
24247SOL    HW174182   0.386   3.855   4.684  0.8156  0.1360  0.1383
24247SOL    HW274183   0.365   3.939   4.559  2.4329 -0.5850 -0.6429
24248SOL     OW74184   7.869   5.641   6.619  0.8768 -0.0706  0.8654
24248SOL    HW174185   7.821   5.712   6.661 -1.7564  0.4513 -2.6120
24248SOL    HW274186   7.814   5.563   6.631  1.3816 -0.4815  0.5930
24249SOL     OW74187   7.826   4.860   4.378 -0.4074 -0.6638  0.3763
24249SOL    HW174188   7.894   4.832   4.440  0.2119  0.1102  0.0714
24249SOL    HW274189   7.875   4.886   4.299 -0.9980  0.5299  0.3818
24250SOL     OW74190   7.141   4.448   7.891 -0.0980  0.2106  0.2708
24250SOL    HW174191   7.064   4.409   7.933 -0.0068 -0.2508  0.0126
24250SOL    HW274192   7.120   4.447   7.798  1.4036 -2.7112 -0.1666
24251SOL     OW74193   7.354   2.716   6.416  0.4228  0.0742 -0.1776
24251SOL    HW174194   7.273   2.668   6.399  0.9572 -0.8827 -0.1201
24251SOL    HW274195   7.354   2.729   6.511 -0.7567  2.1248 -0.4041
24252SOL     OW74196   0.713   5.509   5.533 -0.9096  0.1501  0.7548
24252SOL    HW174197   0.626   5.489   5.500 -0.3306 -0.7532 -0.2935
24252SOL    HW274198   0.698   5.566   5.609 -2.3272  2.4344 -1.0760
24253SOL     OW74199   0.531   4.752   7.487  0.5718 -0.1251 -0.3384
24253SOL    HW174200   0.603   4.717   7.435  1.3689 -1.0666  1.3167
24253SOL    HW274201   0.556   4.734   7.578  0.7195  4.1262  0.6634
24254SOL     OW74202   7.273   4.704   7.969  0.0776  0.3880 -0.6197
24254SOL    HW174203   7.250   4.611   7.966  0.6255  0.2109  0.1660
24254SOL    HW274204   7.337   4.710   8.040  0.3216  1.3097 -0.9049
24255SOL     OW74205   0.355   5.507   7.329 -0.1813 -0.0293 -0.0066
24255SOL    HW174206   0.422   5.506   7.261 -1.1230  1.2682 -0.9982
24255SOL    HW274207   0.308   5.425   7.317 -0.1942  0.0837 -0.7731
24256SOL     OW74208   0.272   4.874   7.019 -0.5214 -0.3502  0.3435
24256SOL    HW174209   0.214   4.945   6.990  0.6265  0.5811  0.2715
24256SOL    HW274210   0.289   4.824   6.939 -0.4045 -0.0232  0.1622
24257SOL     OW74211   7.664   4.748   6.606  0.7074  0.4828 -0.4200
24257SOL    HW174212   7.756   4.765   6.626  0.5332  0.5102  0.3672
24257SOL    HW274213   7.626   4.835   6.594  0.5696  0.5135  0.2271
24258SOL     OW74214   6.948   3.932   7.406 -1.0356  0.2855 -0.7336
24258SOL    HW174215   6.855   3.914   7.418 -1.0511  0.5508 -0.4371
24258SOL    HW274216   6.963   4.014   7.453 -0.6546  0.2523 -0.7918
24259SOL     OW74217   7.650   5.007   7.339 -0.5150 -0.8183  0.7418
24259SOL    HW174218   7.625   4.937   7.400  1.0440 -2.4617 -0.4103
24259SOL    HW274219   7.720   5.054   7.385 -1.6034  0.0662  1.5412
24260SOL     OW74220   0.215   5.605   3.905  0.0323 -0.0554  0.6930
24260SOL    HW174221   0.254   5.692   3.895  0.6765 -0.2974  0.9989
24260SOL    HW274222   0.215   5.590   4.000 -0.0132 -0.4103  0.6375
24261SOL     OW74223   0.837   4.624   6.826 -0.0455  0.4947 -0.3137
24261SOL    HW174224   0.902   4.584   6.884 -0.2414 -1.1405 -1.1901
24261SOL    HW274225   0.755   4.580   6.847 -0.8216  2.1497  0.3812
24262SOL     OW74226   0.960   5.048   7.826  0.5436 -0.3677 -0.1936
24262SOL    HW174227   0.944   5.138   7.854 -0.2422 -0.2406 -1.0094
24262SOL    HW274228   1.054   5.046   7.804  0.4096  0.4689 -0.9064
24263SOL     OW74229   7.832   4.452   5.779  0.0439  0.2864 -0.1760
24263SOL    HW174230   7.785   4.501   5.847  0.1735 -0.1403  0.2315
24263SOL    HW274231   7.906   4.507   5.756  0.1199  0.3428  0.1902
24264SOL     OW74232   6.710   4.401   7.937 -0.1698 -0.0603 -0.0484
24264SOL    HW174233   6.777   4.394   8.005 -0.8945  0.2565  0.7065
24264SOL    HW274234   6.629   4.373   7.979 -0.2568 -2.1495 -1.4175
24265SOL     OW74235   7.442   3.838   5.529 -0.5340  0.1376 -0.1780
24265SOL    HW174236   7.532   3.806   5.522 -0.4361  0.5242 -0.7628
24265SOL    HW274237   7.449   3.932   5.511 -0.6981  0.6823  2.3086
24266SOL     OW74238   7.331   3.445   5.164 -0.1245 -0.4469  0.0463
24266SOL    HW174239   7.300   3.536   5.168  0.0334 -0.4096  0.4476
24266SOL    HW274240   7.259   3.398   5.121  0.0636 -0.0210 -0.7557
24267SOL     OW74241   7.679   1.628   6.721 -0.1766 -0.0701 -0.0431
24267SOL    HW174242   7.738   1.659   6.790 -0.8704 -1.5337  1.2749
24267SOL    HW274243   7.732   1.630   6.642  0.7803  1.2677  0.5865
24268SOL     OW74244   7.936   3.824   5.323 -0.2411  0.3747 -0.1253
24268SOL    HW174245   7.976   3.878   5.391  0.4990 -1.1780  0.7424
24268SOL    HW274246   7.984   3.741   5.327 -0.9608 -0.1744 -1.7643
24269SOL     OW74247   6.971   2.596   7.039 -0.0221  0.5296  0.0402
24269SOL    HW174248   7.019   2.672   7.008 -0.5337  1.0546  0.5004
24269SOL    HW274249   6.883   2.606   7.001  0.1658 -0.3343 -0.6702
24270SOL     OW74250   1.185   4.503   7.826 -0.3389 -0.4406 -0.0548
24270SOL    HW174251   1.233   4.522   7.745 -0.6054  0.9298  0.0957
24270SOL    HW274252   1.163   4.588   7.862 -0.2819 -1.0290  1.4467
24271SOL     OW74253   7.275   4.954   7.254 -0.0877 -0.1245 -0.5940
24271SOL    HW174254   7.335   4.884   7.230 -0.3792  0.1527 -2.2866
24271SOL    HW274255   7.190   4.925   7.223 -0.7972 -0.3499  1.4584
24272SOL     OW74256   7.550   4.867   5.650 -0.5059  0.1041 -0.1923
24272SOL    HW174257   7.526   4.953   5.683 -1.3488 -0.0962 -0.2637
24272SOL    HW274258   7.530   4.870   5.556 -1.4961 -0.4858 -0.0144
24273SOL     OW74259   7.699   4.032   3.526 -0.0436  0.4344 -0.1949
24273SOL    HW174260   7.771   4.058   3.583  0.5090  0.5481 -0.9264
24273SOL    HW274261   7.642   3.979   3.581  0.4099  0.6573  0.4936
24274SOL     OW74262   7.310   2.540   7.017  0.0554 -0.0131  0.0790
24274SOL    HW174263   7.397   2.580   7.012  0.4670 -0.7661  0.9594
24274SOL    HW274264   7.273   2.572   7.099  0.5770 -1.7446  1.0278
24275SOL     OW74265   7.087   5.604   8.455  0.1326  0.1381  0.2659
24275SOL    HW174266   7.046   5.689   8.475 -0.1377  0.6473 -2.1377
24275SOL    HW274267   7.147   5.623   8.382 -1.3681 -2.0265 -1.6726
24276SOL     OW74268   7.071   5.390   6.304 -0.1233  0.1718 -0.5153
24276SOL    HW174269   6.987   5.433   6.287  0.2463  1.4352  0.6683
24276SOL    HW274270   7.098   5.423   6.390  0.5466 -1.9042  0.1569
24277SOL     OW74271   0.360   3.602   8.663  0.2253 -0.1352  0.4138
24277SOL    HW174272   0.372   3.576   8.572  1.1553 -2.0126  1.0155
24277SOL    HW274273   0.266   3.609   8.675  0.0193 -1.2906 -0.3610
24278SOL     OW74274   0.977   6.562   9.364  0.3259 -0.0822 -0.8863
24278SOL    HW174275   0.888   6.586   9.387  0.2005 -0.0400 -1.3960
24278SOL    HW274276   0.971   6.532   9.273  0.6257 -1.2071 -0.5520
24279SOL     OW74277   0.616   4.140   7.707 -0.2930 -0.1621 -0.2160
24279SOL    HW174278   0.528   4.103   7.705  0.0404 -0.9622 -3.0182
24279SOL    HW274279   0.674   4.065   7.703  0.5090  0.4505 -0.2907
24280SOL     OW74280   0.014   5.964   6.236 -0.2500  0.2775  0.2981
24280SOL    HW174281   0.097   5.957   6.187 -0.0306 -1.8254  0.8634
24280SOL    HW274282   0.041   5.965   6.328 -0.8206 -0.5342  0.4889
24281SOL     OW74283   1.093   4.049   5.763  0.7963  0.5124 -0.0626
24281SOL    HW174284   1.130   4.122   5.812 -0.5591  0.5761  0.9075
24281SOL    HW274285   1.035   4.005   5.825 -0.2415  0.0305 -1.3195
24282SOL     OW74286   0.220   5.117   8.787  0.0137 -0.1064  0.4441
24282SOL    HW174287   0.298   5.108   8.733 -0.5390  0.5389 -0.4857
24282SOL    HW274288   0.160   5.170   8.735 -0.8843 -0.2195  1.3216
24283SOL     OW74289   0.033   3.260   7.367 -0.2826 -0.2916 -0.5219
24283SOL    HW174290   0.014   3.258   7.461  0.0110  2.2381 -0.3332
24283SOL    HW274291   0.128   3.252   7.362 -0.4279 -2.6451 -0.8186
24284SOL     OW74292   7.034   3.718   5.611  0.0875 -0.1262  0.5659
24284SOL    HW174293   7.066   3.807   5.596  0.6829 -0.1634  1.5154
24284SOL    HW274294   7.044   3.674   5.527  0.0421  0.6253  0.1573
24285SOL     OW74295   7.816   6.554   4.806 -0.3578 -0.2848  0.4938
24285SOL    HW174296   7.807   6.649   4.795  0.9435 -0.0188  1.5135
24285SOL    HW274297   7.782   6.537   4.894  2.2328 -0.2508  1.6009
24286SOL     OW74298   7.149   4.806   4.509  0.5817 -0.2795 -0.1422
24286SOL    HW174299   7.168   4.875   4.446  0.5458 -1.4336 -1.4639
24286SOL    HW274300   7.053   4.804   4.515  0.5489 -0.7206 -0.7125
24287SOL     OW74301   1.982   4.370   7.930  0.3841  0.0072 -0.1494
24287SOL    HW174302   1.892   4.339   7.939  0.2179  0.8677  1.5632
24287SOL    HW274303   2.035   4.291   7.924 -0.2070 -0.6292  2.1715
24288SOL     OW74304   0.336   4.191   5.302 -0.4977 -0.1144 -0.2176
24288SOL    HW174305   0.411   4.132   5.297 -0.3237  0.0645  0.2663
24288SOL    HW274306   0.321   4.204   5.395  0.5134  1.9249 -0.2912
24289SOL     OW74307   7.368   5.075   6.494 -0.0961 -0.4505 -0.2644
24289SOL    HW174308   7.349   5.157   6.540  0.3078  0.6966 -2.0465
24289SOL    HW274309   7.298   5.015   6.521  0.3037  0.0342  2.0506
24290SOL     OW74310   7.836   3.565   5.914  0.4199 -0.2913 -0.4118
24290SOL    HW174311   7.907   3.620   5.947  1.5622 -1.1419 -1.3517
24290SOL    HW274312   7.756   3.613   5.936  1.2181  0.2563  1.5074
24291SOL     OW74313   0.293   4.712   6.783 -0.4607 -0.1239  0.5007
24291SOL    HW174314   0.346   4.639   6.750 -2.2935 -2.4963  2.3837
24291SOL    HW274315   0.260   4.755   6.704  2.0123 -0.2343 -0.6739
24292SOL     OW74316   7.243   4.704   6.672  0.1699  0.1629  0.0726
24292SOL    HW174317   7.303   4.653   6.617 -0.0305  0.5965 -0.5566
24292SOL    HW274318   7.221   4.780   6.619 -1.8399 -0.5368 -0.1732
24293SOL     OW74319   0.696   5.483   7.886 -0.4026 -0.2313  0.0298
24293SOL    HW174320   0.672   5.437   7.967 -0.5544 -0.6500 -0.2515
24293SOL    HW274321   0.629   5.550   7.876 -0.7928 -0.6402 -0.1294
24294SOL     OW74322   0.734   3.569   6.735 -0.1010 -0.3806 -0.4866
24294SOL    HW174323   0.767   3.584   6.647  1.4623  0.6066  0.2110
24294SOL    HW274324   0.808   3.527   6.781 -0.4373  0.2142  0.6515
24295SOL     OW74325   7.468   4.604   6.487  0.1315  0.3103 -0.6830
24295SOL    HW174326   7.485   4.511   6.505  1.6799  0.8017  0.6397
24295SOL    HW274327   7.542   4.650   6.527 -1.9473  2.3319  1.1423
24296SOL     OW74328   0.794   3.682   5.696 -0.1016  0.1968 -0.0717
24296SOL    HW174329   0.861   3.617   5.713 -0.2463 -0.3498 -1.4799
24296SOL    HW274330   0.838   3.751   5.647 -0.7723 -0.7372 -2.0956
24297SOL     OW74331   7.708   5.062   6.011 -0.2217 -0.0129 -0.6021
24297SOL    HW174332   7.761   5.132   5.972 -1.0005 -0.0309 -1.7295
24297SOL    HW274333   7.763   4.984   6.004 -0.2912  0.0125 -1.5585
24298SOL     OW74334   7.244   5.038   8.074 -0.4715 -0.3885 -0.0818
24298SOL    HW174335   7.181   4.969   8.055 -2.7206  1.7522 -1.0348
24298SOL    HW274336   7.258   5.032   8.169 -1.6590 -1.3110  0.0641
24299SOL     OW74337   0.280   4.634   5.486  0.3283 -0.4132 -0.3203
24299SOL    HW174338   0.253   4.644   5.394 -2.0470  1.8569  0.4970
24299SOL    HW274339   0.322   4.718   5.508  0.0430 -0.5735  0.9111
24300SOL     OW74340   7.721   2.772   6.078  1.0102  0.4747 -0.2415
24300SOL    HW174341   7.699   2.834   6.009  1.7760  1.1640  0.1189
24300SOL    HW274342   7.727   2.688   6.033 -3.7396 -0.1566 -0.1786
24301SOL     OW74343   7.971   5.538   8.090 -0.3108  0.8225 -0.5028
24301SOL    HW174344   7.984   5.613   8.148  2.1598 -0.4028  0.7483
24301SOL    HW274345   8.045   5.542   8.029 -0.2143 -0.4800 -0.4967
24302SOL     OW74346   7.782   2.887   7.932  0.4786 -0.4020 -0.1911
24302SOL    HW174347   7.713   2.912   7.871  1.0057  1.4641 -0.0901
24302SOL    HW274348   7.735   2.848   8.006 -0.3511 -0.4148 -0.7084
24303SOL     OW74349   6.716   4.886   5.819 -0.2300  0.0730 -0.3065
24303SOL    HW174350   6.731   4.791   5.810 -0.7145  0.0632 -1.1102
24303SOL    HW274351   6.680   4.896   5.907  2.4079 -0.1455  0.8937
24304SOL     OW74352   7.040   7.805   8.748  0.1480  0.1149 -0.1029
24304SOL    HW174353   7.021   7.896   8.726  0.4049  0.0079 -0.8165
24304SOL    HW274354   6.958   7.770   8.782  0.1029  0.6685  0.3586
24305SOL     OW74355   7.193   3.834   7.507  1.1860  0.0981 -0.0439
24305SOL    HW174356   7.135   3.886   7.451 -0.9101 -2.3102 -0.2784
24305SOL    HW274357   7.248   3.785   7.447 -0.7503 -2.1353 -0.1638
24306SOL     OW74358   0.837   5.360   6.405 -0.1025  0.3526 -0.3758
24306SOL    HW174359   0.764   5.306   6.435  0.9652 -1.4438 -0.8447
24306SOL    HW274360   0.884   5.383   6.486 -0.6334  0.6845 -0.1601
24307SOL     OW74361   5.839   4.570   7.292 -0.0733 -0.6217 -0.5144
24307SOL    HW174362   5.775   4.621   7.341  0.2943 -0.8957  0.2629
24307SOL    HW274363   5.843   4.613   7.206 -1.7362 -0.9646 -0.8052
24308SOL     OW74364   7.262   3.891   8.599  0.6887 -0.3359  0.0516
24308SOL    HW174365   7.274   3.808   8.555  1.2397 -0.2194 -0.0275
24308SOL    HW274366   7.171   3.914   8.584  0.7932 -0.4472 -0.7573
24309SOL     OW74367   7.245   5.313   8.848  0.5005 -0.0769  0.0273
24309SOL    HW174368   7.302   5.321   8.772 -1.0975 -0.0827 -1.2074
24309SOL    HW274369   7.225   5.219   8.853  1.4444 -0.2563  1.1442
24310SOL     OW74370   7.567   3.207   8.504  0.0412 -0.4796  0.0883
24310SOL    HW174371   7.574   3.176   8.414 -0.2285  0.3909 -0.2485
24310SOL    HW274372   7.595   3.299   8.500  1.4226 -0.8140  1.1530
24311SOL     OW74373   7.876   6.211   7.928 -0.3361  0.1482  1.1697
24311SOL    HW174374   7.845   6.130   7.968 -2.4616 -0.0136 -0.5778
24311SOL    HW274375   7.969   6.216   7.950 -0.2521 -2.5362  1.6881
24312SOL     OW74376   5.279   5.081   7.659  0.3361  0.1952  0.0940
24312SOL    HW174377   5.358   5.041   7.695  0.2064  0.8250  1.1268
24312SOL    HW274378   5.207   5.042   7.710 -0.1061 -0.9275 -1.3344
24313SOL     OW74379   7.626   4.778   7.955  0.4331 -0.0143  0.2890
24313SOL    HW174380   7.569   4.828   8.014  1.0123 -2.0401  2.7239
24313SOL    HW274381   7.652   4.842   7.888 -1.7705  1.9128  1.1196
24314SOL     OW74382   5.999   4.269   7.694 -0.4230 -0.6592  0.1577
24314SOL    HW174383   6.011   4.364   7.695  0.4120 -0.7595  0.2395
24314SOL    HW274384   5.906   4.257   7.673 -0.2085  0.1453 -1.3699
24315SOL     OW74385   0.328   4.568   8.131  0.1511  0.1352 -0.4502
24315SOL    HW174386   0.277   4.644   8.101  1.4434  1.3867  0.3739
24315SOL    HW274387   0.295   4.550   8.219  1.2512  1.1362  0.2047
24316SOL     OW74388   6.618   4.188   8.527 -0.6571  0.1652 -1.0955
24316SOL    HW174389   6.541   4.137   8.549  0.1836  0.1584  2.3706
24316SOL    HW274390   6.687   4.124   8.510 -0.9196  0.1761 -2.2440
24317SOL     OW74391   7.585   4.644   9.102  0.1714 -0.6976 -0.0013
24317SOL    HW174392   7.679   4.632   9.113  0.1245 -1.0617  0.0112
24317SOL    HW274393   7.574   4.665   9.009  0.1321 -2.0582 -0.3282
24318SOL     OW74394   0.604   3.880   9.384  0.4948 -0.1222  0.0952
24318SOL    HW174395   0.625   3.823   9.310  3.1293 -1.1965  1.5227
24318SOL    HW274396   0.519   3.848   9.415  0.9688 -1.9821 -0.3773
24319SOL     OW74397   7.493   2.979   7.138 -0.1018 -0.0943 -0.2175
24319SOL    HW174398   7.479   2.944   7.226 -1.1010  1.7871  0.4150
24319SOL    HW274399   7.445   3.062   7.136  1.2648  0.7357 -1.9897
24320SOL     OW74400   7.595   4.552   8.272  0.3465  0.3819  0.4247
24320SOL    HW174401   7.582   4.463   8.241 -1.9212  1.4289 -1.9106
24320SOL    HW274402   7.507   4.585   8.289  0.6701  3.4482 -2.7625
24321SOL     OW74403   0.079   5.754   7.495 -0.0905 -0.4547  0.2274
24321SOL    HW174404  -0.007   5.748   7.536 -0.0548  1.2055  0.6235
24321SOL    HW274405   0.140   5.761   7.568 -0.0758  3.1676  0.0095
24322SOL     OW74406   0.024   4.005   8.278 -0.6333 -0.3447 -0.4522
24322SOL    HW174407  -0.066   3.998   8.245 -0.9620 -0.6264  0.4850
24322SOL    HW274408   0.015   4.039   8.366  0.2981  1.2563 -0.9298
24323SOL     OW74409   7.950   6.032   8.714  0.0398  0.2105 -0.2064
24323SOL    HW174410   7.911   5.974   8.779  0.0164  1.8706  1.3288
24323SOL    HW274411   7.879   6.051   8.653 -0.2916 -0.3650 -0.0101
24324SOL     OW74412   1.055   6.209   8.299  0.3228 -0.3552 -0.0736
24324SOL    HW174413   1.024   6.136   8.245  1.4148 -1.0478  0.1968
24324SOL    HW274414   1.140   6.180   8.331  0.5212  0.8184  0.5075
24325SOL     OW74415   7.863   5.608   9.447 -0.0389  0.1405  0.0249
24325SOL    HW174416   7.843   5.575   9.360 -3.0390  0.1915  0.5715
24325SOL    HW274417   7.903   5.534   9.493 -1.8549 -1.1203 -0.3297
24326SOL     OW74418   7.871   5.068   8.182 -0.1719  0.5531 -0.1076
24326SOL    HW174419   7.836   4.980   8.173 -0.1511  0.6389 -1.1444
24326SOL    HW274420   7.796   5.126   8.168 -0.1607  0.7133  0.4491
24327SOL     OW74421   0.776   5.561   9.349  0.1791 -0.0228  0.2098
24327SOL    HW174422   0.746   5.632   9.405  1.3580 -0.7360  1.8384
24327SOL    HW274423   0.755   5.481   9.397 -0.4091 -0.7708 -1.2141
24328SOL     OW74424   7.427   5.435   7.903 -0.0646 -0.0542  0.0329
24328SOL    HW174425   7.471   5.520   7.910  0.9517 -0.7087  2.9998
24328SOL    HW274426   7.469   5.391   7.830 -0.7524  2.0106 -1.7090
24329SOL     OW74427   7.561   2.857   7.738  0.0772  0.3982 -0.6827
24329SOL    HW174428   7.532   2.948   7.746 -1.4274 -0.1627  0.7421
24329SOL    HW274429   7.512   2.810   7.805  3.3795 -0.8823  1.0744
24330SOL     OW74430   0.313   4.680   8.812 -0.0599  0.1121  0.4388
24330SOL    HW174431   0.228   4.659   8.774  0.5775 -0.5635 -0.6789
24330SOL    HW274432   0.368   4.703   8.737  1.2891 -1.4036  0.8987
24331SOL     OW74433   7.009   4.135   6.514  0.1764  0.0506  0.1718
24331SOL    HW174434   7.079   4.200   6.519 -0.4876  0.7690  0.3596
24331SOL    HW274435   7.037   4.074   6.446  0.0744  1.4436 -1.1595
24332SOL     OW74436   0.224   4.890   7.939 -0.0551 -0.5955  0.7962
24332SOL    HW174437   0.184   4.803   7.941 -1.4057 -0.0814 -0.8834
24332SOL    HW274438   0.152   4.949   7.915  1.4105  0.5524 -1.1575
24333SOL     OW74439   7.407   5.313  10.445  0.0110  0.2206  0.6729
24333SOL    HW174440   7.317   5.348  10.441  0.3057  0.8950 -1.4337
24333SOL    HW274441   7.426   5.307  10.539 -2.0401  0.5572  1.1676
24334SOL     OW74442   1.408   3.057   9.415 -0.4036 -1.0616 -0.6675
24334SOL    HW174443   1.358   3.115   9.357 -0.2245 -1.7441 -1.5294
24334SOL    HW274444   1.467   3.011   9.356  2.4708  0.8866  0.4359
24335SOL     OW74445   6.736   3.744   7.736 -0.2103  0.2974  0.3280
24335SOL    HW174446   6.766   3.811   7.674 -1.0794  0.7549  0.3855
24335SOL    HW274447   6.677   3.791   7.795  1.0346 -0.0040  1.8766
24336SOL     OW74448   1.078   6.598   9.715  0.3577  0.3239 -0.5273
24336SOL    HW174449   1.035   6.518   9.746  2.0080  0.4424  2.5229
24336SOL    HW274450   1.122   6.572   9.634 -0.1247 -1.5284 -0.2433
24337SOL     OW74451   6.468   4.819   9.743  0.1140  0.0282  0.1800
24337SOL    HW174452   6.493   4.787   9.830 -0.7169  0.1895  0.4875
24337SOL    HW274453   6.549   4.814   9.692  0.3599 -1.1232  0.6443
24338SOL     OW74454   0.455   5.189   6.852 -0.0107 -0.3978  1.0286
24338SOL    HW174455   0.413   5.213   6.935  1.5222 -1.2678  2.0928
24338SOL    HW274456   0.500   5.107   6.870  0.3791 -0.5998 -0.6755
24339SOL     OW74457   0.984   4.483   6.996  0.1547  0.2950  0.0453
24339SOL    HW174458   1.000   4.561   7.049  0.9403 -0.4115  0.8761
24339SOL    HW274459   1.056   4.424   7.017 -0.6997 -0.8669 -0.1840
24340SOL     OW74460   7.974   5.683   7.140 -0.2080 -0.1410  0.2857
24340SOL    HW174461   7.987   5.664   7.047 -0.6287 -2.1818  0.5980
24340SOL    HW274462   8.062   5.701   7.173 -0.0319  0.4222 -0.4491
24341SOL     OW74463   6.874   4.834   8.392  0.0465 -1.0375  0.2185
24341SOL    HW174464   6.898   4.741   8.393 -0.5529 -1.2086 -0.4826
24341SOL    HW274465   6.778   4.834   8.392  0.0236 -0.4558 -1.0620
24342SOL     OW74466   1.180   4.736   8.676 -0.1081  0.4999 -0.1425
24342SOL    HW174467   1.254   4.769   8.728 -0.4295  1.7913 -0.4605
24342SOL    HW274468   1.166   4.804   8.610  0.8998 -1.5174 -2.5585
24343SOL     OW74469   6.193   4.217   7.954  0.3942  0.2323 -0.2233
24343SOL    HW174470   6.143   4.195   7.876  0.9305  0.1517 -0.5473
24343SOL    HW274471   6.163   4.305   7.978 -0.3702 -0.0658 -0.0320
24344SOL     OW74472   6.615   3.203   9.783  0.2063 -0.5849 -0.0432
24344SOL    HW174473   6.681   3.168   9.842  0.9394  1.2253  0.2889
24344SOL    HW274474   6.664   3.253   9.718 -0.6706 -1.5316 -1.4961
24345SOL     OW74475   0.432   5.639   8.929  0.1867  0.5278  0.0571
24345SOL    HW174476   0.462   5.677   8.847  0.3257 -1.4931 -0.8893
24345SOL    HW274477   0.366   5.700   8.961 -0.0947  1.2062 -1.7106
24346SOL     OW74478   7.858   5.453   7.229 -0.2901  0.1063 -0.1258
24346SOL    HW174479   7.885   5.534   7.186  0.7737 -0.4539 -0.5429
24346SOL    HW274480   7.883   5.384   7.168  0.5307 -0.6562  1.0339
24347SOL     OW74481   7.086   4.432   8.280  0.3264 -0.0807  0.0363
24347SOL    HW174482   7.154   4.499   8.279 -0.6079  0.9031  0.6299
24347SOL    HW274483   7.009   4.476   8.317 -0.9858 -0.8287 -1.6761
24348SOL     OW74484   6.700   3.935   7.526 -0.0786  0.0438 -0.0234
24348SOL    HW174485   6.630   3.873   7.546 -1.0673  0.0119 -2.9888
24348SOL    HW274486   6.656   4.020   7.523  0.0659  0.1042 -1.2634
24349SOL     OW74487   0.763   5.514   7.497  0.3544  0.0677  0.1478
24349SOL    HW174488   0.825   5.483   7.563  1.0526  1.0160 -0.0528
24349SOL    HW274489   0.684   5.462   7.513  1.1087 -0.9868  0.5604
24350SOL     OW74490   6.895   2.973   7.910 -0.3816 -0.0149  0.3938
24350SOL    HW174491   6.935   2.991   7.995  1.4238 -1.9347  0.0490
24350SOL    HW274492   6.814   2.926   7.931  0.2425 -0.8205  1.0713
24351SOL     OW74493   5.691   5.707   9.098  0.2224  0.4835 -0.3478
24351SOL    HW174494   5.744   5.674   9.171 -1.6837  0.5003  1.1313
24351SOL    HW274495   5.685   5.801   9.114  0.5076  0.6250 -1.0391
24352SOL     OW74496   0.271   4.624   9.535 -0.1526  0.2077  0.5015
24352SOL    HW174497   0.364   4.631   9.515 -0.2342  1.2850  0.4503
24352SOL    HW274498   0.227   4.668   9.463 -0.7193 -0.4248  0.4483
24353SOL     OW74499   6.758   4.049   9.302  0.0282  0.0349  0.3478
24353SOL    HW174500   6.813   3.993   9.357 -0.6793 -2.2055 -1.0861
24353SOL    HW274501   6.807   4.131   9.294  3.2403 -1.8395 -0.8751
24354SOL     OW74502   1.001   3.522   5.735 -0.2576 -0.6343 -0.1319
24354SOL    HW174503   1.028   3.547   5.647  0.6274 -0.8635  0.0678
24354SOL    HW274504   0.987   3.427   5.731  1.0223 -0.8576  0.2722
24355SOL     OW74505   6.797   5.001   8.162 -0.4349 -0.3821 -0.5052
24355SOL    HW174506   6.863   5.007   8.230 -0.4085  0.5703 -0.6075
24355SOL    HW274507   6.778   4.907   8.155  1.2213 -0.7180 -0.7837
24356SOL     OW74508   6.547   6.360   9.409  0.7850  0.0942 -0.1318
24356SOL    HW174509   6.522   6.397   9.325  0.6146 -2.2361 -1.1743
24356SOL    HW274510   6.608   6.290   9.388  2.0566  0.5367  1.8245
24357SOL     OW74511   0.535   4.322   8.911  0.3790 -0.0915 -0.3465
24357SOL    HW174512   0.503   4.406   8.944  0.6861  0.0024 -0.2865
24357SOL    HW274513   0.489   4.257   8.963  3.2924  0.0450  2.6568
24358SOL     OW74514   6.286   5.531   7.976 -0.3388  0.1052  0.1229
24358SOL    HW174515   6.321   5.618   7.958  1.5112 -0.2027  1.8274
24358SOL    HW274516   6.208   5.548   8.030  0.2067  0.7302  0.7456
24359SOL     OW74517   7.622   5.291   8.745 -0.1161  0.2632 -0.6849
24359SOL    HW174518   7.644   5.346   8.670 -0.6680 -0.6263 -1.5287
24359SOL    HW274519   7.675   5.326   8.817  0.2087  1.3132 -1.4159
24360SOL     OW74520   0.006   5.726   8.246  0.0213  0.5839  0.0540
24360SOL    HW174521  -0.052   5.710   8.320 -0.2804 -2.0581 -0.6467
24360SOL    HW274522   0.050   5.809   8.267 -1.5764  0.9878  2.1420
24361SOL     OW74523   7.628   3.072   8.769  0.2683  0.4623 -0.2017
24361SOL    HW174524   7.644   2.988   8.726 -1.2977 -0.5334  1.0523
24361SOL    HW274525   7.608   3.132   8.697  1.7376 -0.1074 -1.1481
24362SOL     OW74526   6.125   3.456   6.840 -0.4244 -0.6230  1.0124
24362SOL    HW174527   6.076   3.452   6.758  1.4768  3.0881 -0.5840
24362SOL    HW274528   6.204   3.405   6.823  0.9628  1.8079 -0.4584
24363SOL     OW74529   6.662   3.402   7.750 -0.1816 -0.0852  0.1182
24363SOL    HW174530   6.741   3.399   7.697  0.2775  2.0263  0.6179
24363SOL    HW274531   6.634   3.493   7.748 -1.6789 -0.4700  1.3030
24364SOL     OW74532   7.890   5.932   8.013 -0.7879  0.2589  0.6450
24364SOL    HW174533   7.974   5.948   8.056 -1.8845  1.1334  2.6447
24364SOL    HW274534   7.904   5.854   7.960  0.7137 -0.9478  2.6576
24365SOL     OW74535   7.242   6.063   9.179  0.0280 -0.4363 -0.1589
24365SOL    HW174536   7.301   6.009   9.232 -0.3441  0.9564  1.8172
24365SOL    HW274537   7.295   6.091   9.105  0.7272 -2.0678 -0.3265
24366SOL     OW74538   0.430   4.962   8.116  0.1423  0.8110 -0.1306
24366SOL    HW174539   0.345   4.945   8.075 -0.6871  2.6066  0.7415
24366SOL    HW274540   0.479   5.011   8.050  0.5533 -0.2511 -0.6447
24367SOL     OW74541   0.071   6.273   9.481 -0.4403 -0.4695  0.1761
24367SOL    HW174542   0.115   6.207   9.427 -0.7230 -2.0497  1.7738
24367SOL    HW274543  -0.016   6.281   9.442 -0.5365 -1.3506  0.1924
24368SOL     OW74544   0.020   5.227   9.131 -0.1811 -0.0643  0.0066
24368SOL    HW174545  -0.044   5.297   9.135  0.5637  0.6204  0.1541
24368SOL    HW274546   0.093   5.264   9.081 -0.4468 -1.2907 -1.3659
24369SOL     OW74547   6.838   5.508   6.484  0.1568 -0.2354  0.0989
24369SOL    HW174548   6.764   5.481   6.538  0.4900  1.8508  1.7421
24369SOL    HW274549   6.801   5.575   6.426  0.2972 -0.8013 -0.6480
24370SOL     OW74550   7.753   4.617   8.507  0.2124 -0.4742  0.2856
24370SOL    HW174551   7.703   4.573   8.438 -0.2145  0.7052 -0.1768
24370SOL    HW274552   7.840   4.578   8.501  0.7233  0.8173 -2.1649
24371SOL     OW74553   6.437   3.431  10.611 -0.0972 -0.2558  0.6121
24371SOL    HW174554   6.461   3.361  10.671  1.1737 -0.4198 -0.0593
24371SOL    HW274555   6.490   3.506  10.638  2.1555 -0.9306 -1.5660
24372SOL     OW74556   7.086   5.696   8.070  0.0077 -0.7855 -0.4446
24372SOL    HW174557   7.039   5.623   8.031 -0.5809 -0.0087 -1.2057
24372SOL    HW274558   7.130   5.740   7.997  0.5430 -0.5036  0.0305
24373SOL     OW74559   7.775   3.992  10.300  0.5922  0.0403 -0.1155
24373SOL    HW174560   7.794   4.075  10.258  0.8154  0.4650  0.8058
24373SOL    HW274561   7.736   3.938  10.230 -0.9854  1.4249 -0.3604
24374SOL     OW74562   7.836   5.381  10.352 -0.1804 -0.2306  0.7773
24374SOL    HW174563   7.876   5.459  10.391 -0.1415 -1.1788  2.7611
24374SOL    HW274564   7.760   5.414  10.305 -0.0939  1.0231  1.4703
24375SOL     OW74565   0.037   4.796  11.466 -0.1455 -0.2661  0.1427
24375SOL    HW174566   0.089   4.876  11.457  1.1963 -1.2810 -1.7887
24375SOL    HW274567   0.024   4.787  11.561  0.5620  1.6746  0.4698
24376SOL     OW74568   0.516   5.707   8.689  0.6704  0.1403 -0.5981
24376SOL    HW174569   0.496   5.620   8.654 -0.4059  0.3425 -0.5346
24376SOL    HW274570   0.603   5.728   8.654  1.8617 -1.7860  1.0313
24377SOL     OW74571   6.668   6.111   9.814 -0.2965 -0.0068 -0.0588
24377SOL    HW174572   6.622   6.154   9.886 -0.4988  0.9414 -0.7267
24377SOL    HW274573   6.665   6.018   9.836  0.1807  0.3022  1.4507
24378SOL     OW74574   6.158   6.025   9.935  0.8026 -0.2808 -0.1490
24378SOL    HW174575   6.206   5.943   9.950  1.6196  0.1481 -0.3830
24378SOL    HW274576   6.206   6.069   9.866  0.1396  0.2264 -0.2968
24379SOL     OW74577   7.033   6.363   8.754  0.3286  0.3246  0.4383
24379SOL    HW174578   7.000   6.397   8.671  0.2814 -0.5033  0.1103
24379SOL    HW274579   7.126   6.346   8.737  0.2246 -0.2513  0.4140
24380SOL     OW74580   7.306   5.182  10.726  0.4764  0.0133  0.5181
24380SOL    HW174581   7.240   5.250  10.741  0.7421  0.1261  1.1859
24380SOL    HW274582   7.254   5.104  10.705  0.1721  0.4315 -0.3374
24381SOL     OW74583   7.643   3.525  10.672 -0.4706  0.3766 -0.0910
24381SOL    HW174584   7.611   3.492  10.588 -1.5820  0.4567  0.2860
24381SOL    HW274585   7.627   3.620  10.668 -2.5308  0.1366  1.0134
24382SOL     OW74586   7.372   4.728  12.100 -0.2165 -0.5721 -0.2906
24382SOL    HW174587   7.391   4.715  12.193  0.0549  0.0579 -0.2559
24382SOL    HW274588   7.456   4.714  12.056 -0.0116  0.5688 -0.2956
24383SOL     OW74589   6.409   5.983   7.687 -0.4898 -0.1339 -0.3962
24383SOL    HW174590   6.379   6.070   7.659 -0.4834 -0.0874 -0.2574
24383SOL    HW274591   6.478   5.960   7.625  0.2396  0.4099  0.1944
24384SOL     OW74592   1.177   3.978   8.889 -0.7368 -0.0185 -0.0486
24384SOL    HW174593   1.194   3.920   8.963  0.8666  0.1628 -0.2440
24384SOL    HW274594   1.206   4.064   8.920 -0.0424  0.0545 -0.8822
24385SOL     OW74595   7.198   4.880  12.453 -0.3906  0.0555 -0.3443
24385SOL    HW174596   7.293   4.869  12.445 -0.4439 -0.6572 -0.1021
24385SOL    HW274597   7.166   4.874  12.362 -0.5269 -3.3444 -0.2175
24386SOL     OW74598   7.776   2.938  11.075 -0.8088 -0.4429  0.1113
24386SOL    HW174599   7.799   3.029  11.061 -0.0764 -0.1560  2.5824
24386SOL    HW274600   7.856   2.898  11.111 -0.9530 -2.2045 -1.3665
24387SOL     OW74601   0.144   5.287   8.242 -0.4752  0.1794 -0.3385
24387SOL    HW174602   0.081   5.341   8.290  1.1860  1.8064  0.1109
24387SOL    HW274603   0.094   5.253   8.168 -1.9254  1.3329  0.0515
24388SOL     OW74604   0.126   6.110  10.355 -0.3678 -0.0825 -0.2744
24388SOL    HW174605   0.125   6.044  10.424  0.5994  0.6838  0.5153
24388SOL    HW274606   0.217   6.140  10.353 -0.6846  0.8780 -0.9467
24389SOL     OW74607   6.158   3.708  11.406 -0.0724 -0.0969  0.0944
24389SOL    HW174608   6.113   3.679  11.486 -2.2664 -0.1933 -1.1055
24389SOL    HW274609   6.197   3.628  11.370  0.2540 -0.1860  0.6223
24390SOL     OW74610   7.381   6.388   9.528 -0.3061  0.2831  0.2194
24390SOL    HW174611   7.337   6.444   9.592  0.5964  0.9559  0.2752
24390SOL    HW274612   7.441   6.446   9.482 -0.1859 -0.4086 -0.5276
24391SOL     OW74613   0.257   6.580   8.290 -0.0433  0.0187 -0.5639
24391SOL    HW174614   0.208   6.516   8.343 -1.3052 -1.6185 -3.4690
24391SOL    HW274615   0.190   6.629   8.244  1.0034  0.3245 -1.8031
24392SOL     OW74616   7.993   3.417   9.287 -0.8227  0.2028 -0.8780
24392SOL    HW174617   8.057   3.371   9.341 -0.1534 -0.5342 -2.2499
24392SOL    HW274618   8.035   3.500   9.264 -0.5143 -0.0914 -1.4100
24393SOL     OW74619   0.258   3.331   9.388 -0.2086 -0.6029 -0.1454
24393SOL    HW174620   0.311   3.369   9.318 -0.2315 -0.0201  0.1399
24393SOL    HW274621   0.256   3.237   9.370  1.3004 -0.7036  0.0780
24394SOL     OW74622   0.222   4.075   9.337  0.3464  0.3490  0.2595
24394SOL    HW174623   0.172   4.148   9.372  0.0468 -0.1065  0.8018
24394SOL    HW274624   0.158   4.023   9.289  0.7070  0.8335 -0.7561
24395SOL     OW74625   7.832   5.026   8.995  0.2915 -0.4692 -0.4610
24395SOL    HW174626   7.886   5.101   8.970  1.2972 -0.8378  0.5666
24395SOL    HW274627   7.826   5.031   9.090 -1.2476 -0.6157 -0.5272
24396SOL     OW74628   6.689   4.647  10.947  0.1627 -0.3259 -0.3962
24396SOL    HW174629   6.667   4.727  10.995 -0.9176 -2.0188  2.1638
24396SOL    HW274630   6.779   4.661  10.917  0.1953  1.5986  0.4596
24397SOL     OW74631   6.025   4.428  10.963  0.2477 -0.3408 -0.0393
24397SOL    HW174632   5.934   4.411  10.988  0.7538 -2.0819  0.8031
24397SOL    HW274633   6.024   4.516  10.927 -2.0217 -0.7883 -1.2562
24398SOL     OW74634   7.864   2.564   9.343  0.0107  0.0622  0.4698
24398SOL    HW174635   7.822   2.650   9.330  0.8613  0.8809  2.6316
24398SOL    HW274636   7.954   2.585   9.368  0.0100 -1.3904  1.8494
24399SOL     OW74637   7.826   4.588  11.629  0.3629  0.2245  0.0079
24399SOL    HW174638   7.845   4.531  11.703  0.6296 -0.5729 -0.6714
24399SOL    HW274639   7.875   4.551  11.556  1.4296  1.9468 -0.1950
24400SOL     OW74640   0.384   5.887   8.145  0.3601 -0.1930  0.2808
24400SOL    HW174641   0.313   5.929   8.193  0.6997  0.7042  0.0073
24400SOL    HW274642   0.461   5.896   8.202  0.3770 -0.7145  0.3506
24401SOL     OW74643   6.981   4.700  10.658  0.0963  0.5137  0.2719
24401SOL    HW174644   7.069   4.679  10.689  0.4090 -0.2657 -1.0946
24401SOL    HW274645   6.974   4.795  10.668  1.5688  0.7518 -0.7684
24402SOL     OW74646   6.029   4.998   9.688 -0.3116  0.0371 -0.0944
24402SOL    HW174647   6.113   5.038   9.707  0.2731 -0.5608 -1.3081
24402SOL    HW274648   5.995   4.971   9.773  1.9402 -2.0806  0.2464
24403SOL     OW74649   0.236   6.188   9.879 -0.1394  0.2221 -0.0471
24403SOL    HW174650   0.324   6.175   9.914  0.1316  1.5253 -0.2012
24403SOL    HW274651   0.228   6.124   9.808  1.0960  0.8180 -0.7479
24404SOL     OW74652   0.145   3.529   9.863  0.1231  0.0537 -0.3646
24404SOL    HW174653   0.065   3.491   9.828  0.0548  0.5297 -0.7370
24404SOL    HW274654   0.211   3.461   9.853 -0.2849 -0.4263  0.1587
24405SOL     OW74655   0.501   4.937   9.575 -0.2157 -0.3266  0.3754
24405SOL    HW174656   0.487   4.965   9.666 -0.2608  1.2342 -0.0862
24405SOL    HW274657   0.413   4.922   9.541 -0.1481 -3.0660  1.1739
24406SOL     OW74658   0.488   4.865  10.367  0.1871 -0.4952 -0.3239
24406SOL    HW174659   0.576   4.898  10.387  0.0882  0.1207 -0.8784
24406SOL    HW274660   0.452   4.929  10.305 -0.6632 -0.7238 -0.0764
24407SOL     OW74661   5.463   5.605  10.441  0.2443 -0.3257  0.0965
24407SOL    HW174662   5.451   5.578  10.532  2.0315  1.0076  0.7817
24407SOL    HW274663   5.485   5.698  10.446 -0.4149 -0.0092 -1.7829
24408SOL     OW74664   7.625   3.324  10.271  0.5064 -0.6045 -0.2953
24408SOL    HW174665   7.592   3.325  10.181  1.2972 -1.1187 -0.6014
24408SOL    HW274666   7.695   3.388  10.271 -0.7737  0.8640  0.4877
24409SOL     OW74667   7.755   6.005  12.321 -1.0216 -0.4415 -0.1546
24409SOL    HW174668   7.673   6.040  12.355 -1.4284 -0.6907 -0.8723
24409SOL    HW274669   7.734   5.971  12.234  0.3642  1.8128 -1.4771
24410SOL     OW74670   6.614   3.980  10.448 -0.5991  0.1812 -0.3942
24410SOL    HW174671   6.664   4.058  10.423 -0.5743  0.2676 -0.0688
24410SOL    HW274672   6.672   3.933  10.508  0.1224 -0.9737 -1.8961
24411SOL     OW74673   1.433   3.072  10.241 -0.2245  0.2310  0.0974
24411SOL    HW174674   1.340   3.052  10.239  0.0007 -1.1316  1.1830
24411SOL    HW274675   1.445   3.120  10.323 -0.0493  0.9320 -0.3289
24412SOL     OW74676   4.482   6.129   9.752 -0.0769  0.2791  0.2540
24412SOL    HW174677   4.501   6.083   9.834 -1.3037 -0.8125 -0.0349
24412SOL    HW274678   4.565   6.168   9.726  0.6482 -0.5051  1.3278
24413SOL     OW74679   0.096   5.390  10.561 -0.6083  0.5589 -0.1823
24413SOL    HW174680   0.074   5.304  10.596 -0.9980  0.6413 -0.2189
24413SOL    HW274681   0.078   5.451  10.633  1.1496  0.4668  0.3826
24414SOL     OW74682   7.617   5.001   9.308  0.2980 -0.0886 -0.3897
24414SOL    HW174683   7.712   5.006   9.321 -0.0049  0.8796  1.8386
24414SOL    HW274684   7.598   5.073   9.247  0.6563  1.9259  1.7551
24415SOL     OW74685   7.866   5.825   8.852  1.1909 -0.4348  0.1797
24415SOL    HW174686   7.921   5.751   8.826 -0.6563 -2.4521  1.5977
24415SOL    HW274687   7.895   5.847   8.940  1.8023  0.6402 -0.2791
24416SOL     OW74688   7.927   4.979  11.752 -0.0440  0.0687  0.4559
24416SOL    HW174689   7.902   5.048  11.691 -1.4418  1.7351  2.7679
24416SOL    HW274690   8.020   4.995  11.770 -0.4535  1.6636  1.2875
24417SOL     OW74691   0.359   5.211   9.359  0.7101 -0.1110  0.4781
24417SOL    HW174692   0.400   5.164   9.286 -1.1478 -0.1659 -0.6166
24417SOL    HW274693   0.430   5.228   9.420  2.0376 -1.4992 -0.5987
24418SOL     OW74694   7.144   5.402  10.747  0.3864  0.3670 -0.1144
24418SOL    HW174695   7.135   5.401  10.652  1.5056 -1.1688 -0.2442
24418SOL    HW274696   7.216   5.463  10.764  1.0364 -0.3275 -0.3565
24419SOL     OW74697   0.359   4.706  10.558  0.4333 -0.7749 -0.5062
24419SOL    HW174698   0.272   4.741  10.578  0.5363 -1.0885  0.5292
24419SOL    HW274699   0.398   4.772  10.500  0.1854  0.2664  0.4781
24420SOL     OW74700   7.804   3.887  10.581 -0.2401 -0.0557 -0.5347
24420SOL    HW174701   7.823   3.927  10.496  2.5388 -0.6690 -0.2904
24420SOL    HW274702   7.862   3.811  10.586 -1.5900 -1.0491  1.2179
24421SOL     OW74703   7.327   3.419   9.267  0.0743 -0.2056 -0.2703
24421SOL    HW174704   7.366   3.417   9.179 -0.8154 -1.7120 -0.6819
24421SOL    HW274705   7.239   3.385   9.254 -0.5373  0.7868  1.0265
24422SOL     OW74706   7.191   3.902  10.261  0.0838  0.2595  0.2646
24422SOL    HW174707   7.268   3.953  10.288  0.7827 -0.5611 -0.0967
24422SOL    HW274708   7.164   3.857  10.341 -1.3261  2.1091  0.9095
24423SOL     OW74709   6.452   4.216   9.992  0.6266 -0.5920  0.3615
24423SOL    HW174710   6.366   4.173   9.992  0.9147 -1.1970 -0.2483
24423SOL    HW274711   6.436   4.303  10.029 -0.0891 -0.9993  1.0417
24424SOL     OW74712   6.850   6.323   9.196 -0.6505  0.9652 -0.1564
24424SOL    HW174713   6.876   6.270   9.271 -1.3296 -0.2521 -0.7589
24424SOL    HW274714   6.795   6.392   9.234  0.9025  1.7626  0.7334
24425SOL     OW74715   7.990   4.133  10.472 -0.5075 -0.1655 -0.8303
24425SOL    HW174716   8.048   4.206  10.489 -0.9949  0.0081  0.1197
24425SOL    HW274717   7.964   4.144  10.380 -0.9655  1.1252 -0.5608
24426SOL     OW74718   0.240   3.634  10.129  0.0438 -0.1437  0.5907
24426SOL    HW174719   0.171   3.614  10.065 -0.0021 -1.6904  1.0749
24426SOL    HW274720   0.307   3.680  10.078 -1.3457  1.4569  0.1314
24427SOL     OW74721   0.311   5.196   9.063  0.3549  0.4364  0.0130
24427SOL    HW174722   0.274   5.187   8.976 -0.8498  0.7320  0.4643
24427SOL    HW274723   0.374   5.125   9.071 -1.7616 -1.5410  0.0110
24428SOL     OW74724   7.870   5.537  11.100 -0.2543  0.2811 -0.4262
24428SOL    HW174725   7.886   5.453  11.142  0.3710  0.4415 -0.3397
24428SOL    HW274726   7.857   5.599  11.172 -1.7298  0.0796 -0.4890
24429SOL     OW74727   6.701   5.858   9.889 -0.0685  0.1196  0.1447
24429SOL    HW174728   6.771   5.867   9.953  0.7847  2.0968 -0.9534
24429SOL    HW274729   6.672   5.768   9.896  1.1042 -0.1381  2.1493
24430SOL     OW74730   7.710   5.741   9.151 -0.6370  0.2243  0.0150
24430SOL    HW174731   7.748   5.653   9.147  0.4782  0.7187 -0.4721
24430SOL    HW274732   7.783   5.798   9.175 -1.5797  0.8902  1.5074
24431SOL     OW74733   5.300   5.897   8.849  0.4504  0.1035 -0.2498
24431SOL    HW174734   5.268   5.822   8.898  1.0244  0.5175  0.8085
24431SOL    HW274735   5.386   5.915   8.887  0.6256  0.8551 -0.9710
24432SOL     OW74736   6.287   5.703  10.867 -0.0549  0.1638  0.2786
24432SOL    HW174737   6.195   5.719  10.847  0.2095  0.2454 -0.9620
24432SOL    HW274738   6.288   5.680  10.960 -1.1693  1.4031  0.6278
24433SOL     OW74739   0.378   5.739  10.295 -0.0167 -0.3289 -0.1358
24433SOL    HW174740   0.337   5.668  10.344  0.8789 -0.0622  1.0293
24433SOL    HW274741   0.376   5.710  10.204 -2.3666 -0.5097 -0.0690
24434SOL     OW74742   0.793   4.020  11.408 -0.4335  0.8745 -0.1064
24434SOL    HW174743   0.793   4.010  11.503 -0.4626 -1.0306 -0.2714
24434SOL    HW274744   0.734   4.094  11.391 -1.9328  0.0517  1.2585
24435SOL     OW74745   7.125   4.586  11.095 -0.1217  0.0254  0.5722
24435SOL    HW174746   7.160   4.652  11.036  1.8385 -0.6960  0.8717
24435SOL    HW274747   7.054   4.631  11.142 -0.0962  1.3198 -0.5705
24436SOL     OW74748   1.615   4.444  11.284 -0.1258  0.9319  0.8700
24436SOL    HW174749   1.663   4.368  11.317  2.1105  1.3656 -1.1449
24436SOL    HW274750   1.537   4.407  11.244  0.4929 -0.2219  0.6847
24437SOL     OW74751   7.152   3.407  12.420 -0.0774  0.8060  0.1140
24437SOL    HW174752   7.188   3.427  12.506  0.5471  1.0073 -0.1808
24437SOL    HW274753   7.185   3.478  12.364  0.3875  0.1272 -0.5036
24438SOL     OW74754   1.303   4.158  11.423  0.0632  0.3938 -0.4665
24438SOL    HW174755   1.249   4.235  11.406 -0.1948  0.4892  0.7141
24438SOL    HW274756   1.378   4.192  11.473  1.5094  0.3485 -2.4926
24439SOL     OW74757   6.902   3.418   0.456 -0.1799  0.1077 -0.2718
24439SOL    HW174758   6.841   3.471   0.509 -0.8158 -0.0742 -0.8104
24439SOL    HW274759   6.987   3.459   0.471 -0.7710  1.8831 -1.3702
24440SOL     OW74760   6.316   4.837  10.829 -0.3524 -0.0837  0.5048
24440SOL    HW174761   6.262   4.856  10.752 -0.6394  1.7815  1.1062
24440SOL    HW274762   6.388   4.784  10.795 -0.5313  0.5913 -1.0453
24441SOL     OW74763   7.903   6.100  11.158 -0.1228 -0.6635 -0.5944
24441SOL    HW174764   7.881   6.155  11.234  1.2580 -1.6444  0.5915
24441SOL    HW274765   7.830   6.038  11.151 -0.6026 -0.1126 -0.5074
24442SOL     OW74766   7.733   4.195  11.768 -0.4318  0.3622  0.0758
24442SOL    HW174767   7.828   4.204  11.769 -0.3357 -0.5868  0.8815
24442SOL    HW274768   7.709   4.198  11.675  0.2674  1.5934 -0.0844
24443SOL     OW74769   7.369   6.077  12.165  0.0643 -0.2416  0.5440
24443SOL    HW174770   7.353   6.000  12.219 -4.1220 -0.6203 -0.9092
24443SOL    HW274771   7.409   6.043  12.085  1.8736 -0.2730  1.4032
24444SOL     OW74772   2.670   5.856  12.061 -0.4744  0.3930  0.1854
24444SOL    HW174773   2.660   5.943  12.099  0.5993 -0.0056  1.4738
24444SOL    HW274774   2.693   5.872  11.970 -1.7088  1.4198  0.0412
24445SOL     OW74775   7.537   4.127  10.818  0.0275  0.1247  0.0462
24445SOL    HW174776   7.458   4.086  10.782  0.2352  0.5715 -0.9394
24445SOL    HW274777   7.593   4.143  10.742  1.4389 -0.9303  0.8260
24446SOL     OW74778   0.611   4.027  11.041  0.5094 -0.0362  0.0512
24446SOL    HW174779   0.559   4.095  11.084  1.5177  0.9604 -0.2639
24446SOL    HW274780   0.702   4.053  11.055  0.9039 -0.9804 -0.6267
24447SOL     OW74781   7.835   5.167   0.633  0.0031 -0.2550 -0.2228
24447SOL    HW174782   7.824   5.217   0.552 -0.0027 -0.6016 -0.4378
24447SOL    HW274783   7.772   5.095   0.626  1.1448 -1.2521 -0.6717
24448SOL     OW74784   1.195   3.800  10.960 -0.1014 -0.3882 -0.4627
24448SOL    HW174785   1.276   3.843  10.988 -0.6603  0.0589  0.5101
24448SOL    HW274786   1.127   3.839  11.015 -0.7235 -2.0803  0.0239
24449SOL     OW74787   7.413   6.145   0.813  0.3939  0.4373  0.7005
24449SOL    HW174788   7.505   6.157   0.786 -0.3614  0.2790 -2.3496
24449SOL    HW274789   7.363   6.182   0.740 -2.0012  0.8061  2.4489
24450SOL     OW74790   0.848   4.134  11.067 -0.0793  0.0816 -0.2633
24450SOL    HW174791   0.904   4.088  11.129  1.1647 -1.3740 -2.3487
24450SOL    HW274792   0.870   4.227  11.078  1.9573 -0.3695 -0.2713
24451SOL     OW74793   7.910   3.245  10.011  0.4445  0.3962 -0.2257
24451SOL    HW174794   7.838   3.184  10.031  1.8873 -1.3208  0.0108
24451SOL    HW274795   7.918   3.241   9.916  1.5865 -1.1343 -0.1066
24452SOL     OW74796   7.608   3.713  10.232 -0.0987 -0.4092 -0.0233
24452SOL    HW174797   7.659   3.640  10.266 -0.6083 -1.5628 -1.6178
24452SOL    HW274798   7.545   3.733  10.301 -0.1328 -1.6719  0.3273
24453SOL     OW74799   0.426   4.786  11.779 -0.1496  0.0596 -0.0558
24453SOL    HW174800   0.401   4.709  11.727 -1.0570 -0.1567  0.6847
24453SOL    HW274801   0.351   4.802  11.836  0.3943  0.9592  0.4270
24454SOL     OW74802   6.909   6.467  12.488 -0.0568  0.3849  0.0353
24454SOL    HW174803   6.968   6.542  12.482 -0.7389  1.0719  1.4013
24454SOL    HW274804   6.952   6.398  12.437  1.8706  0.8845  0.8945
24455SOL     OW74805   6.851   4.180   0.401 -0.5282 -0.2751  0.1236
24455SOL    HW174806   6.844   4.087   0.420 -1.7146 -0.4790 -1.1711
24455SOL    HW274807   6.940   4.203   0.429 -0.8835 -1.2922  2.3955
24456SOL     OW74808   7.136   4.847   0.966 -0.0952 -0.2116 -0.2980
24456SOL    HW174809   7.129   4.932   1.010 -1.3517 -0.3157 -0.2640
24456SOL    HW274810   7.191   4.864   0.890  0.8578  0.3071  0.4876
24457SOL     OW74811   0.960   5.564   9.634 -0.2451 -0.0328 -0.4303
24457SOL    HW174812   0.877   5.520   9.619  0.5262 -0.9294 -2.3890
24457SOL    HW274813   0.939   5.658   9.634 -1.5277 -0.2830  1.2495
24458SOL     OW74814   7.940   3.483  11.203 -0.4200 -0.3404 -0.1292
24458SOL    HW174815   7.895   3.519  11.279 -1.8718 -1.9149 -0.1950
24458SOL    HW274816   8.033   3.492  11.224 -0.7898 -0.3340  1.6350
24459SOL     OW74817   7.920   5.912   0.450  0.2520 -0.0148  0.0565
24459SOL    HW174818   7.912   5.817   0.446 -2.1365  0.1119  0.5578
24459SOL    HW274819   7.862   5.944   0.381 -0.2416  1.1008  0.9536
24460SOL     OW74820   0.714   4.061   0.229  0.2687 -0.0307 -0.0682
24460SOL    HW174821   0.780   4.129   0.244  0.0996 -0.1635  1.3749
24460SOL    HW274822   0.641   4.085   0.285 -0.8198 -0.0613 -1.4072
24461SOL     OW74823   7.859   4.065   0.732 -0.1299 -0.1512 -0.2366
24461SOL    HW174824   7.765   4.073   0.713 -0.3532 -1.6477  0.0673
24461SOL    HW274825   7.863   3.999   0.801  0.9938  1.7779  1.6694
24462SOL     OW74826   7.837   3.416   0.539  0.3723 -0.0822 -0.4691
24462SOL    HW174827   7.809   3.325   0.555 -1.2948  0.3376 -0.8083
24462SOL    HW274828   7.837   3.456   0.626  1.0904 -0.4017 -0.3206
24463SOL     OW74829   6.487   3.966  11.730 -0.4256  0.0072 -0.0683
24463SOL    HW174830   6.451   3.922  11.653 -0.2748  2.8302 -1.9178
24463SOL    HW274831   6.567   4.007  11.699  1.8752 -2.0124  2.7225
24464SOL     OW74832   6.987   4.676  11.499  0.4854  0.1250  0.3558
24464SOL    HW174833   7.061   4.630  11.459  0.1092 -0.5557  0.4342
24464SOL    HW274834   6.976   4.754  11.445  1.9808  0.8425  1.0209
24465SOL     OW74835   1.136   4.374   0.859 -0.1171  0.1897 -0.0447
24465SOL    HW174836   1.151   4.385   0.765 -0.8635  1.4679 -0.0280
24465SOL    HW274837   1.042   4.362   0.867  0.1146 -1.6130  0.4168
24466SOL     OW74838   7.400   5.384  10.984 -0.1192 -0.2505  0.6440
24466SOL    HW174839   7.452   5.374  11.064 -0.5210  0.9553  1.0835
24466SOL    HW274840   7.311   5.398  11.016 -0.2140  0.6663  0.0004
24467SOL     OW74841   7.766   3.600  12.264  0.2250  0.0491  0.0049
24467SOL    HW174842   7.724   3.515  12.277  0.6219 -0.2265 -0.4570
24467SOL    HW274843   7.734   3.629  12.178  1.7398 -0.6519 -0.8557
24468SOL     OW74844   6.302   3.538  11.238  0.2193 -0.2323  0.2142
24468SOL    HW174845   6.256   3.534  11.154 -0.4384 -1.7460  0.6098
24468SOL    HW274846   6.362   3.464  11.236 -0.9709 -1.3063  1.6979
24469SOL     OW74847   0.805   3.787  11.277 -0.0103  0.2558 -0.4065
24469SOL    HW174848   0.797   3.865  11.333 -0.9973  1.0398 -1.5702
24469SOL    HW274849   0.721   3.782  11.232  0.8620 -0.1531 -2.0530
24470SOL     OW74850   0.475   5.560  11.103 -0.0037  0.0671 -0.5221
24470SOL    HW174851   0.565   5.532  11.118  0.1304 -0.4919 -2.1851
24470SOL    HW274852   0.475   5.596  11.014 -1.2921  0.6432 -0.3199
24471SOL     OW74853   6.329   5.485  12.433  0.0739 -1.0243 -0.2453
24471SOL    HW174854   6.321   5.428  12.510 -0.9653  0.1277  0.5337
24471SOL    HW274855   6.424   5.498  12.423  0.2139 -0.4767  1.4228
24472SOL     OW74856   6.146   2.674  11.921  0.5026 -0.0076 -0.1144
24472SOL    HW174857   6.202   2.596  11.929  0.7138  0.3515  3.1373
24472SOL    HW274858   6.104   2.682  12.007 -2.5040  1.3293 -1.5611
24473SOL     OW74859   1.269   5.524  10.282 -0.2790 -0.0507  0.4551
24473SOL    HW174860   1.313   5.439  10.289 -0.7307 -0.4266 -0.8890
24473SOL    HW274861   1.296   5.572  10.360  0.2691 -1.2995  1.0575
24474SOL     OW74862   1.190   5.041  11.470 -0.5427 -0.2114  0.3849
24474SOL    HW174863   1.223   5.130  11.486 -0.5729 -0.0014 -0.6628
24474SOL    HW274864   1.143   5.018  11.550  0.2297  0.3640  1.0245
24475SOL     OW74865   7.634   4.065  11.085 -0.1113  0.3329 -0.6134
24475SOL    HW174866   7.602   3.978  11.061  0.6627  0.1232 -0.9450
24475SOL    HW274867   7.602   4.123  11.016 -1.0335  0.4078 -0.1382
24476SOL     OW74868   0.410   5.158  11.834  0.0572  0.3839  0.1778
24476SOL    HW174869   0.470   5.144  11.908  1.8898 -0.2667 -1.3525
24476SOL    HW274870   0.467   5.185  11.762 -1.3997 -0.9528 -1.5471
24477SOL     OW74871   6.602   6.116   0.287 -0.3486  0.0247 -0.7594
24477SOL    HW174872   6.691   6.147   0.302  0.2446 -1.1465 -1.7582
24477SOL    HW274873   6.548   6.195   0.294  0.6779  0.6698  0.3915
24478SOL     OW74874   7.311   2.773  11.431  0.1241 -0.6488  0.3383
24478SOL    HW174875   7.300   2.864  11.459  0.4240 -0.4638 -0.1202
24478SOL    HW274876   7.344   2.728  11.509  0.3758 -0.2753  0.4535
24479SOL     OW74877   7.750   4.595   1.015 -0.1532  0.6165 -0.3414
24479SOL    HW174878   7.699   4.666   0.975 -0.9659  0.6152  0.6481
24479SOL    HW274879   7.749   4.525   0.949  0.5767  1.4683 -1.2848
24480SOL     OW74880   0.677   6.749   0.572  0.4397 -0.0449  0.3852
24480SOL    HW174881   0.602   6.691   0.584 -0.6882  1.0900 -0.8819
24480SOL    HW274882   0.752   6.690   0.563 -0.1933 -1.1932  2.0697
24481SOL     OW74883   7.441   6.739  11.227  0.1222  0.1337 -0.1297
24481SOL    HW174884   7.520   6.763  11.276 -0.2726 -1.5003  1.3618
24481SOL    HW274885   7.419   6.819  11.178  2.0990  0.9415  0.1943
24482SOL     OW74886   6.715   7.746   0.793 -0.1438 -0.3545  0.3839
24482SOL    HW174887   6.678   7.833   0.779  2.1399  1.1564  2.8108
24482SOL    HW274888   6.750   7.719   0.708 -2.3401  0.2673 -0.7963
24483SOL     OW74889   0.065   0.389   2.625 -0.0409  0.3548  0.0475
24483SOL    HW174890   0.088   0.315   2.682  1.1341  0.6715  0.0139
24483SOL    HW274891   0.134   0.453   2.640 -0.3827  0.9463 -0.8337
24484SOL     OW74892   7.834   7.675   1.023  0.4906  0.1365 -0.3590
24484SOL    HW174893   7.858   7.767   1.035  1.7440 -0.2192  0.0661
24484SOL    HW274894   7.833   7.662   0.928  0.5771  0.5122 -0.4132
24485SOL     OW74895   0.906   6.605   1.874  0.6954  0.0882 -0.2011
24485SOL    HW174896   0.876   6.514   1.870  1.4791 -0.1291 -2.5588
24485SOL    HW274897   0.831   6.653   1.911 -0.0995 -1.3469  0.1335
24486SOL     OW74898   6.815   5.746   1.980  1.0194 -0.4460 -0.3420
24486SOL    HW174899   6.779   5.706   2.059  0.2105 -1.0536 -0.9952
24486SOL    HW274900   6.805   5.840   1.993  0.8672 -0.5442  0.2669
24487SOL     OW74901   7.737   7.381  11.793 -0.0715  0.3520 -0.6481
24487SOL    HW174902   7.665   7.387  11.730  0.1081  1.7920 -0.7426
24487SOL    HW274903   7.724   7.456  11.851  0.6318 -0.1018  0.1052
24488SOL     OW74904   6.600   5.585   2.465 -0.4072 -0.4742 -0.4132
24488SOL    HW174905   6.684   5.596   2.509 -0.3816  1.2577 -0.8111
24488SOL    HW274906   6.553   5.521   2.518 -0.0961  0.9520  1.7296
24489SOL     OW74907   7.691   0.078   1.671 -0.5535 -0.0693  0.1938
24489SOL    HW174908   7.730   0.157   1.632  1.5034 -1.8712 -1.6940
24489SOL    HW274909   7.638   0.041   1.601 -0.6143 -0.9258  0.6879
24490SOL     OW74910   7.402   6.432   1.251 -0.2128  0.3508  0.3328
24490SOL    HW174911   7.446   6.457   1.332 -1.3699  0.5038  0.9379
24490SOL    HW274912   7.412   6.507   1.193  0.9951  0.0741  0.1566
24491SOL     OW74913   5.939   6.046  11.641  0.3870 -0.0814  0.4392
24491SOL    HW174914   5.980   5.982  11.583  0.2414 -0.0136  0.2603
24491SOL    HW274915   5.921   6.121  11.584  1.7673  0.6478  0.9105
24492SOL     OW74916   7.370   5.822  12.280  0.9849  0.1557 -0.1071
24492SOL    HW174917   7.414   5.813  12.365  0.6336 -0.4528  0.0197
24492SOL    HW274918   7.423   5.768  12.220  1.1889  0.5227 -0.2593
24493SOL     OW74919   5.341   6.798   1.582 -0.5588  0.0953 -0.2866
24493SOL    HW174920   5.292   6.757   1.653  0.6670 -1.3538 -0.2341
24493SOL    HW274921   5.317   6.749   1.504 -0.7763  0.7397 -0.6351
24494SOL     OW74922   0.683   6.487  11.090  0.2280 -0.4838 -0.3829
24494SOL    HW174923   0.648   6.486  11.001  1.3666 -0.6617 -0.8384
24494SOL    HW274924   0.629   6.424  11.138 -2.2365  1.5941 -0.1814
24495SOL     OW74925   7.205   7.271   2.313  0.1992  0.0373  0.0399
24495SOL    HW174926   7.151   7.350   2.313  1.0884  0.6635  0.4648
24495SOL    HW274927   7.194   7.235   2.401  0.6503  0.2970  0.2053
24496SOL     OW74928   7.526   3.397   0.734 -0.2588  0.2388 -0.3984
24496SOL    HW174929   7.514   3.344   0.654  0.2010  1.2406 -1.1477
24496SOL    HW274930   7.461   3.362   0.795 -1.2100 -0.0034 -1.4985
24497SOL     OW74931   7.801   6.151   1.205  0.8764  0.5586 -0.6390
24497SOL    HW174932   7.714   6.132   1.241  1.8003 -0.8173  1.0775
24497SOL    HW274933   7.793   6.132   1.112 -0.6026  0.2379 -0.4731
24498SOL     OW74934   7.446   6.700   1.116 -0.4781 -0.0876  0.4068
24498SOL    HW174935   7.364   6.749   1.108 -0.2757  0.4030  1.2237
24498SOL    HW274936   7.513   6.768   1.127 -0.3384 -0.5427  2.7689
24499SOL     OW74937   0.992   6.894  11.634 -0.3524 -0.3535 -0.1408
24499SOL    HW174938   1.022   6.829  11.697  0.5073 -0.1164 -0.2832
24499SOL    HW274939   0.902   6.869  11.613  0.3650 -2.2572 -1.1433
24500SOL     OW74940   7.844   5.667   0.522  0.2374  0.4861 -0.5517
24500SOL    HW174941   7.769   5.715   0.559  1.2594  1.8278 -0.1312
24500SOL    HW274942   7.831   5.577   0.551 -0.2187  1.0578  1.1647
24501SOL     OW74943   7.229   0.117   1.799 -0.3931 -0.6079  0.1593
24501SOL    HW174944   7.174   0.069   1.736 -1.1210 -0.9542  1.0286
24501SOL    HW274945   7.287   0.050   1.835 -0.0770 -0.4407 -0.0405
24502SOL     OW74946   7.578   5.029   0.600 -0.0705 -0.8013  0.0103
24502SOL    HW174947   7.555   5.066   0.514  0.0752  0.8893  0.6645
24502SOL    HW274948   7.494   5.005   0.639 -0.2087 -0.7445 -0.2499
24503SOL     OW74949   0.274   7.053   2.023  0.3376  0.2788 -0.3576
24503SOL    HW174950   0.241   7.057   1.933  0.2532 -0.5342 -0.3756
24503SOL    HW274951   0.214   6.994   2.068 -0.7637  2.1778  0.7584
24504SOL     OW74952   5.793   6.324   3.068  0.6471 -0.2401  0.0234
24504SOL    HW174953   5.783   6.308   3.162  3.8295 -1.1943  0.3160
24504SOL    HW274954   5.840   6.407   3.062 -0.3363  0.2937 -0.8254
24505SOL     OW74955   7.229   6.959   0.584  0.0203 -0.2414 -0.8802
24505SOL    HW174956   7.155   6.944   0.642 -0.6993 -0.2799 -1.7866
24505SOL    HW274957   7.194   6.946   0.496  1.2178 -0.7306 -1.3070
24506SOL     OW74958   0.070   7.530  11.524  0.6220  0.0007  0.1803
24506SOL    HW174959   0.060   7.625  11.520  0.5475 -0.0501 -1.3303
24506SOL    HW274960   0.003   7.495  11.466 -0.2130 -1.0663  1.7060
24507SOL     OW74961   7.923   5.771   1.060 -0.6103 -0.3106  0.4125
24507SOL    HW174962   7.867   5.707   1.016 -0.0215 -1.1240  0.8125
24507SOL    HW274963   7.896   5.767   1.152 -1.6266  1.1582  0.2011
24508SOL     OW74964   7.649   6.802   1.731 -0.4410  0.4351 -0.2185
24508SOL    HW174965   7.695   6.823   1.812  0.2608 -0.0536 -0.4791
24508SOL    HW274966   7.559   6.830   1.746 -0.6098 -0.7668  1.1986
24509SOL     OW74967   5.295   7.847   0.840  0.1938  0.3306 -0.0119
24509SOL    HW174968   5.236   7.820   0.910 -0.0839  0.3738 -0.2293
24509SOL    HW274969   5.239   7.895   0.779  0.2988 -0.2753 -0.5953
24510SOL     OW74970   7.419   5.797   2.376  0.2648  0.0401  0.2559
24510SOL    HW174971   7.454   5.819   2.462  0.1851 -1.1647  0.6179
24510SOL    HW274972   7.364   5.871   2.353  0.3555  0.4195  1.2028
24511SOL     OW74973   7.754   5.652   1.420 -0.8700 -0.2223  0.0017
24511SOL    HW174974   7.740   5.602   1.340  0.8486 -0.0521 -0.4495
24511SOL    HW274975   7.755   5.744   1.391  0.8303 -0.2070 -0.0123
24512SOL     OW74976   1.227   7.981   1.799 -0.1235 -0.4688 -0.1299
24512SOL    HW174977   1.267   7.975   1.886  2.3094  1.0660 -1.0263
24512SOL    HW274978   1.221   8.074   1.781  0.1669 -0.7436 -1.9058
24513SOL     OW74979   6.363   6.441   1.229  0.1762 -0.2212 -0.0371
24513SOL    HW174980   6.391   6.405   1.313 -2.8866 -0.2874  1.0688
24513SOL    HW274981   6.354   6.365   1.172  0.1922 -0.4208  0.2244
24514SOL     OW74982   7.882   6.007  11.765 -0.1272  0.1120 -0.5801
24514SOL    HW174983   7.904   5.935  11.705  2.6840  0.8171 -0.5695
24514SOL    HW274984   7.915   5.978  11.850 -1.6392  0.2368  0.0709
24515SOL     OW74985   0.438   7.251   1.669  0.4034 -0.0157 -0.4953
24515SOL    HW174986   0.400   7.314   1.609  2.0936 -0.3745 -2.0253
24515SOL    HW274987   0.469   7.180   1.613  1.6786 -0.5659  0.8333
24516SOL     OW74988   6.413   7.730   2.188  0.1087  0.2276 -0.3524
24516SOL    HW174989   6.488   7.710   2.244  1.8298 -1.5006 -3.0302
24516SOL    HW274990   6.419   7.824   2.172  0.2559  0.5347  1.3728
24517SOL     OW74991   0.336   6.157  11.761 -0.2767 -0.1505 -0.2032
24517SOL    HW174992   0.410   6.097  11.749  1.4017  1.6840  0.2219
24517SOL    HW274993   0.274   6.108  11.814  1.3987 -1.2455  0.8688
24518SOL     OW74994   1.010   6.847   2.020 -0.5065  0.2666 -0.2639
24518SOL    HW174995   1.091   6.796   2.013 -0.4774 -0.3726  3.1346
24518SOL    HW274996   0.941   6.786   1.994 -0.0968  0.0271 -0.8103
24519SOL     OW74997   0.328   7.047  12.169  0.3530  0.4563  0.2371
24519SOL    HW174998   0.340   6.962  12.211 -0.5865 -1.0770 -2.4034
24519SOL    HW274999   0.337   7.030  12.075 -0.5371  3.1624 -0.4417
24520SOL     OW75000   7.214   6.115   1.016  0.6108  0.0449  0.2218
24520SOL    HW175001   7.237   6.152   0.931  0.7390 -0.4176  0.0515
24520SOL    HW275002   7.296   6.118   1.067  0.7275 -0.3890  0.0635
24521SOL     OW75003   6.592   6.491   1.654 -0.4309  0.3645 -0.1016
24521SOL    HW175004   6.660   6.438   1.611 -1.8768  0.1051 -2.2474
24521SOL    HW275005   6.587   6.456   1.743  0.7848 -1.0350 -0.5395
24522SOL     OW75006   0.990   6.391   2.289  0.4718 -0.4517 -0.2987
24522SOL    HW175007   0.930   6.320   2.267 -0.3170  0.2438 -0.4751
24522SOL    HW275008   0.938   6.449   2.344  0.5824  0.7804 -1.4373
24523SOL     OW75009   7.208   6.659  11.530 -0.2217  0.0168 -0.2914
24523SOL    HW175010   7.231   6.569  11.554  0.9406  0.1504 -0.8615
24523SOL    HW275011   7.259   6.713  11.590  0.6483  0.3156 -1.2804
24524SOL     OW75012   5.629   6.556   2.579 -0.4387 -0.3181 -0.5116
24524SOL    HW175013   5.688   6.602   2.520  0.2359  0.5686  0.8089
24524SOL    HW275014   5.667   6.468   2.588 -0.7650 -0.5943 -1.6681
24525SOL     OW75015   6.178   7.722   1.671  0.1587 -0.0039  0.2814
24525SOL    HW175016   6.190   7.715   1.766 -0.7133 -2.3188  0.2812
24525SOL    HW275017   6.097   7.674   1.654 -0.2316  1.2058 -1.5493
24526SOL     OW75018   7.710   7.184   2.141 -0.0751 -0.2737  0.2932
24526SOL    HW175019   7.687   7.157   2.230 -0.7467 -0.3207  0.1124
24526SOL    HW275020   7.647   7.253   2.120  1.1319  0.9315  0.4618
24527SOL     OW75021   5.858   6.159   1.207 -0.5168  0.1230 -0.1411
24527SOL    HW175022   5.859   6.151   1.112 -0.7571  2.3738 -0.3855
24527SOL    HW275023   5.934   6.214   1.227 -1.6989  1.4755  0.7461
24528SOL     OW75024   0.412   7.325  11.140  0.0115 -0.1611  0.1331
24528SOL    HW175025   0.454   7.364  11.217  1.3529 -0.4618 -0.4108
24528SOL    HW275026   0.385   7.400  11.086  1.9091  0.0834 -0.5578
24529SOL     OW75027   5.947   6.405   2.758 -0.3287 -0.2686 -0.5233
24529SOL    HW175028   5.859   6.372   2.738 -0.0845 -1.7544  0.7188
24529SOL    HW275029   5.942   6.435   2.848  0.7890 -1.8070  0.1034
24530SOL     OW75030   0.678   6.401   0.429 -0.0100 -0.4644  0.2077
24530SOL    HW175031   0.585   6.381   0.439 -0.5224  1.3701 -0.4075
24530SOL    HW275032   0.679   6.481   0.376  1.9742 -1.0839 -0.7471
24531SOL     OW75033   7.220   0.804   2.705 -0.2449 -0.1228 -0.1647
24531SOL    HW175034   7.305   0.840   2.732 -0.5958  0.5595  0.0466
24531SOL    HW275035   7.156   0.868   2.736 -0.5964  1.6285 -4.0460
24532SOL     OW75036   0.007   6.170   2.093  0.3650  0.1804  0.2226
24532SOL    HW175037   0.040   6.178   2.183  1.8933  0.2600 -0.3155
24532SOL    HW275038   0.086   6.165   2.039 -0.5275  0.2812 -1.1377
24533SOL     OW75039   7.446   5.200   0.920  0.0983  0.0907 -0.1301
24533SOL    HW175040   7.450   5.118   0.871  1.1188 -0.6095  1.0793
24533SOL    HW275041   7.538   5.226   0.931 -0.0553 -0.1197  1.9595
24534SOL     OW75042   0.817   7.099   2.548 -0.5729 -0.0294 -0.1319
24534SOL    HW175043   0.737   7.131   2.591 -0.1286  0.3252  0.4555
24534SOL    HW275044   0.788   7.025   2.495 -1.1668 -0.3814  0.6661
24535SOL     OW75045   7.377   5.860   1.773 -0.0465  0.2814 -0.3989
24535SOL    HW175046   7.317   5.911   1.827 -0.7974 -0.0936 -0.8770
24535SOL    HW275047   7.442   5.827   1.836 -1.3183 -0.7598  0.4246
24536SOL     OW75048   0.844   6.545   0.589 -0.1273 -0.1020  0.0671
24536SOL    HW175049   0.786   6.486   0.540 -0.8423  1.4278 -1.0269
24536SOL    HW275050   0.930   6.530   0.551 -0.1664 -0.9249  0.2800
24537SOL     OW75051   0.529   7.504   2.103  0.1642  0.7256 -0.2036
24537SOL    HW175052   0.567   7.567   2.164 -0.4336  1.1361 -0.2495
24537SOL    HW275053   0.444   7.482   2.141  0.3804 -0.0893 -0.1673
24538SOL     OW75054   7.658   5.550   2.316  0.4966 -0.1186 -0.5982
24538SOL    HW175055   7.708   5.471   2.292  1.2408  0.5256 -1.2242
24538SOL    HW275056   7.723   5.620   2.316 -0.5890  0.9835 -2.7128
24539SOL     OW75057   7.437   6.535   2.265  0.2192  0.2837  0.0670
24539SOL    HW175058   7.431   6.628   2.289  1.0430  0.3831 -0.0776
24539SOL    HW275059   7.504   6.500   2.324  0.8697  0.0842 -0.7703
24540SOL     OW75060   7.768   7.251   2.831  0.7659  0.0866 -0.0707
24540SOL    HW175061   7.724   7.268   2.747 -1.0218  0.4545  0.8914
24540SOL    HW275062   7.854   7.218   2.806  0.4618  0.6333 -2.0522
24541SOL     OW75063   7.415   6.985   2.279 -0.1250 -0.0754 -0.1356
24541SOL    HW175064   7.471   7.049   2.324 -0.6421  0.1094  0.2540
24541SOL    HW275065   7.390   7.029   2.198 -3.6023  1.8748  1.7752
24542SOL     OW75066   0.189   0.610   2.676 -0.0983  0.0696  0.0632
24542SOL    HW175067   0.235   0.662   2.610  1.8839 -1.1521  0.4116
24542SOL    HW275068   0.258   0.561   2.721 -1.4925 -0.0114  2.2895
24543SOL     OW75069   0.605   7.750   1.801  0.6601  0.3606 -0.0780
24543SOL    HW175070   0.615   7.655   1.808 -0.3735  0.2765  0.3317
24543SOL    HW275071   0.599   7.781   1.891  1.3435  0.8696 -0.1905
24544SOL     OW75072   7.188   5.851   2.671  0.6896  0.5555  0.1183
24544SOL    HW175073   7.260   5.907   2.641  1.2582  0.1782  0.7465
24544SOL    HW275074   7.230   5.788   2.729 -0.0287 -0.1847 -0.1536
24545SOL     OW75075   6.679   0.303   2.463 -0.4489 -0.3947 -0.0180
24545SOL    HW175076   6.607   0.365   2.452 -2.3931 -2.3178  1.0213
24545SOL    HW275077   6.695   0.268   2.375 -1.9270 -1.0858 -0.0433
24546SOL     OW75078   0.689   6.382   1.390 -0.5881  0.0888 -0.9346
24546SOL    HW175079   0.700   6.352   1.300  1.7398 -0.5136 -0.5234
24546SOL    HW275080   0.739   6.320   1.443  0.4246  1.9784  0.4520
24547SOL     OW75081   7.797   6.036   2.001 -0.1891 -0.2206  0.3113
24547SOL    HW175082   7.767   5.979   2.071  1.8344 -1.9389 -0.1158
24547SOL    HW275083   7.883   6.066   2.030  0.1938 -0.0547 -0.9263
24548SOL     OW75084   0.346   6.617   3.585  0.1244 -0.2007  0.0593
24548SOL    HW175085   0.390   6.692   3.626 -0.1811 -0.1837  0.3547
24548SOL    HW275086   0.381   6.540   3.630 -1.9769 -0.0854  2.0972
24549SOL     OW75087   0.873   5.943   2.698 -0.5774  0.1935  0.7109
24549SOL    HW175088   0.946   6.004   2.708  0.6994 -1.2350  0.4766
24549SOL    HW275089   0.848   5.921   2.788  0.7566 -0.9564  0.8414
24550SOL     OW75090   1.992   7.460   2.136 -0.4964  0.4354  0.1597
24550SOL    HW175091   2.025   7.372   2.119  0.0456  0.3804  1.4082
24550SOL    HW275092   1.932   7.450   2.210  0.4753  1.2608  1.1012
24551SOL     OW75093   6.904   7.037   2.299  0.0190 -0.2566  0.3179
24551SOL    HW175094   6.911   6.974   2.227  0.4867  1.0921 -0.8826
24551SOL    HW275095   6.980   7.094   2.288 -1.7305  2.1071 -0.2904
24552SOL     OW75096   1.437   6.289   2.473  0.0920  0.0930  0.4077
24552SOL    HW175097   1.348   6.264   2.447  0.5618 -1.3065  0.0942
24552SOL    HW275098   1.472   6.333   2.395 -0.0584 -0.0357  0.2663
24553SOL     OW75099   0.227   6.795   3.066  0.1924 -0.4507 -0.8306
24553SOL    HW175100   0.147   6.764   3.024  0.4134 -0.1119 -1.5183
24553SOL    HW275101   0.240   6.736   3.140  0.2592 -1.5786 -1.7290
24554SOL     OW75102   5.705   5.437   1.556 -0.0009  0.2127 -0.2550
24554SOL    HW175103   5.708   5.343   1.572 -2.1327 -0.1249 -1.4474
24554SOL    HW275104   5.658   5.472   1.632 -0.2953  0.1344 -0.3991
24555SOL     OW75105   7.469   5.314   3.803 -0.3975  0.7927 -0.3031
24555SOL    HW175106   7.456   5.325   3.897 -1.4963 -0.2817 -0.2955
24555SOL    HW275107   7.563   5.319   3.791 -0.0283 -1.1955  1.1817
24556SOL     OW75108   6.335   4.313   4.446  0.2237 -0.0591  0.1469
24556SOL    HW175109   6.305   4.330   4.357 -0.6404 -1.9364  0.0194
24556SOL    HW275110   6.256   4.319   4.500  0.4787 -0.3216  0.5590
24557SOL     OW75111   0.812   0.432   4.598  0.6871 -0.4196 -0.6167
24557SOL    HW175112   0.775   0.348   4.624  0.3375  0.1787  0.9261
24557SOL    HW275113   0.781   0.493   4.665 -0.7553  1.3619 -2.7385
24558SOL     OW75114   7.347   7.732   1.309 -0.7894  0.2267 -0.8526
24558SOL    HW175115   7.369   7.781   1.388 -1.7114  0.0845 -0.4978
24558SOL    HW275116   7.428   7.733   1.257 -0.4469  1.1050 -0.3274
24559SOL     OW75117   5.561   6.324   2.357 -0.2307  0.6720  0.7962
24559SOL    HW175118   5.634   6.376   2.322 -0.7364  1.2842  0.6230
24559SOL    HW275119   5.594   6.289   2.440  1.3729 -1.6529 -0.6819
24560SOL     OW75120   7.763   6.332   2.195 -0.0148  0.1598 -0.2072
24560SOL    HW175121   7.745   6.298   2.283  0.2503 -0.4378 -0.3762
24560SOL    HW275122   7.844   6.288   2.169 -0.5429 -0.3164 -1.0869
24561SOL     OW75123   7.549   6.782   2.152 -0.2659 -0.0001 -0.0203
24561SOL    HW175124   7.513   6.842   2.217 -0.4941 -0.4744  0.2996
24561SOL    HW275125   7.608   6.725   2.201  0.4374  0.3653 -0.4336
24562SOL     OW75126   0.241   7.401   3.001  0.0854 -0.3437  0.3289
24562SOL    HW175127   0.190   7.322   3.018 -1.4040 -0.1964 -2.8509
24562SOL    HW275128   0.290   7.415   3.083  0.8160 -4.7543  0.9364
24563SOL     OW75129   7.508   7.914   3.353  0.4941 -1.0003  0.1567
24563SOL    HW175130   7.501   8.009   3.364  0.3728 -0.8976 -0.7850
24563SOL    HW275131   7.579   7.889   3.412  0.8157 -0.2649  0.0922
24564SOL     OW75132   0.666   6.872   3.593 -0.2588 -0.2505 -0.8508
24564SOL    HW175133   0.584   6.878   3.641 -0.5749  0.1537 -1.4307
24564SOL    HW275134   0.734   6.880   3.660 -0.6551  2.8376 -0.6587
24565SOL     OW75135   7.951   5.987   2.999 -0.0227  0.1768 -0.2527
24565SOL    HW175136   7.868   6.020   2.965 -0.2259 -0.1204 -0.0432
24565SOL    HW275137   7.948   6.006   3.092  0.1970  0.2751 -0.2658
24566SOL     OW75138   6.860   7.333   4.283  0.9499  0.7772 -0.0151
24566SOL    HW175139   6.907   7.416   4.286 -0.0788  1.3932 -0.4883
24566SOL    HW275140   6.889   7.292   4.201  1.0361  0.9296 -0.0598
24567SOL     OW75141   7.004   6.278   3.366  0.7576  0.4160  0.1087
24567SOL    HW175142   7.068   6.347   3.347  0.6737  0.0079 -1.8733
24567SOL    HW275143   6.921   6.315   3.337  0.5502 -0.1368 -0.0038
24568SOL     OW75144   6.885   7.830   3.845 -0.2959  0.2582  0.3426
24568SOL    HW175145   6.845   7.874   3.770 -2.7174 -0.8437  0.8814
24568SOL    HW275146   6.929   7.754   3.808  1.9847  1.7798 -0.3253
24569SOL     OW75147   6.720   6.846   2.933 -0.0153  0.7598  0.0765
24569SOL    HW175148   6.782   6.899   2.884  0.8919 -0.6275 -0.3272
24569SOL    HW275149   6.651   6.824   2.870 -0.5898  1.7332  0.3442
24570SOL     OW75150   0.299   6.348   2.888  0.7002 -0.1340 -0.3485
24570SOL    HW175151   0.278   6.257   2.869  1.7751 -0.6706  0.9005
24570SOL    HW275152   0.214   6.389   2.906  0.0588 -0.5083 -2.3223
24571SOL     OW75153   1.314   6.384   3.050  0.0594  0.0817  0.6246
24571SOL    HW175154   1.221   6.368   3.033  0.0236 -0.0574  0.9359
24571SOL    HW275155   1.318   6.475   3.080 -0.1203 -0.2177  1.6068
24572SOL     OW75156   5.449   5.635   3.561 -0.4276 -0.1472  0.0165
24572SOL    HW175157   5.500   5.697   3.508 -2.3155  0.5006 -1.1202
24572SOL    HW275158   5.463   5.664   3.651 -0.5837  1.4077 -0.4387
24573SOL     OW75159   1.420   5.314   2.789  0.1344 -0.1120  0.0169
24573SOL    HW175160   1.469   5.246   2.835 -0.2619 -1.4846 -1.4949
24573SOL    HW275161   1.334   5.314   2.830  0.8106  1.1288  1.5459
24574SOL     OW75162   0.488   0.009   5.141  0.2004  0.3919 -0.3200
24574SOL    HW175163   0.418   0.064   5.105  0.5140  1.8772  1.2199
24574SOL    HW275164   0.540  -0.016   5.064 -1.7499 -0.4244 -1.4457
24575SOL     OW75165   6.579   6.539   1.909  0.1894 -0.3360 -0.0513
24575SOL    HW175166   6.561   6.632   1.899 -0.8153 -0.4889  0.2018
24575SOL    HW275167   6.535   6.514   1.991  0.1628 -1.0892 -0.2826
24576SOL     OW75168   7.200   6.381   2.764 -0.2479 -0.3648 -0.5887
24576SOL    HW175169   7.212   6.468   2.728  2.2994 -1.3585 -2.4212
24576SOL    HW275170   7.186   6.325   2.688  0.0039 -1.8283  0.3872
24577SOL     OW75171   5.562   7.050   0.942 -0.2276 -0.3408 -0.3384
24577SOL    HW175172   5.652   7.039   0.975  1.0154  1.6094 -2.7503
24577SOL    HW275173   5.527   7.124   0.992  0.5521  0.6759 -1.2582
24578SOL     OW75174   6.548   7.411   3.020 -0.0684 -0.6871  0.0972
24578SOL    HW175175   6.536   7.487   3.077  0.4171 -1.0057  0.6414
24578SOL    HW275176   6.459   7.385   2.996 -0.2664 -0.3403  0.4405
24579SOL     OW75177   1.424   6.207   2.882  0.3555 -0.4120  0.2151
24579SOL    HW175178   1.347   6.155   2.907  0.2208  0.3318  1.4212
24579SOL    HW275179   1.403   6.296   2.911  0.7224  0.2714 -1.5179
24580SOL     OW75180   0.690   7.274   4.086 -0.1582  0.7661  0.6435
24580SOL    HW175181   0.746   7.207   4.046 -1.6225 -0.4030  0.4463
24580SOL    HW275182   0.750   7.328   4.137  1.0584 -0.9277  1.1147
24581SOL     OW75183   7.323   6.443   1.838 -0.3317  0.3254  0.6388
24581SOL    HW175184   7.332   6.516   1.899  1.8022  1.9946 -1.4907
24581SOL    HW275185   7.411   6.408   1.829 -1.1136 -1.7880  0.6869
24582SOL     OW75186   6.790   7.331   2.584 -0.5336  0.4025 -0.3353
24582SOL    HW175187   6.829   7.393   2.521 -0.5632 -0.6776 -1.4451
24582SOL    HW275188   6.699   7.358   2.591 -0.6300  0.2879 -1.0790
24583SOL     OW75189   0.071   7.044   2.792  0.1825  0.2619  0.2845
24583SOL    HW175190   0.022   7.014   2.716 -0.3798 -0.4258  0.9068
24583SOL    HW275191   0.155   6.999   2.786  0.1007  0.1300  0.1324
24584SOL     OW75192   6.635   6.942   2.179 -0.2096  0.1335 -0.0904
24584SOL    HW175193   6.728   6.921   2.185 -0.1348  0.4681 -0.0418
24584SOL    HW275194   6.609   6.963   2.269  0.4260  3.1365 -0.5185
24585SOL     OW75195   6.286   7.734   3.696 -0.0682 -0.1247  0.3709
24585SOL    HW175196   6.331   7.653   3.721  0.0655 -0.1519  0.0530
24585SOL    HW275197   6.357   7.795   3.674 -0.1380  0.3536  1.4143
24586SOL     OW75198   6.844   6.293   2.511  0.5804 -0.1244  0.5722
24586SOL    HW175199   6.757   6.332   2.525  0.1743 -1.0888  0.8501
24586SOL    HW275200   6.863   6.310   2.419  0.5912  1.0577  0.7846
24587SOL     OW75201   7.424   7.616   3.628 -0.3652  0.5188  0.3955
24587SOL    HW175202   7.497   7.555   3.627 -0.8534 -0.0767 -1.0431
24587SOL    HW275203   7.457   7.692   3.676  1.0973  0.1504  0.0149
24588SOL     OW75204   0.165   6.489   0.569 -0.3989 -0.4183  0.8143
24588SOL    HW175205   0.199   6.446   0.490  0.1178  1.5005 -0.0790
24588SOL    HW275206   0.116   6.421   0.615 -0.3429 -1.7092 -0.9418
24589SOL     OW75207   0.924   6.717   2.666  0.0720 -0.2055  0.4977
24589SOL    HW175208   0.948   6.629   2.638  0.6564 -0.3291  1.3507
24589SOL    HW275209   0.960   6.775   2.598 -2.3804 -0.7084 -1.3766
24590SOL     OW75210   0.245   5.473   5.446 -0.0150 -0.0365  0.5127
24590SOL    HW175211   0.191   5.394   5.441 -1.7820  1.1350  0.0714
24590SOL    HW275212   0.243   5.498   5.538  1.0882 -0.8270  0.7720
24591SOL     OW75213   0.428   5.785   1.327  0.3172 -0.3498  0.8333
24591SOL    HW175214   0.340   5.756   1.301  0.6640  0.1540 -1.0369
24591SOL    HW275215   0.425   5.880   1.319  1.4803 -0.4083 -0.9778
24592SOL     OW75216   5.834   4.902   1.224  0.1477  0.1835  0.1434
24592SOL    HW175217   5.910   4.952   1.254 -0.1532  0.9327 -0.3059
24592SOL    HW275218   5.805   4.948   1.145  0.4518 -1.2819 -0.8618
24593SOL     OW75219   0.666   7.890   2.803 -0.3588 -0.1038  0.0549
24593SOL    HW175220   0.604   7.860   2.869 -0.9801  0.5685 -0.2143
24593SOL    HW275221   0.666   7.985   2.811  0.6816 -0.0980  0.0836
24594SOL     OW75222   6.979   7.356   4.858 -0.1141 -0.1941  0.0831
24594SOL    HW175223   6.968   7.281   4.917 -0.0582  0.1661  0.5605
24594SOL    HW275224   6.931   7.427   4.901 -1.0948 -0.2344 -0.9022
24595SOL     OW75225   6.678   6.972   3.347 -0.2090  0.5974  0.0110
24595SOL    HW175226   6.730   6.947   3.423 -1.6027  2.6294  1.7597
24595SOL    HW275227   6.726   7.046   3.308  0.4843 -0.4165 -1.1218
24596SOL     OW75228   0.599   1.047   3.442 -0.2068  0.5349  0.0737
24596SOL    HW175229   0.543   1.114   3.480 -1.7513  0.3559 -1.7430
24596SOL    HW275230   0.538   0.985   3.401  1.2442 -0.9799  0.1157
24597SOL     OW75231   7.478   6.727   5.120  0.4099  0.0619 -0.2874
24597SOL    HW175232   7.398   6.744   5.070  0.1575  2.8813  0.9100
24597SOL    HW275233   7.448   6.718   5.211  1.2346 -1.4856 -0.1300
24598SOL     OW75234   6.280   5.947   1.872 -0.1913  0.2070  0.0982
24598SOL    HW175235   6.287   5.852   1.876 -2.1059  0.0436  0.9016
24598SOL    HW275236   6.335   5.979   1.944 -0.9503 -0.4117  0.9739
24599SOL     OW75237   0.535   6.177   3.129 -0.2155  0.1088  0.4694
24599SOL    HW175238   0.598   6.247   3.145 -0.9068  0.6525  0.8788
24599SOL    HW275239   0.559   6.141   3.044  0.4572  0.5104  0.4898
24600SOL     OW75240   6.975   4.584   5.752 -0.6675 -0.7014  0.1227
24600SOL    HW175241   7.064   4.575   5.787 -0.2866  0.0046 -0.6145
24600SOL    HW275242   6.920   4.592   5.829 -0.4639 -3.7303  0.7227
24601SOL     OW75243   0.770   7.562   4.966  0.2160  0.2136  0.1043
24601SOL    HW175244   0.855   7.605   4.958  0.2859  0.5221  2.0423
24601SOL    HW275245   0.716   7.626   5.013 -0.8135 -0.3420 -0.3105
24602SOL     OW75246   7.721   4.829   4.908  0.0395 -0.4215 -0.0493
24602SOL    HW175247   7.702   4.890   4.979 -0.5335 -0.8077  0.1398
24602SOL    HW275248   7.746   4.748   4.952 -2.0522 -1.2213 -0.2305
24603SOL     OW75249   6.607   0.095   5.222  0.4480 -0.4015  0.0100
24603SOL    HW175250   6.595   0.113   5.128 -0.5482 -0.4286  0.1202
24603SOL    HW275251   6.610   0.182   5.262 -0.6932 -0.3885  0.1164
24604SOL     OW75252   7.000   6.057   4.913  0.3008 -0.6731 -0.1323
24604SOL    HW175253   7.088   6.026   4.935  0.7420  0.2040 -0.5963
24604SOL    HW275254   7.004   6.075   4.819 -0.1709 -0.0109 -0.0342
24605SOL     OW75255   7.772   6.207   4.729  0.5398  0.1826 -0.2995
24605SOL    HW175256   7.712   6.280   4.716 -0.4185 -0.4452  0.4746
24605SOL    HW275257   7.831   6.237   4.799 -0.0651  0.1070  0.2582
24606SOL     OW75258   7.182   5.707   3.987  0.4364 -0.6276 -0.6203
24606SOL    HW175259   7.257   5.676   3.936  1.3232 -0.9668  0.8463
24606SOL    HW275260   7.207   5.796   4.013  2.0442 -1.9256  2.8933
24607SOL     OW75261   0.027   6.774   4.731  0.4935  0.5222 -0.3186
24607SOL    HW175262  -0.014   6.821   4.803  0.6937  1.7632 -0.9806
24607SOL    HW275263   0.088   6.838   4.693  1.0178 -0.3889 -1.0426
24608SOL     OW75264   6.879   0.970   5.266  0.6348 -0.8500 -0.2862
24608SOL    HW175265   6.922   0.887   5.288 -0.8889 -1.2191  1.4855
24608SOL    HW275266   6.851   1.006   5.350  1.3645  1.5604 -1.0052
24609SOL     OW75267   6.556   6.943   5.197 -0.1069  0.2164  0.6787
24609SOL    HW175268   6.642   6.900   5.196  0.4685  1.3020 -0.4756
24609SOL    HW275269   6.558   6.999   5.275 -0.6403 -1.3327  1.8637
24610SOL     OW75270   0.452   7.117   4.270  0.4211  0.5141 -0.2951
24610SOL    HW175271   0.537   7.084   4.241  0.3108 -2.1233  1.9137
24610SOL    HW275272   0.469   7.208   4.295  2.9865 -0.2630  1.2470
24611SOL     OW75273   7.731   5.940   4.044  0.4446 -0.4763  0.5531
24611SOL    HW175274   7.647   5.933   4.089 -0.0500  3.0226  0.4464
24611SOL    HW275275   7.747   6.034   4.038  2.7099 -0.9228 -2.5324
24612SOL     OW75276   0.003   6.717   2.941  0.0269 -0.5492 -0.2796
24612SOL    HW175277   0.020   6.623   2.940 -0.3576 -0.6243 -0.9573
24612SOL    HW275278  -0.005   6.740   2.848 -0.1539  0.0968 -0.1077
24613SOL     OW75279   0.490   7.050   4.977 -0.0505  0.2452  0.3850
24613SOL    HW175280   0.395   7.058   4.972 -0.3033 -2.2622 -0.3805
24613SOL    HW275281   0.523   7.115   4.915 -1.3276  0.3889 -0.1716
24614SOL     OW75282   0.351   4.557   5.890 -0.1757  0.5409  0.2075
24614SOL    HW175283   0.397   4.640   5.877 -0.6057  0.9600  1.2302
24614SOL    HW275284   0.277   4.580   5.946 -0.4601 -0.4919  0.2687
24615SOL     OW75285   7.073   7.910   2.590  0.2626 -0.7485  0.1524
24615SOL    HW175286   7.047   7.829   2.634 -1.6106 -0.7864 -0.9442
24615SOL    HW275287   7.003   7.972   2.611  1.1072  0.2700  0.0369
24616SOL     OW75288   6.932   5.684   4.093 -0.1785 -0.3991 -0.4090
24616SOL    HW175289   6.922   5.640   4.178 -0.4042 -1.5188 -0.9988
24616SOL    HW275290   7.022   5.665   4.067  0.1914  0.7228 -0.0157
24617SOL     OW75291   7.637   7.537   5.025 -0.1725  0.4523 -0.4101
24617SOL    HW175292   7.583   7.554   5.102 -2.2138 -1.0241 -1.4135
24617SOL    HW275293   7.703   7.475   5.054  1.9098  3.1405  1.1263
24618SOL     OW75294   7.349   5.226   3.489 -0.4206 -0.3072 -0.6312
24618SOL    HW175295   7.330   5.231   3.583 -0.9372  1.4429 -0.7986
24618SOL    HW275296   7.443   5.209   3.485  0.0518  1.8294  0.2425
24619SOL     OW75297   7.535   6.894   4.098 -1.1633 -0.7932 -0.3320
24619SOL    HW175298   7.557   6.964   4.037 -1.2850 -0.7018 -0.2705
24619SOL    HW275299   7.575   6.815   4.059  0.0360 -0.4821  0.2258
24620SOL     OW75300   7.882   7.029   3.208  0.4460  0.3398 -0.5992
24620SOL    HW175301   7.830   6.970   3.262  0.3195  0.6111 -0.4215
24620SOL    HW275302   7.829   7.043   3.130  1.1247 -0.9569 -1.3272
24621SOL     OW75303   1.106   7.589   2.954  0.5969  0.1519  0.4424
24621SOL    HW175304   1.098   7.537   3.034 -0.5178 -1.1052 -0.4288
24621SOL    HW275305   1.064   7.672   2.976 -0.2947 -0.4175  1.0019
24622SOL     OW75306   0.036   5.989   3.759 -0.5845 -0.4538 -0.4795
24622SOL    HW175307   0.014   6.046   3.833  1.5263 -0.2480  0.0338
24622SOL    HW275308  -0.023   5.915   3.769 -2.0281  0.6973 -0.0262
24623SOL     OW75309   7.088   5.841   4.414 -0.1774 -0.0127 -0.2614
24623SOL    HW175310   7.072   5.920   4.466  0.8796  0.4036 -0.5483
24623SOL    HW275311   7.002   5.819   4.377 -0.1274  2.1871 -1.8646
24624SOL     OW75312   0.496   7.212   3.653 -0.0794  0.1476  0.4340
24624SOL    HW175313   0.517   7.224   3.746 -0.0745  2.0046  0.2329
24624SOL    HW275314   0.575   7.240   3.608 -0.2683 -0.2625 -0.1554
24625SOL     OW75315   0.320   5.965   3.367  0.3605 -0.4482 -0.2451
24625SOL    HW175316   0.391   5.983   3.428  0.6310  0.0657 -0.7041
24625SOL    HW275317   0.331   5.873   3.343 -1.7022 -1.6973  2.9794
24626SOL     OW75318   0.641   5.381   4.506 -0.1932 -0.2890 -0.2777
24626SOL    HW175319   0.603   5.366   4.592  0.1840 -2.5107 -0.4365
24626SOL    HW275320   0.578   5.345   4.444 -0.4822  1.3228 -0.9684
24627SOL     OW75321   7.691   5.473   3.178 -0.2319 -0.3527  0.0682
24627SOL    HW175322   7.687   5.517   3.093 -1.2624  0.1445  0.3516
24627SOL    HW275323   7.774   5.426   3.178  0.3304  0.6172 -0.7316
24628SOL     OW75324   6.433   6.626   4.801  0.7199  0.1493  0.1737
24628SOL    HW175325   6.459   6.579   4.879 -0.7391 -0.6991  0.1932
24628SOL    HW275326   6.500   6.693   4.789  1.2959 -0.1027  1.7891
24629SOL     OW75327   7.936   5.569   5.147  0.3999  0.5056  0.5647
24629SOL    HW175328   8.030   5.581   5.137  0.7166 -2.0777 -0.1132
24629SOL    HW275329   7.904   5.551   5.059 -0.5798  0.4078  0.9215
24630SOL     OW75330   7.804   4.587   4.740  0.4706  0.6669  0.6717
24630SOL    HW175331   7.872   4.641   4.779  0.5149  1.5612 -0.5847
24630SOL    HW275332   7.728   4.645   4.735  0.6030  0.7488 -0.9580
24631SOL     OW75333   6.038   7.047   4.118 -0.1520 -0.4065 -0.2702
24631SOL    HW175334   6.123   7.006   4.102  0.0463  0.6802 -2.4039
24631SOL    HW275335   5.976   6.993   4.067 -0.7779 -1.1810  1.2500
24632SOL     OW75336   7.932   5.451   4.590  0.2463 -0.2151  0.8504
24632SOL    HW175337   7.844   5.470   4.622 -0.4754 -0.3439 -0.9798
24632SOL    HW275338   7.919   5.395   4.514  1.9264 -0.4032  0.6579
24633SOL     OW75339   7.891   6.463   4.534 -0.3708  0.2622 -0.1173
24633SOL    HW175340   7.852   6.544   4.568 -0.6992 -0.0362  0.2176
24633SOL    HW275341   7.925   6.419   4.611  0.0473  0.2040 -0.3322
24634SOL     OW75342   0.272   6.922   4.719 -0.7667 -0.0813  0.2012
24634SOL    HW175343   0.304   6.841   4.756 -0.1396  0.1304  0.1397
24634SOL    HW275344   0.310   6.925   4.631  0.1172  0.7827  0.5808
24635SOL     OW75345   7.365   7.215   5.515 -0.0883  0.1603 -0.2104
24635SOL    HW175346   7.423   7.185   5.586  0.2765  2.6211  0.6081
24635SOL    HW275347   7.415   7.199   5.435  0.4776 -0.4490  0.2508
24636SOL     OW75348   7.223   7.022   3.686  0.2910 -0.4531 -0.0790
24636SOL    HW175349   7.286   6.954   3.712  0.3377 -0.5806 -0.5256
24636SOL    HW275350   7.239   7.093   3.749  1.8833  0.0999 -1.0428
24637SOL     OW75351   6.693   6.051   6.640 -0.3221  0.9980 -0.1772
24637SOL    HW175352   6.785   6.035   6.659 -0.6730 -1.1408 -0.0491
24637SOL    HW275353   6.655   5.964   6.625 -2.2335  1.8441 -0.6608
24638SOL     OW75354   1.088   6.084   3.635 -0.1019 -0.5375  0.2185
24638SOL    HW175355   1.103   6.022   3.706  1.4073  0.7791  1.1240
24638SOL    HW275356   1.149   6.156   3.653 -1.7951  1.2301 -0.7490
24639SOL     OW75357   0.197   6.625   4.958  0.5701  0.3999 -0.6259
24639SOL    HW175358   0.144   6.671   4.893 -0.4489  0.3728  0.1694
24639SOL    HW275359   0.138   6.562   4.997  1.2348  0.2591  0.1802
24640SOL     OW75360   7.321   6.851   3.268 -0.9567 -0.8839 -0.1228
24640SOL    HW175361   7.259   6.778   3.276 -2.2534  0.4124  3.3942
24640SOL    HW275362   7.320   6.893   3.354  2.7545  0.9409 -0.7729
24641SOL     OW75363   6.488   0.438   3.948  0.2857 -0.2907 -0.4544
24641SOL    HW175364   6.522   0.524   3.973  1.0048  0.1973 -2.8580
24641SOL    HW275365   6.393   0.445   3.961  0.1808  1.3321 -1.6996
24642SOL     OW75366   0.451   7.216   3.942 -0.2792 -0.3319 -0.1393
24642SOL    HW175367   0.523   7.217   4.004  0.5843  1.0998 -1.1005
24642SOL    HW275368   0.391   7.284   3.973 -2.0987 -2.5564  1.5511
24643SOL     OW75369   5.516   7.165   5.470 -0.3618 -0.0449  0.1059
24643SOL    HW175370   5.586   7.222   5.499  0.0137 -0.9347  0.9924
24643SOL    HW275371   5.436   7.211   5.494 -0.0740  0.4185  0.1881
24644SOL     OW75372   1.086   6.553   5.313 -0.3866  0.1208  0.0855
24644SOL    HW175373   1.152   6.487   5.290 -0.2780  0.3912 -0.4075
24644SOL    HW275374   1.134   6.636   5.316 -1.1021  0.7776 -2.9601
24645SOL     OW75375   7.641   6.227   1.559 -0.3465  0.0374 -0.5138
24645SOL    HW175376   7.715   6.273   1.521 -0.3954  2.1243  1.7077
24645SOL    HW275377   7.654   6.234   1.653 -1.8048 -2.2308 -0.0631
24646SOL     OW75378   7.722   0.538   6.751  0.4336 -0.1761  0.0404
24646SOL    HW175379   7.658   0.472   6.728  0.8597 -0.5102 -0.2069
24646SOL    HW275380   7.692   0.573   6.834  0.9661 -1.6866  0.9024
24647SOL     OW75381   6.549   7.823   3.689 -0.2283  0.5363  0.0357
24647SOL    HW175382   6.551   7.730   3.670  1.2905  0.2682  1.3166
24647SOL    HW275383   6.574   7.865   3.607 -1.3232 -0.1345 -0.6632
24648SOL     OW75384   0.979   6.191   6.848 -0.1445 -0.6903 -0.4586
24648SOL    HW175385   0.899   6.243   6.845  0.0817 -0.3447 -0.5003
24648SOL    HW275386   0.952   6.104   6.818 -0.4429 -0.4996 -0.7446
24649SOL     OW75387   1.704   5.180   3.860  0.4692  0.1599  0.1813
24649SOL    HW175388   1.613   5.192   3.888  0.1152  1.4933 -1.4329
24649SOL    HW275389   1.698   5.161   3.767  1.8169 -0.6900  0.2525
24650SOL     OW75390   7.195   0.075   4.652 -0.1051 -0.3050 -0.6632
24650SOL    HW175391   7.126   0.128   4.612 -0.4942  0.6228  1.1369
24650SOL    HW275392   7.244   0.039   4.577 -0.8242  1.2701 -1.9597
24651SOL     OW75393   0.300   0.161   5.022 -0.1131  0.6236  0.0415
24651SOL    HW175394   0.322   0.146   4.930 -0.5465  1.2569 -0.1758
24651SOL    HW275395   0.208   0.189   5.020  0.2563  1.9849  0.5143
24652SOL     OW75396   6.721   6.928   4.575  0.1532  0.1525 -0.4276
24652SOL    HW175397   6.671   6.992   4.627  0.4369  1.1040 -1.2907
24652SOL    HW275398   6.764   6.980   4.507 -0.1727 -1.0533 -1.6071
24653SOL     OW75399   0.403   6.867   5.751  0.2076  0.0137 -0.4575
24653SOL    HW175400   0.486   6.884   5.706  0.0007  0.0756 -0.8225
24653SOL    HW275401   0.380   6.951   5.791  0.0084  0.1641 -0.8830
24654SOL     OW75402   0.279   5.567   4.391  0.1968 -0.0697 -0.0884
24654SOL    HW175403   0.241   5.587   4.477 -1.2263 -2.2768 -0.1413
24654SOL    HW275404   0.274   5.650   4.343  1.3733  1.3159  2.0217
24655SOL     OW75405   7.885   6.778   3.382 -0.0813 -0.1758  0.5993
24655SOL    HW175406   7.963   6.723   3.381  0.4673  0.5426  1.5402
24655SOL    HW275407   7.848   6.770   3.294  0.8173 -0.8613  0.2706
24656SOL     OW75408   7.302   7.015   4.723  0.4073  0.2376  0.0772
24656SOL    HW175409   7.296   7.092   4.779 -0.2946  0.0017  0.3360
24656SOL    HW275410   7.360   7.041   4.651 -1.8829  1.9082 -1.2843
24657SOL     OW75411   7.801   6.662   5.827 -0.7008  0.4003  0.4807
24657SOL    HW175412   7.839   6.644   5.913 -1.5577 -0.1616  0.7540
24657SOL    HW275413   7.715   6.699   5.846 -1.3152 -0.6520 -0.1171
24658SOL     OW75414   0.246   0.325   3.862  0.6863 -0.9186  0.2975
24658SOL    HW175415   0.322   0.289   3.816 -1.3508 -1.8657 -2.6758
24658SOL    HW275416   0.216   0.396   3.806 -1.7374 -1.8863  0.2435
24659SOL     OW75417   7.000   0.072   5.200 -0.1249 -0.5568 -0.6108
24659SOL    HW175418   6.947   0.106   5.128  0.0998 -0.9822 -0.9803
24659SOL    HW275419   7.013   0.147   5.258 -0.4487 -0.2537 -0.9260
24660SOL     OW75420   7.449   4.607   5.687  0.5322 -0.0533 -0.1663
24660SOL    HW175421   7.509   4.680   5.670 -0.0531  0.5512  0.2872
24660SOL    HW275422   7.388   4.609   5.614  2.3212 -2.0745 -1.8641
24661SOL     OW75423   1.807   4.819   5.854  0.1545 -0.6472  0.2298
24661SOL    HW175424   1.852   4.827   5.770  0.1587  0.9434  0.3485
24661SOL    HW275425   1.761   4.735   5.849  0.6508 -0.8676 -1.1032
24662SOL     OW75426   7.145   4.892   6.506  0.0152 -0.3746 -0.0574
24662SOL    HW175427   7.115   4.825   6.445 -1.5240  0.3641 -0.1716
24662SOL    HW275428   7.065   4.929   6.543  0.8810 -0.2728  1.8623
24663SOL     OW75429   7.249   4.590   5.460 -0.7870 -0.1174 -0.0944
24663SOL    HW175430   7.173   4.534   5.471  0.2727 -1.6343 -0.2225
24663SOL    HW275431   7.233   4.638   5.379 -1.8870  0.0686  0.2250
24664SOL     OW75432   0.292   7.071   5.491 -0.2990 -0.3990 -0.2359
24664SOL    HW175433   0.200   7.053   5.510 -0.3318  0.1234  0.1288
24664SOL    HW275434   0.328   7.101   5.574 -0.0185  0.2786 -0.5968
24665SOL     OW75435   7.363   6.637   5.678 -0.9271  0.5073 -0.4605
24665SOL    HW175436   7.328   6.548   5.678 -0.6757  0.3593  1.5724
24665SOL    HW275437   7.298   6.688   5.727  0.5910  0.6711  1.4710
24666SOL     OW75438   1.790   5.437   6.062  0.2551 -0.6406 -0.7427
24666SOL    HW175439   1.825   5.510   6.112 -1.7732  2.0224 -2.8851
24666SOL    HW275440   1.713   5.408   6.112 -0.0912  0.0710 -0.8452
24667SOL     OW75441   7.688   5.902   5.231 -0.6809  0.1956 -0.0773
24667SOL    HW175442   7.610   5.855   5.203 -1.2791  0.5251  0.9990
24667SOL    HW275443   7.655   5.970   5.290  0.2467  1.3974 -0.8899
24668SOL     OW75444   0.580   6.983   6.167  0.5442 -0.6098 -0.2746
24668SOL    HW175445   0.638   7.006   6.240 -3.0344  1.5626  2.2094
24668SOL    HW275446   0.573   7.063   6.115 -1.8439 -0.0270  0.8185
24669SOL     OW75447   0.160   6.564   6.789 -0.2614  0.4374 -0.3633
24669SOL    HW175448   0.238   6.571   6.734  0.8709  2.0497  1.3279
24669SOL    HW275449   0.163   6.476   6.824  0.7371  0.4357 -0.4270
24670SOL     OW75450   6.777   4.578   5.398 -0.2213  0.1161 -0.3912
24670SOL    HW175451   6.696   4.595   5.446 -0.7081  1.3694 -1.5743
24670SOL    HW275452   6.761   4.496   5.352 -1.2556  0.8477 -1.4029
24671SOL     OW75453   5.996   6.974   6.385  0.1903  0.2542 -0.0783
24671SOL    HW175454   5.959   6.886   6.374 -0.8611  0.7834 -1.0348
24671SOL    HW275455   6.064   6.980   6.317 -0.1599  0.3818 -0.4233
24672SOL     OW75456   6.794   7.542   7.555  0.8225 -0.1867  0.2051
24672SOL    HW175457   6.771   7.632   7.578 -1.1773 -0.8260  0.8966
24672SOL    HW275458   6.733   7.519   7.485  2.0116 -0.6944 -0.7017
24673SOL     OW75459   7.299   7.285   6.595 -0.8933  0.1711  0.2404
24673SOL    HW175460   7.376   7.282   6.651 -1.3071 -0.3566  0.7950
24673SOL    HW275461   7.266   7.195   6.595 -1.0480  0.2211 -0.6404
24674SOL     OW75462   6.699   7.557   6.772 -0.1275 -0.7503  0.0913
24674SOL    HW175463   6.757   7.586   6.843  1.6184 -0.1305 -1.4958
24674SOL    HW275464   6.687   7.635   6.718  1.0509 -1.8464 -1.8791
24675SOL     OW75465   0.967   5.116   5.243 -0.6361  0.0283  0.1205
24675SOL    HW175466   0.972   5.148   5.333 -0.2953 -0.2677  0.2089
24675SOL    HW275467   0.927   5.029   5.250 -1.4776  0.3881 -0.1106
24676SOL     OW75468   7.843   7.847   4.115  0.0629  0.0512 -0.3144
24676SOL    HW175469   7.868   7.874   4.026  1.7922 -0.4690 -0.0139
24676SOL    HW275470   7.900   7.773   4.135 -0.7819 -0.2805  0.9800
24677SOL     OW75471   0.731   6.544   5.611  0.3800 -0.0333 -0.8780
24677SOL    HW175472   0.751   6.473   5.673 -1.8591  0.0081 -0.0055
24677SOL    HW275473   0.775   6.518   5.530  0.9158 -1.6267 -0.1289
24678SOL     OW75474   7.203   5.066   6.201 -0.4599 -0.4527 -0.4113
24678SOL    HW175475   7.176   5.004   6.134  1.8071 -0.5789 -1.2964
24678SOL    HW275476   7.261   5.016   6.259 -1.1526  0.0515  0.7574
24679SOL     OW75477   1.396   7.511   5.471 -0.0649  0.5484 -0.1178
24679SOL    HW175478   1.438   7.487   5.387 -0.4871 -0.3542 -0.0827
24679SOL    HW275479   1.330   7.576   5.447 -0.0086  0.4860 -0.4521
24680SOL     OW75480   0.341   6.503   6.201  0.4231 -0.0609  0.1987
24680SOL    HW175481   0.380   6.519   6.115 -1.3990 -0.7355 -0.8032
24680SOL    HW275482   0.296   6.585   6.223 -1.5391 -0.7760 -0.8864
24681SOL     OW75483   1.767   6.356   7.618 -0.0908  0.2848 -0.3140
24681SOL    HW175484   1.819   6.304   7.556  0.1286 -1.6673  1.3566
24681SOL    HW275485   1.693   6.299   7.640 -1.5222  1.9552 -0.6521
24682SOL     OW75486   0.067   6.835   6.214  0.5175  0.7834 -0.3036
24682SOL    HW175487  -0.003   6.891   6.180 -0.2032 -0.1051 -0.3096
24682SOL    HW275488   0.041   6.746   6.189  1.4957  0.4132 -0.0336
24683SOL     OW75489   6.876   7.371   7.905 -0.7693 -0.0777  0.4444
24683SOL    HW175490   6.894   7.301   7.967 -1.0481 -1.2407 -0.7611
24683SOL    HW275491   6.788   7.402   7.928 -1.1048 -0.8894  0.2834
24684SOL     OW75492   1.461   4.112   5.647 -0.2281  0.1654  0.7335
24684SOL    HW175493   1.380   4.146   5.609  0.0524  0.2432  0.1832
24684SOL    HW275494   1.437   4.028   5.685 -0.3199 -0.3846 -0.5016
24685SOL     OW75495   0.713   4.742   5.515  0.2211 -0.0366  0.0938
24685SOL    HW175496   0.739   4.758   5.424  0.8119  1.6825  0.5159
24685SOL    HW275497   0.751   4.657   5.536  0.3607 -0.3063 -1.1695
24686SOL     OW75498   7.747   3.652   7.508 -0.0225 -0.1311  0.2736
24686SOL    HW175499   7.676   3.604   7.464  0.5419  0.2931 -1.1711
24686SOL    HW275500   7.815   3.660   7.441  0.7266  0.8965  1.1258
24687SOL     OW75501   6.592   7.126   4.699  0.0459 -0.3511 -0.2126
24687SOL    HW175502   6.536   7.180   4.643 -0.9798 -0.0772  1.0263
24687SOL    HW275503   6.623   7.186   4.768  0.6372 -0.8552 -0.0252
24688SOL     OW75504   0.058   5.251   5.422 -0.5638  0.0134  0.3761
24688SOL    HW175505   0.021   5.206   5.347 -0.2510 -1.9006  1.3169
24688SOL    HW275506   0.056   5.187   5.493 -0.2943  1.5565  1.8582
24689SOL     OW75507   7.732   4.915   6.299 -0.3974 -0.2354 -0.4134
24689SOL    HW175508   7.701   4.830   6.270  0.8186 -1.1893  0.9098
24689SOL    HW275509   7.757   4.961   6.218  0.7269 -1.8853 -1.0527
24690SOL     OW75510   6.869   4.659   6.016 -0.2077  0.0074  0.3226
24690SOL    HW175511   6.869   4.574   6.059  0.8293  0.6502  1.6837
24690SOL    HW275512   6.781   4.694   6.032  0.2535  0.3733  2.2869
24691SOL     OW75513   0.394   5.405   8.304 -0.0460  0.2298  0.2186
24691SOL    HW175514   0.360   5.478   8.252 -1.8156 -0.7945 -0.1371
24691SOL    HW275515   0.319   5.348   8.318  1.2938 -1.6109  0.3646
24692SOL     OW75516   7.640   7.167   4.697 -0.1479  0.4026 -0.1148
24692SOL    HW175517   7.586   7.129   4.628  0.1371 -1.4563  0.6334
24692SOL    HW275518   7.652   7.259   4.671  0.4489 -0.3757 -2.8004
24693SOL     OW75519   7.626   5.019   6.557  0.5376 -0.1709  0.4418
24693SOL    HW175520   7.689   5.011   6.485  1.6673  2.1371  1.0601
24693SOL    HW275521   7.545   5.048   6.514  1.0462  0.6592  0.0044
24694SOL     OW75522   7.860   7.626   5.422  0.3483  0.2255 -0.2599
24694SOL    HW175523   7.823   7.587   5.501 -0.3507  0.2321 -0.5740
24694SOL    HW275524   7.819   7.713   5.417  0.0368  0.0496 -0.8649
24695SOL     OW75525   7.800   6.873   7.365 -0.5472 -0.2440 -0.2987
24695SOL    HW175526   7.793   6.926   7.285  1.6501 -0.7935 -0.9127
24695SOL    HW275527   7.763   6.788   7.340 -0.3068 -0.2669 -0.5781
24696SOL     OW75528   6.015   4.214   6.145  0.0176 -0.2100 -0.7288
24696SOL    HW175529   6.087   4.206   6.083 -1.0402 -0.1672 -1.9986
24696SOL    HW275530   5.946   4.157   6.110 -0.0956 -1.3798  1.2093
24697SOL     OW75531   7.484   6.308   5.264 -0.1518  0.2738 -0.8174
24697SOL    HW175532   7.499   6.215   5.284 -1.4383  0.1854 -0.1566
24697SOL    HW275533   7.462   6.308   5.171 -0.5020 -0.1365 -0.7409
24698SOL     OW75534   7.757   5.915   6.270  0.4910  0.3337 -0.3358
24698SOL    HW175535   7.726   5.997   6.308  0.9623  0.8073 -0.9510
24698SOL    HW275536   7.848   5.933   6.246  0.5943 -0.3661 -0.4849
24699SOL     OW75537   7.606   7.226   7.407 -0.1931 -0.0693 -0.3057
24699SOL    HW175538   7.544   7.160   7.436  0.6187 -0.8138 -0.2163
24699SOL    HW275539   7.643   7.190   7.326 -0.1763  0.5600 -0.5868
24700SOL     OW75540   6.965   4.151   5.231  0.7190 -0.8962 -0.0579
24700SOL    HW175541   7.034   4.148   5.297 -0.1980 -1.7236  0.9145
24700SOL    HW275542   6.910   4.075   5.251  0.7104 -1.4951 -2.1256
24701SOL     OW75543   0.435   7.403   5.201  0.5698 -0.4314  0.3020
24701SOL    HW175544   0.364   7.353   5.161  0.3414 -0.2588  0.4889
24701SOL    HW275545   0.508   7.341   5.208  0.2837 -0.7412  0.5504
24702SOL     OW75546   0.018   7.446   6.849  0.2976  0.4872 -0.4377
24702SOL    HW175547   0.097   7.404   6.813  0.5169 -0.9181  1.5118
24702SOL    HW275548   0.026   7.538   6.822  2.3122  0.2694 -0.7895
24703SOL     OW75549   5.654   5.460   4.769  0.6390 -0.4122 -0.0795
24703SOL    HW175550   5.703   5.398   4.823  2.6110  1.2284  0.1572
24703SOL    HW275551   5.700   5.461   4.685 -0.2889 -0.3783 -0.6000
24704SOL     OW75552   5.229   6.916   5.461  0.0002 -0.2523  0.3499
24704SOL    HW175553   5.176   6.896   5.538  0.1962 -0.2966  0.4712
24704SOL    HW275554   5.165   6.944   5.395 -0.0891  0.6237  0.7986
24705SOL     OW75555   0.279   7.912   5.814  0.1437  0.4153  0.6474
24705SOL    HW175556   0.195   7.866   5.816  0.1741  0.3479  0.4586
24705SOL    HW275557   0.262   7.989   5.760 -0.4358  1.7055  2.5737
24706SOL     OW75558   0.964   5.925   6.763  0.1614 -0.2506 -0.0487
24706SOL    HW175559   0.975   5.896   6.672  0.4264  1.1745 -0.5088
24706SOL    HW275560   1.045   5.897   6.806  0.9041  0.7339 -0.7506
24707SOL     OW75561   1.096   6.204   5.610  0.4415 -0.2806  0.0191
24707SOL    HW175562   1.156   6.277   5.592 -0.3854  0.2749 -0.5344
24707SOL    HW275563   1.073   6.215   5.703  1.3399 -0.6204  0.2955
24708SOL     OW75564   3.529   7.078   5.817  0.6960  0.5978 -0.4867
24708SOL    HW175565   3.573   7.041   5.893  0.1272 -0.8331 -0.8141
24708SOL    HW275566   3.460   7.134   5.853  0.6167  0.1541  0.0626
24709SOL     OW75567   0.806   7.052   6.694  0.8911 -0.2589 -0.0456
24709SOL    HW175568   0.733   7.114   6.690  1.9027  0.9333 -0.7733
24709SOL    HW275569   0.792   7.004   6.776 -0.5771  0.0857 -0.0610
24710SOL     OW75570   7.453   6.463   4.053 -0.8146 -0.0426 -0.2518
24710SOL    HW175571   7.484   6.373   4.047  0.6144  0.4813 -1.2008
24710SOL    HW275572   7.477   6.503   3.969  1.2041  1.9928  1.1758
24711SOL     OW75573   0.153   6.320   6.908  0.0376 -0.0706 -0.0778
24711SOL    HW175574   0.239   6.289   6.879 -0.2792  0.4310 -1.6387
24711SOL    HW275575   0.137   6.271   6.989  2.4017  0.8917  1.0695
24712SOL     OW75576   7.189   7.154   7.442 -0.4875 -0.4118 -0.2096
24712SOL    HW175577   7.263   7.094   7.445  1.3123  1.5814 -1.4629
24712SOL    HW275578   7.174   7.167   7.348 -0.8403  1.0249  0.0323
24713SOL     OW75579   7.660   5.220   8.102 -0.1426  0.5415 -0.2150
24713SOL    HW175580   7.608   5.298   8.123  0.4897  1.0939 -0.6362
24713SOL    HW275581   7.720   5.249   8.033 -0.9823 -0.7621 -1.5373
24714SOL     OW75582   1.686   0.075   5.893  0.0461 -0.1001 -0.0647
24714SOL    HW175583   1.631   0.066   5.815  0.5932 -1.5063 -0.3214
24714SOL    HW275584   1.745  -0.000   5.889  2.1559  1.4691  0.0799
24715SOL     OW75585   0.745   5.741   5.014 -0.4216  0.3342  0.8126
24715SOL    HW175586   0.726   5.683   5.087  0.4849 -0.5441  0.3704
24715SOL    HW275587   0.661   5.783   4.995 -0.9120 -0.2242  1.6520
24716SOL     OW75588   0.671   6.107   5.778 -0.6125 -0.0908 -0.2889
24716SOL    HW175589   0.642   6.132   5.866 -1.3087 -1.8175  0.0103
24716SOL    HW275590   0.624   6.167   5.720 -0.3913  0.8607  0.4740
24717SOL     OW75591   7.207   5.430   5.062  0.7726 -0.2457  0.0511
24717SOL    HW175592   7.128   5.404   5.014  1.4508 -1.4596 -0.4442
24717SOL    HW275593   7.275   5.373   5.029  1.1159 -1.7558  3.0455
24718SOL     OW75594   6.784   0.664   7.210 -0.9718 -0.3405 -0.4909
24718SOL    HW175595   6.775   0.641   7.118 -0.3228 -0.2861 -0.5724
24718SOL    HW275596   6.854   0.606   7.243 -1.3218 -0.4872  0.0108
24719SOL     OW75597   7.119   5.329   7.617 -0.3227 -0.0560 -0.1189
24719SOL    HW175598   7.134   5.280   7.536  0.3221 -0.0066 -0.0327
24719SOL    HW275599   7.140   5.268   7.687  1.3229  0.5857 -0.0219
24720SOL     OW75600   7.573   6.588   4.281 -0.3975 -0.7685 -0.8637
24720SOL    HW175601   7.562   6.519   4.346  0.3100  0.7015  0.8979
24720SOL    HW275602   7.507   6.568   4.214 -2.2945 -1.4661  1.0860
24721SOL     OW75603   7.604   7.668   6.764 -0.6131  0.1104 -0.1985
24721SOL    HW175604   7.616   7.660   6.859  0.6545  0.8536 -0.2776
24721SOL    HW275605   7.526   7.616   6.746 -0.0083 -1.2884  1.0336
24722SOL     OW75606   6.441   7.843   6.074 -0.1328  0.4513 -0.2432
24722SOL    HW175607   6.389   7.877   6.146 -0.3856 -0.4852  0.0274
24722SOL    HW275608   6.412   7.893   5.998 -0.2286  1.0896  0.2032
24723SOL     OW75609   7.468   6.809   6.502  0.3641 -0.2586  0.1555
24723SOL    HW175610   7.387   6.759   6.488 -1.6698  2.6286  0.8419
24723SOL    HW275611   7.509   6.812   6.416 -2.2909  1.4332 -1.1720
24724SOL     OW75612   1.452   6.456   7.747  0.3233 -0.2063 -0.2817
24724SOL    HW175613   1.457   6.363   7.724 -0.3500 -0.4530  0.5010
24724SOL    HW275614   1.453   6.502   7.664  0.0057 -0.9544 -0.7086
24725SOL     OW75615   0.972   5.915   8.423  0.3964 -0.2225 -0.6439
24725SOL    HW175616   0.888   5.882   8.456  0.1405  0.7970 -0.2248
24725SOL    HW275617   0.959   5.923   8.329  0.4119 -1.1306 -0.7383
24726SOL     OW75618   7.599   6.271   8.188  0.2216 -0.4241  0.4522
24726SOL    HW175619   7.674   6.326   8.163  0.0488  0.1916  1.2698
24726SOL    HW275620   7.526   6.306   8.138  0.1918 -0.1420  0.6904
24727SOL     OW75621   0.740   6.903   7.557 -0.0994 -0.3547  0.0239
24727SOL    HW175622   0.792   6.842   7.610  1.0946 -0.2065 -0.9630
24727SOL    HW275623   0.649   6.878   7.576  0.2349  0.1290  2.6490
24728SOL     OW75624   7.394   6.766   7.491 -0.6203  0.0265  0.2367
24728SOL    HW175625   7.328   6.743   7.426  0.8813  0.5952 -1.6072
24728SOL    HW275626   7.390   6.696   7.556 -2.0298 -0.6995 -0.5829
24729SOL     OW75627   6.976   0.406   7.537  0.2826  0.0993  0.6711
24729SOL    HW175628   6.970   0.468   7.465  0.8465  0.5402  0.9940
24729SOL    HW275629   7.070   0.398   7.555  0.3664 -2.1733 -0.4824
24730SOL     OW75630   0.498   6.806   7.656 -0.4791  0.1679  0.3153
24730SOL    HW175631   0.504   6.859   7.735 -1.6617  0.5622  0.1560
24730SOL    HW275632   0.492   6.716   7.687 -0.6227  0.2982  0.6601
24731SOL     OW75633   1.528   5.467   9.294 -0.1049  0.5185  0.1332
24731SOL    HW175634   1.589   5.469   9.368  0.5461 -1.4163 -0.2875
24731SOL    HW275635   1.584   5.456   9.217 -0.8467  1.2835 -0.5235
24732SOL     OW75636   0.834   0.340   8.091 -0.2223 -0.4617  0.4121
24732SOL    HW175637   0.797   0.420   8.128 -1.8475 -1.5380  1.2594
24732SOL    HW275638   0.761   0.299   8.044  0.5467 -1.4731  0.0482
24733SOL     OW75639   7.010   7.646   6.386  0.2412 -0.0254 -0.4897
24733SOL    HW175640   7.008   7.572   6.447 -0.7846  1.0641  0.8876
24733SOL    HW275641   7.090   7.694   6.408 -0.7141  1.0242  0.9118
24734SOL     OW75642   6.153   6.076   9.053 -0.1020 -0.2972  0.1011
24734SOL    HW175643   6.226   6.136   9.069  1.2615 -1.6161 -0.8682
24734SOL    HW275644   6.099   6.082   9.132  1.1505  0.6060  0.9173
24735SOL     OW75645   6.164   5.924   9.511  0.2846  0.1537 -0.4467
24735SOL    HW175646   6.090   5.906   9.569 -0.2107  1.5202 -0.6015
24735SOL    HW275647   6.185   5.840   9.472 -0.9946 -0.3281 -0.1616
24736SOL     OW75648   7.076   6.785   9.905 -0.1656  0.3148  0.0004
24736SOL    HW175649   7.107   6.722   9.840  1.6625 -0.1909  1.2861
24736SOL    HW275650   7.115   6.868   9.879 -0.2888  0.3324 -0.1291
24737SOL     OW75651   7.442   5.563   6.499 -0.8629 -0.4091  0.1253
24737SOL    HW175652   7.361   5.614   6.489 -1.0035 -0.4800  0.8118
24737SOL    HW275653   7.455   5.559   6.594 -0.7395 -1.4789  0.0686
24738SOL     OW75654   6.256   6.812   9.257 -0.4587  0.0193  0.2903
24738SOL    HW175655   6.277   6.787   9.168 -0.8554 -0.0315  0.2098
24738SOL    HW275656   6.316   6.884   9.277 -0.3147 -0.0254  0.0141
24739SOL     OW75657   7.014   6.735   9.311  0.0051  0.0772 -0.0647
24739SOL    HW175658   7.047   6.653   9.349 -1.0272 -0.5916 -0.5741
24739SOL    HW275659   7.078   6.757   9.243  1.0577  0.4853  1.0205
24740SOL     OW75660   0.753   6.075   8.771  0.5527  0.1015 -0.0497
24740SOL    HW175661   0.826   6.080   8.833 -0.8314 -1.2307  1.8292
24740SOL    HW275662   0.760   6.154   8.718  2.4924  0.7232  1.0628
24741SOL     OW75663   0.665   7.221   8.268 -0.2906 -0.1243  0.1496
24741SOL    HW175664   0.671   7.193   8.177  0.0424  1.0389 -0.2044
24741SOL    HW275665   0.663   7.140   8.318 -0.7345 -0.7843 -0.9056
24742SOL     OW75666   6.977   0.487   7.238 -0.1354  0.1844  0.2213
24742SOL    HW175667   7.067   0.488   7.206 -1.1522  1.0952 -2.9388
24742SOL    HW275668   6.958   0.394   7.253  0.9780 -0.1088 -0.0680
24743SOL     OW75669   7.200   7.582   9.948 -0.2579 -0.3442 -0.3087
24743SOL    HW175670   7.156   7.501   9.975  1.4148 -0.6558  1.8542
24743SOL    HW275671   7.214   7.630  10.030  0.7840  1.0862 -1.2652
24744SOL     OW75672   7.021   7.057   7.675  0.3241 -0.6913 -0.4594
24744SOL    HW175673   7.109   7.051   7.714  0.2894  1.5717  0.0980
24744SOL    HW275674   7.020   7.142   7.631 -1.1939 -1.2386 -1.5595
24745SOL     OW75675   7.280   7.939   7.246  0.0576  0.0152  0.1455
24745SOL    HW175676   7.369   7.954   7.277 -0.3045  2.1483  0.2658
24745SOL    HW275677   7.254   7.856   7.287  1.5731 -0.0899  0.9701
24746SOL     OW75678   1.660   4.308   6.840  0.1417 -0.4978 -0.0853
24746SOL    HW175679   1.596   4.253   6.794 -0.7334  1.1326 -0.8958
24746SOL    HW275680   1.742   4.293   6.794 -0.0020 -1.3816 -0.0682
24747SOL     OW75681   0.678   6.043   7.037 -0.0155  0.1635 -0.6280
24747SOL    HW175682   0.633   6.117   7.078  1.9846  0.9983  0.1797
24747SOL    HW275683   0.656   5.968   7.092  0.7525  0.8383  0.6323
24748SOL     OW75684   7.671   5.667   7.001  0.0641 -0.1109 -0.3629
24748SOL    HW175685   7.675   5.572   6.999 -2.0596 -0.2417 -1.8257
24748SOL    HW275686   7.694   5.691   7.091 -1.6484 -2.1584  0.6873
24749SOL     OW75687   0.504   7.086   8.872 -0.6950  0.1025 -0.0699
24749SOL    HW175688   0.479   7.178   8.870 -0.5000  0.2074  1.2779
24749SOL    HW275689   0.599   7.086   8.860 -0.7234  0.0605 -0.2966
24750SOL     OW75690   7.038   7.204   8.586  0.5620  0.0810  0.0666
24750SOL    HW175691   7.031   7.232   8.677  0.5596  1.8867 -0.4541
24750SOL    HW275692   7.025   7.109   8.589  0.3753  0.1313  1.9130
24751SOL     OW75693   7.373   7.105   8.824  0.1481  0.0846 -0.1340
24751SOL    HW175694   7.464   7.075   8.827 -0.3525 -1.4707  0.5123
24751SOL    HW275695   7.378   7.191   8.782  1.8168 -0.3464 -0.9370
24752SOL     OW75696   6.589   5.945   8.261 -0.1904  0.0931  0.7037
24752SOL    HW175697   6.566   5.862   8.220 -2.1843  1.2439 -0.7258
24752SOL    HW275698   6.637   5.992   8.192 -0.7786  0.8395  0.7935
24753SOL     OW75699   6.894   6.566   8.995 -0.2583 -0.0411 -0.1683
24753SOL    HW175700   6.861   6.650   8.963  0.2975  0.2204 -0.0671
24753SOL    HW275701   6.919   6.583   9.086  2.0161  0.3244 -0.7913
24754SOL     OW75702   7.203   0.431   8.641 -0.3801  0.4873  0.1964
24754SOL    HW175703   7.166   0.349   8.607 -0.2267 -0.0639  1.3124
24754SOL    HW275704   7.243   0.406   8.725  2.9917  0.9224 -1.1166
24755SOL     OW75705   0.258   7.361   8.885  0.0925  0.1973 -0.2564
24755SOL    HW175706   0.349   7.368   8.857  0.4097 -0.9841  0.4023
24755SOL    HW275707   0.208   7.396   8.812  1.0114 -0.4461 -1.2369
24756SOL     OW75708   7.012   6.963   8.217  0.7916  0.1847 -0.2066
24756SOL    HW175709   7.104   6.938   8.223  0.6708  0.0344  1.4813
24756SOL    HW275710   6.969   6.915   8.288 -0.8635 -0.8180 -1.8069
24757SOL     OW75711   7.447   4.517   7.339  0.2165 -0.1315  0.1334
24757SOL    HW175712   7.483   4.453   7.278  0.5815  1.4981 -1.4530
24757SOL    HW275713   7.353   4.520   7.319  0.2848  0.1915 -0.1359
24758SOL     OW75714   7.210   6.423   7.379 -0.4386 -0.2252  0.5356
24758SOL    HW175715   7.194   6.517   7.390 -0.6758 -0.2796  0.6716
24758SOL    HW275716   7.175   6.403   7.293  0.8833  0.0859 -0.0909
24759SOL     OW75717   1.326   5.969   9.297  0.1542  0.0800 -0.0216
24759SOL    HW175718   1.339   6.019   9.377 -0.3719 -2.0023  1.4532
24759SOL    HW275719   1.411   5.971   9.253  1.0798 -0.4822  1.6680
24760SOL     OW75720   0.085   7.154   8.561 -0.1247 -0.0070 -0.4500
24760SOL    HW175721   0.146   7.223   8.532 -1.7774  1.4910 -0.5261
24760SOL    HW275722   0.102   7.081   8.501  1.4661  0.4116 -0.5735
24761SOL     OW75723   1.354   6.452   7.000  0.0497  0.1484  0.3692
24761SOL    HW175724   1.326   6.413   6.917 -1.3021 -1.0006  1.3069
24761SOL    HW275725   1.273   6.486   7.039  0.9251  2.3989  0.4102
24762SOL     OW75726   6.925   4.954   9.892  0.3890  0.8714  0.1515
24762SOL    HW175727   6.896   5.025   9.949  0.7205  2.0412 -1.0895
24762SOL    HW275728   6.956   4.998   9.813 -3.0774 -0.7470 -2.3823
24763SOL     OW75729   1.208   6.239   7.503 -0.1860 -0.0288 -0.2243
24763SOL    HW175730   1.165   6.155   7.488 -0.4245  0.4183 -2.4293
24763SOL    HW275731   1.299   6.216   7.524 -0.3236 -0.8599 -0.5056
24764SOL     OW75732   7.542   6.151   7.275 -0.5507 -0.5122  0.2054
24764SOL    HW175733   7.524   6.245   7.274  2.0143  0.0562 -1.0317
24764SOL    HW275734   7.618   6.142   7.333 -0.2794 -1.6863 -0.3119
24765SOL     OW75735   6.077   6.972   8.346 -0.0830  0.1870  0.4016
24765SOL    HW175736   6.099   6.898   8.290 -0.0846 -1.0392  1.9515
24765SOL    HW275737   5.996   7.006   8.309 -1.3145 -1.9959  0.9240
24766SOL     OW75738   6.110   6.527   8.520  0.0872 -0.2201 -0.2271
24766SOL    HW175739   6.056   6.481   8.456  1.6776 -1.0524 -1.0399
24766SOL    HW275740   6.189   6.553   8.471  1.0748 -0.3196  1.2361
24767SOL     OW75741   5.941   7.660   8.456 -0.1459 -0.7435 -0.0082
24767SOL    HW175742   5.884   7.619   8.521 -0.0321 -0.1998  0.4429
24767SOL    HW275743   5.885   7.722   8.410 -0.0304 -0.5419  0.1224
24768SOL     OW75744   0.269   6.632   5.745 -0.3093  0.9941 -0.0879
24768SOL    HW175745   0.300   6.721   5.759  1.2638  0.3082  1.1126
24768SOL    HW275746   0.344   6.587   5.706 -1.6605  0.5871 -2.4643
24769SOL     OW75747   0.411   5.202   7.575 -0.0317  0.1587  0.0525
24769SOL    HW175748   0.318   5.185   7.588  0.0829  0.0430  0.7887
24769SOL    HW275749   0.431   5.163   7.490 -0.3937 -0.8974  0.4322
24770SOL     OW75750   0.184   4.410   7.531 -0.0153 -0.3972 -0.3511
24770SOL    HW175751   0.124   4.482   7.550  1.5755  0.9367 -0.1528
24770SOL    HW275752   0.218   4.383   7.616 -0.4678 -1.2684 -0.4432
24771SOL     OW75753   6.418   6.207  10.023 -0.3734 -1.4037  0.0026
24771SOL    HW175754   6.494   6.173  10.070 -0.4281 -1.3975  0.0949
24771SOL    HW275755   6.351   6.218  10.090  0.1804  0.5279  0.2923
24772SOL     OW75756   5.583   7.013   9.451 -0.7897 -0.3040  0.1248
24772SOL    HW175757   5.655   7.075   9.435 -0.9177  0.4902  2.2595
24772SOL    HW275758   5.504   7.063   9.431 -0.7984 -0.9625 -1.5796
24773SOL     OW75759   6.291   0.995   9.654 -0.4277 -0.2505 -0.2383
24773SOL    HW175760   6.376   1.039   9.650 -0.6356  0.4410  1.6548
24773SOL    HW275761   6.265   0.984   9.563  1.7765 -0.6912 -0.8872
24774SOL     OW75762   1.104   6.699   6.809 -0.6171 -0.0022 -0.1425
24774SOL    HW175763   1.066   6.613   6.826 -0.5840  0.1155  0.5609
24774SOL    HW275764   1.150   6.689   6.725 -3.8674  0.3977 -2.1525
24775SOL     OW75765   0.351   6.866  11.640  0.1599 -0.4104 -0.1851
24775SOL    HW175766   0.290   6.819  11.584 -1.1375  1.1357 -0.1412
24775SOL    HW275767   0.431   6.813  11.638 -1.3912 -2.9238  0.4169
24776SOL     OW75768   0.053   7.153   6.791  0.0198 -0.3786  0.2123
24776SOL    HW175769   0.005   7.236   6.793 -0.1452 -0.4443 -0.6194
24776SOL    HW275770   0.058   7.126   6.883 -0.6509  0.1353  0.4103
24777SOL     OW75771   7.714   5.418   7.435 -0.3899  0.1193 -0.0271
24777SOL    HW175772   7.631   5.378   7.409  0.9552 -1.6409 -1.8945
24777SOL    HW275773   7.758   5.439   7.353  1.8624 -0.8724  0.8319
24778SOL     OW75774   7.292   7.846   9.092  0.7128 -0.4155  0.5393
24778SOL    HW175775   7.207   7.884   9.116  0.6669 -0.8125  1.0150
24778SOL    HW275776   7.285   7.829   8.998  0.2916 -0.3781  0.5627
24779SOL     OW75777   7.601   6.539   7.851  0.0422 -0.0909 -0.2895
24779SOL    HW175778   7.603   6.490   7.933  0.6164  1.7142  0.8281
24779SOL    HW275779   7.510   6.533   7.821  0.2951 -2.6396 -0.7550
24780SOL     OW75780   6.474   6.396   7.978  0.3608 -0.4365  0.3373
24780SOL    HW175781   6.436   6.452   7.911  2.0087  0.6528  0.2546
24780SOL    HW275782   6.519   6.327   7.930 -0.6520 -1.1836  0.4175
24781SOL     OW75783   7.716   7.196  10.515 -0.3134  0.1313  0.3316
24781SOL    HW175784   7.732   7.286  10.541 -1.9180  0.2266  1.0710
24781SOL    HW275785   7.801   7.164  10.484  1.0269  0.9093  2.9858
24782SOL     OW75786   6.082   7.049   9.891  0.9907  0.4172 -0.1234
24782SOL    HW175787   6.019   7.020   9.825  1.6784 -0.5702 -0.3670
24782SOL    HW275788   6.137   7.112   9.846  0.5825  0.7991 -0.0912
24783SOL     OW75789   0.647   6.443   8.003 -0.9077  0.5304  0.1563
24783SOL    HW175790   0.656   6.363   8.054 -0.0043  0.4747 -0.0825
24783SOL    HW275791   0.702   6.429   7.926 -0.0345  1.7333  0.5414
24784SOL     OW75792   7.427   1.020   8.397 -0.3125 -0.2388 -0.4690
24784SOL    HW175793   7.511   1.066   8.392 -0.9133  1.0271  0.5261
24784SOL    HW275794   7.442   0.938   8.351  1.4664 -0.0346 -0.3202
24785SOL     OW75795   6.555   7.088  10.084  0.1752 -0.1668  0.0105
24785SOL    HW175796   6.541   7.145  10.008 -0.0895 -2.0874 -1.4485
24785SOL    HW275797   6.469   7.052  10.103  0.1623  0.6247  1.5260
24786SOL     OW75798   1.763   7.355   9.103 -0.0673 -0.8890 -0.5555
24786SOL    HW175799   1.848   7.398   9.094  0.6463 -1.8690  0.9251
24786SOL    HW275800   1.729   7.349   9.014  1.0255  0.2780 -1.0817
24787SOL     OW75801   6.759   4.449   9.929  0.2605  0.0398  0.3434
24787SOL    HW175802   6.796   4.458   9.841 -1.5475  0.8599 -0.3879
24787SOL    HW275803   6.782   4.360   9.956 -0.8511 -0.9892 -1.8227
24788SOL     OW75804   5.605   5.056   9.813 -0.1805 -0.4550 -0.1187
24788SOL    HW175805   5.637   5.001   9.884  0.0095  0.1537  0.2815
24788SOL    HW275806   5.512   5.069   9.832 -0.1624 -0.4131 -0.0574
24789SOL     OW75807   1.156   6.680   7.753  0.5037  0.2356  0.0270
24789SOL    HW175808   1.196   6.612   7.806 -0.8371 -0.5879  0.0263
24789SOL    HW275809   1.121   6.634   7.676 -1.3236  0.7229  0.5190
24790SOL     OW75810   1.349   7.547  10.311  0.3389 -0.0538  0.0461
24790SOL    HW175811   1.388   7.474  10.360 -0.2349 -0.8577 -0.6660
24790SOL    HW275812   1.384   7.626  10.353 -0.8214 -0.6887  2.3420
24791SOL     OW75813   7.568   7.725  10.409 -0.2420  0.6097  0.3010
24791SOL    HW175814   7.519   7.663  10.355  0.3463 -0.6430  1.1790
24791SOL    HW275815   7.599   7.791  10.346  1.0110 -1.1769 -1.0536
24792SOL     OW75816   5.623   7.971  10.299 -0.7488 -0.5227 -0.1681
24792SOL    HW175817   5.692   8.031  10.328 -0.7236  0.0307 -1.3295
24792SOL    HW275818   5.542   8.012  10.330 -0.8258  0.7208 -1.8609
24793SOL     OW75819   7.295   7.947  10.203 -0.1424  0.3675  0.1020
24793SOL    HW175820   7.212   7.994  10.211 -0.3512  0.5755 -2.4667
24793SOL    HW275821   7.271   7.855  10.213 -0.4105  0.5335  1.0277
24794SOL     OW75822   6.044   4.198  10.765  0.1525 -0.3000 -0.4719
24794SOL    HW175823   6.066   4.276  10.816 -1.7801 -0.7703  1.2245
24794SOL    HW275824   6.039   4.229  10.675  1.8554  0.9692 -0.1892
24795SOL     OW75825   0.106   7.793  11.376  0.2980 -0.0508  0.2745
24795SOL    HW175826   0.127   7.864  11.316 -1.5946  0.3581  0.0443
24795SOL    HW275827   0.081   7.836  11.457 -0.5152 -0.4304  0.2442
24796SOL     OW75828   6.670   6.541  11.190  0.1752  0.1066  0.0819
24796SOL    HW175829   6.581   6.507  11.195  0.4409 -0.4055  1.8088
24796SOL    HW275830   6.704   6.533  11.279  1.0727  2.7098  0.0698
24797SOL     OW75831   7.388   6.075  10.298  0.4419  0.3027 -0.6120
24797SOL    HW175832   7.355   6.041  10.382 -0.7783  0.2473 -1.0966
24797SOL    HW275833   7.481   6.093  10.315  0.3511 -0.2236  0.5901
24798SOL     OW75834   0.442   5.918  11.034 -0.2162 -0.1313  0.1056
24798SOL    HW175835   0.420   5.879  10.950 -0.2120 -0.1832  0.1286
24798SOL    HW275836   0.533   5.896  11.049  0.5630  1.9924 -1.0547
24799SOL     OW75837   5.331   6.624   8.092  0.2794  0.3765 -0.4374
24799SOL    HW175838   5.362   6.575   8.016 -0.6651  1.5092 -1.5807
24799SOL    HW275839   5.289   6.702   8.056  2.1293  2.3188  1.3448
24800SOL     OW75840   6.173   5.541   9.645 -0.0004 -0.3131 -0.7356
24800SOL    HW175841   6.148   5.449   9.640 -0.2227 -0.1756 -2.7176
24800SOL    HW275842   6.191   5.556   9.738 -2.4943 -1.6771  0.0515
24801SOL     OW75843   7.875   5.987  10.719  0.7056  0.3249  0.5699
24801SOL    HW175844   7.929   5.911  10.743  0.1126  0.5619  2.8091
24801SOL    HW275845   7.905   6.057  10.776 -0.9922  0.8499  0.8685
24802SOL     OW75846   5.789   4.126  10.546  0.3401 -0.3563  0.0360
24802SOL    HW175847   5.838   4.208  10.546  2.2001 -1.4048  0.1162
24802SOL    HW275848   5.710   4.145  10.496 -0.5893  2.1772  2.2344
24803SOL     OW75849   7.652   1.200   9.654 -0.4636  0.0875  0.7818
24803SOL    HW175850   7.691   1.229   9.737  0.7598 -1.3806  0.7760
24803SOL    HW275851   7.566   1.166   9.679  0.0242 -0.6461  1.5249
24804SOL     OW75852   0.417   6.452  10.307 -0.0870  0.2445 -0.5995
24804SOL    HW175853   0.340   6.496  10.272 -0.2083  1.1443  0.7572
24804SOL    HW275854   0.488   6.515  10.295 -0.0816  0.4641  0.5069
24805SOL     OW75855   7.776   6.438  10.990 -0.0739 -0.1292 -0.9909
24805SOL    HW175856   7.746   6.529  10.983  1.0356  0.3559  0.1216
24805SOL    HW275857   7.704   6.386  10.954 -0.6292  1.1976 -1.8704
24806SOL     OW75858   5.729   6.496   9.676 -0.0873 -0.0135  0.0681
24806SOL    HW175859   5.703   6.405   9.694  0.3429  0.0998  1.3407
24806SOL    HW275860   5.822   6.499   9.701  0.4538  0.2945 -1.8131
24807SOL     OW75861   0.465   0.334  10.613  0.2379  0.6168 -0.9068
24807SOL    HW175862   0.470   0.241  10.588 -0.7024  0.9518 -2.4364
24807SOL    HW275863   0.421   0.333  10.698 -0.3809 -0.3132 -1.2197
24808SOL     OW75864   7.296   4.907  11.447 -0.1899  0.4880  0.6695
24808SOL    HW175865   7.240   4.942  11.378  0.3088  0.1229  0.0688
24808SOL    HW275866   7.251   4.930  11.528  0.0844  2.4720  0.3076
24809SOL     OW75867   0.857   6.683  10.198  0.3493 -0.3236  0.4623
24809SOL    HW175868   0.777   6.729  10.222  0.8614  2.0029 -1.7998
24809SOL    HW275869   0.829   6.620  10.132  0.3350  0.7145 -0.5731
24810SOL     OW75870   0.089   5.940  10.112 -0.2445 -0.5308 -0.0883
24810SOL    HW175871   0.016   5.984  10.067  0.0961  1.2609  0.9959
24810SOL    HW275872   0.110   5.998  10.185 -0.3730 -3.0098  2.0730
24811SOL     OW75873   0.341   5.926   8.646  0.1609 -0.1569 -0.6433
24811SOL    HW175874   0.334   5.957   8.737  0.5104 -1.7518 -0.0519
24811SOL    HW275875   0.407   5.857   8.649  0.2847 -0.1336 -2.1593
24812SOL     OW75876   0.270   6.628  11.006 -0.1069  0.2868  0.1177
24812SOL    HW175877   0.181   6.591  10.999 -0.7656  1.1659  2.7100
24812SOL    HW275878   0.257   6.722  11.000  1.0525  0.3685 -2.1693
24813SOL     OW75879   6.709   5.706  10.627  0.5758  0.0476  0.0476
24813SOL    HW175880   6.630   5.760  10.630 -0.4469 -1.3548 -0.3248
24813SOL    HW275881   6.712   5.664  10.713 -0.3085 -1.5026 -0.6344
24814SOL     OW75882   0.170   5.067  11.453  0.4079 -0.0217 -0.0271
24814SOL    HW175883   0.145   5.159  11.449  0.4381 -0.0353 -0.6674
24814SOL    HW275884   0.195   5.045  11.363 -1.6281 -1.2171 -0.3644
24815SOL     OW75885   5.422   7.863   9.071 -0.3997 -0.2073  0.5544
24815SOL    HW175886   5.449   7.792   9.129 -0.4729  0.3495  1.2862
24815SOL    HW275887   5.378   7.926   9.129 -2.4909 -0.6525 -0.4337
24816SOL     OW75888   0.084   0.627  10.991  0.5070 -0.0389  0.1282
24816SOL    HW175889  -0.011   0.617  10.984  0.3187  2.0154 -0.8524
24816SOL    HW275890   0.119   0.554  10.939 -0.5515 -0.1109 -0.5274
24817SOL     OW75891   5.366   6.750   9.548  0.0303 -0.0461 -0.2516
24817SOL    HW175892   5.344   6.657   9.547  0.1379 -0.0694 -0.4289
24817SOL    HW275893   5.416   6.764   9.468 -0.9546  0.4006 -0.8084
24818SOL     OW75894   7.075   5.861  10.416  0.6003 -0.1403  0.6339
24818SOL    HW175895   6.995   5.817  10.445  0.4483  0.1760  0.7048
24818SOL    HW275896   7.070   5.859  10.321 -0.3745  1.4191  0.6141
24819SOL     OW75897   0.035   7.425  10.575 -0.0919 -0.1798  0.2525
24819SOL    HW175898  -0.044   7.461  10.534  0.8832 -0.3996 -1.9699
24819SOL    HW275899   0.097   7.497  10.575  0.9563 -1.0029 -1.6850
24820SOL     OW75900   6.382   0.259  11.039 -0.1774 -0.3950  0.1723
24820SOL    HW175901   6.465   0.215  11.058 -0.6453 -1.0794  0.6668
24820SOL    HW275902   6.339   0.201  10.975 -0.0125  0.2704 -0.5575
24821SOL     OW75903   0.327   5.617  11.337 -0.3961  0.5582  0.5246
24821SOL    HW175904   0.356   5.661  11.257 -1.9795  1.4136  0.3734
24821SOL    HW275905   0.369   5.531  11.334  0.2552  0.9048 -0.7902
24822SOL     OW75906   1.162   6.346  11.148 -0.4252 -0.4728  0.8773
24822SOL    HW175907   1.190   6.423  11.198  0.1632 -0.5074  0.6059
24822SOL    HW275908   1.077   6.370  11.113 -0.9869 -0.5490  2.1313
24823SOL     OW75909   0.311   6.780  12.291 -0.6129 -0.0105 -0.4246
24823SOL    HW175910   0.376   6.714  12.317  0.1257  0.8285 -0.0771
24823SOL    HW275911   0.228   6.733  12.293  0.0734 -1.4060 -1.9458
24824SOL     OW75912   5.382   0.090  10.332 -0.2121 -0.1254  0.0613
24824SOL    HW175913   5.372   0.173  10.286  0.1273 -0.2892 -0.3162
24824SOL    HW275914   5.346   0.106  10.419  2.1629  1.1738  0.8739
24825SOL     OW75915   6.606   5.612   9.972 -0.1296  0.5778 -0.5157
24825SOL    HW175916   6.614   5.645  10.061  2.3777  0.5199 -0.6518
24825SOL    HW275917   6.524   5.563   9.972 -0.7470  1.4921  1.4232
24826SOL     OW75918   7.560   7.366  11.576  0.0293  0.3349 -0.0114
24826SOL    HW175919   7.520   7.453  11.585  0.0894  0.3091  0.5259
24826SOL    HW275920   7.487   7.305  11.583 -0.0273  0.3395 -0.4931
24827SOL     OW75921   6.197   6.121  10.202 -0.3820 -0.0721 -0.3315
24827SOL    HW175922   6.168   6.086  10.118 -1.9281 -0.0093  0.1570
24827SOL    HW275923   6.149   6.203  10.212  0.2974  0.2612  0.3165
24828SOL     OW75924   5.881   6.575  10.027  0.2753  0.1788  0.1315
24828SOL    HW175925   5.904   6.485  10.005  2.9501  0.8402 -0.1520
24828SOL    HW275926   5.905   6.626   9.950 -0.1319  1.2798  0.7055
24829SOL     OW75927   5.630   7.731  10.154 -0.1878  0.2519  0.7090
24829SOL    HW175928   5.545   7.724  10.111 -0.6178 -0.1108  1.6040
24829SOL    HW275929   5.648   7.826  10.157 -0.6667  0.3422  0.7307
24830SOL     OW75930   7.876   7.933  10.190 -0.1004  0.1025 -0.6931
24830SOL    HW175931   7.832   7.973  10.114 -0.0196  0.0445 -0.7709
24830SOL    HW275932   7.845   7.843  10.190 -0.8552  0.3455 -0.0908
24831SOL     OW75933   7.399   0.671  11.707 -0.4100  0.0668  0.3283
24831SOL    HW175934   7.489   0.674  11.675 -1.2422  3.0316 -2.2172
24831SOL    HW275935   7.402   0.716  11.791  0.1850  3.0857 -1.1450
24832SOL     OW75936   0.363   4.727  11.295  0.5404  0.2824  0.7851
24832SOL    HW175937   0.441   4.686  11.259 -0.7831 -0.6660 -1.2093
24832SOL    HW275938   0.309   4.655  11.326 -0.2872  0.7681  0.5204
24833SOL     OW75939   5.964   6.624   9.626 -0.2803  0.1823 -0.2776
24833SOL    HW175940   5.895   6.621   9.561 -0.6039 -1.0243  0.0880
24833SOL    HW275941   6.020   6.696   9.599 -1.7058  1.2240 -0.5477
24834SOL     OW75942   7.566   7.847  11.333 -0.2337 -0.0626  0.0169
24834SOL    HW175943   7.609   7.913  11.278  0.1093  0.3216  0.7448
24834SOL    HW275944   7.634   7.782  11.351 -0.3040 -0.1090  0.1151
24835SOL     OW75945   7.930   6.145  10.035 -0.3696 -0.1316 -0.0935
24835SOL    HW175946   8.016   6.174  10.005  0.5351 -1.0559  1.5220
24835SOL    HW275947   7.881   6.227  10.048  0.0352  0.3787 -1.5491
24836SOL     OW75948   0.806   6.688  11.351 -0.6809  0.2341 -0.5009
24836SOL    HW175949   0.767   6.724  11.272  0.9545  1.9844 -0.5797
24836SOL    HW275950   0.772   6.744  11.422  0.0325  0.4442 -0.3201
24837SOL     OW75951   0.053   7.788   9.002 -0.1849 -0.8224  0.5259
24837SOL    HW175952   0.016   7.733   8.933  0.6669 -1.4702  0.5823
24837SOL    HW275953   0.003   7.870   8.995  0.2832 -0.6356 -1.2726
24838SOL     OW75954   6.661   6.938  11.869 -0.0272  0.1207 -0.2875
24838SOL    HW175955   6.729   6.871  11.859 -0.5656 -0.5584  0.3864
24838SOL    HW275956   6.581   6.897  11.835 -0.3120  0.5108 -0.1024
24839SOL     OW75957   0.566   4.812  10.699 -0.3839 -0.4660 -0.5984
24839SOL    HW175958   0.606   4.756  10.766 -1.7307  0.6564  1.2426
24839SOL    HW275959   0.498   4.757  10.659 -0.4954 -0.7264 -0.0600
24840SOL     OW75960   0.400   7.539   9.190  0.1843 -0.1211 -0.7738
24840SOL    HW175961   0.364   7.574   9.109  1.8819  1.3548 -0.9419
24840SOL    HW275962   0.325   7.536   9.251 -0.7207  0.4547 -1.8357
24841SOL     OW75963   0.225   6.683  11.459  0.5649 -0.1733 -0.0987
24841SOL    HW175964   0.130   6.689  11.449  0.4655 -2.0805 -0.7222
24841SOL    HW275965   0.250   6.607  11.406  2.0559 -1.4776  2.2956
24842SOL     OW75966   5.392   0.225   8.828 -0.0340 -0.2356 -0.4713
24842SOL    HW175967   5.420   0.253   8.916  0.0361 -0.9476 -0.2623
24842SOL    HW275968   5.320   0.284   8.806  0.2350  0.2349 -0.1191
24843SOL     OW75969   0.236   6.908  11.264 -0.6710 -0.2255 -0.3451
24843SOL    HW175970   0.190   6.977  11.311  0.2271  1.1137 -1.3543
24843SOL    HW275971   0.293   6.868  11.329 -2.2676 -1.0669  0.6172
24844SOL     OW75972   6.757   5.161   8.522 -0.3360  0.0852 -0.5591
24844SOL    HW175973   6.846   5.154   8.557 -0.1379 -0.8993 -1.2152
24844SOL    HW275974   6.769   5.185   8.431 -0.5379 -2.9777 -1.5164
24845SOL     OW75975   1.075   4.820  10.198 -0.0161 -0.5832  0.3050
24845SOL    HW175976   1.113   4.887  10.254 -0.6214 -0.1116  0.1643
24845SOL    HW275977   1.149   4.785  10.148  0.3933 -0.4308  0.7922
24846SOL     OW75978   0.352   6.807  10.025  0.3389  0.1486  0.2728
24846SOL    HW175979   0.396   6.745   9.966  2.1734  2.9647 -1.5948
24846SOL    HW275980   0.395   6.794  10.110  1.6364 -0.2497 -0.4177
24847SOL     OW75981   0.527   0.135   9.973 -0.3559 -0.4835  0.4778
24847SOL    HW175982   0.456   0.080  10.004 -0.0625 -0.7435  0.6980
24847SOL    HW275983   0.558   0.091   9.893 -0.3045 -0.4853  0.4988
24848SOL     OW75984   7.779   7.992  10.759 -0.0698 -0.1775  0.6259
24848SOL    HW175985   7.809   7.909  10.723  1.2859  0.3782  0.4270
24848SOL    HW275986   7.697   7.971  10.805  0.1909 -1.5822  0.4658
24849SOL     OW75987   6.564   5.776   9.251 -0.5302 -1.0432  0.4027
24849SOL    HW175988   6.533   5.734   9.170 -0.0667 -2.8446  1.1258
24849SOL    HW275989   6.648   5.735   9.269 -0.1178  0.1263  1.2339
24850SOL     OW75990   7.298   0.758  10.080 -0.0852  0.3543 -0.2346
24850SOL    HW175991   7.295   0.747   9.985 -0.4691  3.4149 -0.6805
24850SOL    HW275992   7.213   0.794  10.103  1.2787  3.3210  0.6179
24851SOL     OW75993   7.761   4.510  10.473  0.2470 -0.0827  0.5079
24851SOL    HW175994   7.826   4.449  10.509 -1.0803 -2.1458 -0.4047
24851SOL    HW275995   7.810   4.563  10.410  0.9053 -2.3589 -1.0067
24852SOL     OW75996   0.593   5.876  12.345 -0.3346 -0.0780  0.0173
24852SOL    HW175997   0.522   5.925  12.304 -0.2934 -0.9691 -1.1678
24852SOL    HW275998   0.672   5.904  12.298 -0.2462 -0.9315 -0.3455
24853SOL     OW75999   6.507   6.212   0.573  0.3141 -0.1486  0.0512
24853SOL    HW176000   6.531   6.282   0.514  2.7184 -1.1973 -0.3287
24853SOL    HW276001   6.474   6.142   0.516 -1.5622  0.4078  0.3820
24854SOL     OW76002   7.736   6.805   0.170 -0.2125 -0.1755 -1.1276
24854SOL    HW176003   7.727   6.890   0.213 -0.6188  0.5317 -2.5477
24854SOL    HW276004   7.789   6.753   0.231  0.4461  1.2331 -0.4455
24855SOL     OW76005   6.157   7.767  11.747 -0.3911 -0.1780  0.2628
24855SOL    HW176006   6.201   7.714  11.681  0.7704  1.0789 -0.0183
24855SOL    HW276007   6.064   7.749  11.734 -0.0901 -1.1547 -0.6613
24856SOL     OW76008   7.461   7.357  11.848  0.4923  0.5363  0.2361
24856SOL    HW176009   7.517   7.281  11.835  0.5669  0.3128  1.7390
24856SOL    HW276010   7.394   7.349  11.780 -0.8991 -2.1861  1.7829
24857SOL     OW76011   7.230   7.058   0.106 -1.0788 -0.3050  0.1797
24857SOL    HW176012   7.172   7.010   0.165 -1.0698  0.0928  0.5164
24857SOL    HW276013   7.263   7.131   0.159 -1.5786  0.4343 -0.4996
24858SOL     OW76014   7.357   6.548   9.959 -0.1450 -0.3259 -0.0575
24858SOL    HW176015   7.425   6.488   9.928 -0.1785 -0.0023 -0.7905
24858SOL    HW276016   7.314   6.578   9.879  0.2725  1.1457  0.2340
24859SOL     OW76017   0.626   6.650   0.307 -0.4299  0.5074 -0.0184
24859SOL    HW176018   0.539   6.652   0.268 -0.9205  0.1285  1.0247
24859SOL    HW276019   0.625   6.720   0.372 -1.4905 -2.0916  3.0329
24860SOL     OW76020   7.618   7.141  11.351 -0.2384 -0.2213  0.6248
24860SOL    HW176021   7.566   7.210  11.309  1.2355  0.3166 -0.3838
24860SOL    HW276022   7.558   7.103  11.415 -1.5854  0.9741  0.1496
24861SOL     OW76023   0.703   4.702   0.015  0.0953 -0.2426 -0.3317
24861SOL    HW176024   0.656   4.664   0.089  1.0518  1.2496  1.1090
24861SOL    HW276025   0.795   4.685   0.033  0.5349  2.3244  0.1875
24862SOL     OW76026   7.554   7.605   0.116  1.1214  0.0101  0.3395
24862SOL    HW176027   7.536   7.585   0.208  2.0411  0.7067  0.6852
24862SOL    HW276028   7.629   7.665   0.118  2.3601 -1.4220 -0.9611
24863SOL     OW76029   0.226   5.992  10.593 -0.1065 -0.6652  0.7309
24863SOL    HW176030   0.215   5.922  10.658  2.4362 -0.3951  1.5691
24863SOL    HW276031   0.267   6.063  10.642 -1.2841  0.8761 -0.4420
24864SOL     OW76032   1.075   5.448   0.851 -0.3567 -0.4349 -0.1772
24864SOL    HW176033   1.143   5.405   0.799 -0.6429 -1.3053  0.1509
24864SOL    HW276034   1.117   5.464   0.936 -0.4703 -0.7301 -0.0627
24865SOL     OW76035   0.908   6.310  11.732  0.1813  0.5771  0.1940
24865SOL    HW176036   0.962   6.278  11.805 -1.6755  1.6323  2.1675
24865SOL    HW276037   0.930   6.403  11.726  0.0892  0.5639 -0.3903
24866SOL     OW76038   1.597   5.915  11.804  0.4877  0.5078 -0.4287
24866SOL    HW176039   1.629   5.962  11.881 -0.1450 -1.1837  0.9205
24866SOL    HW276040   1.502   5.918  11.812  0.3991 -2.5601  0.7583
24867SOL     OW76041   6.318   6.175   0.130  0.0782  0.8305  0.3292
24867SOL    HW176042   6.306   6.269   0.138  0.2914  0.7590  1.7721
24867SOL    HW276043   6.337   6.161   0.037  0.2380  2.2205  0.1309
24868SOL     OW76044   0.862   5.567   1.988 -0.1501 -0.0755  0.1824
24868SOL    HW176045   0.841   5.641   1.931 -1.5613  0.8870  1.8696
24868SOL    HW276046   0.792   5.565   2.053  0.8632 -1.7339  1.3179
24869SOL     OW76047   0.531   5.598  10.829  0.0408 -0.0212 -0.5889
24869SOL    HW176048   0.612   5.565  10.868 -0.7107  0.6909  1.7396
24869SOL    HW276049   0.483   5.520  10.803  1.0497 -0.4772 -1.1579
24870SOL     OW76050   7.183   6.444  10.866  0.1136 -0.1443  0.0720
24870SOL    HW176051   7.266   6.480  10.896  0.4700 -0.6253 -0.3274
24870SOL    HW276052   7.145   6.513  10.812  0.5926 -0.1998 -0.3414
24871SOL     OW76053   0.406   5.457  11.682 -0.2093  0.3327  0.1394
24871SOL    HW176054   0.477   5.506  11.723  0.1327  2.0579 -2.3379
24871SOL    HW276055   0.450   5.393  11.626 -0.5402  1.4494 -1.4524
24872SOL     OW76056   1.213   6.014  11.593  0.4231 -0.3680  0.1026
24872SOL    HW176057   1.205   5.992  11.501  0.3407  1.1164 -0.2795
24872SOL    HW276058   1.239   6.106  11.593 -2.0409  0.4412  1.5470
24873SOL     OW76059   7.504   6.516  12.320  0.1543 -0.6165  0.0667
24873SOL    HW176060   7.585   6.475  12.351 -0.4582 -2.2581 -0.3757
24873SOL    HW276061   7.525   6.552  12.234  1.5458  2.9112  1.6864
24874SOL     OW76062   0.422   7.154   0.827 -0.4438  0.6656  0.3017
24874SOL    HW176063   0.398   7.196   0.910  1.2297  0.2585  1.0167
24874SOL    HW276064   0.359   7.083   0.817 -0.8190  0.8795  1.0863
24875SOL     OW76065   7.367   6.876  11.613 -0.0753  0.1451  0.3016
24875SOL    HW176066   7.353   6.955  11.561 -0.0125 -0.1963 -0.2397
24875SOL    HW276067   7.459   6.854  11.597 -0.7546 -1.5396 -1.6865
24876SOL     OW76068   2.354   6.345  11.622 -0.0273  0.4629 -0.6008
24876SOL    HW176069   2.446   6.360  11.647 -0.6043  2.9238  0.3700
24876SOL    HW276070   2.354   6.259  11.580  2.4851 -0.1877  0.5404
24877SOL     OW76071   1.331   5.863  11.787 -0.5157 -0.7356 -0.6471
24877SOL    HW176072   1.299   5.919  11.717 -0.8427  0.2185  0.2357
24877SOL    HW276073   1.253   5.843  11.839 -0.1703 -0.8804 -0.1795
24878SOL     OW76074   7.868   5.033  12.174 -0.1382  0.6737  0.6011
24878SOL    HW176075   7.875   5.128  12.183 -0.7794  0.8197 -0.3126
24878SOL    HW276076   7.949   5.007  12.130 -1.2298  1.2144 -1.9020
24879SOL     OW76077   6.933   6.254  10.531  0.6094  0.0136 -0.0725
24879SOL    HW176078   6.947   6.317  10.461  2.6425  0.5128  0.7070
24879SOL    HW276079   7.018   6.210  10.541  0.0496 -0.8216  1.3104
24880SOL     OW76080   7.123   6.649  10.689  0.0389  0.0019  0.2558
24880SOL    HW176081   7.048   6.595  10.664 -0.1084 -0.0090  0.7100
24880SOL    HW276082   7.179   6.649  10.612  0.5573 -1.6565  0.5965
24881SOL     OW76083   7.424   6.562  10.934  0.3009 -0.1758 -0.0373
24881SOL    HW176084   7.496   6.613  10.897  0.2838  1.0297  1.4894
24881SOL    HW276085   7.369   6.627  10.979 -0.1639 -1.4369  1.2884
24882SOL     OW76086   0.035   5.582  12.488 -0.1406 -0.5794  0.4353
24882SOL    HW176087   0.072   5.569  12.402 -0.2858  0.0888  0.2639
24882SOL    HW276088  -0.041   5.638  12.473  0.5298  0.5557  1.1302
24883SOL     OW76089   2.001   6.553   9.484 -0.1382 -0.0868 -0.3101
24883SOL    HW176090   2.010   6.586   9.395 -0.7754  0.8351 -0.0437
24883SOL    HW276091   2.019   6.628   9.540 -0.1548 -0.5498  0.3381
24884SOL     OW76092   7.677   0.737  11.636 -0.3968  0.2591  0.5328
24884SOL    HW176093   7.723   0.751  11.719 -0.8300  0.1867  0.7882
24884SOL    HW276094   7.702   0.811  11.582 -1.9606  1.5828  1.5479
24885SOL     OW76095   7.712   5.268  11.881 -0.4818  0.1980 -0.2018
24885SOL    HW176096   7.803   5.297  11.876  0.1089 -1.6280 -0.9307
24885SOL    HW276097   7.674   5.293  11.796 -0.7531  1.1534  0.1843
24886SOL     OW76098   0.352   5.634  12.293 -0.1060 -0.0572  0.0574
24886SOL    HW176099   0.266   5.624  12.252  0.8817  0.0157 -2.2003
24886SOL    HW276100   0.407   5.569  12.249  1.2115  0.5140  0.8078
24887SOL     OW76101   6.289   6.472   0.101  0.0422 -0.3088 -0.3084
24887SOL    HW176102   6.323   6.561   0.105  0.4202 -0.2755 -2.6122
24887SOL    HW276103   6.251   6.456   0.187 -1.3627  2.6104 -0.2617
24888SOL     OW76104   7.591   7.077   1.432  0.0261  1.0490  0.3702
24888SOL    HW176105   7.653   7.072   1.505  0.4044 -0.3490 -0.0148
24888SOL    HW276106   7.634   7.133   1.368  1.3089 -0.5444 -0.2332
24889SOL     OW76107   1.002   4.799  12.034  0.1652 -0.0066 -0.9167
24889SOL    HW176108   1.090   4.816  12.001  0.2943 -0.3707 -0.7675
24889SOL    HW276109   0.985   4.708  12.009  0.5869 -0.5682  0.7120
24890SOL     OW76110   7.380   5.465  11.399 -0.7066  0.4233 -0.0020
24890SOL    HW176111   7.428   5.396  11.446 -1.3158  0.4462  0.6745
24890SOL    HW276112   7.303   5.420  11.363  0.7118 -0.0417 -2.7036
24891SOL     OW76113   6.992   0.315   9.592  0.2846  0.1660 -0.8144
24891SOL    HW176114   7.071   0.367   9.609  0.5093 -0.4285  0.0081
24891SOL    HW276115   6.958   0.351   9.509 -0.2957  2.5008  0.3367
24892SOL     OW76116   7.938   7.069  10.212 -0.0356  0.1889 -0.1435
24892SOL    HW176117   7.902   7.023  10.287 -0.2499  0.0920 -0.3052
24892SOL    HW276118   8.025   7.032  10.200 -0.3700 -0.4887 -0.5396
24893SOL     OW76119   0.021   4.120  11.505  0.2377  0.3677 -0.1407
24893SOL    HW176120   0.017   4.203  11.458  1.9429  0.0616 -0.8921
24893SOL    HW276121   0.101   4.126  11.558  0.8086 -1.0874 -0.8101
24894SOL     OW76122   6.821   7.426  10.601  0.0075 -0.3310 -0.5207
24894SOL    HW176123   6.729   7.453  10.603  0.2467  0.5301 -0.4963
24894SOL    HW276124   6.861   7.481  10.534  0.7490  0.1525  0.2884
24895SOL     OW76125   0.645   5.703  10.074  0.1064  0.3504  0.0809
24895SOL    HW176126   0.572   5.652  10.107 -0.2660 -0.0327 -1.2497
24895SOL    HW276127   0.723   5.657  10.106 -0.2145 -1.1246 -1.1099
24896SOL     OW76128   0.028   5.589  11.381  0.2435 -0.2812 -0.0091
24896SOL    HW176129  -0.017   5.665  11.418  0.2580 -1.0530  1.6709
24896SOL    HW276130   0.121   5.606  11.396  0.2091 -0.9729  1.1468
24897SOL     OW76131   7.653   7.761   1.805  0.5053  0.0365 -0.1199
24897SOL    HW176132   7.566   7.720   1.814  0.6120 -0.0056  0.7412
24897SOL    HW276133   7.714   7.687   1.801  0.7028  0.0784  1.4776
24898SOL     OW76134   7.207   7.842   3.484 -0.2672 -0.7183 -0.4405
24898SOL    HW176135   7.184   7.790   3.407  0.9388 -2.3126  0.2045
24898SOL    HW276136   7.302   7.829   3.493 -0.1382  0.6964  0.4256
24899SOL     OW76137   0.573   7.185   2.632  0.0432  0.3040  0.3043
24899SOL    HW176138   0.582   7.276   2.605  1.8827  0.0686  0.0229
24899SOL    HW276139   0.481   7.164   2.615  0.2096  1.2899 -2.1878
24900SOL     OW76140   6.293   0.025   1.932  0.4957  0.4852  0.5662
24900SOL    HW176141   6.318   0.050   1.843  1.1172 -0.0019  0.5989
24900SOL    HW276142   6.373   0.037   1.983  0.4146 -0.2120  0.8584
24901SOL     OW76143   6.546   7.567   0.978  0.0929  0.0493 -0.5432
24901SOL    HW176144   6.613   7.585   0.912  1.1035  0.8094  0.6503
24901SOL    HW276145   6.581   7.604   1.059 -0.2700 -2.4397  0.8515
24902SOL     OW76146   7.531   7.982   1.467 -0.1065  0.3903 -0.5390
24902SOL    HW176147   7.512   8.060   1.414 -0.0572  0.4114 -0.5264
24902SOL    HW276148   7.579   7.924   1.407  0.6199  0.7316 -0.3036
24903SOL     OW76149   6.906   6.748  12.068  0.0296 -0.3394 -0.2334
24903SOL    HW176150   6.935   6.805  12.139 -0.2411 -0.2978 -0.1567
24903SOL    HW276151   6.813   6.735  12.083 -0.0792 -0.1458 -0.7073
24904SOL     OW76152   7.127   7.889  12.135  0.3111 -0.2702  0.3321
24904SOL    HW176153   7.149   7.970  12.180  0.7741  0.0956 -0.5261
24904SOL    HW276154   7.055   7.852  12.187 -0.4012  1.0418  0.3488
24905SOL     OW76155   7.583   5.839  11.813 -0.5503  0.0896 -0.3811
24905SOL    HW176156   7.492   5.821  11.787 -0.5653 -0.6666  0.1726
24905SOL    HW276157   7.594   5.932  11.798 -0.8502 -0.1318 -2.2388
24906SOL     OW76158   7.200   0.627   1.293  0.0496 -0.8236 -0.0303
24906SOL    HW176159   7.273   0.584   1.248 -0.1307 -0.8889 -0.2666
24906SOL    HW276160   7.195   0.584   1.378  1.6541  0.6361  0.8620
24907SOL     OW76161   1.921   0.576   2.337 -0.0737  0.0476  0.1639
24907SOL    HW176162   1.983   0.561   2.409  0.3410 -0.1828 -0.2372
24907SOL    HW276163   1.941   0.507   2.273 -1.6230 -0.8668  0.6003
24908SOL     OW76164   6.591   0.370   0.329 -0.3658 -0.1914  0.1029
24908SOL    HW176165   6.595   0.326   0.414 -1.0310 -1.0120 -0.2824
24908SOL    HW276166   6.681   0.366   0.297  0.4468  2.2320  1.7764
24909SOL     OW76167   0.501   5.607   3.577  0.5612  0.0886 -0.1948
24909SOL    HW176168   0.432   5.615   3.510  0.2536 -0.5906  0.0262
24909SOL    HW276169   0.487   5.520   3.614  1.0341  0.2743  0.4232
24910SOL     OW76170   0.643   6.773   2.419  0.6399  0.2041 -0.0108
24910SOL    HW176171   0.656   6.841   2.353 -0.9575  0.1052 -0.4933
24910SOL    HW276172   0.560   6.732   2.394  1.3290 -1.6344  0.5172
24911SOL     OW76173   7.563   1.360   2.067 -0.2257  0.2009  0.2582
24911SOL    HW176174   7.559   1.417   1.990 -1.9589  1.0855  0.9600
24911SOL    HW276175   7.634   1.396   2.120 -1.5551  2.0180  0.8917
24912SOL     OW76176   0.201   7.801   0.172 -0.6332 -0.1302 -0.3362
24912SOL    HW176177   0.164   7.837   0.091 -0.2722  1.4418  0.1632
24912SOL    HW276178   0.285   7.846   0.181  0.0833 -1.4986  0.0782
24913SOL     OW76179   7.409   7.231   1.789  0.3304  0.1602  0.2192
24913SOL    HW176180   7.399   7.285   1.711 -3.0338 -0.2795  0.1975
24913SOL    HW276181   7.372   7.283   1.860 -0.1629 -0.9172  0.7709
24914SOL     OW76182   1.008   7.817   1.817  0.1843  0.1467  0.0870
24914SOL    HW176183   1.039   7.736   1.856 -0.9766  0.0548  0.8481
24914SOL    HW276184   1.079   7.879   1.832  0.8289 -0.5615  0.0332
24915SOL     OW76185   7.882   6.284   1.442  0.1482 -0.4199 -0.5286
24915SOL    HW176186   7.976   6.298   1.437 -0.0807  1.1338 -1.3014
24915SOL    HW276187   7.860   6.234   1.363  0.1795  0.3195 -1.0188
24916SOL     OW76188   1.628   0.365   3.670  0.3624 -0.6149 -0.2348
24916SOL    HW176189   1.558   0.395   3.612  0.7293 -2.3217 -1.6699
24916SOL    HW276190   1.588   0.363   3.757 -1.0422 -0.5391 -0.8441
24917SOL     OW76191   7.953   7.374   2.585  0.2406  0.3751  0.2124
24917SOL    HW176192   7.902   7.455   2.591  0.9916  0.9009 -0.3563
24917SOL    HW276193   7.887   7.306   2.569 -0.3696  0.9100  0.3908
24918SOL     OW76194   7.989   6.925   4.247  0.0120  0.2065 -0.3463
24918SOL    HW176195   8.032   6.853   4.292  2.0098  1.2912 -0.4048
24918SOL    HW276196   7.973   6.892   4.158  0.6568 -0.2735 -0.2923
24919SOL     OW76197   7.430   7.128   3.255 -0.3015 -0.6534  0.1940
24919SOL    HW176198   7.394   7.069   3.188 -1.2808 -0.8557  0.8824
24919SOL    HW276199   7.354   7.156   3.305  0.3660 -0.1007  0.9153
24920SOL     OW76200   6.313   7.342   2.924 -0.0843 -0.5284 -0.1362
24920SOL    HW176201   6.225   7.376   2.940  0.8596  1.3838  1.4709
24920SOL    HW276202   6.310   7.306   2.835 -2.1799  0.4738 -0.5249
24921SOL     OW76203   1.123   7.794   3.170  0.1368  0.4595 -0.5543
24921SOL    HW176204   1.039   7.753   3.190  0.0648  1.3780  1.2492
24921SOL    HW276205   1.188   7.738   3.212  0.5558 -0.7062 -2.6405
24922SOL     OW76206   7.344   7.750   2.681 -0.1611  0.1833  0.0261
24922SOL    HW176207   7.357   7.675   2.624  0.7421  0.2704  0.1008
24922SOL    HW276208   7.279   7.804   2.636 -1.4604 -1.0345  0.3725
24923SOL     OW76209   7.804   0.131   2.630  0.4697 -0.5168  0.0723
24923SOL    HW176210   7.722   0.111   2.676  0.3371  0.8024  0.4615
24923SOL    HW276211   7.873   0.109   2.692  0.3546 -0.5341  0.1951
24924SOL     OW76212   7.889   6.599   2.191 -0.0561  0.5510 -0.0647
24924SOL    HW176213   7.815   6.542   2.210  0.7830 -0.4308  0.3458
24924SOL    HW276214   7.966   6.545   2.209  0.7788  0.9758 -2.1041
24925SOL     OW76215   1.353   0.587   5.597 -0.1587 -0.3243 -0.3786
24925SOL    HW176216   1.403   0.600   5.516 -1.1213 -1.0503 -1.1069
24925SOL    HW276217   1.262   0.599   5.571 -0.4629 -0.2472  0.6811
24926SOL     OW76218   0.521   7.270   3.327  0.1596 -0.5550 -0.0356
24926SOL    HW176219   0.582   7.215   3.278  0.8651 -1.2557  1.5858
24926SOL    HW276220   0.573   7.305   3.399 -0.8116  0.6329  0.1228
24927SOL     OW76221   1.604   7.414   2.595  0.2374 -0.1188 -0.0915
24927SOL    HW176222   1.633   7.327   2.571  0.7960 -0.2260  0.9401
24927SOL    HW276223   1.678   7.453   2.643 -0.2743  0.6399  0.1137
24928SOL     OW76224   7.271   7.302   4.840  0.2399 -0.4185 -0.4416
24928SOL    HW176225   7.310   7.377   4.795 -0.7439 -0.3343 -1.2011
24928SOL    HW276226   7.180   7.301   4.810 -0.7595  0.1866  2.2639
24929SOL     OW76227   7.709   7.558   3.641 -0.1462  0.2717  0.4449
24929SOL    HW176228   7.797   7.533   3.670  0.3306  1.6881  0.2527
24929SOL    HW276229   7.721   7.593   3.553 -1.0438 -0.3658  0.0522
24930SOL     OW76230   6.643   0.185   1.883  0.1018 -0.2603  0.0199
24930SOL    HW176231   6.659   0.198   1.976  0.3319  0.4042 -0.1057
24930SOL    HW276232   6.718   0.133   1.853  1.0765  1.1921 -0.1742
24931SOL     OW76233   0.505   0.616   4.809  0.7014  0.3704  0.4830
24931SOL    HW176234   0.437   0.627   4.875  0.5047  2.5617  0.0048
24931SOL    HW276235   0.459   0.626   4.725  1.3283  0.0435  0.0939
24932SOL     OW76236   7.503   7.952   3.750 -0.4232 -0.8304 -0.2786
24932SOL    HW176237   7.459   8.017   3.695  1.2866 -0.0459 -0.8168
24932SOL    HW276238   7.453   7.950   3.831 -0.9348  0.6521 -0.5323
24933SOL     OW76239   7.021   1.381   4.519  0.1063  0.3231 -0.1473
24933SOL    HW176240   6.969   1.455   4.487 -0.0902  0.0072 -0.5614
24933SOL    HW276241   6.957   1.316   4.546  0.2820  0.1176 -0.2191
24934SOL     OW76242   6.463   6.397   2.148  0.1639  0.3334  0.0427
24934SOL    HW176243   6.425   6.434   2.227  0.1715 -2.1699  1.2916
24934SOL    HW276244   6.557   6.396   2.164  0.3908  1.8089 -0.9525
24935SOL     OW76245   5.986   0.596   2.157 -0.1303  0.0555  0.2930
24935SOL    HW176246   5.961   0.688   2.159 -1.6063 -0.3219  0.6869
24935SOL    HW276247   5.947   0.562   2.076  0.2670 -0.2665  0.2299
24936SOL     OW76248   0.396   6.471   1.181  0.2153 -0.1632  0.3284
24936SOL    HW176249   0.326   6.418   1.221 -0.4968  0.4517 -0.0854
24936SOL    HW276250   0.473   6.414   1.184 -0.3720 -0.9693  0.5194
24937SOL     OW76251   6.147   0.130   4.486  0.4456  0.5351  0.2714
24937SOL    HW176252   6.120   0.039   4.482 -2.0767  1.1803  0.5781
24937SOL    HW276253   6.215   0.139   4.420  0.9555 -1.6075  0.4508
24938SOL     OW76254   0.167   0.843   4.886 -0.6384  0.4059 -0.4138
24938SOL    HW176255   0.183   0.788   4.963 -1.9694 -0.7512 -0.9149
24938SOL    HW276256   0.148   0.929   4.922 -3.2063 -0.5531  0.7449
24939SOL     OW76257   0.104   0.431   5.228  0.8879  0.2258 -0.2786
24939SOL    HW176258   0.190   0.392   5.247  0.4781  0.0637  1.4370
24939SOL    HW276259   0.061   0.436   5.314 -0.4278  1.2471 -0.9646
24940SOL     OW76260   0.286   6.674   4.584  0.4100 -0.1480 -1.0074
24940SOL    HW176261   0.208   6.685   4.529  1.0098 -1.3591 -2.1755
24940SOL    HW276262   0.350   6.733   4.546  0.1501  0.6568 -0.2072
24941SOL     OW76263   7.495   0.212   5.981 -0.2965 -0.0356  0.4589
24941SOL    HW176264   7.534   0.128   6.002 -0.8812 -1.3786 -3.0067
24941SOL    HW276265   7.409   0.189   5.945  0.1991  1.7958 -2.1812
24942SOL     OW76266   6.623   7.388   4.855  0.5356  0.5137 -0.1839
24942SOL    HW176267   6.559   7.455   4.830  1.1939  1.2027 -0.0462
24942SOL    HW276268   6.686   7.435   4.909  0.1144 -0.5796  1.2952
24943SOL     OW76269   0.934   7.051   3.458  0.0721  0.0900  0.7101
24943SOL    HW176270   0.845   7.041   3.426 -0.5394  3.2284  1.0882
24943SOL    HW276271   0.944   7.145   3.473  3.3161 -0.1872  1.1148
24944SOL     OW76272   7.598   7.595   4.400  0.3257  0.3588  0.3378
24944SOL    HW176273   7.669   7.536   4.372 -0.8278 -0.9950  0.1559
24944SOL    HW276274   7.546   7.609   4.321  0.9929  2.2964  0.1898
24945SOL     OW76275   6.970   0.029   4.311  0.1833 -0.7239  0.0105
24945SOL    HW176276   6.918   0.010   4.233  0.1683  0.5055 -0.3059
24945SOL    HW276277   7.061   0.033   4.279  0.3060 -1.3382  0.2732
24946SOL     OW76278   7.985   7.326   5.973  0.2927  0.0661  0.6335
24946SOL    HW176279   7.911   7.297   6.026  1.4555 -0.0883  2.2255
24946SOL    HW276280   7.994   7.258   5.906 -0.8538 -0.0218  0.5476
24947SOL     OW76281   5.321   0.046   4.624  0.0777  0.8629  0.8572
24947SOL    HW176282   5.355   0.121   4.574  0.5566  1.3812  1.8957
24947SOL    HW276283   5.358  -0.031   4.581 -0.5844  1.1985 -0.3539
24948SOL     OW76284   6.526   0.122   4.947  0.3518  0.4479  0.1782
24948SOL    HW176285   6.614   0.113   4.910 -0.0572 -0.3101 -0.6465
24948SOL    HW276286   6.483   0.040   4.926 -1.4676  1.8320 -1.9146
24949SOL     OW76287   1.707   7.321   4.772 -0.2657 -0.0063 -0.8706
24949SOL    HW176288   1.755   7.248   4.810 -1.8560 -0.1116  1.1375
24949SOL    HW276289   1.695   7.297   4.680 -2.4948 -3.3741  0.0852
24950SOL     OW76290   7.042   7.562   6.847 -0.0671 -0.2367 -0.0925
24950SOL    HW176291   7.110   7.559   6.914 -0.3854 -0.0973  0.2478
24950SOL    HW276292   7.042   7.653   6.817 -1.0785  0.1369  0.9590
24951SOL     OW76293   7.155   6.865   2.880  0.0989 -0.1728 -0.8718
24951SOL    HW176294   7.154   6.933   2.947  0.6226  0.3948 -1.4252
24951SOL    HW276295   7.128   6.785   2.926 -2.9442  0.8320 -0.7309
24952SOL     OW76296   6.736   7.801   5.122 -0.1988  0.7026 -0.1691
24952SOL    HW176297   6.691   7.726   5.160 -0.7431  0.8823 -0.4510
24952SOL    HW276298   6.680   7.876   5.144  0.9579  1.2287  1.2188
24953SOL     OW76299   6.664   7.732   5.701  0.3861 -0.0716  0.3233
24953SOL    HW176300   6.747   7.733   5.654  0.8799 -0.0867  1.1742
24953SOL    HW276301   6.663   7.815   5.749 -1.0163  0.8751 -1.2091
24954SOL     OW76302   0.621   7.902   5.486 -0.0023 -0.5637 -0.6278
24954SOL    HW176303   0.534   7.883   5.522  0.4414  0.8371  1.3275
24954SOL    HW276304   0.605   7.971   5.421 -0.3242 -0.0441 -0.0108
24955SOL     OW76305   7.807   0.290   4.219  0.3667 -0.0240 -0.4342
24955SOL    HW176306   7.841   0.208   4.256  1.6968  0.1617 -1.1798
24955SOL    HW276307   7.885   0.338   4.191 -0.3408  1.8044  0.5652
24956SOL     OW76308   0.093   7.839   3.406  0.3099  0.4825  0.2537
24956SOL    HW176309   0.080   7.915   3.349 -1.0693 -1.0634 -1.6268
24956SOL    HW276310   0.178   7.804   3.380 -0.6472 -0.6668 -1.5404
24957SOL     OW76311   7.136   7.702   3.265  0.0215  0.3024 -0.3305
24957SOL    HW176312   7.076   7.630   3.282  1.0590 -1.2101 -2.5140
24957SOL    HW276313   7.093   7.754   3.196  0.3197  0.3806 -0.4616
24958SOL     OW76314   7.257   7.569   7.018  0.1943 -0.4495  0.2185
24958SOL    HW176315   7.331   7.627   7.031  0.1159 -0.1349 -0.6433
24958SOL    HW276316   7.280   7.489   7.065  2.1012 -1.1894 -1.8018
24959SOL     OW76317   1.076   0.018   4.571  0.3929 -0.3433  0.4220
24959SOL    HW176318   1.113  -0.055   4.621  2.6399  1.0803  0.9450
24959SOL    HW276319   1.119   0.096   4.606 -2.3850  1.3859  0.3403
24960SOL     OW76320   7.319   7.137   7.989 -0.5844 -0.0120  0.0848
24960SOL    HW176321   7.277   7.134   8.075 -1.6394 -0.9607 -0.4345
24960SOL    HW276322   7.409   7.110   8.005 -0.7043  0.0453  0.9221
24961SOL     OW76323   7.920   0.733   6.104 -0.4292  0.1781  0.1986
24961SOL    HW176324   7.996   0.758   6.156  2.0861 -2.6626 -1.7154
24961SOL    HW276325   7.940   0.764   6.015 -0.1856 -2.6986 -0.8550
24962SOL     OW76326   0.396   1.626   7.220 -0.2635 -0.4852 -0.3831
24962SOL    HW176327   0.377   1.535   7.194 -2.2571  0.0109 -0.8302
24962SOL    HW276328   0.311   1.670   7.215 -0.2804  0.3873  4.0958
24963SOL     OW76329   0.190   0.631   6.851  0.3400  0.7511  0.2908
24963SOL    HW176330   0.185   0.696   6.921 -3.5320  0.5222  0.4451
24963SOL    HW276331   0.171   0.547   6.893  0.2005  0.2666 -0.6873
24964SOL     OW76332   7.422   6.214   5.612 -0.3562 -0.0680 -0.4155
24964SOL    HW176333   7.332   6.241   5.633  0.0963  1.8818 -0.8328
24964SOL    HW276334   7.474   6.245   5.686  0.2498  0.7201 -1.1486
24965SOL     OW76335   7.668   7.211   6.430  0.6412  0.2316 -0.1155
24965SOL    HW176336   7.613   7.198   6.353  1.8443 -1.2095 -0.7592
24965SOL    HW276337   7.610   7.195   6.504  0.2999 -1.9731 -0.7896
24966SOL     OW76338   7.508   5.257   5.188  0.1172 -0.4375  0.4851
24966SOL    HW176339   7.457   5.327   5.230  0.2511  0.0730 -0.1847
24966SOL    HW276340   7.599   5.283   5.202  0.1650  0.1914 -0.8302
24967SOL     OW76341   0.115   1.184   7.979  0.0226  0.0908  0.3244
24967SOL    HW176342   0.089   1.213   8.067  0.4249  0.5478  0.3013
24967SOL    HW276343   0.106   1.262   7.925 -0.3183 -0.2188 -0.0618
24968SOL     OW76344   7.542   1.446   8.392 -0.1000  0.4966  0.0544
24968SOL    HW176345   7.625   1.412   8.359 -0.0799 -0.8156  1.3284
24968SOL    HW276346   7.477   1.385   8.359 -0.2387  0.0149  1.1752
24969SOL     OW76347   7.677   7.456   7.024  0.5352  0.0846 -0.2524
24969SOL    HW176348   7.724   7.436   6.943  0.0170 -0.7423 -0.3611
24969SOL    HW276349   7.663   7.370   7.065  1.2302  0.5250  0.9680
24970SOL     OW76350   7.950   0.091   6.673 -0.3365 -0.3492  0.0123
24970SOL    HW176351   7.868   0.059   6.711 -1.1158  0.1878 -1.1777
24970SOL    HW276352   7.964   0.176   6.715 -0.8763 -0.0313 -0.4379
24971SOL     OW76353   0.669   7.836   7.408 -0.3465  0.5034  0.3018
24971SOL    HW176354   0.628   7.752   7.430 -1.0458  0.8278  0.2878
24971SOL    HW276355   0.650   7.848   7.315 -0.2170  0.6576  0.2961
24972SOL     OW76356   0.475   6.593   7.844  0.6786  0.2575  0.3747
24972SOL    HW176357   0.548   6.563   7.898 -0.6536 -0.7409  1.7352
24972SOL    HW276358   0.416   6.635   7.906 -0.9919 -1.0904 -0.2211
24973SOL     OW76359   7.716   0.294   6.310  0.2235  0.1351 -0.2382
24973SOL    HW176360   7.694   0.296   6.216 -1.2501 -1.4073  0.0272
24973SOL    HW276361   7.660   0.363   6.348  2.3128  2.2043 -0.7028
24974SOL     OW76362   6.851   1.009   5.550 -0.0863  0.2696  0.3997
24974SOL    HW176363   6.765   0.995   5.591 -0.1887  0.2643  0.1859
24974SOL    HW276364   6.912   0.961   5.605 -0.2604  0.0404  0.3994
24975SOL     OW76365   0.124   7.353   7.399 -0.0800  0.1861  0.6903
24975SOL    HW176366   0.169   7.340   7.482 -0.6190 -0.0640  0.9440
24975SOL    HW276367   0.058   7.285   7.396  1.7527 -1.6688 -1.2423
24976SOL     OW76368   7.438   1.285   7.947 -0.4299 -0.2453 -0.5343
24976SOL    HW176369   7.397   1.241   7.872 -2.9720  0.6527  0.2303
24976SOL    HW276370   7.454   1.374   7.917  0.8092 -0.5325 -0.7546
24977SOL     OW76371   1.803   1.345   5.062  0.0272 -0.2398 -0.2154
24977SOL    HW176372   1.856   1.421   5.087 -0.0565  0.2866 -1.5707
24977SOL    HW276373   1.713   1.377   5.062 -0.3793 -1.1542  2.1603
24978SOL     OW76374   0.098   7.707   5.793 -0.6910 -0.5651 -0.3728
24978SOL    HW176375   0.042   7.762   5.738 -0.3482  0.1842 -0.0001
24978SOL    HW276376   0.068   7.618   5.778 -2.2684 -0.1540  0.1366
24979SOL     OW76377   7.931   7.332   8.890  0.6375  0.7230  0.1157
24979SOL    HW176378   7.885   7.271   8.832 -1.3082  2.5160 -0.3586
24979SOL    HW276379   7.988   7.382   8.832  1.3080  0.2266  0.3248
24980SOL     OW76380   6.259   0.577   7.322 -0.0130  0.3754  0.2003
24980SOL    HW176381   6.194   0.511   7.348  0.5145  0.6772  2.5341
24980SOL    HW276382   6.320   0.531   7.266 -0.4588 -0.7616  0.6231
24981SOL     OW76383   7.900   7.493   9.108  0.0432 -0.2449 -0.4447
24981SOL    HW176384   7.880   7.443   9.187 -0.7082  0.3907 -0.2139
24981SOL    HW276385   7.903   7.428   9.038  1.0436 -0.8544  0.1546
24982SOL     OW76386   0.523   7.711   9.874 -0.1651  0.9549  0.3672
24982SOL    HW176387   0.571   7.642   9.919 -0.7398  0.4186  0.1715
24982SOL    HW276388   0.591   7.767   9.835  0.3077  0.7709  0.9195
24983SOL     OW76389   5.820   0.063   8.864  0.2741  0.2304  0.1462
24983SOL    HW176390   5.791   0.144   8.904  0.2829  0.4358 -0.2565
24983SOL    HW276391   5.783   0.065   8.775 -0.6823 -0.7342  0.5048
24984SOL     OW76392   7.116   0.042   8.300  0.1514  0.3127  0.4500
24984SOL    HW176393   7.054   0.032   8.372  0.7113  0.8396  1.0129
24984SOL    HW276394   7.069   0.007   8.224 -1.4577  2.0705  0.5375
24985SOL     OW76395   6.546   6.776   7.942  0.1443  0.3960 -0.2280
24985SOL    HW176396   6.584   6.777   8.030 -1.0470  0.1783  0.2992
24985SOL    HW276397   6.490   6.698   7.941  2.1306 -1.1312 -2.0684
24986SOL     OW76398   6.864   0.597   6.940  0.3814  0.2060 -0.2059
24986SOL    HW176399   6.912   0.678   6.919 -1.3214  0.9607 -1.4375
24986SOL    HW276400   6.845   0.558   6.854  1.1663 -1.5485  0.3644
24987SOL     OW76401   7.483   6.398   7.392  0.7002 -0.4452  0.2042
24987SOL    HW176402   7.494   6.339   7.466  0.6129  0.1036  0.6534
24987SOL    HW276403   7.393   6.430   7.399  0.6746 -0.4255 -0.1666
24988SOL     OW76404   7.197   7.580   7.665  0.4032  0.0857 -0.0614
24988SOL    HW176405   7.130   7.610   7.727 -0.2209 -1.6171  0.1508
24988SOL    HW276406   7.242   7.660   7.638 -1.7445  1.3233 -0.2397
24989SOL     OW76407   7.294   0.402   9.159 -0.0413 -0.1301  0.0093
24989SOL    HW176408   7.299   0.359   9.244  0.8142 -0.1148 -0.0283
24989SOL    HW276409   7.337   0.486   9.171  0.4219 -0.2819 -0.5279
24990SOL     OW76410   7.231   7.457  10.519 -0.1759 -0.0180 -0.7179
24990SOL    HW176411   7.170   7.412  10.577  0.1878  0.0443 -0.2832
24990SOL    HW276412   7.190   7.542  10.502  0.1114  0.3049  0.1417
24991SOL     OW76413   7.678   0.099   8.029  0.1965  0.0745 -0.2770
24991SOL    HW176414   7.660   0.102   8.123 -0.9657 -0.3900 -0.4645
24991SOL    HW276415   7.608   0.152   7.990 -0.1017 -0.7965 -0.9593
24992SOL     OW76416   7.492   0.508  10.114 -0.0797 -0.2665  0.5583
24992SOL    HW176417   7.457   0.443  10.052  0.9061 -0.0206 -0.2783
24992SOL    HW276418   7.442   0.587  10.096 -0.9904 -0.6582  1.2865
24993SOL     OW76419   7.065   0.112   9.325  0.0181 -0.3751 -0.0896
24993SOL    HW176420   6.994   0.088   9.385 -0.1562 -1.1457 -0.5844
24993SOL    HW276421   7.056   0.051   9.251  1.8344 -1.2279  0.3148
24994SOL     OW76422   0.082   7.515   8.732 -0.3633  0.1322 -0.2345
24994SOL    HW176423   0.072   7.480   8.643  0.2255  1.5981 -0.9000
24994SOL    HW276424   0.068   7.609   8.723  1.4267  0.5604  0.9159
24995SOL     OW76425   5.507   7.675   9.259 -0.3180  0.3133  0.3327
24995SOL    HW176426   5.549   7.716   9.335  0.7227 -0.4886  0.2172
24995SOL    HW276427   5.567   7.604   9.234  0.0177  1.3403 -2.0125
24996SOL     OW76428   6.743   6.181   7.821  0.1428 -0.2726 -0.5970
24996SOL    HW176429   6.725   6.227   7.739 -1.0065  1.2960  0.4773
24996SOL    HW276430   6.837   6.164   7.819  0.4460  1.3607 -1.4563
24997SOL     OW76431   7.105   7.744   9.739 -0.4361  0.7788  0.4161
24997SOL    HW176432   7.173   7.809   9.754  0.1053  0.3387 -0.0815
24997SOL    HW276433   7.122   7.675   9.804 -2.3312  2.0967  2.4603
24998SOL     OW76434   7.528   0.366   7.574  0.3530 -0.1273  0.2723
24998SOL    HW176435   7.439   0.400   7.587  0.6419  0.7371  0.0676
24998SOL    HW276436   7.524   0.321   7.490 -0.2216 -1.2780  0.8883
24999SOL     OW76437   7.089   7.443   7.389  0.0768  0.2746 -0.4357
24999SOL    HW176438   7.034   7.515   7.358  0.9717  1.0214 -0.3421
24999SOL    HW276439   7.083   7.377   7.320 -0.7131  0.4595 -0.5489
25000SOL     OW76440   6.543   6.571   8.893  0.1015  0.4128  0.2031
25000SOL    HW176441   6.616   6.615   8.850 -1.0747  1.1317 -1.1419
25000SOL    HW276442   6.504   6.515   8.825 -0.0533 -0.6606  1.1498
25001SOL     OW76443   6.857   7.712   9.606 -0.0421 -0.3449  0.1387
25001SOL    HW176444   6.812   7.795   9.616 -1.7848 -1.3802  1.4259
25001SOL    HW276445   6.930   7.716   9.668 -0.1651  0.1869  0.2530
25002SOL     OW76446   7.563   7.642   9.124 -0.4568  0.0090 -0.2518
25002SOL    HW176447   7.477   7.616   9.158 -0.1613 -0.1176  0.4182
25002SOL    HW276448   7.598   7.563   9.083  0.3846 -0.6784  1.6618
25003SOL     OW76449   7.901   0.803  10.726 -0.1027  0.2229  0.1919
25003SOL    HW176450   7.897   0.732  10.790 -1.1401 -0.6333 -0.7804
25003SOL    HW276451   7.947   0.874  10.771  2.0439 -1.4391  0.8166
25004SOL     OW76452   1.112   1.135   9.797 -0.4090 -0.7269 -0.0285
25004SOL    HW176453   1.164   1.207   9.832 -0.7069 -0.1900 -0.6804
25004SOL    HW276454   1.040   1.125   9.859  0.2430 -1.2359  0.6828
25005SOL     OW76455   7.603   7.660   9.747 -0.1912  0.8431 -0.1198
25005SOL    HW176456   7.681   7.662   9.691  0.9103  2.9388  1.3694
25005SOL    HW276457   7.559   7.743   9.730 -1.8021 -0.0153 -0.4326
25006SOL     OW76458   6.254   0.222   9.555  0.2168  0.1569  0.6294
25006SOL    HW176459   6.313   0.295   9.575 -1.2437  1.5743 -0.0392
25006SOL    HW276460   6.309   0.158   9.509  1.6857  0.4931  1.8439
25007SOL     OW76461   7.114   7.877  11.235 -0.3899  0.0541 -0.0222
25007SOL    HW176462   7.090   7.830  11.314  0.9631  0.1527  0.4755
25007SOL    HW276463   7.115   7.810  11.166 -0.1508 -0.3162  0.3379
25008SOL     OW76464   5.996   7.017   9.635  0.2262 -0.2357  0.7068
25008SOL    HW176465   6.041   6.955   9.577  2.2532  0.0897  1.8397
25008SOL    HW276466   5.909   6.979   9.647  0.8501 -1.9937  0.0448
25009SOL     OW76467   0.174   7.236  10.737  0.1819 -0.4093 -0.4575
25009SOL    HW176468   0.148   7.315  10.690  1.9894  0.3898 -0.1790
25009SOL    HW276469   0.104   7.173  10.718 -1.2697  1.2070 -0.7441
25010SOL     OW76470   0.331   7.505  10.195  0.0719  0.3592 -0.4003
25010SOL    HW176471   0.243   7.486  10.227  0.2285 -0.6237 -0.5265
25010SOL    HW276472   0.318   7.537  10.106 -0.1652  0.3454 -0.3703
25011SOL     OW76473   6.514   0.857  10.487 -0.0723 -0.1881 -0.7355
25011SOL    HW176474   6.534   0.767  10.514  0.4658 -0.1546 -1.0097
25011SOL    HW276475   6.418   0.858  10.478 -0.0709 -0.7759 -0.8897
25012SOL     OW76476   7.204   7.049  10.409  0.3003 -0.4806  0.5059
25012SOL    HW176477   7.286   7.052  10.458  2.9591 -0.9612 -3.4768
25012SOL    HW276478   7.173   7.140  10.408  2.7778  0.4433 -0.7609
25013SOL     OW76479   0.067   0.633  10.563 -0.4049 -0.2932  0.0305
25013SOL    HW176480   0.097   0.702  10.504 -0.0374 -1.7347 -1.5302
25013SOL    HW276481   0.015   0.679  10.629 -2.0410  1.2379 -2.1832
25014SOL     OW76482   7.716   2.379  10.380  0.0378  0.0821  0.3555
25014SOL    HW176483   7.702   2.289  10.350 -0.1191 -0.0493  0.8165
25014SOL    HW276484   7.700   2.433  10.302 -1.0156 -0.2055  0.3654
25015SOL     OW76485   6.980   7.731  10.707  0.4647 -0.0230  0.0093
25015SOL    HW176486   6.980   7.819  10.743 -2.2289 -0.0039  0.1328
25015SOL    HW276487   7.041   7.682  10.763 -0.7417  0.9138  2.2387
25016SOL     OW76488   1.104   7.828  10.079  0.2065 -0.2484 -0.4471
25016SOL    HW176489   1.140   7.813  10.167 -2.1349 -0.0273  0.6144
25016SOL    HW276490   1.099   7.923  10.071 -0.8115 -0.2694 -0.2418
25017SOL     OW76491   5.482   1.003  11.060  0.5154 -0.7331  0.0631
25017SOL    HW176492   5.520   0.933  11.113  1.7262  0.6826  1.1683
25017SOL    HW276493   5.558   1.046  11.020 -0.1219  0.4910  0.1232
25018SOL     OW76494   6.712   1.440   9.084 -0.3061 -0.3868  0.3183
25018SOL    HW176495   6.668   1.355   9.077 -0.6585 -0.2302  0.5826
25018SOL    HW276496   6.678   1.490   9.010 -1.0572 -0.0559  0.8694
25019SOL     OW76497   1.824   7.208   7.768  0.0415  0.0662  0.0101
25019SOL    HW176498   1.746   7.153   7.760 -0.6061  1.0259 -0.3601
25019SOL    HW276499   1.798   7.281   7.823  0.7038  0.3481 -0.0329
25020SOL     OW76500   6.859   7.335   9.964 -0.2982  0.1074  0.3022
25020SOL    HW176501   6.810   7.415   9.946 -0.8636 -0.2338  0.2964
25020SOL    HW276502   6.931   7.335   9.901 -0.7284  0.2361 -0.1905
25021SOL     OW76503   6.547   7.465  10.540 -0.2760  0.0631 -0.3451
25021SOL    HW176504   6.547   7.388  10.483  1.2913 -0.4460  0.2959
25021SOL    HW276505   6.532   7.539  10.481 -0.4114 -0.5999 -1.1585
25022SOL     OW76506   7.526   0.296   0.053 -0.7640  0.2450  0.5517
25022SOL    HW176507   7.601   0.322   0.107  0.1343 -2.0886  0.5566
25022SOL    HW276508   7.465   0.256   0.115  1.2012 -4.4541 -0.1592
25023SOL     OW76509   0.299   2.718  11.901 -0.3753 -0.6428 -0.2582
25023SOL    HW176510   0.215   2.722  11.856 -0.8209 -2.6322  0.2832
25023SOL    HW276511   0.342   2.641  11.864  0.2730 -0.9117  1.0116
25024SOL     OW76512   0.670   0.343  11.938 -0.1267  0.5460  0.0074
25024SOL    HW176513   0.691   0.272  11.878  0.3786  1.7028 -1.2416
25024SOL    HW276514   0.575   0.344  11.941 -0.3019  1.9125 -2.6918
25025SOL     OW76515   7.791   1.846  12.441  0.6980 -0.3356 -0.4509
25025SOL    HW176516   7.747   1.772  12.484 -1.4741  0.5248 -1.0314
25025SOL    HW276517   7.807   1.908  12.512  0.8188 -0.5861 -0.2551
25026SOL     OW76518   7.826   0.272   0.528 -0.1657  0.0853 -0.2214
25026SOL    HW176519   7.802   0.299   0.440 -1.3902 -0.8039 -0.1981
25026SOL    HW276520   7.896   0.331   0.554  0.8363 -0.1873 -2.1153
25027SOL     OW76521   6.904   7.429  10.988 -0.1733 -0.3951  0.6739
25027SOL    HW176522   6.831   7.437  10.927  1.8178  2.3742 -1.6052
25027SOL    HW276523   6.963   7.366  10.947  1.2279  1.5633 -0.4763
25028SOL     OW76524   0.440   1.177   0.015 -0.2629 -0.0977 -0.2315
25028SOL    HW176525   0.487   1.112  -0.038  1.3298  0.5685  0.3077
25028SOL    HW276526   0.486   1.259  -0.002 -3.0147  1.2173 -1.8586
25029SOL     OW76527   0.791   7.442   0.130 -0.0955 -0.1365 -0.0635
25029SOL    HW176528   0.737   7.501   0.182 -0.5241 -0.4753 -0.1111
25029SOL    HW276529   0.732   7.369   0.108  0.7313 -1.1260  0.9201
25030SOL     OW76530   6.096   0.472  11.361  0.1596  0.0174 -0.2059
25030SOL    HW176531   6.082   0.395  11.305 -0.3970  1.6899 -2.4727
25030SOL    HW276532   6.190   0.472  11.378 -0.0126 -1.9690  1.1492
25031SOL     OW76533   1.212   0.278  12.449  0.1411 -0.0574  0.1958
25031SOL    HW176534   1.305   0.291  12.468  0.2118 -0.0241 -0.1625
25031SOL    HW276535   1.210   0.251  12.357 -0.3745  2.2744 -0.5347
25032SOL     OW76536   0.912   6.257   0.571 -0.0369 -0.0606  0.3289
25032SOL    HW176537   0.841   6.251   0.507 -1.7585  1.2821  1.9854
25032SOL    HW276538   0.870   6.239   0.655  2.0525 -1.3252  1.1822
25033SOL     OW76539   6.978   0.886  12.039  0.0790  0.2638  1.3464
25033SOL    HW176540   6.902   0.934  12.073  0.7255  0.6740  2.2573
25033SOL    HW276541   6.941   0.809  11.995 -0.9974  1.6440 -0.2924
25034SOL     OW76542   5.901   7.559   0.978  0.4867 -0.0279  0.0417
25034SOL    HW176543   5.825   7.509   0.948 -0.5846 -0.1660  2.7174
25034SOL    HW276544   5.881   7.649   0.955  0.7226 -0.3543 -1.5281
25035SOL     OW76545   1.158   5.795  11.981 -0.3260  0.3762  0.5146
25035SOL    HW176546   1.094   5.728  11.961  0.6542 -0.5230  0.2968
25035SOL    HW276547   1.107   5.868  12.016 -1.5225 -0.0368 -0.3147
25036SOL     OW76548   6.576   0.135  11.723 -0.1684 -0.1265  0.3655
25036SOL    HW176549   6.594   0.119  11.630  1.7976  0.1877  0.6520
25036SOL    HW276550   6.485   0.166  11.724 -0.1382  0.1588 -1.4876
25037SOL     OW76551   7.538   2.220  10.564  0.0769 -0.1011 -0.4376
25037SOL    HW176552   7.514   2.290  10.624  1.5495  0.8715 -0.9398
25037SOL    HW276553   7.614   2.253  10.516  0.5003 -1.8347 -1.0625
25038SOL     OW76554   7.180   7.519  11.285  0.5537 -0.6780 -0.3822
25038SOL    HW176555   7.110   7.549  11.227  0.0153  0.2103  0.6838
25038SOL    HW276556   7.223   7.599  11.315  0.1179 -1.0197  1.2799
25039SOL     OW76557   7.007   7.420  12.255  0.4546  0.2026 -0.1196
25039SOL    HW176558   6.978   7.400  12.344 -1.4092 -0.2059 -0.7698
25039SOL    HW276559   7.097   7.450  12.265  0.6783 -0.9397  1.7749
25040SOL     OW76560   7.188   1.759  10.719 -0.4656 -0.0926 -0.0208
25040SOL    HW176561   7.272   1.790  10.685  0.2489 -1.4444  0.4149
25040SOL    HW276562   7.124   1.823  10.688  0.9052  1.8201  0.9344
25041NA      NA76563   0.069   0.986   2.882 -0.0119 -0.1600 -0.4538
25042NA      NA76564   1.510   1.090   1.421 -0.3172  0.6321  0.1273
25043NA      NA76565   1.576   7.324   0.765  0.2251 -0.2760 -0.4901
25044NA      NA76566   1.205   7.834   0.138  0.0073 -0.1520 -0.0464
25045NA      NA76567   2.543   1.153   4.039 -0.2194  0.7876  0.3839
25046NA      NA76568   1.821   1.711   3.829 -0.3523  0.0110 -0.2019
25047NA      NA76569   1.427   1.648   4.369  0.3149 -0.3270  0.1484
25048NA      NA76570   7.892   1.560   4.620  0.1925  0.0674 -0.1968
25049NA      NA76571   6.674   2.118   4.878 -0.9380 -0.0532  0.7498
25050NA      NA76572   1.499   0.809   3.855 -0.3539 -0.5231  0.6192
25051NA      NA76573   1.508   1.974   4.797  0.3381  0.1144 -0.4471
25052NA      NA76574   0.713   0.266   6.425  0.0084 -0.0087  0.2618
25053NA      NA76575   1.575   0.081   6.795 -0.0651 -0.2119  0.1658
25054NA      NA76576   0.525   0.952   8.022 -0.1045  0.5725  0.0768
25055NA      NA76577   0.936   0.801   8.639 -0.3160 -0.7563  0.2949
25056NA      NA76578   7.837   0.727   7.644  0.4279 -0.1415  0.5437
25057NA      NA76579   0.631   1.009   9.664 -0.1570 -0.2778 -0.0302
25058NA      NA76580   0.756   1.250  10.408 -0.4285 -0.6581  0.2959
25059NA      NA76581   0.990   0.432  10.438  0.0656 -0.3663 -0.3257
25060NA      NA76582   0.575   0.760   0.179  0.1062 -0.1861 -0.4652
25061NA      NA76583   1.091   2.784   9.282 -0.0082 -0.2618  0.4638
25062NA      NA76584   2.094   0.805  12.353  0.0244  0.7563 -0.4137
25063NA      NA76585   7.888   0.064  11.166 -0.6277  0.1412 -0.3253
25064NA      NA76586   7.877   2.753   2.315 -0.1575 -0.0116  0.2409
25065NA      NA76587   1.126   2.478   2.363 -0.1069 -0.2091 -0.2252
25066NA      NA76588   1.076   3.372   0.209  0.4136 -0.0213 -0.2574
25067NA      NA76589   2.159   3.078  11.476  0.1384 -0.2295 -0.3648
25068NA      NA76590   1.309   1.910  11.788  0.3555 -0.3444  0.7719
25069NA      NA76591   1.051   1.303   1.327 -0.4070  0.1132 -0.2127
25070NA      NA76592   0.539   2.107   1.831 -0.3592  0.4209 -0.1930
25071NA      NA76593   0.074   2.903   1.746  0.4213 -0.2957 -0.1157
25072NA      NA76594   7.608   2.223   2.850 -0.4016  0.0510  0.3766
25073NA      NA76595   0.926   3.159   3.284 -0.5771  0.8022  0.2021
25074NA      NA76596   1.946   4.007   3.801  0.1086 -0.6041 -0.0920
25075NA      NA76597   1.434   2.919   5.634 -0.0182  0.3605 -0.2458
25076NA      NA76598   0.336   3.488   5.085 -0.2589 -0.7605 -0.3812
25077NA      NA76599   1.635   3.721   5.690 -0.1581 -0.1845 -0.4058
25078NA      NA76600   1.357   2.746   4.360  0.1530 -0.5831 -0.1617
25079NA      NA76601   0.918   3.674   4.344 -0.1674  0.1055 -0.5463
25080NA      NA76602   0.581   1.732   4.231 -0.2021  0.1758  0.0418
25081NA      NA76603   0.117   4.091   7.166  0.1210 -0.4846  0.1876
25082NA      NA76604   2.450   3.377   6.992 -0.3533  0.6570 -0.0263
25083NA      NA76605   0.753   1.095   5.569 -0.5310  0.5011 -0.2650
25084NA      NA76606   2.442   1.389   6.286  0.0882  0.3251 -0.1883
25085NA      NA76607   3.629   3.746   7.571  0.1262 -0.2591 -0.0621
25086NA      NA76608   1.720   2.092   7.879 -0.1058 -0.0433 -0.5347
25087NA      NA76609   2.012   1.549   8.271  0.0355  0.2917  0.0200
25088NA      NA76610   0.731   2.921   7.900  0.4127 -0.1876 -0.1055
25089NA      NA76611   1.577   2.431   9.316  0.8421  0.1839 -0.4707
25090NA      NA76612   0.704   2.955   8.547 -0.3572 -0.3615  0.4400
25091NA      NA76613   2.278   2.961   9.104 -0.5087  0.1904 -0.2168
25092NA      NA76614   0.992   2.254  11.274 -0.3140 -0.4831  0.0034
25093NA      NA76615   0.207   0.771   9.033  0.4707  0.7683  0.1818
25094NA      NA76616   0.945   3.125   9.671  0.0714 -0.3019  0.2048
25095NA      NA76617   1.906   2.976  10.631 -0.4161 -0.0518  0.1014
25096NA      NA76618   0.882   2.529  10.084 -0.1999 -0.6056 -0.0037
25097NA      NA76619   0.725   3.790   8.993  0.2829  0.0716  0.0990
25098NA      NA76620   0.113   3.130  10.324 -0.3863  0.0681  0.1453
25099NA      NA76621   1.076   4.321   8.551  0.4089  0.0537  0.4829
25100NA      NA76622   0.506   2.796  11.983 -0.4198  0.5627  0.3274
25101NA      NA76623   1.530   1.038  11.949  0.1139 -0.2184 -0.0509
25102NA      NA76624   2.239   5.842   0.925 -0.3663  0.2095 -0.1653
25103NA      NA76625   2.167   3.407  10.851  0.0682 -0.5230 -0.6823
25104NA      NA76626   0.554   5.011   0.697  0.4997  0.2592 -0.2507
25105NA      NA76627   0.077   3.664  12.456  0.0680 -0.1316  0.3281
25106NA      NA76628   0.218   4.594   3.028 -0.2475  0.0415  0.2564
25107NA      NA76629   0.622   3.811   2.173 -0.1614 -0.1194 -0.0186
25108NA      NA76630   0.505   5.222   1.776  0.1363  0.2240 -0.5332
25109NA      NA76631   1.108   4.726   3.312  0.4620  0.0070 -0.1485
25110NA      NA76632   1.104   5.231   5.823 -0.5860 -0.2873 -0.0075
25111NA      NA76633   2.362   4.275   4.501  0.2572 -0.1038  0.1814
25112NA      NA76634   0.935   4.276   5.219  0.2236  0.1919  0.3654
25113NA      NA76635   0.258   6.384   4.125 -0.5141 -0.1759  0.1027
25114NA      NA76636   0.709   5.238   4.017 -0.3747 -0.3949  0.0711
25115NA      NA76637   7.803   3.318   5.994  0.1523  0.3287 -0.3723
25116NA      NA76638   2.167   4.356   7.423 -0.4771  0.0939  0.4797
25117NA      NA76639   2.279   5.167   6.724  0.1438  0.2579 -0.3506
25118NA      NA76640   0.759   5.407   6.154  0.3601 -0.2119 -0.4496
25119NA      NA76641   0.856   4.122   8.137 -0.2510  0.4108 -0.2569
25120NA      NA76642   0.758   4.061   6.833  0.0399 -0.0270 -0.1015
25121NA      NA76643   1.243   4.233   6.484  0.4180  0.5879  0.1148
25122NA      NA76644   0.601   5.280   8.295 -0.8299 -0.0181 -0.0604
25123NA      NA76645   1.301   6.967   7.025  0.1691 -0.1084 -0.3445
25124NA      NA76646   1.642   4.096   9.694 -0.0276 -0.1041 -0.3524
25125NA      NA76647   0.370   6.731   8.995 -0.3631 -0.4508 -0.9441
25126NA      NA76648   0.754   6.809   9.808  0.1972 -0.2965  0.5220
25127NA      NA76649   1.296   5.491   9.359  0.0937  0.1524 -0.3197
25128NA      NA76650   0.483   3.951  10.640  0.5773  0.1804 -0.2008
25129NA      NA76651   0.811   4.515   9.997 -0.0318 -0.3889  0.5351
25130NA      NA76652   2.385   6.551  10.015  0.6357 -0.8886 -0.2103
25131NA      NA76653   1.334   4.404  11.985  0.1220  0.1898  0.2601
25132NA      NA76654   1.223   3.993   0.596  0.3397 -0.0650 -0.5207
25133NA      NA76655   0.174   3.569  11.735  0.4132  0.2515  0.0603
25134NA      NA76656   0.539   5.689  12.486  0.0296 -0.2230 -0.0857
25135NA      NA76657   1.262   6.371   1.721 -0.0652 -0.4260 -0.6237
25136NA      NA76658   1.775   5.856  11.667  0.4070 -0.0840 -0.1781
25137NA      NA76659   0.838   7.189   0.781  0.0499 -0.5089  0.2653
25138NA      NA76660   1.074   7.144   2.554  0.0443 -0.2887 -0.0291
25139NA      NA76661   1.991   6.398   4.220  0.0705 -0.0517 -0.1488
25140NA      NA76662   1.409   5.383   2.570 -0.0550 -0.0629  0.4189
25141NA      NA76663   2.144   5.989   4.332  0.1949 -0.2094 -0.2223
25142NA      NA76664   0.032   7.895   5.230  0.0257 -0.7378  0.4568
25143NA      NA76665   0.390   5.337   4.859  0.5624 -0.1290  0.6443
25144NA      NA76666   3.243   6.902   5.158 -0.2031  0.0784 -1.1670
25145NA      NA76667   1.053   7.169   5.583  0.2847 -0.0411 -0.0531
25146NA      NA76668   1.103   5.972   7.160  0.2326  0.5590  0.4766
25147NA      NA76669   2.284   4.493   5.369 -0.2443  0.1154 -0.5775
25148NA      NA76670   2.129   6.267   6.697 -0.2946 -0.2240 -0.2465
25149NA      NA76671   1.471   6.960   8.215 -0.1275  0.1384 -0.5135
25150NA      NA76672   1.763   6.872   7.523  0.4261 -0.3048 -0.4981
25151NA      NA76673   1.522   7.821   8.933 -0.3433 -0.0486 -0.1781
25152NA      NA76674   0.677   6.683  10.757 -0.1761 -0.0080 -0.2889
25153NA      NA76675   0.404   6.357  11.372 -0.1937 -0.1211 -0.3510
25154NA      NA76676   7.619   5.775  10.109 -0.4833 -0.3029  0.3072
25155NA      NA76677   0.808   7.867   1.748 -0.2072  0.0135 -0.1686
25156NA      NA76678   1.597   6.805   3.287  0.5358 -0.1708  0.2364
25157NA      NA76679   1.322   7.651   2.811 -0.1362  0.1659  0.1663
25158NA      NA76680   1.716   0.697   2.921 -0.2613  0.7228  0.0349
25159NA      NA76681   7.823   7.908   1.786 -0.1284  0.3157 -0.9074
25160NA      NA76682   0.732   7.677   4.063 -0.3784 -0.7306  0.1213
25161NA      NA76683   7.226   7.567   4.189  0.0485  0.0787 -0.2944
25162NA      NA76684   1.008   7.171   6.685 -0.1422  0.0822 -0.3272
25163NA      NA76685   1.044   0.111   6.545  0.0816  0.4720  0.1858
25164NA      NA76686   1.448   6.994  11.813  0.1700  0.4314  0.0024
25165NA      NA76687   0.425   7.435  10.401  0.3697 -0.0286 -0.2636
25166NA      NA76688   1.580   1.140   0.070  0.1479  0.2793 -0.1005
25167NA      NA76689   2.412   2.384   2.228 -0.3040  0.4306  0.5063
25168NA      NA76690   2.711   1.386   3.453  0.0401 -0.0117  0.0761
25169NA      NA76691   2.905   1.213   1.091  0.1903 -0.1995 -0.2873
25170NA      NA76692   3.728   1.343   3.182 -0.3610  0.0167  0.0618
25171NA      NA76693   1.549   7.519   5.657  0.4159  0.3134 -0.2436
25172NA      NA76694   1.879   1.166   5.169 -0.3835  0.0239 -0.0194
25173NA      NA76695   3.653   1.510   4.314 -0.1906 -0.0129 -0.0083
25174NA      NA76696   3.150   0.659   5.230 -0.6256 -0.2208 -0.2907
25175NA      NA76697   3.838   1.079   6.425  0.2261  0.1071 -0.2305
25176NA      NA76698   4.032   0.147   5.859 -0.2240  0.1546  0.0002
25177NA      NA76699   2.591   6.994   7.946  0.3370 -0.4389 -0.0894
25178NA      NA76700   1.645   1.347   7.946  0.5120 -0.0280 -0.0930
25179NA      NA76701   1.959   0.686   9.151  0.3490  0.0440 -0.2368
25180NA      NA76702   1.232   0.233   7.813  0.2260 -0.1267  0.2135
25181NA      NA76703   3.982   1.522   7.509 -0.1071 -0.1968 -0.4935
25182NA      NA76704   1.462   7.768   6.960  0.1374 -0.0574 -0.3172
25183NA      NA76705   3.472   7.281   7.833  0.2311 -0.2268  0.5586
25184NA      NA76706   4.020   0.275   9.170  0.1207 -0.6810 -0.0142
25185NA      NA76707   3.702   7.791   9.040  0.2421 -0.0186  0.0449
25186NA      NA76708   3.302   0.281  10.245 -0.0292 -0.0509  0.4466
25187NA      NA76709   2.567   0.858  10.353  0.3097 -0.2355 -0.1052
25188NA      NA76710   3.726   2.367  10.452  0.0639 -0.0844 -0.2931
25189NA      NA76711   1.309   0.623   9.644 -0.0645 -0.4190 -0.2232
25190NA      NA76712   3.247   0.795  12.385 -0.4038 -0.2110 -0.3984
25191NA      NA76713   2.624   1.762  12.365 -0.2632  0.2345  0.5469
25192NA      NA76714   2.891   1.814  10.438  0.1186 -0.3571 -0.1399
25193NA      NA76715   2.705   2.192  12.255 -0.2909 -0.0598 -0.0117
25194NA      NA76716   3.148   1.935   0.568  0.0793 -1.3676 -0.0229
25195NA      NA76717   3.712   3.715   2.234 -0.4966  0.0665  0.2917
25196NA      NA76718   3.317   2.229   2.019 -0.0167 -0.6889 -0.0077
25197NA      NA76719   2.818   1.890   3.919 -0.2567  0.3530 -0.4980
25198NA      NA76720   1.879   2.774   2.759 -0.2777 -0.1961  0.0750
25199NA      NA76721   3.224   2.985   4.288  0.3598 -0.3998 -0.2730
25200NA      NA76722   3.243   1.640   5.386 -0.8164  0.0318 -0.3778
25201NA      NA76723   1.860   2.420   7.313  0.3830  0.3374  0.2908
25202NA      NA76724   3.257   1.397   6.888 -0.1031  0.0483 -0.4013
25203NA      NA76725   3.061   3.083   5.022 -0.5570  0.0793  0.0904
25204NA      NA76726   1.975   2.633   8.688 -0.3933 -0.0447  0.9066
25205NA      NA76727   2.294   0.809   8.084 -0.2158 -0.1637  0.2486
25206NA      NA76728   2.486   2.011  10.025  0.1148  0.3108 -0.5676
25207NA      NA76729   2.935   3.331  11.101 -0.0380 -0.0729 -0.5323
25208NA      NA76730   3.518   3.039   0.071 -0.2391 -0.2063 -0.0129
25209NA      NA76731   3.294   2.727   0.480 -0.1444 -0.1896  0.7530
25210NA      NA76732   2.446   4.664   2.342  0.0867 -0.5203 -0.0728
25211NA      NA76733   2.382   6.223   1.341 -0.5450  0.0013  0.1799
25212NA      NA76734   2.321   4.197   0.535  0.2646 -0.2476  0.1727
25213NA      NA76735   2.454   2.782   0.549 -0.5464  0.1817 -0.1866
25214NA      NA76736   1.757   3.356   1.137 -0.3211 -0.1418  0.2946
25215NA      NA76737   2.491   4.401   1.495  0.0488  0.3470  0.1141
25216NA      NA76738   3.572   4.583  12.383  0.1053 -0.1693  0.4006
25217NA      NA76739   2.502   3.679   3.467  0.3531  0.3667 -0.6728
25218NA      NA76740   3.997   4.237   3.100  0.0694 -0.3624  0.2250
25219NA      NA76741   2.115   5.163   3.097  0.3093  0.2509  0.0393
25220NA      NA76742   3.090   5.647   1.485 -0.3171 -0.3662  0.3016
25221NA      NA76743   3.506   4.183   4.042 -0.1800  0.3231  0.2691
25222NA      NA76744   3.091   4.013   4.503 -0.7373  0.0690 -0.2269
25223NA      NA76745   2.997   4.921   3.752 -0.3007 -0.5555 -0.3417
25224NA      NA76746   3.817   4.276   6.948 -0.7988  0.2386  0.1337
25225NA      NA76747   2.196   4.230   5.960 -0.1318  0.6960  0.0201
25226NA      NA76748   1.715   4.482   7.078  0.0726 -0.3661 -0.2885
25227NA      NA76749   2.448   3.921   8.370  0.8411 -0.1926  0.1535
25228NA      NA76750   2.881   4.873   9.236 -0.1788  0.2467 -0.4578
25229NA      NA76751   2.190   5.609   7.771 -0.0490  0.1146  0.1242
25230NA      NA76752   3.221   5.475  10.195 -0.4119 -0.1700  0.0814
25231NA      NA76753   2.869   4.551  10.798  0.4424  0.5166  0.4864
25232NA      NA76754   2.073   2.437   9.743 -0.3351 -0.5633  0.0755
25233NA      NA76755   2.652   4.005  11.552 -0.0008 -0.3243  0.3395
25234NA      NA76756   2.989   5.616  11.830 -0.4465 -0.4576  0.0929
25235NA      NA76757   3.224   6.978  11.911  0.0904  0.0499  0.2164
25236NA      NA76758   1.865   6.916   0.161  0.4939  0.1080  0.0406
25237NA      NA76759   1.768   6.412   2.782  0.2788 -0.7803 -0.1799
25238NA      NA76760   2.606   6.966   3.878  0.0535 -0.0655 -0.5555
25239NA      NA76761   2.882   7.025   4.351 -0.2629  0.3717  0.0193
25240NA      NA76762   2.934   4.612   3.414  0.4594 -0.4680  0.0095
25241NA      NA76763   2.539   5.113   5.202 -0.1070  0.0032 -0.0341
25242NA      NA76764   3.304   5.503   4.490  0.2435  0.4924  0.1361
25243NA      NA76765   3.418   6.889   4.217  0.1651  0.3770 -0.5441
25244NA      NA76766   3.540   7.560   6.840 -0.2396  0.2822  0.3044
25245NA      NA76767   3.100   5.352   5.081  0.1710 -0.2122 -0.2286
25246NA      NA76768   1.796   5.040   8.592 -0.2448 -0.1148 -0.5224
25247NA      NA76769   2.162   6.601   7.282  0.1771  0.3615 -0.4082
25248NA      NA76770   2.632   7.172   5.900  0.0205 -0.0106 -0.2222
25249NA      NA76771   1.215   7.063   8.845  0.3254  0.0009  0.2399
25250NA      NA76772   2.031   6.928   9.004 -0.2755  0.5281 -0.5397
25251NA      NA76773   3.703   5.186   8.184 -0.1742  0.1137  0.2335
25252NA      NA76774   1.766   6.626  10.902  0.4700  0.0410  0.4602
25253NA      NA76775   3.627   6.093   9.639  0.4306 -0.1799  0.2034
25254NA      NA76776   1.730   7.330  11.463  0.1038  0.2584  0.4813
25255NA      NA76777   1.962   6.626  10.216  0.3292  0.1052 -0.5331
25256NA      NA76778   4.215   5.995  11.597  0.0324 -0.3421  0.2725
25257NA      NA76779   1.755   5.046   0.465 -0.0038 -0.4077 -0.7251
25258NA      NA76780   2.053   6.099  10.935  0.1983 -0.2338  0.1769
25259NA      NA76781   2.949   5.556  11.178  0.3478  0.3946  0.0415
25260NA      NA76782   2.430   7.923   1.095 -0.0278  0.0974  0.2411
25261NA      NA76783   3.234   7.895   1.815  0.6135 -0.1471 -0.4223
25262NA      NA76784   3.240   7.825   4.199 -0.4790 -0.1542 -0.1739
25263NA      NA76785   2.669   0.082   2.434  0.3910 -0.0673 -0.1148
25264NA      NA76786   2.133   7.318   5.028 -0.5933 -0.6027  0.1498
25265NA      NA76787   4.141   7.988   6.565  0.0678 -0.6869  0.2931
25266NA      NA76788   3.956   7.365   8.062  0.1907 -0.1954  0.0508
25267NA      NA76789   2.604   6.848  10.415 -0.0648 -0.2319  0.1811
25268NA      NA76790   2.076   7.451  10.294  0.5775 -0.0847 -0.5150
25269NA      NA76791   4.533   1.016  10.438 -0.2417  0.2762 -0.0084
25270NA      NA76792   2.139   0.093  11.750 -0.0040  0.3070  0.2485
25271NA      NA76793   3.301   0.330   1.317  0.1166 -0.4311 -0.4577
25272NA      NA76794   3.101   0.148  11.725  0.1947 -0.2032 -0.3669
25273NA      NA76795   3.493   1.184   0.154 -0.0715 -0.1283  0.3389
25274NA      NA76796   2.992   1.919   1.450 -0.0356  0.1094  0.4053
25275NA      NA76797   5.444   0.785   1.012  0.4718  0.4423  0.0844
25276NA      NA76798   3.914   7.665   0.028  0.5087  0.7962  0.2459
25277NA      NA76799   5.547   1.877   0.222  0.1514  0.2889  0.0396
25278NA      NA76800   4.910   1.330   0.507 -0.1558 -0.4461 -0.0028
25279NA      NA76801   4.467   0.742   2.819 -0.0404 -0.1259  0.4951
25280NA      NA76802   4.638   0.133   3.685  0.2808  0.5271  0.1936
25281NA      NA76803   5.303   1.619   3.245  0.2771 -0.3147 -0.4473
25282NA      NA76804   4.323   7.342   2.742 -0.0649 -0.3959  0.0451
25283NA      NA76805   4.232   1.326   3.476 -0.3882 -0.1205 -0.1112
25284NA      NA76806   4.513   0.977   3.904  0.5459 -0.0387  0.3495
25285NA      NA76807   4.192   0.650   6.285  0.1533 -0.3297  0.1148
25286NA      NA76808   3.797   1.932   6.271 -0.0382 -0.1287 -0.0326
25287NA      NA76809   4.654   0.811   5.416 -0.4423 -0.3450 -0.0265
25288NA      NA76810   7.057   1.729   6.569 -0.3733 -0.1235 -0.4996
25289NA      NA76811   3.429   0.860   7.209  0.2301  0.2997  0.1528
25290NA      NA76812   3.809   1.172   8.779 -0.2819  0.2794 -0.3785
25291NA      NA76813   5.760   2.384   8.355 -0.3947 -0.8866  0.0335
25292NA      NA76814   4.535   1.772   7.737 -0.0041  0.0395  0.2597
25293NA      NA76815   4.922   1.071   8.078  0.0474  0.0785 -0.2607
25294NA      NA76816   4.736   7.645   8.125 -0.4964 -0.2159 -0.0389
25295NA      NA76817   5.146   0.706  10.858  0.9679 -0.3095  0.0399
25296NA      NA76818   3.234   1.479  10.928 -0.0528 -0.3886  0.3615
25297NA      NA76819   4.618   0.309   9.114  0.1340 -0.2983 -0.1310
25298NA      NA76820   4.223   1.634  11.262  0.2373 -0.7488  0.1526
25299NA      NA76821   2.635   1.105   9.757  0.1435  0.3553  0.0238
25300NA      NA76822   2.770   3.511   1.304 -0.2694  0.7155 -0.9647
25301NA      NA76823   4.519   2.715   0.605 -0.3510  0.2356  0.3928
25302NA      NA76824   4.187   1.989   0.689 -0.0854 -0.0820 -0.2517
25303NA      NA76825   4.834   1.699   0.976 -0.1072 -0.4417 -0.4012
25304NA      NA76826   5.045   3.773   0.803 -0.2280  0.0870  0.0281
25305NA      NA76827   5.878   4.467   0.192  0.1809  0.4295 -0.0254
25306NA      NA76828   4.147   2.199   3.320 -0.2362 -0.1811 -0.3763
25307NA      NA76829   3.975   2.598   5.017 -0.0922 -0.1205  0.2752
25308NA      NA76830   4.098   3.259   5.012 -0.1749 -0.0152 -0.7893
25309NA      NA76831   4.145   3.316   7.918 -0.3873 -0.0070 -0.3977
25310NA      NA76832   5.426   3.225   9.656 -0.2246  0.2429 -0.1004
25311NA      NA76833   6.309   2.627  10.919 -0.2919  0.2429 -0.1300
25312NA      NA76834   5.091   2.603  10.087 -0.2077 -0.3105  0.1575
25313NA      NA76835   4.124   4.133  10.670  0.0822  1.0213 -0.5160
25314NA      NA76836   4.429   2.147   8.277 -0.4914  0.1891  0.0118
25315NA      NA76837   3.570   3.847  10.102  0.0780  0.0309  0.2513
25316NA      NA76838   5.062   3.295   0.024 -0.2686 -0.2519  0.0929
25317NA      NA76839   4.968   5.177   0.552 -0.3225  0.0096  0.1837
25318NA      NA76840   3.801   4.764   1.649  0.9049  0.3698 -0.0656
25319NA      NA76841   5.029   5.773   0.750  0.0377 -0.2054  0.1703
25320NA      NA76842   4.222   4.792   1.172  0.5662 -0.3112  0.0260
25321NA      NA76843   4.974   4.258   1.793  0.1910  0.1694  0.2507
25322NA      NA76844   5.167   6.060   1.626 -0.1175 -0.1506  0.3017
25323NA      NA76845   4.295   4.433   3.170 -0.0940 -0.0125 -0.1612
25324NA      NA76846   3.795   3.868   1.343  0.1355 -0.0009 -0.3441
25325NA      NA76847   5.289   4.543   8.865 -0.0499 -0.1587 -0.3029
25326NA      NA76848   4.109   5.198   9.353  0.0417  0.0523  0.1537
25327NA      NA76849   4.510   3.699  10.519  0.1206  0.3220  0.1772
25328NA      NA76850   4.462   4.928   8.993  0.1230  0.2138  0.2678
25329NA      NA76851   4.451   0.196   0.779 -0.0384  0.0768  0.1899
25330NA      NA76852   3.987   6.245  12.376  0.0589  0.0993 -0.3915
25331NA      NA76853   2.347   5.406   0.615  0.1462  0.3687 -0.1918
25332NA      NA76854   3.549   6.794   1.647 -0.4789  0.3453  0.5568
25333NA      NA76855   5.056   5.356   3.773 -0.1145  0.4278  0.0272
25334NA      NA76856   4.596   5.276   3.343  0.1376 -0.5020 -0.4887
25335NA      NA76857   3.269   0.213   2.471 -0.4917  0.1554 -0.0907
25336NA      NA76858   3.585   6.153   1.824 -0.0154  0.4956  0.3195
25337NA      NA76859   4.707   7.127   3.481 -0.3800 -0.0327 -0.7175
25338NA      NA76860   4.666   7.405   2.016 -0.4919  0.5457 -0.6624
25339NA      NA76861   4.772   7.288   4.646  0.3289  0.0561  0.1088
25340NA      NA76862   4.758   5.790   5.097  0.0841  0.3617 -0.2234
25341NA      NA76863   5.069   6.217   4.903  0.0102 -0.2813  0.0092
25342NA      NA76864   3.794   4.857   6.526 -0.0903  0.2159  0.0008
25343NA      NA76865   6.042   6.249   5.389 -0.1249 -0.0056  0.5138
25344NA      NA76866   5.817   6.115   5.944 -0.4301  0.4223  0.2015
25345NA      NA76867   4.531   5.332   6.488 -0.0750  0.0401  0.8379
25346NA      NA76868   4.340   6.373   7.889 -0.0748 -0.0365  0.3543
25347NA      NA76869   4.346   5.729   9.229  0.1853  0.1081  0.2880
25348NA      NA76870   4.842   5.320   8.029  0.1769  0.4762  0.8323
25349NA      NA76871   4.884   6.239   7.236 -0.0534 -0.1134  0.0858
25350NA      NA76872   4.561   5.551   7.633 -0.2676  0.3808 -0.1167
25351NA      NA76873   3.640   4.682  11.384  0.0416  0.3391  0.6274
25352NA      NA76874   5.376   7.546   9.854 -0.4271 -0.0877 -0.6733
25353NA      NA76875   5.285   6.265  11.275 -0.2583  0.5335  0.0022
25354NA      NA76876   4.920   5.187  11.159 -0.3819  0.0840 -0.5074
25355NA      NA76877   4.756   6.885  12.294  0.2546 -0.2779  0.3416
25356NA      NA76878   5.337   7.434  12.379  0.1359  0.3616 -0.1084
25357NA      NA76879   5.849   0.538   0.375 -0.1574 -0.1222  0.0036
25358NA      NA76880   5.156   0.358   2.126  0.1156 -0.1525 -0.1290
25359NA      NA76881   4.494   6.741   6.629  0.4719  0.3995 -0.1217
25360NA      NA76882   3.593   7.725   5.145  0.5241 -0.2746 -0.0943
25361NA      NA76883   5.361   6.706   7.081  0.1887 -0.7189  0.2331
25362NA      NA76884   4.940   7.756  10.306 -0.3190  0.3304 -0.4137
25363NA      NA76885   3.824   7.659  11.364  0.1853  0.4668 -0.2038
25364NA      NA76886   4.786   7.923  12.413 -0.4185  0.3068 -0.2895
25365NA      NA76887   5.806   7.372  12.035  0.4339  0.3666 -0.0593
25366NA      NA76888   6.005   1.420   1.747 -0.3084  0.0546 -0.2378
25367NA      NA76889   6.674   0.813   1.463  0.0577 -0.2364  0.5591
25368NA      NA76890   7.237   0.964   1.690 -0.5341  0.6409 -0.1483
25369NA      NA76891   7.102   2.530   2.701  0.2943  0.0332  0.3446
25370NA      NA76892   5.872   0.082   2.481  0.6362  0.1880 -0.3096
25371NA      NA76893   5.102   0.877   4.459  0.2094  0.7797 -0.0677
25372NA      NA76894   6.232   0.660   5.049  0.0286  0.0707 -0.0801
25373NA      NA76895   6.550   0.227   3.867 -0.0560  0.0665 -0.6009
25374NA      NA76896   7.759   0.479   4.392  0.0187  0.5207  0.3034
25375NA      NA76897   6.200   1.554   6.046 -0.1340  0.5380 -0.2580
25376NA      NA76898   6.516   7.805   6.474 -0.2161 -0.1875 -0.6079
25377NA      NA76899   6.945   1.098   5.087 -0.2056  0.2304 -0.1601
25378NA      NA76900   7.701   0.664   6.120 -0.3506 -0.4095  0.1611
25379NA      NA76901   5.591   0.202   6.189  0.6033 -0.3386  0.1466
25380NA      NA76902   4.848   7.853   5.982 -0.1007 -0.0931  0.2279
25381NA      NA76903   6.164   0.986   9.830  0.1934  0.3581  0.3050
25382NA      NA76904   6.403   0.734   7.469  0.3517  0.4056  0.3599
25383NA      NA76905   7.577   1.605   8.575 -0.2344 -0.3236 -0.3080
25384NA      NA76906   6.194   2.943   7.450 -0.1027  0.0225  0.0656
25385NA      NA76907   6.126   1.973   9.376  0.2135 -0.3044 -0.0581
25386NA      NA76908   5.738   1.255  10.183  0.6520 -0.4166  0.2773
25387NA      NA76909   7.844   2.008  11.149 -0.2262 -0.2654  0.2321
25388NA      NA76910   7.443   0.306   9.581 -0.0828  0.0604 -0.5864
25389NA      NA76911   6.021   1.572   8.087 -0.2753  0.0646 -0.7630
25390NA      NA76912   6.356   2.140  11.834  0.0873  0.3555 -0.0739
25391NA      NA76913   6.731   1.598   9.267  0.2548 -0.6020 -0.4348
25392NA      NA76914   6.363   0.827  11.747  0.1548  0.1969  0.0170
25393NA      NA76915   0.313   1.116   0.199  0.5000 -0.1096  0.2598
25394NA      NA76916   7.763   0.520  11.517 -0.3979 -0.1643  0.1250
25395NA      NA76917   4.885   0.635  12.441 -0.1982 -0.4030 -0.3437
25396NA      NA76918   6.491   1.884   0.648 -0.1278 -0.4371 -0.4019
25397NA      NA76919   7.428   0.265  12.000  0.1393 -0.5858  0.4193
25398NA      NA76920   5.171   2.591   1.366  0.3883 -0.1920  0.2117
25399NA      NA76921   6.532   2.418   2.018 -0.5936 -0.2507 -0.3389
25400NA      NA76922   6.939   2.226   1.391  0.0397 -0.3396 -0.2937
25401NA      NA76923   7.176   2.115   0.879  0.0317 -0.1844 -0.1431
25402NA      NA76924   5.637   3.517   3.495 -0.0481 -0.1433  0.0294
25403NA      NA76925   4.737   2.710   2.137 -0.2689 -0.6197  0.6111
25404NA      NA76926   5.822   2.708   2.901 -0.2678  0.4978  0.0741
25405NA      NA76927   5.835   2.310   4.661 -0.7341  0.2268 -0.3752
25406NA      NA76928   6.204   2.415   3.509 -0.1426 -0.0154  0.4161
25407NA      NA76929   7.395   2.693   4.426  0.1949  0.0093  0.1456
25408NA      NA76930   5.564   2.958   2.485  0.3458  0.1072 -0.0938
25409NA      NA76931   5.249   3.438   4.507 -0.1113  0.1682  0.2446
25410NA      NA76932   5.530   2.650   6.214 -0.1373 -0.3489  0.1852
25411NA      NA76933   4.972   2.462   4.847 -0.6471 -0.4167  0.1113
25412NA      NA76934   6.545   2.626   6.131  0.6137  0.0567 -0.0744
25413NA      NA76935   5.363   2.138   6.916  0.3601 -0.5013 -0.1952
25414NA      NA76936   6.550   3.501   6.749  0.3240 -0.6180 -0.1160
25415NA      NA76937   7.820   3.416   6.934 -0.0743  0.1376  0.7155
25416NA      NA76938   5.200   2.217   9.240  0.3287 -0.2642  0.4577
25417NA      NA76939   4.865   3.567   8.184 -0.0379 -0.2975 -0.0987
25418NA      NA76940   5.619   2.171   9.986  0.0645 -0.6050 -0.1375
25419NA      NA76941   4.767   2.298   5.539 -0.0600 -0.2867 -0.3825
25420NA      NA76942   7.872   2.100   9.759  0.5442 -0.2755 -0.0271
25421NA      NA76943   6.092   3.352  10.275  0.3271  0.5764  0.2111
25422NA      NA76944   7.511   5.196  10.855 -0.2476 -0.0450 -0.2389
25423NA      NA76945   7.512   1.656   9.616  0.2562 -0.0144 -0.1269
25424NA      NA76946   7.306   2.509  10.425  0.2528 -0.0893  0.0566
25425NA      NA76947   6.268   3.243   9.134 -0.6510 -0.7687 -0.1811
25426NA      NA76948   5.763   3.087  11.483  0.5573 -0.0511  0.1088
25427NA      NA76949   7.400   2.492  12.312  0.2295  0.2618  0.5776
25428NA      NA76950   5.232   2.471   0.560  0.3560 -0.0646  0.1032
25429NA      NA76951   6.299   3.127  12.051 -0.6579 -0.1670 -0.0420
25430NA      NA76952   6.786   2.641   0.178  0.2132 -0.4430  0.5863
25431NA      NA76953   6.357   1.742  11.774  0.0696  0.0715 -0.8124
25432NA      NA76954   6.458   5.232   0.225 -0.2720 -0.0905 -0.3913
25433NA      NA76955   7.309   5.630   0.883  0.2029  0.3110  0.3552
25434NA      NA76956   6.114   4.424   0.754  0.0258 -0.3459 -0.0096
25435NA      NA76957   7.002   4.204   1.275  0.2079 -0.6581  0.1686
25436NA      NA76958   5.022   5.540   1.432 -0.1995  0.2070  0.4113
25437NA      NA76959   6.957   5.592   1.849  0.2135  0.2230  0.5989
25438NA      NA76960   6.231   3.900   2.707  0.2888 -0.0868  0.0677
25439NA      NA76961   6.367   5.976   3.944  0.0172  0.1986  0.1788
25440NA      NA76962   5.155   4.954   2.479 -0.1664 -0.3929 -0.4088
25441NA      NA76963   6.501   4.580   3.356 -0.7697 -0.2365 -0.0336
25442NA      NA76964   7.584   4.349   4.019 -0.1152 -0.1635 -0.0167
25443NA      NA76965   7.689   4.378   4.710  0.5585 -0.4621 -0.6140
25444NA      NA76966   5.270   4.427   5.535 -0.2900  0.5093 -0.2605
25445NA      NA76967   5.257   4.596   6.098 -0.1557 -0.3514  0.4313
25446NA      NA76968   6.664   4.469   7.735 -0.2704 -0.1495  0.1940
25447NA      NA76969   6.613   4.708   4.915  0.6221 -0.5299 -0.2835
25448NA      NA76970   6.229   4.419   6.486 -0.3351 -0.3165 -0.1469
25449NA      NA76971   7.244   5.280   6.136 -0.0304  0.1399  0.3402
25450NA      NA76972   0.309   4.802   7.448  0.1907 -0.0352  0.0747
25451NA      NA76973   6.051   4.020   8.784 -0.1186 -0.0665  0.4115
25452NA      NA76974   6.428   4.363   8.245  0.0372 -0.1570 -0.0366
25453NA      NA76975   4.789   3.932   8.227 -0.2149  0.1504  0.2916
25454NA      NA76976   7.135   3.240   6.162 -0.1031 -0.4383 -0.1420
25455NA      NA76977   7.525   4.855   8.773 -0.1422 -0.1913  0.1726
25456NA      NA76978   6.334   5.203   8.683 -0.1220  0.0325  0.0166
25457NA      NA76979   6.224   5.481  10.422 -0.1442  0.3298  0.2444
25458NA      NA76980   7.090   5.090  12.080 -0.1039 -0.2580  0.0495
25459NA      NA76981   6.281   4.137  10.779  0.3440  0.0346  0.4789
25460NA      NA76982   7.530   4.866  11.447  0.0211  0.1209 -0.0384
25461NA      NA76983   5.904   4.100  10.927 -0.0207 -0.1980 -0.3579
25462NA      NA76984   6.942   4.764   8.927  0.3650  0.1398 -0.0116
25463NA      NA76985   5.044   4.927   9.289 -0.3128 -0.1172 -0.5708
25464NA      NA76986   6.022   4.838  11.186  0.0711 -0.5299 -0.3672
25465NA      NA76987   5.933   3.900  12.117  0.1737 -0.4173  0.2327
25466NA      NA76988   0.061   3.934  11.299 -0.5529 -0.3828 -0.0664
25467NA      NA76989   7.460   3.706   0.500  0.2749 -0.7406  0.0992
25468NA      NA76990   5.405   5.588  11.242 -0.0547 -0.1531 -0.1229
25469NA      NA76991   5.180   6.407   0.328  0.4353 -0.5449  0.1896
25470NA      NA76992   6.207   6.125   1.764 -0.0604 -0.1494 -0.4623
25471NA      NA76993   6.126   6.059   0.921  0.3843  0.6214  0.3049
25472NA      NA76994   6.540   7.024   3.799 -0.0109  0.1384 -0.3894
25473NA      NA76995   5.976   6.620   4.591 -0.3913  0.1942  0.3467
25474NA      NA76996   6.730   5.844   1.548 -0.1682  0.2618  0.4795
25475NA      NA76997   6.478   6.452   3.433  0.4315  0.0306 -0.0918
25476NA      NA76998   5.361   7.039   4.911 -0.7091 -0.3020 -0.1459
25477NA      NA76999   7.353   5.993   3.191  0.0616  0.2094  0.0417
25478NA      NA77000   7.137   6.712   4.403  0.2228 -0.5179 -0.1661
25479NA      NA77001   6.014   7.878   4.964  0.2617  0.3501  0.0922
25480NA      NA77002   6.938   6.993   6.082 -0.2594 -0.0126 -0.0260
25481NA      NA77003   6.208   5.811   5.022 -0.0069  0.5308 -0.1237
25482NA      NA77004   6.356   6.516   6.790 -0.3505 -0.4624 -0.2074
25483NA      NA77005   7.202   7.357   7.570 -0.1893  0.0769  0.0758
25484NA      NA77006   0.061   6.691   6.972 -0.3924  0.5303 -0.0233
25485NA      NA77007   5.052   5.606   8.510  0.2288  0.2388  0.0651
25486NA      NA77008   6.167   7.602   8.479  0.1771  0.1964  0.2206
25487NA      NA77009   5.564   6.637   8.517  0.0991 -0.0609  0.4147
25488NA      NA77010   7.698   6.035   6.803  0.0668 -0.1982 -0.5478
25489NA      NA77011   5.722   6.751   8.129  0.5299  0.3179 -0.2165
25490NA      NA77012   7.197   6.939   6.823  0.4190 -0.3608  0.3468
25491NA      NA77013   7.566   6.077   8.342 -0.0015 -0.4181 -0.2566
25492NA      NA77014   5.972   6.991  10.929 -0.1959  0.1687  0.3842
25493NA      NA77015   4.927   6.214  10.799 -0.0767  0.2071 -0.1361
25494NA      NA77016   5.969   6.231  10.728  0.0127  0.0386 -0.1265
25495NA      NA77017   6.086   7.126   7.814  0.4182 -0.6036 -0.1480
25496NA      NA77018   6.257   6.104   9.400 -0.3912  0.0690 -0.2020
25497NA      NA77019   7.584   7.127  12.360  0.1444 -0.1991 -0.4786
25498NA      NA77020   6.760   5.916   0.738  0.0027 -0.4405 -0.0740
25499NA      NA77021   0.222   7.338   0.007 -0.2018 -0.2346  0.1489
25500NA      NA77022   6.244   6.700  10.672 -0.3628  0.1020 -0.4497
25501NA      NA77023   6.054   7.552   1.148  0.1744  0.0731 -0.0891
25502NA      NA77024   4.062   7.852   5.716 -0.3190 -0.2276  0.1011
25503NA      NA77025   7.123   0.673   8.658  0.3625  0.5404  0.2014
25504NA      NA77026   6.482   7.276   7.469 -0.4720  0.3425  0.2995
25505NA      NA77027   5.853   0.669  10.722 -0.4990 -0.8083 -0.0543
25506NA      NA77028   5.981   7.911   8.978  0.2827 -0.5105 -0.0471
25507NA      NA77029   6.737   6.770  11.096  0.4078  0.1582 -0.3653
25508NA      NA77030   0.563   0.858   3.782  0.0403 -0.0291 -0.2907
25509NA      NA77031   7.471   1.654   2.450  0.1618  0.3812 -0.5635
25510NA      NA77032   6.882   2.090   4.073  0.1956  0.0751  0.4554
25511NA      NA77033   7.485   1.123   5.896  0.9177  0.4593  0.2573
25512NA      NA77034   7.936   0.264   6.353  0.2995 -0.2866 -0.1368
25513NA      NA77035   6.821   0.215   8.102 -0.1600 -0.1403 -0.1334
25514NA      NA77036   0.092   0.970  10.336  0.0659  0.0631 -0.0459
25515NA      NA77037   0.461   0.543  10.004 -0.1881 -0.0994 -0.2527
25516NA      NA77038   0.051   1.385  11.436  0.4455 -0.1353 -0.2832
25517NA      NA77039   0.058   2.016   1.477 -0.1785  0.4315 -0.1934
25518NA      NA77040   6.565   3.386   4.541 -0.3305 -0.4320  0.2525
25519NA      NA77041   0.339   2.981   4.081 -0.0014  0.1245 -0.2008
25520NA      NA77042   6.073   2.880   5.019  0.0346  0.4079 -0.0853
25521NA      NA77043   0.503   2.552   6.838  0.2181 -0.1812 -0.1843
25522NA      NA77044   0.719   3.616   7.280 -0.3278 -0.0279  0.0118
25523NA      NA77045   7.084   2.461   7.799 -0.0342  0.3168 -0.0850
25524NA      NA77046   0.809   2.096   8.771 -0.1505 -0.1710  0.7708
25525NA      NA77047   7.875   3.523  10.769 -0.0016 -0.2546 -0.2527
25526NA      NA77048   7.599   3.618   1.787 -0.0624  0.2662 -0.0177
25527NA      NA77049   7.517   4.807   1.660 -0.5169  0.1377 -0.2854
25528NA      NA77050   7.094   4.842   3.357  0.0827  0.0337  0.3931
25529NA      NA77051   7.409   5.555   2.341  0.0332 -0.2643 -0.5114
25530NA      NA77052   0.740   4.020   9.567 -0.3190 -0.2330  0.1105
25531NA      NA77053   0.404   5.420   9.038  0.6681 -0.5570  0.3160
25532NA      NA77054   6.903   5.700   9.636 -0.0270 -0.2074 -0.4782
25533NA      NA77055   7.750   4.514  11.203  0.2620  0.4587  0.2247
25534NA      NA77056   7.409   6.611   0.258  0.0781  0.4113  0.3168
25535NA      NA77057   6.390   7.599   2.001  0.6399  0.0083  0.1304
25536NA      NA77058   1.085   5.959   0.085 -0.6947 -0.4312  0.3756
25537NA      NA77059   7.745   0.666   2.379 -0.3457  0.0868  0.1985
25538NA      NA77060   0.873   6.767   2.895  0.1106  0.4479 -0.3690
25539NA      NA77061   0.427   6.594   5.017  0.1781 -0.2286 -0.2730
25540NA      NA77062   0.050   6.759   5.427  0.2149 -0.0225 -0.1966
25541NA      NA77063   6.748   6.764   7.806 -0.0200 -0.3311 -0.0764
25542NA      NA77064   0.294   5.394  11.122 -0.4666  0.1096 -0.1523
25543NA      NA77065   6.922   6.332   8.961  0.5501 -0.1430  0.3215
25544NA      NA77066   7.934   7.302  11.884  0.0251  0.1183  0.1255
25545NA      NA77067   7.626   7.909   0.426  1.1715  0.4973 -0.0499
25546NA      NA77068   6.835   7.272   1.087  0.1257  0.0191 -0.1233
25547CL      CL77069   7.597   1.771   1.129  0.4875 -0.5503 -0.1547
25548CL      CL77070   1.275   7.460  11.624  0.0117  0.0301  0.1576
25549CL      CL77071   0.118   0.674   2.033  0.0272  0.3276 -0.2070
25550CL      CL77072   0.500   1.550   1.855 -0.2540  0.2040  0.1543
25551CL      CL77073   0.483   1.428  11.287 -0.0699 -0.2267 -0.4367
25552CL      CL77074   2.057   1.498   3.018 -0.3081  0.0306 -0.1888
25553CL      CL77075   0.327   0.792   2.461  0.0897  0.4153 -0.0409
25554CL      CL77076   0.728   0.417   5.859  0.0129  0.3731  0.0808
25555CL      CL77077   1.688   1.613   4.487  0.0557  0.0615  0.1594
25556CL      CL77078   0.436   2.267   4.785 -0.3552  0.2766  0.1977
25557CL      CL77079   7.872   1.312   5.996 -0.1225  0.1865 -0.3449
25558CL      CL77080   0.435   0.781   7.265 -0.0186 -0.0728 -0.0252
25559CL      CL77081   0.875   1.523   5.744 -0.0369 -0.1655 -0.1216
25560CL      CL77082   1.365   0.406   7.026 -0.1320  0.3380 -0.2458
25561CL      CL77083   1.981   1.952   8.650 -0.4331  0.2495  0.0083
25562CL      CL77084   7.787   0.746   9.273  0.1246 -0.1472  0.4354
25563CL      CL77085   0.863   1.332   8.205  0.2494 -0.4774 -0.1573
25564CL      CL77086   2.286   0.615   9.363 -0.2534 -0.2591  0.1150
25565CL      CL77087   0.446   0.069  11.066  0.2681 -0.1540 -0.2842
25566CL      CL77088   0.171   2.633   9.245 -0.4077 -0.3983 -0.3452
25567CL      CL77089   0.069   1.365  10.102 -0.0466  0.0412  0.2412
25568CL      CL77090   0.973   7.517   0.411 -0.1629  0.0257  0.2173
25569CL      CL77091   2.509   1.394  10.284 -0.1569  0.4048 -0.1213
25570CL      CL77092   7.892   0.867   0.037  0.2429  0.0125  0.1656
25571CL      CL77093   1.759   0.649   1.007  0.1697 -0.1152  0.0225
25572CL      CL77094   0.647   1.396  12.448 -0.4869  0.4250  0.1650
25573CL      CL77095   0.267   4.069   1.136 -0.6897 -0.0266 -0.2113
25574CL      CL77096   0.196   2.228   0.566  0.1757  0.3260  0.4500
25575CL      CL77097   1.631   2.530   3.593  0.4804  0.0325  0.5573
25576CL      CL77098   0.813   3.167   3.794 -0.1240  0.2488 -0.1048
25577CL      CL77099   7.751   3.173   2.056 -0.3728  0.0210  0.1550
25578CL      CL77100   0.922   2.531   3.042  0.0183 -0.1795  0.2760
25579CL      CL77101   7.288   2.675   4.190  0.2634 -0.0837  0.1817
25580CL      CL77102   0.504   2.970   4.583  0.1617 -0.1767 -0.1272
25581CL      CL77103   0.341   1.891   7.738  0.0962 -0.0978  0.2566
25582CL      CL77104   1.242   3.814   8.070 -0.1183 -0.2643  0.0420
25583CL      CL77105   0.208   3.571   7.163  0.2435  0.0103 -0.4123
25584CL      CL77106   1.764   1.465   8.157 -0.0117  0.1831  0.1415
25585CL      CL77107   0.632   1.416   9.077  0.0043  0.3303 -0.1972
25586CL      CL77108   2.129   1.818   9.472 -0.1920 -0.2912  0.2408
25587CL      CL77109   1.312   3.092  11.180  0.3131  0.0938  0.0608
25588CL      CL77110   2.499   2.195  10.400 -0.0778  0.0210  0.0171
25589CL      CL77111   7.867   2.852  10.007 -0.3533 -0.2753 -0.2620
25590CL      CL77112   1.104   2.474   8.899  0.3598 -0.3974 -0.0799
25591CL      CL77113   0.479   3.163  10.982  0.0252 -0.3499  0.1955
25592CL      CL77114   0.648   3.383  12.458 -0.1318  0.1266  0.0078
25593CL      CL77115   1.930   1.564  11.793 -0.3106 -0.4356 -0.1265
25594CL      CL77116   2.443   3.801   0.701  0.0977  0.2263  0.1770
25595CL      CL77117   2.512   4.818  11.566  0.0854  0.0457  0.1283
25596CL      CL77118   7.952   4.406  11.404  0.1953  0.3545 -0.2864
25597CL      CL77119   7.331   4.912   0.749  0.2254  0.4634  0.0846
25598CL      CL77120   1.529   5.364   1.475 -0.3423  0.5028  0.2052
25599CL      CL77121   0.731   5.148   2.978 -0.1956  0.1584  0.2024
25600CL      CL77122   0.597   4.266   3.198 -0.0954  0.2520 -0.0230
25601CL      CL77123   1.722   3.015   5.231 -0.1269  0.2937  0.5397
25602CL      CL77124   1.123   4.129   5.073  0.0880  0.0132 -0.6208
25603CL      CL77125   1.488   6.139   7.603  0.1633 -0.2890  0.2527
25604CL      CL77126   1.486   4.210   7.472  0.2424 -0.0638  0.0193
25605CL      CL77127   0.169   5.247   7.331 -0.2796 -0.1683 -0.0125
25606CL      CL77128   1.525   5.714   5.887  0.2525  0.0504 -0.3305
25607CL      CL77129   1.582   7.053   7.648  0.0183 -0.2150  0.3976
25608CL      CL77130   0.489   4.250   7.128 -0.1544  0.3568 -0.2332
25609CL      CL77131   0.027   4.274   8.771 -0.3406 -0.3679  0.1372
25610CL      CL77132   0.963   5.233   9.166  0.2896 -0.0625  0.1415
25611CL      CL77133   1.198   4.394   9.605 -0.0017  0.0562  0.3084
25612CL      CL77134   6.654   6.503   8.431 -0.3292  0.0538  0.3130
25613CL      CL77135   7.075   5.367  10.453 -0.2487  0.5020 -0.3492
25614CL      CL77136   7.823   5.461   9.169  0.2269  0.7084  0.0606
25615CL      CL77137   0.839   3.905  10.307 -0.2347 -0.5391  0.2852
25616CL      CL77138   1.910   3.186  11.780 -0.1385 -0.0663  0.1553
25617CL      CL77139   0.429   4.264  11.128  0.0900 -0.5334  0.0820
25618CL      CL77140   1.017   4.011  12.168 -0.1543 -0.0317 -0.1908
25619CL      CL77141   7.951   5.843  12.026  0.1321  0.5585 -0.4272
25620CL      CL77142   0.179   6.280   1.296 -0.1174 -0.4453 -0.2484
25621CL      CL77143   0.609   5.511   2.173 -0.4318 -0.4925  0.0031
25622CL      CL77144   0.693   6.791   1.958 -0.0543 -0.0530 -0.1251
25623CL      CL77145   0.489   6.062   0.982 -0.1932 -0.2574  0.2533
25624CL      CL77146   1.797   7.163   2.534 -0.2657  0.1266 -0.2525
25625CL      CL77147   1.456   5.120   2.472  0.1146  0.0450  0.2475
25626CL      CL77148   1.759   5.665   3.967 -0.0093  0.1233  0.2900
25627CL      CL77149   1.560   7.269   3.122 -0.8101 -0.0567  0.3522
25628CL      CL77150   0.885   7.502   4.217  0.4015  0.3042  0.0451
25629CL      CL77151   1.225   4.883   6.087  0.3284  0.2692  0.0313
25630CL      CL77152   1.245   7.538   3.303  0.1821 -0.1848 -0.3952
25631CL      CL77153   2.666   6.344   8.768 -0.2163  0.5349  0.3755
25632CL      CL77154   0.802   6.917   7.014 -0.1737  0.1835 -0.5663
25633CL      CL77155   7.281   6.984   6.147 -0.0884  0.0830  0.1063
25634CL      CL77156   1.443   6.490   5.997  0.1847 -0.0087  0.0660
25635CL      CL77157   7.552   7.037   5.726  0.0936 -0.2936 -0.6635
25636CL      CL77158   1.680   6.588   3.927  0.0884 -0.1812 -0.1131
25637CL      CL77159   1.187   5.028   8.458  0.0598  0.3607  0.2382
25638CL      CL77160   0.036   6.934   7.790 -0.2440  0.3044 -0.2729
25639CL      CL77161   1.314   7.297   7.418 -0.0286  0.0252  0.1475
25640CL      CL77162   1.610   7.308   8.820 -0.3714 -0.2726 -0.0148
25641CL      CL77163   0.582   6.729  10.259  0.2748 -0.3380  0.0098
25642CL      CL77164   0.825   6.377   7.761  0.0167 -0.1525  0.4897
25643CL      CL77165   7.218   6.600   9.691 -0.0922  0.3048  0.0914
25644CL      CL77166   0.593   0.025   9.656  0.1000  0.2122 -0.1188
25645CL      CL77167   0.892   6.818  10.818  0.4235 -0.3593  0.0754
25646CL      CL77168   0.038   7.916  11.680  0.3270 -0.0448 -0.1403
25647CL      CL77169   7.532   7.792  10.919  0.0792 -0.2251  0.6011
25648CL      CL77170   1.035   6.331  12.048 -0.1373 -0.0981 -0.2788
25649CL      CL77171   0.861   5.819  12.154 -0.1224  0.1002 -0.2154
25650CL      CL77172   1.245   5.645  11.277  0.1833  0.0160 -0.1425
25651CL      CL77173   0.540   5.326   0.373  0.0363 -0.4040  0.0796
25652CL      CL77174   1.909   7.170   6.222 -0.1127 -0.3503  0.3851
25653CL      CL77175   0.555   7.352   7.384 -0.0013 -0.0229  0.1702
25654CL      CL77176   1.592   1.810   1.307  0.1055 -0.0292 -0.4458
25655CL      CL77177   3.015   0.248   2.040 -0.3186 -0.4531  0.0148
25656CL      CL77178   2.526   0.937  12.408  0.6775 -0.0174 -0.4320
25657CL      CL77179   3.850   0.284  12.108 -0.0422  0.2089  0.0927
25658CL      CL77180   1.659   0.488   0.542 -0.2868 -0.3825  0.2594
25659CL      CL77181   1.964   2.575   2.207  0.1065  0.2862  0.5014
25660CL      CL77182   2.780   1.159   1.828 -0.2695 -0.2546  0.1178
25661CL      CL77183   2.952   0.906   2.593  0.0021  0.2774  0.3817
25662CL      CL77184   3.378   1.554   1.490  0.4408  0.4877 -0.0466
25663CL      CL77185   2.721   7.962   3.338  0.1728 -0.1278 -0.2169
25664CL      CL77186   2.742   0.924   4.839 -0.1395 -0.2010 -0.1117
25665CL      CL77187   2.145   0.071   7.143 -0.0752 -0.0050 -0.1868
25666CL      CL77188   2.199   7.894   5.621 -0.3748 -0.0497 -0.0773
25667CL      CL77189   4.300   7.093   6.898  0.0566 -0.3153 -0.0963
25668CL      CL77190   2.027   2.426   6.139  0.0675 -0.0985 -0.0869
25669CL      CL77191   4.558   0.389   6.232  0.5060  0.4673 -0.0026
25670CL      CL77192   2.899   7.427   6.524  0.4195  0.0029 -0.2003
25671CL      CL77193   1.484   0.782   7.564  0.3499 -0.1278  0.1574
25672CL      CL77194   4.076   1.574   8.468 -0.0152  0.4662  0.3770
25673CL      CL77195   1.474   0.670   9.858 -0.3820 -0.1763  0.0870
25674CL      CL77196   0.805   0.813  10.175  0.2753  0.4277 -0.3531
25675CL      CL77197   2.911   0.436   9.048 -0.5023 -0.1833  0.4252
25676CL      CL77198   3.078   1.233   8.567  0.7839  0.4611  0.0485
25677CL      CL77199   1.277   1.475   9.788 -0.1107 -0.0356  0.2012
25678CL      CL77200   3.527   1.096  11.234 -0.1513  0.0864  0.1717
25679CL      CL77201   3.391   2.379   1.019  0.1120 -0.3832 -0.2643
25680CL      CL77202   1.094   2.410  11.848  0.1737  0.3663  0.1113
25681CL      CL77203   1.904   1.533   0.594  0.3723 -0.3062  0.1097
25682CL      CL77204   2.249   3.647   1.819 -0.1992 -0.2232 -0.1632
25683CL      CL77205   2.788   2.235   1.071  0.1819  0.2719  0.1710
25684CL      CL77206   1.869   4.161   1.435 -0.0358 -0.0899  0.1639
25685CL      CL77207   1.586   3.245   1.978  0.1617  0.0364 -0.3019
25686CL      CL77208   2.252   2.673   3.270 -0.3008 -0.0737  0.1219
25687CL      CL77209   1.969   2.983   1.695 -0.1552 -0.1962  0.2011
25688CL      CL77210   3.272   2.456   2.934  0.1626 -0.3996  0.0447
25689CL      CL77211   0.887   4.511   6.054 -0.1513  0.0067  0.5264
25690CL      CL77212   2.319   1.897   3.759  0.1777  0.1032 -0.0488
25691CL      CL77213   0.205   3.958   4.413  0.0208 -0.4362 -0.2117
25692CL      CL77214   2.135   4.026   4.868 -0.0619 -0.2360  0.4187
25693CL      CL77215   1.596   3.150   6.604 -0.5816  0.1392  0.0418
25694CL      CL77216   2.219   4.285   6.921  0.1485  0.2607  0.0990
25695CL      CL77217   2.631   2.564   6.355 -0.1329 -0.1213 -0.2024
25696CL      CL77218   3.297   1.471  10.502  0.0143  0.0590 -0.0836
25697CL      CL77219   3.868   1.742   9.196 -0.2018  0.3092 -0.0909
25698CL      CL77220   1.579   4.121  10.262 -0.0763  0.0980  0.2178
25699CL      CL77221   2.626   3.292  10.675 -0.2215 -0.1806  0.0511
25700CL      CL77222   1.331   2.337   9.387  0.3168 -0.1650 -0.0538
25701CL      CL77223   1.166   4.114   0.339  0.5278  0.1819  0.1690
25702CL      CL77224   1.361   1.037  11.759 -0.5360 -0.0204 -0.0731
25703CL      CL77225   2.743   1.998  12.443 -0.4375 -0.3028 -0.2919
25704CL      CL77226   4.407   3.319   0.339  0.2379  0.1613  0.2597
25705CL      CL77227   2.822   2.495  12.498  0.1165  0.3831  0.3242
25706CL      CL77228   2.242   5.136   3.326  0.3279 -0.2744  0.2207
25707CL      CL77229   1.708   4.931   0.963  0.5105 -0.2177 -0.0757
25708CL      CL77230   2.416   3.071  11.625  0.1052  0.3920  0.2261
25709CL      CL77231   2.217   6.017   1.328  0.0130 -0.1973 -0.6524
25710CL      CL77232   3.371   4.545   1.865  0.1581 -0.2110 -0.0316
25711CL      CL77233   1.018   3.395   3.320 -0.0082  0.5252 -0.0073
25712CL      CL77234   3.427   6.633   3.631  0.0920 -0.1092  0.0436
25713CL      CL77235   0.788   4.615   8.667 -0.3420 -0.2629  0.2914
25714CL      CL77236   2.808   4.218  10.323  0.0749  0.1382  0.0280
25715CL      CL77237   3.747   4.769  11.886 -0.3160  0.3166 -0.1990
25716CL      CL77238   2.215   6.531  10.275 -0.1130  0.1405  0.3250
25717CL      CL77239   0.876   4.472  11.128 -0.2626  0.0326  0.1724
25718CL      CL77240   2.565   3.839   0.197  0.3775  0.3270  0.0766
25719CL      CL77241   2.421   5.212  10.876  0.0460  0.0702 -0.1351
25720CL      CL77242   1.679   5.161  10.296  0.1736 -0.0427  0.1152
25721CL      CL77243   3.323   4.739   0.201 -0.3433  0.1343  0.1487
25722CL      CL77244   2.543   5.340   2.492  0.0349 -0.1753  0.1328
25723CL      CL77245   3.384   4.635  12.190  0.5567  0.0979  0.2191
25724CL      CL77246   3.294   7.416  12.138  0.0319 -0.2412  0.3823
25725CL      CL77247   1.345   6.769   2.494 -0.0868 -0.1231 -0.2691
25726CL      CL77248   1.551   0.353   1.497  0.1894  0.0525  0.0271
25727CL      CL77249   3.881   7.081   1.869  0.0078  0.0487  0.0805
25728CL      CL77250   2.658   6.076   0.172 -0.1498  0.0009  0.0615
25729CL      CL77251   2.759   6.507   2.067  0.0609  0.2365  0.0273
25730CL      CL77252   2.777   5.309   4.267 -0.4136 -0.0230 -0.0750
25731CL      CL77253   1.711   7.078   5.846  0.5212  0.1734 -0.3799
25732CL      CL77254   2.605   4.691   3.827 -0.0156 -0.0545  0.2943
25733CL      CL77255   3.841   6.641   6.162  0.1608 -0.0220  0.1355
25734CL      CL77256   3.699   7.385   4.823  0.3669 -0.2249  0.1075
25735CL      CL77257   2.898   5.707   4.564 -0.2373 -0.1248  0.3565
25736CL      CL77258   2.788   6.015   5.360 -0.1128  0.1699  0.1380
25737CL      CL77259   3.588   6.531   6.954 -0.3374 -0.3047 -0.0360
25738CL      CL77260   1.553   6.871   8.643 -0.1706 -0.3605  0.0009
25739CL      CL77261   0.359   6.334   5.378  0.5165  0.1035  0.1016
25740CL      CL77262   2.446   6.329   5.550 -0.1240 -0.0877 -0.6474
25741CL      CL77263   2.454   5.017   8.779 -0.1430  0.0549 -0.0956
25742CL      CL77264   2.897   6.179   8.189 -0.1321 -0.1005  0.1585
25743CL      CL77265   4.395   5.812   8.083  0.5468 -0.2187  0.2181
25744CL      CL77266   2.977   5.338  10.085  0.1247  0.6849  0.1431
25745CL      CL77267   2.385   7.226  10.516 -0.3648 -0.0784  0.0095
25746CL      CL77268   2.109   6.057  11.196 -0.1405 -0.1298  0.0716
25747CL      CL77269   3.400   7.303  10.135  0.0722  0.1801  0.0576
25748CL      CL77270   2.350   7.484  11.626  0.0743  0.2536  0.1273
25749CL      CL77271   3.562   7.481   2.331 -0.1564  0.2721  0.0219
25750CL      CL77272   3.698   7.974   5.215  0.3910 -0.0279  0.1870
25751CL      CL77273   3.382   7.144   6.795 -0.0653 -0.3690  0.1110
25752CL      CL77274   2.326   7.701   8.480  0.1691 -0.0102 -0.1274
25753CL      CL77275   2.431   7.380   8.878 -0.1550  0.1995  0.0106
25754CL      CL77276   3.437   0.091  10.118  0.1101 -0.2682  0.0198
25755CL      CL77277   1.956   7.987  11.550  0.2231 -0.0388  0.1727
25756CL      CL77278   4.689   0.461   0.370  0.5088 -0.0161  0.0365
25757CL      CL77279   5.129   7.790   0.236 -0.0404  0.0394 -0.0646
25758CL      CL77280   4.139   1.539   2.995 -0.1188 -0.0222  0.2282
25759CL      CL77281   4.229   0.828   1.168  0.0123 -0.1063  0.2761
25760CL      CL77282   4.381   7.657   2.438  0.2978 -0.1785 -0.2119
25761CL      CL77283   3.931   0.336   4.880  0.2151 -0.9582 -0.4942
25762CL      CL77284   4.592   7.943   4.154 -0.1577 -0.0602 -0.0443
25763CL      CL77285   4.456   1.447   3.551  0.3636 -0.1556 -0.0485
25764CL      CL77286   2.933   7.987   5.114  0.2938 -0.0091  0.3306
25765CL      CL77287   3.429   0.840   6.746 -0.2282  0.4528  0.2694
25766CL      CL77288   4.239   1.058   3.513  0.1746 -0.4808 -0.2038
25767CL      CL77289   5.787   1.746   3.109 -0.2887  0.6563  0.2196
25768CL      CL77290   4.007   1.256   7.457  0.2429 -0.0175 -0.1513
25769CL      CL77291   5.550   7.132   6.838  0.1447 -0.1564  0.0623
25770CL      CL77292   4.868   1.174   6.249  0.1913  0.6192  0.0568
25771CL      CL77293   4.183   0.200   8.129  0.0846  0.0293 -0.0853
25772CL      CL77294   3.279   7.706   8.339  0.1793 -0.2880  0.2259
25773CL      CL77295   4.597   0.880   8.692  0.1867 -0.3779  0.1955
25774CL      CL77296   4.722   1.231  10.931 -0.3878 -0.0164 -0.0523
25775CL      CL77297   4.631   0.868   0.673 -0.0221  0.2080  0.1073
25776CL      CL77298   4.679   0.448  10.809 -0.1252 -0.1456 -0.0319
25777CL      CL77299   5.121   1.673  11.344 -0.1072 -0.1690 -0.4103
25778CL      CL77300   5.064   0.546  12.096  0.0323 -0.1385  0.1929
25779CL      CL77301   4.008   0.984  11.955  0.0289  0.0528 -0.2937
25780CL      CL77302   4.018   2.563  11.684 -0.0230 -0.0594  0.0976
25781CL      CL77303   5.023   0.280   9.799  0.3344 -0.3105  0.3522
25782CL      CL77304   3.766   1.132   0.995 -0.3111 -0.1117 -0.2602
25783CL      CL77305   4.810   2.408   1.116  0.1888 -0.2914  0.1136
25784CL      CL77306   7.252   3.508   0.502  0.3354 -0.0118  0.0840
25785CL      CL77307   5.564   4.105   0.140  0.0917 -0.2775 -0.2333
25786CL      CL77308   5.714   1.378   1.353 -0.5130  0.1890  0.0497
25787CL      CL77309   4.673   2.902   1.956  0.0465  0.4279 -0.2339
25788CL      CL77310   3.863   3.515   1.570  0.3050 -0.0578  0.6004
25789CL      CL77311   5.006   3.191   0.427 -0.0304  0.4868  0.0132
25790CL      CL77312   5.731   3.716   2.837 -0.0393  0.2217 -0.2472
25791CL      CL77313   5.174   2.742   2.590  0.0346  0.3422  0.4916
25792CL      CL77314   2.914   2.527   4.647  0.1345  0.1149  0.3905
25793CL      CL77315   3.624   1.434   5.523 -0.3379 -0.4065 -0.1019
25794CL      CL77316   6.419   1.434   6.810  0.3103 -0.1577 -0.4468
25795CL      CL77317   4.118   1.432   6.642 -0.2590  0.4729  0.2238
25796CL      CL77318   6.255   3.387   7.871  0.0189  0.0866  0.0328
25797CL      CL77319   6.627   4.234   7.586 -0.0033  0.3573  0.4409
25798CL      CL77320   3.818   0.854   5.945  0.3008  0.3635 -0.1969
25799CL      CL77321   3.541   1.304   9.087  0.2167 -0.1153 -0.1920
25800CL      CL77322   1.968   0.858   7.483 -0.0310  0.2780 -0.2357
25801CL      CL77323   5.775   2.598   8.164  0.0328 -0.1206  0.0858
25802CL      CL77324   4.082   3.647  10.271  0.0051 -0.2222  0.5536
25803CL      CL77325   3.173   2.507   9.651 -0.1672  0.5202 -0.0291
25804CL      CL77326   6.621   3.763   9.684  0.2759  0.2124 -0.3279
25805CL      CL77327   4.838   2.158   0.657 -0.3472 -0.4107 -0.3020
25806CL      CL77328   6.199   3.321  11.886 -0.0155 -0.4460 -0.2249
25807CL      CL77329   3.715   5.919   1.057 -0.1861 -0.2466  0.1807
25808CL      CL77330   4.134   4.028   1.010 -0.0096 -0.1495 -0.0853
25809CL      CL77331   4.919   4.667   0.654 -0.2436 -0.0290  0.1186
25810CL      CL77332   4.977   6.025   1.859  0.2829  0.1636 -0.0933
25811CL      CL77333   5.869   4.503   4.498  0.0664  0.1083  0.0968
25812CL      CL77334   6.358   4.917   7.886 -0.1394 -0.2281 -0.0862
25813CL      CL77335   5.162   4.753  10.193 -0.1570 -0.1897 -0.1329
25814CL      CL77336   4.395   5.896  10.899 -0.1081  0.1379  0.5014
25815CL      CL77337   6.184   4.629  11.276  0.1396 -0.3262 -0.3649
25816CL      CL77338   4.749   4.235  10.927  0.4249 -0.1858 -0.0265
25817CL      CL77339   4.502   4.908   0.046  0.2981  0.2437 -0.2355
25818CL      CL77340   5.142   5.802  11.024  0.2513  0.0560 -0.3334
25819CL      CL77341   4.507   4.318  11.574  0.3227  0.3500  0.0799
25820CL      CL77342   3.830   3.939  11.547  0.8346 -0.0322  0.5229
25821CL      CL77343   4.378   3.690  11.089  0.3888  0.2136  0.4110
25822CL      CL77344   5.136   6.246   0.119  0.2069  0.0111 -0.1295
25823CL      CL77345   4.098   6.694  11.673  0.2665 -0.1561  0.2421
25824CL      CL77346   5.833   6.701  12.275 -0.1680 -0.2735  0.1481
25825CL      CL77347   5.281   6.185   0.502  0.4058 -0.4963 -0.2370
25826CL      CL77348   5.697   6.250   2.623  0.0983  0.1236  0.4839
25827CL      CL77349   3.610   7.476   2.834 -0.0969 -0.0375 -0.0859
25828CL      CL77350   4.653   6.209   3.019 -0.0893  0.1907 -0.2506
25829CL      CL77351   5.228   4.936   4.248 -0.4648  0.2174  0.2111
25830CL      CL77352   4.935   7.977   5.136  0.2735 -0.2982  0.1329
25831CL      CL77353   4.719   6.449   4.479  0.1827 -0.4171 -0.0677
25832CL      CL77354   5.200   6.210   5.882 -0.5948 -0.0259 -0.0170
25833CL      CL77355   4.369   7.840   6.047 -0.3455 -0.1738  0.1571
25834CL      CL77356   6.364   6.586   7.753  0.0844  0.1888  0.1205
25835CL      CL77357   6.246   5.800   6.870 -0.0032  0.2674 -0.1220
25836CL      CL77358   7.462   6.421   6.316  0.3481 -0.2463 -0.1101
25837CL      CL77359   4.695   0.133   8.333 -0.1605 -0.2566 -0.0503
25838CL      CL77360   4.533   5.289   9.374  0.0994 -0.2383 -0.1831
25839CL      CL77361   4.552   6.516   7.492 -0.3165 -0.1389 -0.6083
25840CL      CL77362   3.502   5.980  10.178  0.1159  0.1906 -0.1817
25841CL      CL77363   3.279   7.961  11.365 -0.0985 -0.1475 -0.1370
25842CL      CL77364   6.281   5.479   9.935  0.0162 -0.1932  0.1160
25843CL      CL77365   3.293   5.748  11.447 -0.0613  0.1810 -0.1704
25844CL      CL77366   5.104   6.207  11.870  0.1644 -0.2024 -0.0723
25845CL      CL77367   4.245   6.243   0.278  0.1757  0.0477 -0.1772
25846CL      CL77368   4.202   7.391   0.895 -0.0876  0.0025  0.3061
25847CL      CL77369   3.371   7.730   1.304  0.1510 -0.1335  0.0492
25848CL      CL77370   5.364   7.487  11.544 -0.3740 -0.1204 -0.0761
25849CL      CL77371   4.194   0.215   3.611  0.0136  0.4796 -0.2386
25850CL      CL77372   4.908   0.517   3.750  0.0313 -0.3104  0.1096
25851CL      CL77373   4.293   7.016   6.374 -0.0131 -0.2477  0.2086
25852CL      CL77374   4.323   6.288   9.212 -0.1365  0.1464 -0.2844
25853CL      CL77375   4.621   0.097   9.241  0.1534  0.2365 -0.2963
25854CL      CL77376   5.056   6.692   8.698 -0.0401 -0.1810 -0.1745
25855CL      CL77377   4.450   7.530  10.933 -0.3265 -0.1014 -0.1064
25856CL      CL77378   6.463   1.864   2.218 -0.0455 -0.0271  0.2968
25857CL      CL77379   6.259   0.357  12.117  0.3105 -0.1335 -0.1254
25858CL      CL77380   6.372   1.058  10.856  0.2800 -0.1355  0.1910
25859CL      CL77381   7.665   2.498   1.105  0.1506 -0.5403  0.5058
25860CL      CL77382   0.067   1.181   3.773 -0.1194 -0.2138  0.3275
25861CL      CL77383   7.258   7.435   2.003 -0.2641 -0.0961 -0.4203
25862CL      CL77384   6.744   0.219   2.184 -0.0054  0.1307 -0.2581
25863CL      CL77385   7.218   2.531   2.959  0.2222 -0.0065 -0.0044
25864CL      CL77386   6.112   0.555   1.140  0.1822 -0.2155  0.6081
25865CL      CL77387   6.494   0.025   0.785 -0.1759 -0.0668 -0.1251
25866CL      CL77388   1.050   0.877   3.711 -0.3754  0.1575  0.5180
25867CL      CL77389   7.720   0.823   4.901  0.3033 -0.2600  0.1197
25868CL      CL77390   7.265   0.391   3.802 -0.1447  0.1880  0.2099
25869CL      CL77391   6.695   2.765   5.489 -0.3522 -0.0505 -0.2943
25870CL      CL77392   6.399   7.575   4.706  0.2521  0.2982 -0.1796
25871CL      CL77393   1.057   1.363   3.905 -0.1708  0.1026  0.1269
25872CL      CL77394   4.565   1.360   4.070 -0.5771  0.0231  0.0346
25873CL      CL77395   5.296   1.984   5.710  0.4065  0.0425 -0.3583
25874CL      CL77396   5.312   7.785   6.093  0.1024  0.0111  0.2357
25875CL      CL77397   5.878   0.432   6.373  0.4460  0.0848  0.2773
25876CL      CL77398   6.966   0.310   7.896  0.0806  0.1042 -0.0267
25877CL      CL77399   5.095   2.008   9.653 -0.0820 -0.3684  0.4048
25878CL      CL77400   0.173   1.804   9.010  0.0291 -0.2503  0.0017
25879CL      CL77401   7.005   0.906   9.564 -0.3682  0.2053 -0.1410
25880CL      CL77402   6.771   7.865  11.088 -0.1812 -0.0421 -0.1008
25881CL      CL77403   5.786   0.577  10.006 -0.2779 -0.1338 -0.2377
25882CL      CL77404   6.760   2.625  10.355  0.2860  0.2108 -0.1239
25883CL      CL77405   6.999   1.994  10.635 -0.1822 -0.1752  0.3026
25884CL      CL77406   5.911   0.999  12.374  0.2706 -0.3541  0.2905
25885CL      CL77407   6.538   2.106  11.612 -0.1194 -0.1314  0.1279
25886CL      CL77408   5.437   3.253   1.945 -0.0441 -0.1367  0.6079
25887CL      CL77409   5.788   3.626   0.712 -0.3698  0.0940  0.1355
25888CL      CL77410   6.659   2.339   0.564 -0.2148  0.1027  0.1362
25889CL      CL77411   4.979   2.251   0.219 -0.4222 -0.2507  0.0038
25890CL      CL77412   7.679   3.015   1.444  0.1515 -0.1455 -0.1032
25891CL      CL77413   7.416   4.397   2.996  0.0438  0.2329 -0.0239
25892CL      CL77414   6.023   1.016   1.938  0.0063 -0.1227 -0.2288
25893CL      CL77415   5.768   2.512   5.489  0.3522 -0.1837  0.0377
25894CL      CL77416   7.920   2.702   3.874 -0.0189 -0.2476 -0.3010
25895CL      CL77417   5.267   1.955   4.515 -0.1388  0.3148  0.2736
25896CL      CL77418   6.032   1.390   4.688 -0.2329 -0.6250 -0.2822
25897CL      CL77419   7.140   4.358   3.668  0.1679  0.3072 -0.2803
25898CL      CL77420   7.507   2.827   5.633 -0.0145 -0.2006 -0.1408
25899CL      CL77421   5.850   3.213   5.995  0.4063 -0.4015 -0.0617
25900CL      CL77422   6.981   3.768   8.391 -0.2136 -0.0897  0.4603
25901CL      CL77423   6.659   2.509   6.998  0.3785 -0.2498  0.0147
25902CL      CL77424   7.234   2.227   6.597 -0.3870 -0.3325  0.0628
25903CL      CL77425   5.454   2.291   9.336  0.0851 -0.2299 -0.0059
25904CL      CL77426   7.349   1.956   9.288  0.3675  0.4746 -0.0023
25905CL      CL77427   5.905   1.111   7.882  0.3971  0.6109  0.1665
25906CL      CL77428   7.403   2.704   7.958  0.1703  0.0298  0.1378
25907CL      CL77429   5.658   2.936   9.262 -0.2621  0.2413  0.3287
25908CL      CL77430   5.548   4.077   8.501 -0.1262  0.3185  0.2379
25909CL      CL77431   0.352   3.331   8.447  0.1220 -0.0491  0.3124
25910CL      CL77432   0.485   2.963  11.417  0.5010 -0.0101 -0.1317
25911CL      CL77433   5.759   1.891  10.356 -0.1752 -0.1933 -0.3152
25912CL      CL77434   6.571   2.876   9.050  0.0712  0.0470  0.2374
25913CL      CL77435   0.541   2.964   9.530  0.1367 -0.1971  0.0254
25914CL      CL77436   5.582   2.898  12.199 -0.3770  0.5791 -0.4003
25915CL      CL77437   7.493   3.638  11.544  0.0438 -0.1613 -0.2291
25916CL      CL77438   6.608   2.310  12.276  0.4311 -0.0544 -0.1467
25917CL      CL77439   5.365   5.354   0.837  0.2177  0.3897 -0.1203
25918CL      CL77440   7.045   5.147   2.060  0.0332 -0.1524  0.1754
25919CL      CL77441   7.052   4.210   1.760  0.5468 -0.2707 -0.3153
25920CL      CL77442   7.593   4.328   0.201  0.1575 -0.2825  0.3299
25921CL      CL77443   7.694   6.152   2.923  0.0808  0.0120 -0.2891
25922CL      CL77444   7.138   5.007   4.299  0.1619 -0.2916  0.5856
25923CL      CL77445   5.748   4.936   4.106 -0.4307 -0.3477 -0.0218
25924CL      CL77446   6.558   4.317   2.932  0.2642  0.0942  0.1610
25925CL      CL77447   6.509   4.310   5.150  0.1521  0.0515  0.1501
25926CL      CL77448   7.303   4.653   8.300 -0.1479  0.2317 -0.1631
25927CL      CL77449   0.066   4.638   6.032 -0.2764  0.2053  0.1347
25928CL      CL77450   7.226   4.236   8.756 -0.2765 -0.2001 -0.3046
25929CL      CL77451   7.993   5.915   9.125  0.0046 -0.5872  0.3510
25930CL      CL77452   6.165   5.719  11.145  0.3212  0.1604 -0.4775
25931CL      CL77453   6.699   5.273   9.744  0.0394  0.2126 -0.2217
25932CL      CL77454   5.913   4.986  10.748  0.5098 -0.0408 -0.3434
25933CL      CL77455   6.648   5.391  12.362 -0.3736 -0.0923 -0.0064
25934CL      CL77456   6.356   6.210   1.010 -0.1971  0.2343  0.3446
25935CL      CL77457   7.393   7.548   0.389 -0.1775  0.0568  0.1266
25936CL      CL77458   7.573   5.300  11.584 -0.3428 -0.0448  0.1488
25937CL      CL77459   7.368   5.651   0.335  0.2212 -0.2841 -0.0182
25938CL      CL77460   5.101   6.529   1.090 -0.4724  0.2020  0.4806
25939CL      CL77461   7.025   6.943   0.312  0.3772 -0.2410  0.2334
25940CL      CL77462   7.174   5.364   1.225 -0.1536  0.1719 -0.0444
25941CL      CL77463   6.821   7.250   3.404  0.2553  0.0515  0.1303
25942CL      CL77464   6.417   5.654   1.059 -0.0048 -0.2786 -0.2715
25943CL      CL77465   6.530   5.659   2.857 -0.2346 -0.1374 -0.2666
25944CL      CL77466   7.761   0.971   2.801 -0.1720  0.3203 -0.0784
25945CL      CL77467   6.236   6.884   2.410 -0.0576 -0.0745  0.3634
25946CL      CL77468   6.002   5.160   3.441 -0.3847 -0.1053 -0.0513
25947CL      CL77469   6.115   6.266   4.248 -0.2019 -0.4660  0.1120
25948CL      CL77470   6.317   6.698   4.300  0.1438  0.6732 -0.1995
25949CL      CL77471   0.152   4.678   5.202 -0.3825  0.6715 -0.0644
25950CL      CL77472   5.411   6.551   5.047 -0.2330 -0.0310 -0.0344
25951CL      CL77473   5.868   5.610   4.427 -0.3930  0.0037  0.2266
25952CL      CL77474   5.613   7.073   3.416 -0.0054  0.0746  0.0556
25953CL      CL77475   5.995   6.754   7.085  0.0196  0.1145 -0.0080
25954CL      CL77476   6.769   7.013   7.143 -0.6925  0.2012 -0.2109
25955CL      CL77477   5.762   5.998   9.998  0.1638 -0.1570 -0.3432
25956CL      CL77478   6.340   7.791   9.226  0.2662  0.2520  0.2584
25957CL      CL77479   5.335   6.887  10.351  0.4220 -0.4256  0.3057
25958CL      CL77480   5.865   7.651  11.652  0.1306 -0.3139 -0.4335
25959CL      CL77481   7.867   5.219  11.185  0.1528 -0.0531 -0.1794
25960CL      CL77482   5.860   7.462   9.537 -0.2298 -0.3163  0.0369
25961CL      CL77483   7.098   7.104  10.942 -0.1453 -0.4448  0.2631
25962CL      CL77484   5.919   7.333   2.152  0.3541  0.0999  0.3149
25963CL      CL77485   7.411   6.994   7.019  0.0099 -0.4733  0.2447
25964CL      CL77486   6.315   0.623   5.721 -0.2411  0.0331 -0.1027
25965CL      CL77487   6.907   0.047   6.314 -0.2739  0.5320  0.0061
25966CL      CL77488   6.760   6.812   8.849 -0.0925  0.2763  0.0911
25967CL      CL77489   7.245   0.473   9.666 -0.1741 -0.1046  0.0693
25968CL      CL77490   5.654   7.079   8.703 -0.1049  0.1742 -0.1345
25969CL      CL77491   7.865   7.891   0.016  0.1701 -0.4326 -0.1160
25970CL      CL77492   7.765   0.361   0.226  0.1781 -0.1173 -0.1639
25971CL      CL77493   7.678   2.186   2.184  0.2201  0.1005  0.0963
25972CL      CL77494   7.405   1.591   3.475  0.0391  0.2892  0.1598
25973CL      CL77495   7.805   0.368   5.744  0.1316  0.0941  0.2392
25974CL      CL77496   0.521   0.420   3.387  0.1794  0.4811  0.4565
25975CL      CL77497   6.977   2.217   4.556  0.2249  0.3082  0.1622
25976CL      CL77498   0.581   2.297   7.430  0.1249  0.3065  0.3918
25977CL      CL77499   6.618   0.070   8.470 -0.0024 -0.0589  0.6733
25978CL      CL77500   5.387   2.468   1.850 -0.0478 -0.2101  0.1627
25979CL      CL77501   7.725   1.689   5.069 -0.1074  0.4568 -0.1052
25980CL      CL77502   0.372   2.091   3.046  0.1033  0.1026 -0.0249
25981CL      CL77503   0.712   2.658   5.560 -0.0910 -0.0493 -0.1017
25982CL      CL77504   7.980   2.614  12.436 -0.3042 -0.0476  0.0208
25983CL      CL77505   7.482   2.536   0.085  0.1281 -0.3321 -0.3875
25984CL      CL77506   0.207   5.048   4.427  0.0338 -0.0631  0.0764
25985CL      CL77507   0.441   5.200   3.672  0.0689 -0.1303 -0.3669
25986CL      CL77508   7.077   4.483   7.590 -0.5676  0.3443  0.5174
25987CL      CL77509   7.670   4.059   6.886  0.0602 -0.1400  0.0665
25988CL      CL77510   1.574   3.571   9.721  0.1810  0.1384 -0.0386
25989CL      CL77511   0.964   6.425   9.077 -0.1724  0.1219  0.0096
25990CL      CL77512   0.061   5.110  10.730 -0.0681  0.1296 -0.0120
25991CL      CL77513   7.181   5.062  11.183  0.0393 -0.0458 -0.0840
25992CL      CL77514   0.906   6.515   2.964  0.1944 -0.1047 -0.1440
25993CL      CL77515   0.397   7.810   3.345 -0.0374 -0.3220  0.1607
25994CL      CL77516   7.911   6.900   5.005 -0.5218  0.0963 -0.0332
25995CL      CL77517   0.703   6.921   4.131 -0.1841  0.1976 -0.2158
25996CL      CL77518   6.964   6.600   6.320  0.1481 -0.0778  0.0892
25997CL      CL77519   6.787   5.319   5.836  0.2529  0.1282  0.1087
25998CL      CL77520   7.054   6.100   4.572 -0.3654 -0.5776  0.0311
25999CL      CL77521   7.674   6.070   8.593  0.1451 -0.1844  0.3146
26000CL      CL77522   0.550   0.278   9.230  0.0912 -0.0785  0.0546
26001CL      CL77523   6.982   7.446   2.391  0.0999  0.1445 -0.1346
26002CL      CL77524   0.219   0.195   5.674 -0.2037 -0.2175  0.0998
26003CL      CL77525   7.223   0.647   8.069 -0.1060  0.3715  0.0370
26004CL      CL77526   0.092   1.041  10.835 -0.3863  0.3813  0.0439
   8.00000   8.00000  12.50000
