Protein in water
79358
    1DC     O5'    1   3.004   4.365   3.339
    1DC     H5T    2   3.066   4.326   3.405
    1DC     C5'    3   2.883   4.289   3.336
    1DC    H5'1    4   2.810   4.343   3.277
    1DC    H5'2    5   2.844   4.282   3.438
    1DC     C4'    6   2.894   4.147   3.278
    1DC     H4'    7   2.793   4.111   3.260
    1DC     O4'    8   2.968   4.140   3.156
    1DC     C1'    9   3.038   4.015   3.150
    1DC     H1'   10   3.006   3.957   3.063
    1DC      N1   11   3.186   4.036   3.143
    1DC      C6   12   3.246   4.150   3.192
    1DC      H6   13   3.187   4.223   3.246
    1DC      C5   14   3.379   4.170   3.175
    1DC      H5   15   3.426   4.258   3.217
    1DC      C4   16   3.453   4.069   3.108
    1DC      N4   17   3.580   4.085   3.087
    1DC     H41   18   3.627   4.161   3.135
    1DC     H42   19   3.633   4.009   3.048
    1DC      N3   20   3.397   3.961   3.056
    1DC      C2   21   3.265   3.940   3.078
    1DC      O2   22   3.218   3.834   3.037
    1DC     C3'   23   2.960   4.049   3.373
    1DC     H3'   24   3.048   4.094   3.418
    1DC     C2'   25   3.000   3.938   3.277
    1DC    H2'1   26   3.083   3.880   3.316
    1DC    H2'2   27   2.915   3.873   3.257
    1DC     O3'   28   2.868   4.000   3.468
    2DG       P   29   2.916   3.976   3.619
    2DG     O1P   30   2.795   3.941   3.697
    2DG     O2P   31   2.996   4.094   3.658
    2DG     O5'   32   3.008   3.847   3.602
    2DG     C5'   33   2.947   3.720   3.589
    2DG    H5'1   34   2.865   3.726   3.518
    2DG    H5'2   35   2.906   3.690   3.686
    2DG     C4'   36   3.044   3.613   3.542
    2DG     H4'   37   2.989   3.520   3.529
    2DG     O4'   38   3.106   3.646   3.419
    2DG     C1'   39   3.234   3.584   3.417
    2DG     H1'   40   3.238   3.513   3.335
    2DG      N9   41   3.341   3.683   3.397
    2DG      C8   42   3.336   3.819   3.410
    2DG      H8   43   3.249   3.872   3.447
    2DG      N7   44   3.445   3.879   3.371
    2DG      C5   45   3.532   3.774   3.341
    2DG      C6   46   3.669   3.774   3.298
    2DG      O6   47   3.741   3.868   3.267
    2DG      N1   48   3.722   3.648   3.286
    2DG      H1   49   3.820   3.641   3.263
    2DG      C2   50   3.652   3.534   3.306
    2DG      N2   51   3.718   3.424   3.288
    2DG     H21   52   3.817   3.428   3.268
    2DG     H22   53   3.669   3.336   3.295
    2DG      N3   54   3.523   3.528   3.338
    2DG      C4   55   3.470   3.653   3.358
    2DG     C3'   56   3.156   3.582   3.641
    2DG     H3'   57   3.196   3.674   3.685
    2DG     C2'   58   3.254   3.512   3.550
    2DG    H2'1   59   3.356   3.521   3.587
    2DG    H2'2   60   3.228   3.407   3.539
    2DG     O3'   61   3.108   3.491   3.737
    3DA       P   62   3.177   3.475   3.879
    3DA     O1P   63   3.090   3.379   3.951
    3DA     O2P   64   3.204   3.608   3.935
    3DA     O5'   65   3.317   3.406   3.843
    3DA     C5'   66   3.323   3.268   3.814
    3DA    H5'1   67   3.250   3.246   3.736
    3DA    H5'2   68   3.294   3.213   3.904
    3DA     C4'   69   3.459   3.215   3.768
    3DA     H4'   70   3.448   3.108   3.751
    3DA     O4'   71   3.507   3.271   3.645
    3DA     C1'   72   3.646   3.296   3.658
    3DA     H1'   73   3.702   3.256   3.573
    3DA      N9   74   3.676   3.441   3.661
    3DA      C8   75   3.598   3.547   3.701
    3DA      H8   76   3.502   3.535   3.748
    3DA      N7   77   3.650   3.664   3.673
    3DA      C5   78   3.775   3.631   3.618
    3DA      C6   79   3.886   3.704   3.568
    3DA      N6   80   3.897   3.835   3.563
    3DA     H61   81   3.830   3.890   3.617
    3DA     H62   82   3.987   3.875   3.543
    3DA      N1   83   3.994   3.640   3.521
    3DA      C2   84   3.995   3.508   3.524
    3DA      H2   85   4.085   3.460   3.487
    3DA      N3   86   3.899   3.426   3.565
    3DA      C4   87   3.792   3.495   3.613
    3DA     C3'   88   3.569   3.228   3.872
    3DA     H3'   89   3.559   3.321   3.929
    3DA     C2'   90   3.693   3.226   3.784
    3DA    H2'1   91   3.776   3.276   3.830
    3DA    H2'2   92   3.720   3.123   3.761
    3DA     O3'   93   3.570   3.112   3.953
    4DC       P   94   3.617   3.119   4.105
    4DC     O1P   95   3.591   2.983   4.157
    4DC     O2P   96   3.549   3.234   4.166
    4DC     O5'   97   3.775   3.149   4.091
    4DC     C5'   98   3.869   3.044   4.074
    4DC    H5'1   99   3.834   2.979   3.994
    4DC    H5'2  100   3.871   2.985   4.166
    4DC     C4'  101   4.012   3.090   4.042
    4DC     H4'  102   4.072   3.000   4.031
    4DC     O4'  103   4.021   3.163   3.919
    4DC     C1'  104   4.125   3.260   3.929
    4DC     H1'  105   4.201   3.242   3.852
    4DC      N1  106   4.076   3.400   3.915
    4DC      C6  107   3.948   3.436   3.948
    4DC      H6  108   3.882   3.362   3.992
    4DC      C5  109   3.906   3.563   3.926
    4DC      H5  110   3.805   3.590   3.949
    4DC      C4  111   4.001   3.657   3.878
    4DC      N4  112   3.965   3.781   3.861
    4DC     H41  113   3.873   3.811   3.887
    4DC     H42  114   4.032   3.850   3.829
    4DC      N3  115   4.125   3.625   3.847
    4DC      C2  116   4.165   3.497   3.864
    4DC      O2  117   4.281   3.468   3.833
    4DC     C3'  118   4.083   3.173   4.150
    4DC     H3'  119   4.014   3.244   4.196
    4DC     C2'  120   4.189   3.241   4.066
    4DC    H2'1  121   4.220   3.335   4.110
    4DC    H2'2  122   4.275   3.175   4.055
    4DC     O3'  123   4.149   3.090   4.245
    5DT       P  124   4.195   3.146   4.389
    5DT     O1P  125   4.255   3.034   4.464
    5DT     O2P  126   4.085   3.224   4.447
    5DT     O5'  127   4.315   3.248   4.356
    5DT     C5'  128   4.443   3.200   4.320
    5DT    H5'1  129   4.432   3.131   4.237
    5DT    H5'2  130   4.486   3.144   4.403
    5DT     C4'  131   4.542   3.310   4.280
    5DT     H4'  132   4.637   3.262   4.258
    5DT     O4'  133   4.498   3.378   4.163
    5DT     C1'  134   4.535   3.515   4.171
    5DT     H1'  135   4.597   3.541   4.086
    5DT      N1  136   4.418   3.606   4.173
    5DT      C6  137   4.296   3.570   4.225
    5DT      H6  138   4.285   3.474   4.275
    5DT      C5  139   4.187   3.650   4.211
    5DT      C7  140   4.054   3.604   4.267
    5DT     H71  141   3.998   3.690   4.305
    5DT     H72  142   3.995   3.557   4.189
    5DT     H73  143   4.068   3.534   4.349
    5DT      C4  144   4.200   3.780   4.145
    5DT      O4  145   4.110   3.860   4.120
    5DT      N3  146   4.328   3.814   4.108
    5DT      H3  147   4.342   3.910   4.078
    5DT      C2  148   4.438   3.734   4.119
    5DT      O2  149   4.549   3.773   4.080
    5DT     C3'  150   4.571   3.416   4.387
    5DT     H3'  151   4.480   3.441   4.442
    5DT     C2'  152   4.618   3.530   4.298
    5DT    H2'1  153   4.602   3.627   4.346
    5DT    H2'2  154   4.724   3.519   4.274
    5DT     O3'  155   4.679   3.376   4.469
    6DC       P  156   4.695   3.433   4.618
    6DC     O1P  157   4.815   3.365   4.672
    6DC     O2P  158   4.566   3.418   4.687
    6DC     O5'  159   4.726   3.588   4.597
    6DC     C5'  160   4.858   3.630   4.568
    6DC    H5'1  161   4.892   3.575   4.481
    6DC    H5'2  162   4.922   3.605   4.652
    6DC     C4'  163   4.873   3.779   4.537
    6DC     H4'  164   4.979   3.799   4.523
    6DC     O4'  165   4.804   3.817   4.418
    6DC     C1'  166   4.760   3.951   4.432
    6DC     H1'  167   4.804   4.014   4.353
    6DC      N1  168   4.612   3.965   4.425
    6DC      C6  169   4.526   3.862   4.457
    6DC      H6  170   4.566   3.770   4.497
    6DC      C5  171   4.392   3.879   4.442
    6DC      H5  172   4.325   3.799   4.467
    6DC      C4  173   4.346   4.005   4.397
    6DC      N4  174   4.219   4.027   4.377
    6DC     H41  175   4.148   3.960   4.405
    6DC     H42  176   4.187   4.119   4.350
    6DC      N3  177   4.427   4.107   4.372
    6DC      C2  178   4.559   4.089   4.386
    6DC      O2  179   4.633   4.186   4.364
    6DC     C3'  180   4.825   3.870   4.649
    6DC     H3'  181   4.730   3.835   4.688
    6DC     C2'  182   4.808   3.999   4.569
    6DC    H2'1  183   4.737   4.066   4.617
    6DC    H2'2  184   4.904   4.048   4.560
    6DC     O3'  185   4.925   3.886   4.748
    7DT       P  186   4.884   3.934   4.895
    7DT     O1P  187   5.006   3.926   4.979
    7DT     O2P  188   4.764   3.859   4.935
    7DT     O5'  189   4.848   4.087   4.872
    7DT     C5'  190   4.949   4.183   4.849
    7DT    H5'1  191   5.012   4.148   4.767
    7DT    H5'2  192   5.010   4.192   4.939
    7DT     C4'  193   4.893   4.321   4.813
    7DT     H4'  194   4.978   4.384   4.790
    7DT     O4'  195   4.808   4.322   4.698
    7DT     C1'  196   4.697   4.408   4.721
    7DT     H1'  197   4.693   4.484   4.644
    7DT      N1  198   4.566   4.336   4.719
    7DT      C6  199   4.554   4.203   4.757
    7DT      H6  200   4.637   4.152   4.801
    7DT      C5  201   4.437   4.136   4.740
    7DT      C7  202   4.431   3.990   4.782
    7DT     H71  203   4.327   3.959   4.794
    7DT     H72  204   4.478   3.928   4.706
    7DT     H73  205   4.482   3.976   4.877
    7DT      C4  206   4.319   4.206   4.690
    7DT      O4  207   4.208   4.159   4.669
    7DT      N3  208   4.337   4.339   4.663
    7DT      H3  209   4.255   4.392   4.637
    7DT      C2  210   4.454   4.408   4.676
    7DT      O2  211   4.459   4.528   4.649
    7DT     C3'  212   4.820   4.388   4.928
    7DT     H3'  213   4.769   4.315   4.992
    7DT     C2'  214   4.720   4.477   4.855
    7DT    H2'1  215   4.629   4.487   4.912
    7DT    H2'2  216   4.763   4.576   4.838
    7DT     O3'  217   4.912   4.471   4.997
    8DA       P  218   4.891   4.502   5.153
    8DA     O1P  219   5.000   4.596   5.188
    8DA     O2P  220   4.887   4.372   5.221
    8DA     O5'  221   4.753   4.584   5.156
    8DA     C5'  222   4.757   4.722   5.126
    8DA    H5'1  223   4.822   4.737   5.040
    8DA    H5'2  224   4.802   4.774   5.211
    8DA     C4'  225   4.624   4.791   5.095
    8DA     H4'  226   4.649   4.893   5.069
    8DA     O4'  227   4.555   4.740   4.982
    8DA     C1'  228   4.416   4.765   5.001
    8DA     H1'  229   4.377   4.829   4.922
    8DA      N9  230   4.341   4.638   4.997
    8DA      C8  231   4.385   4.512   5.025
    8DA      H8  232   4.484   4.492   5.062
    8DA      N7  233   4.297   4.418   5.000
    8DA      C5  234   4.183   4.490   4.962
    8DA      C6  235   4.050   4.456   4.927
    8DA      N6  236   4.004   4.333   4.920
    8DA     H61  237   4.066   4.256   4.939
    8DA     H62  238   3.910   4.315   4.887
    8DA      N1  239   3.962   4.552   4.900
    8DA      C2  240   4.001   4.679   4.905
    8DA      H2  241   3.925   4.752   4.881
    8DA      N3  242   4.122   4.727   4.933
    8DA      C4  243   4.208   4.625   4.962
    8DA     C3'  244   4.527   4.801   5.212
    8DA     H3'  245   4.523   4.707   5.268
    8DA     C2'  246   4.399   4.832   5.137
    8DA    H2'1  247   4.312   4.795   5.190
    8DA    H2'2  248   4.389   4.940   5.123
    8DA     O3'  249   4.566   4.914   5.289
    9DC       P  250   4.531   4.928   5.444
    9DC     O1P  251   4.590   5.060   5.480
    9DC     O2P  252   4.576   4.807   5.515
    9DC     O5'  253   4.371   4.936   5.450
    9DC     C5'  254   4.303   5.058   5.428
    9DC    H5'1  255   4.348   5.108   5.343
    9DC    H5'2  256   4.316   5.120   5.517
    9DC     C4'  257   4.153   5.041   5.400
    9DC     H4'  258   4.115   5.140   5.375
    9DC     O4'  259   4.128   4.958   5.288
    9DC     C1'  260   3.999   4.900   5.300
    9DC     H1'  261   3.935   4.937   5.221
    9DC      N1  262   4.001   4.751   5.294
    9DC      C6  263   4.112   4.677   5.329
    9DC      H6  264   4.199   4.727   5.369
    9DC      C5  265   4.110   4.543   5.312
    9DC      H5  266   4.197   4.484   5.338
    9DC      C4  267   3.990   4.483   5.264
    9DC      N4  268   3.986   4.355   5.243
    9DC     H41  269   4.069   4.299   5.256
    9DC     H42  270   3.900   4.314   5.210
    9DC      N3  271   3.881   4.553   5.234
    9DC      C2  272   3.885   4.687   5.251
    9DC      O2  273   3.782   4.752   5.226
    9DC     C3'  274   4.068   4.987   5.514
    9DC     H3'  275   4.117   4.902   5.563
    9DC     C2'  276   3.944   4.943   5.436
    9DC    H2'1  277   3.892   4.863   5.487
    9DC    H2'2  278   3.877   5.028   5.422
    9DC     O3'  279   4.029   5.088   5.606
   10DG       P  280   3.975   5.052   5.753
   10DG     O1P  281   3.949   5.182   5.819
   10DG     O2P  282   4.067   4.956   5.815
   10DG     O5'  283   3.833   4.981   5.727
   10DG     C5'  284   3.713   5.057   5.719
   10DG    H5'1  285   3.721   5.126   5.635
   10DG    H5'2  286   3.703   5.115   5.811
   10DG     C4'  287   3.585   4.976   5.701
   10DG     H4'  288   3.503   5.047   5.695
   10DG     O4'  289   3.585   4.901   5.579
   10DG     C1'  290   3.521   4.777   5.602
   10DG     H1'  291   3.440   4.762   5.530
   10DG      N9  292   3.613   4.662   5.585
   10DG      C8  293   3.748   4.653   5.606
   10DG      H8  294   3.807   4.735   5.646
   10DG      N7  295   3.800   4.538   5.571
   10DG      C5  296   3.688   4.462   5.533
   10DG      C6  297   3.675   4.325   5.491
   10DG      O6  298   3.760   4.239   5.473
   10DG      N1  299   3.544   4.287   5.470
   10DG      H1  300   3.528   4.190   5.445
   10DG      C2  301   3.438   4.369   5.485
   10DG      N2  302   3.319   4.318   5.468
   10DG     H21  303   3.310   4.218   5.450
   10DG     H22  304   3.241   4.377   5.487
   10DG      N3  305   3.444   4.497   5.520
   10DG      C4  306   3.573   4.537   5.544
   10DG     C3'  307   3.550   4.882   5.818
   10DG     H3'  308   3.639   4.836   5.860
   10DG     C2'  309   3.463   4.782   5.742
   10DG    H2'1  310   3.465   4.685   5.790
   10DG    H2'2  311   3.360   4.818   5.737
   10DG     O3'  312   3.471   4.952   5.914
   11DG       P  313   3.445   4.894   6.063
   11DG     O1P  314   3.349   4.987   6.130
   11DG     O2P  315   3.574   4.866   6.129
   11DG     O5'  316   3.366   4.756   6.034
   11DG     C5'  317   3.227   4.757   6.002
   11DG    H5'1  318   3.210   4.825   5.919
   11DG    H5'2  319   3.172   4.793   6.089
   11DG     C4'  320   3.170   4.620   5.964
   11DG     H4'  321   3.064   4.633   5.946
   11DG     O4'  322   3.228   4.564   5.846
   11DG     C1'  323   3.231   4.423   5.859
   11DG     H1'  324   3.171   4.374   5.782
   11DG      N9  325   3.368   4.371   5.847
   11DG      C8  326   3.488   4.431   5.878
   11DG      H8  327   3.495   4.529   5.922
   11DG      N7  328   3.592   4.359   5.846
   11DG      C5  329   3.536   4.238   5.802
   11DG      C6  330   3.596   4.114   5.761
   11DG      O6  331   3.714   4.086   5.747
   11DG      N1  332   3.504   4.014   5.737
   11DG      H1  333   3.542   3.924   5.712
   11DG      C2  334   3.370   4.031   5.745
   11DG      N2  335   3.296   3.924   5.731
   11DG     H21  336   3.340   3.833   5.721
   11DG     H22  337   3.198   3.935   5.746
   11DG      N3  338   3.309   4.144   5.777
   11DG      C4  339   3.399   4.244   5.806
   11DG     C3'  340   3.184   4.516   6.075
   11DG     H3'  341   3.281   4.526   6.125
   11DG     C2'  342   3.175   4.386   5.996
   11DG    H2'1  343   3.232   4.307   6.044
   11DG    H2'2  344   3.072   4.354   5.986
   11DG     O3'  345   3.074   4.524   6.162
   12DA       P  346   3.086   4.474   6.313
   12DA     O1P  347   2.951   4.496   6.370
   12DA     O2P  348   3.202   4.543   6.372
   12DA     O5'  349   3.112   4.315   6.296
   12DA     C5'  350   3.000   4.228   6.282
   12DA    H5'1  351   2.935   4.268   6.205
   12DA    H5'2  352   2.946   4.230   6.376
   12DA     C4'  353   3.028   4.081   6.247
   12DA     H4'  354   2.931   4.032   6.245
   12DA     O4'  355   3.089   4.061   6.119
   12DA     C1'  356   3.172   3.945   6.126
   12DA     H1'  357   3.146   3.873   6.048
   12DA      N9  358   3.315   3.978   6.113
   12DA      C8  359   3.380   4.096   6.141
   12DA      H8  360   3.329   4.182   6.183
   12DA      N7  361   3.508   4.095   6.112
   12DA      C5  362   3.529   3.963   6.068
   12DA      C6  363   3.642   3.890   6.023
   12DA      N6  364   3.762   3.940   6.005
   12DA     H61  365   3.777   4.039   6.010
   12DA     H62  366   3.838   3.881   5.972
   12DA      N1  367   3.631   3.760   5.995
   12DA      C2  368   3.512   3.704   6.004
   12DA      H2  369   3.509   3.599   5.979
   12DA      N3  370   3.397   3.758   6.040
   12DA      C4  371   3.413   3.891   6.071
   12DA     C3'  372   3.109   4.003   6.350
   12DA     H3'  373   3.196   4.061   6.382
   12DA     C2'  374   3.147   3.883   6.264
   12DA    H2'1  375   3.235   3.832   6.301
   12DA    H2'2  376   3.064   3.813   6.258
   12DA     O3'  377   3.025   3.963   6.457
   13DA       P  378   3.083   3.924   6.600
   13DA     O1P  379   2.965   3.894   6.683
   13DA     O2P  380   3.177   4.031   6.642
   13DA     O5'  381   3.164   3.788   6.569
   13DA     C5'  382   3.095   3.665   6.549
   13DA    H5'1  383   3.019   3.682   6.473
   13DA    H5'2  384   3.046   3.639   6.643
   13DA     C4'  385   3.180   3.545   6.506
   13DA     H4'  386   3.111   3.461   6.493
   13DA     O4'  387   3.244   3.563   6.380
   13DA     C1'  388   3.373   3.503   6.383
   13DA     H1'  389   3.386   3.434   6.300
   13DA      N9  390   3.477   3.608   6.373
   13DA      C8  391   3.467   3.742   6.398
   13DA      H8  392   3.378   3.787   6.440
   13DA      N7  393   3.572   3.811   6.363
   13DA      C5  394   3.663   3.713   6.324
   13DA      C6  395   3.799   3.714   6.285
   13DA      N6  396   3.872   3.823   6.275
   13DA     H61  397   3.829   3.913   6.293
   13DA     H62  398   3.969   3.821   6.245
   13DA      N1  399   3.862   3.600   6.260
   13DA      C2  400   3.794   3.487   6.271
   13DA      H2  401   3.851   3.398   6.251
   13DA      N3  402   3.667   3.468   6.304
   13DA      C4  403   3.607   3.588   6.331
   13DA     C3'  404   3.283   3.498   6.608
   13DA     H3'  405   3.327   3.582   6.662
   13DA     C2'  406   3.383   3.428   6.516
   13DA    H2'1  407   3.484   3.431   6.556
   13DA    H2'2  408   3.354   3.324   6.500
   13DA     O3'  409   3.223   3.400   6.692
   14DG       P  410   3.278   3.365   6.838
   14DG     O1P  411   3.199   3.248   6.882
   14DG     O2P  412   3.275   3.486   6.922
   14DG     O5'  413   3.430   3.317   6.814
   14DG     C5'  414   3.457   3.181   6.788
   14DG    H5'1  415   3.392   3.148   6.708
   14DG    H5'2  416   3.432   3.124   6.878
   14DG     C4'  417   3.602   3.147   6.750
   14DG     H4'  418   3.605   3.040   6.732
   14DG     O4'  419   3.642   3.211   6.629
   14DG     C1'  420   3.780   3.244   6.636
   14DG     H1'  421   3.835   3.199   6.554
   14DG      N9  422   3.805   3.390   6.629
   14DG      C8  423   3.724   3.495   6.664
   14DG      H8  424   3.625   3.481   6.705
   14DG      N7  425   3.777   3.613   6.643
   14DG      C5  426   3.906   3.583   6.596
   14DG      C6  427   4.017   3.667   6.559
   14DG      O6  428   4.026   3.789   6.553
   14DG      N1  429   4.131   3.596   6.524
   14DG      H1  430   4.212   3.650   6.501
   14DG      C2  431   4.138   3.461   6.523
   14DG      N2  432   4.254   3.409   6.495
   14DG     H21  433   4.334   3.471   6.479
   14DG     H22  434   4.259   3.310   6.489
   14DG      N3  435   4.038   3.379   6.552
   14DG      C4  436   3.924   3.446   6.589
   14DG     C3'  437   3.708   3.174   6.857
   14DG     H3'  438   3.685   3.266   6.911
   14DG     C2'  439   3.832   3.189   6.769
   14DG    H2'1  440   3.904   3.256   6.816
   14DG    H2'2  441   3.878   3.092   6.753
   14DG     O3'  442   3.726   3.060   6.940
   15DG       P  443   3.779   3.077   7.091
   15DG     O1P  444   3.781   2.940   7.149
   15DG     O2P  445   3.699   3.181   7.157
   15DG     O5'  446   3.932   3.124   7.068
   15DG     C5'  447   4.033   3.027   7.043
   15DG    H5'1  448   3.997   2.960   6.965
   15DG    H5'2  449   4.046   2.969   7.135
   15DG     C4'  450   4.172   3.078   7.000
   15DG     H4'  451   4.231   2.989   6.982
   15DG     O4'  452   4.172   3.152   6.878
   15DG     C1'  453   4.276   3.250   6.883
   15DG     H1'  454   4.345   3.238   6.800
   15DG      N9  455   4.224   3.388   6.876
   15DG      C8  456   4.099   3.435   6.907
   15DG      H8  457   4.021   3.371   6.947
   15DG      N7  458   4.083   3.562   6.884
   15DG      C5  459   4.211   3.605   6.845
   15DG      C6  460   4.262   3.734   6.813
   15DG      O6  461   4.204   3.843   6.809
   15DG      N1  462   4.396   3.736   6.783
   15DG      H1  463   4.436   3.825   6.759
   15DG      C2  464   4.474   3.625   6.781
   15DG      N2  465   4.601   3.644   6.757
   15DG     H21  466   4.636   3.739   6.743
   15DG     H22  467   4.663   3.565   6.758
   15DG      N3  468   4.432   3.501   6.807
   15DG      C4  469   4.298   3.498   6.840
   15DG     C3'  470   4.248   3.159   7.104
   15DG     H3'  471   4.182   3.228   7.156
   15DG     C2'  472   4.349   3.231   7.015
   15DG    H2'1  473   4.379   3.326   7.060
   15DG    H2'2  474   4.437   3.169   6.999
   15DG     O3'  475   4.321   3.072   7.189
   16DG       P  476   4.362   3.118   7.337
   16DG     O1P  477   4.434   3.002   7.395
   16DG     O2P  478   4.241   3.171   7.404
   16DG     O5'  479   4.470   3.235   7.311
   16DG     C5'  480   4.606   3.201   7.291
   16DG    H5'1  481   4.612   3.125   7.214
   16DG    H5'2  482   4.643   3.158   7.384
   16DG     C4'  483   4.703   3.314   7.255
   16DG     H4'  484   4.800   3.266   7.243
   16DG     O4'  485   4.674   3.378   7.131
   16DG     C1'  486   4.699   3.518   7.144
   16DG     H1'  487   4.764   3.556   7.064
   16DG      N9  488   4.577   3.600   7.138
   16DG      C8  489   4.448   3.569   7.174
   16DG      H8  490   4.418   3.472   7.211
   16DG      N7  491   4.365   3.668   7.158
   16DG      C5  492   4.444   3.775   7.114
   16DG      C6  493   4.415   3.912   7.084
   16DG      O6  494   4.308   3.973   7.086
   16DG      N1  495   4.526   3.985   7.051
   16DG      H1  496   4.511   4.083   7.031
   16DG      C2  497   4.652   3.934   7.044
   16DG      N2  498   4.749   4.017   7.021
   16DG     H21  499   4.729   4.117   7.012
   16DG     H22  500   4.841   3.978   7.012
   16DG      N3  501   4.684   3.808   7.069
   16DG      C4  502   4.576   3.733   7.103
   16DG     C3'  503   4.723   3.420   7.363
   16DG     H3'  504   4.630   3.439   7.417
   16DG     C2'  505   4.767   3.539   7.279
   16DG    H2'1  506   4.737   3.633   7.325
   16DG    H2'2  507   4.875   3.540   7.267
   16DG     O3'  508   4.831   3.380   7.446
   17DC       P  509   4.848   3.432   7.596
   17DC     O1P  510   4.976   3.372   7.642
   17DC     O2P  511   4.724   3.402   7.670
   17DC     O5'  512   4.870   3.589   7.578
   17DC     C5'  513   4.998   3.635   7.542
   17DC    H5'1  514   5.031   3.579   7.454
   17DC    H5'2  515   5.066   3.615   7.624
   17DC     C4'  516   5.011   3.783   7.506
   17DC     H4'  517   5.117   3.798   7.486
   17DC     O4'  518   4.940   3.818   7.389
   17DC     C1'  519   4.891   3.951   7.403
   17DC     H1'  520   4.923   4.012   7.318
   17DC      N1  521   4.743   3.960   7.410
   17DC      C6  522   4.664   3.857   7.453
   17DC      H6  523   4.710   3.765   7.490
   17DC      C5  524   4.529   3.869   7.450
   17DC      H5  525   4.465   3.788   7.481
   17DC      C4  526   4.476   3.993   7.405
   17DC      N4  527   4.348   4.008   7.397
   17DC     H41  528   4.290   3.925   7.405
   17DC     H42  529   4.310   4.091   7.352
   17DC      N3  530   4.550   4.096   7.368
   17DC      C2  531   4.684   4.081   7.372
   17DC      O2  532   4.755   4.178   7.343
   17DC     C3'  533   4.975   3.880   7.617
   17DC     H3'  534   4.885   3.847   7.671
   17DC     C2'  535   4.951   4.005   7.533
   17DC    H2'1  536   4.883   4.074   7.584
   17DC    H2'2  537   5.045   4.056   7.513
   17DC     O3'  538   5.088   3.900   7.700
   18DA       P  539   5.072   3.943   7.853
   18DA     O1P  540   5.211   3.960   7.904
   18DA     O2P  541   4.979   3.850   7.918
   18DA     O5'  542   5.005   4.088   7.837
   18DA     C5'  543   5.087   4.200   7.807
   18DA    H5'1  544   5.147   4.177   7.719
   18DA    H5'2  545   5.152   4.214   7.892
   18DA     C4'  546   5.015   4.332   7.781
   18DA     H4'  547   5.093   4.408   7.766
   18DA     O4'  548   4.935   4.331   7.664
   18DA     C1'  549   4.822   4.413   7.687
   18DA     H1'  550   4.810   4.488   7.609
   18DA      N9  551   4.698   4.332   7.689
   18DA      C8  552   4.680   4.199   7.718
   18DA      H8  553   4.760   4.134   7.750
   18DA      N7  554   4.557   4.157   7.701
   18DA      C5  555   4.489   4.274   7.663
   18DA      C6  556   4.355   4.308   7.631
   18DA      N6  557   4.255   4.223   7.620
   18DA     H61  558   4.276   4.124   7.622
   18DA     H62  559   4.165   4.257   7.590
   18DA      N1  560   4.321   4.435   7.606
   18DA      C2  561   4.415   4.528   7.609
   18DA      H2  562   4.382   4.629   7.587
   18DA      N3  563   4.544   4.512   7.634
   18DA      C4  564   4.574   4.381   7.660
   18DA     C3'  565   4.930   4.382   7.898
   18DA     H3'  566   4.871   4.300   7.940
   18DA     C2'  567   4.843   4.482   7.822
   18DA    H2'1  568   4.749   4.501   7.872
   18DA    H2'2  569   4.897   4.575   7.807
   18DA     O3'  570   5.011   4.448   7.994
   19DT       P  571   4.960   4.474   8.144
   19DT     O1P  572   5.072   4.543   8.213
   19DT     O2P  573   4.906   4.348   8.200
   19DT     O5'  574   4.837   4.576   8.129
   19DT     C5'  575   4.858   4.715   8.113
   19DT    H5'1  576   4.923   4.731   8.027
   19DT    H5'2  577   4.907   4.754   8.202
   19DT     C4'  578   4.728   4.794   8.090
   19DT     H4'  579   4.756   4.899   8.078
   19DT     O4'  580   4.662   4.753   7.971
   19DT     C1'  581   4.521   4.764   7.988
   19DT     H1'  582   4.478   4.828   7.911
   19DT      N1  583   4.453   4.631   7.981
   19DT      C6  584   4.517   4.514   8.013
   19DT      H6  585   4.620   4.517   8.046
   19DT      C5  586   4.454   4.394   8.003
   19DT      C7  587   4.532   4.267   8.036
   19DT     H71  588   4.489   4.183   7.981
   19DT     H72  589   4.636   4.278   8.006
   19DT     H73  590   4.525   4.247   8.142
   19DT      C4  591   4.315   4.386   7.959
   19DT      O4  592   4.247   4.285   7.948
   19DT      N3  593   4.257   4.508   7.930
   19DT      H3  594   4.160   4.506   7.900
   19DT      C2  595   4.318   4.630   7.941
   19DT      O2  596   4.254   4.733   7.920
   19DT     C3'  597   4.625   4.788   8.205
   19DT     H3'  598   4.617   4.686   8.242
   19DT     C2'  599   4.502   4.829   8.124
   19DT    H2'1  600   4.410   4.797   8.170
   19DT    H2'2  601   4.500   4.938   8.112
   19DT     O3'  602   4.651   4.882   8.308
   20DC       P  603   4.579   4.876   8.453
   20DC     O1P  604   4.634   4.989   8.532
   20DC     O2P  605   4.585   4.740   8.509
   20DC     O5'  606   4.426   4.909   8.425
   20DC     C5'  607   4.380   5.041   8.405
   20DC    H5'1  608   4.435   5.088   8.324
   20DC    H5'2  609   4.394   5.099   8.496
   20DC     C4'  610   4.231   5.039   8.369
   20DC     H4'  611   4.199   5.141   8.346
   20DC     O4'  612   4.210   4.957   8.255
   20DC     C1'  613   4.085   4.892   8.266
   20DC     H1'  614   4.022   4.924   8.183
   20DC      N1  615   4.096   4.743   8.263
   20DC      C6  616   4.212   4.676   8.293
   20DC      H6  617   4.297   4.731   8.331
   20DC      C5  618   4.220   4.542   8.274
   20DC      H5  619   4.311   4.489   8.296
   20DC      C4  620   4.102   4.475   8.231
   20DC      N4  621   4.104   4.347   8.210
   20DC     H41  622   4.191   4.297   8.210
   20DC     H42  623   4.020   4.302   8.173
   20DC      N3  624   3.988   4.537   8.210
   20DC      C2  625   3.983   4.671   8.224
   20DC      O2  626   3.876   4.728   8.201
   20DC     C3'  627   4.142   4.985   8.481
   20DC     H3'  628   4.191   4.902   8.533
   20DC     C2'  629   4.023   4.938   8.398
   20DC    H2'1  630   3.970   4.858   8.448
   20DC    H2'2  631   3.955   5.021   8.379
   20DC     O3'  632   4.102   5.090   8.569
   21DT       P  633   4.070   5.064   8.724
   21DT     O1P  634   4.022   5.193   8.778
   21DT     O2P  635   4.184   4.995   8.788
   21DT     O5'  636   3.943   4.963   8.718
   21DT     C5'  637   3.814   5.015   8.686
   21DT    H5'1  638   3.825   5.082   8.600
   21DT    H5'2  639   3.781   5.076   8.771
   21DT     C4'  640   3.702   4.916   8.653
   21DT     H4'  641   3.615   4.978   8.634
   21DT     O4'  642   3.719   4.843   8.533
   21DT     C1'  643   3.646   4.721   8.543
   21DT     H1'  644   3.573   4.712   8.462
   21DT      N1  645   3.738   4.604   8.538
   21DT      C6  646   3.872   4.618   8.569
   21DT      H6  647   3.910   4.715   8.600
   21DT      C5  648   3.957   4.513   8.562
   21DT      C7  649   4.103   4.538   8.594
   21DT     H71  650   4.166   4.465   8.543
   21DT     H72  651   4.133   4.638   8.563
   21DT     H73  652   4.120   4.528   8.702
   21DT      C4  653   3.909   4.381   8.523
   21DT      O4  654   3.975   4.277   8.516
   21DT      N3  655   3.775   4.376   8.492
   21DT      H3  656   3.739   4.285   8.466
   21DT      C2  657   3.685   4.479   8.503
   21DT      O2  658   3.564   4.457   8.485
   21DT     C3'  659   3.664   4.816   8.763
   21DT     H3'  660   3.752   4.763   8.798
   21DT     C2'  661   3.574   4.727   8.678
   21DT    H2'1  662   3.561   4.628   8.722
   21DT    H2'2  663   3.475   4.772   8.665
   21DT     O3'  664   3.591   4.878   8.869
   22DG       P  665   3.580   4.812   9.016
   22DG     O1P  666   3.507   4.907   9.102
   22DG     O2P  667   3.714   4.763   9.059
   22DG     O5'  668   3.488   4.684   8.995
   22DG     C5'  669   3.348   4.698   8.975
   22DG    H5'1  670   3.330   4.767   8.893
   22DG    H5'2  671   3.303   4.739   9.066
   22DG     C4'  672   3.280   4.565   8.941
   22DG     H4'  673   3.173   4.583   8.929
   22DG     O4'  674   3.331   4.512   8.820
   22DG     C1'  675   3.338   4.371   8.829
   22DG     H1'  676   3.280   4.325   8.749
   22DG      N9  677   3.479   4.325   8.817
   22DG      C8  678   3.596   4.392   8.844
   22DG      H8  679   3.598   4.493   8.882
   22DG      N7  680   3.703   4.323   8.819
   22DG      C5  681   3.655   4.198   8.778
   22DG      C6  682   3.721   4.076   8.742
   22DG      O6  683   3.841   4.050   8.732
   22DG      N1  684   3.634   3.971   8.720
   22DG      H1  685   3.676   3.882   8.697
   22DG      C2  686   3.500   3.981   8.727
   22DG      N2  687   3.430   3.872   8.708
   22DG     H21  688   3.479   3.784   8.693
   22DG     H22  689   3.331   3.879   8.705
   22DG      N3  690   3.433   4.093   8.754
   22DG      C4  691   3.517   4.198   8.780
   22DG     C3'  692   3.298   4.458   9.049
   22DG     H3'  693   3.399   4.464   9.089
   22DG     C2'  694   3.281   4.332   8.966
   22DG    H2'1  695   3.334   4.248   9.010
   22DG    H2'2  696   3.176   4.307   8.956
   22DG     O3'  697   3.198   4.466   9.150
   23DC       P  698   3.230   4.421   9.300
   23DC     O1P  699   3.111   4.452   9.383
   23DC     O2P  700   3.359   4.482   9.338
   23DC     O5'  701   3.246   4.261   9.289
   23DC     C5'  702   3.132   4.178   9.276
   23DC    H5'1  703   3.069   4.218   9.196
   23DC    H5'2  704   3.076   4.182   9.368
   23DC     C4'  705   3.158   4.029   9.245
   23DC     H4'  706   3.060   3.981   9.243
   23DC     O4'  707   3.216   4.011   9.116
   23DC     C1'  708   3.299   3.895   9.118
   23DC     H1'  709   3.269   3.824   9.040
   23DC      N1  710   3.443   3.928   9.098
   23DC      C6  711   3.494   4.053   9.125
   23DC      H6  712   3.430   4.130   9.166
   23DC      C5  713   3.625   4.078   9.103
   23DC      H5  714   3.665   4.176   9.122
   23DC      C4  715   3.706   3.972   9.055
   23DC      N4  716   3.833   3.993   9.035
   23DC     H41  717   3.867   4.087   9.044
   23DC     H42  718   3.890   3.924   8.989
   23DC      N3  719   3.660   3.851   9.030
   23DC      C2  720   3.529   3.827   9.051
   23DC      O2  721   3.486   3.713   9.030
   23DC     C3'  722   3.242   3.950   9.345
   23DC     H3'  723   3.329   4.008   9.375
   23DC     C2'  724   3.279   3.832   9.256
   23DC    H2'1  725   3.368   3.781   9.291
   23DC    H2'2  726   3.196   3.762   9.251
   23DC     O3'  727   3.164   3.904   9.456
   24DG       P  728   3.233   3.852   9.591
   24DG     O1P  729   3.124   3.815   9.684
   24DG     O2P  730   3.332   3.951   9.635
   24DG     O5'  731   3.311   3.718   9.553
   24DG     C5'  732   3.240   3.597   9.531
   24DG    H5'1  733   3.170   3.613   9.449
   24DG    H5'2  734   3.184   3.572   9.621
   24DG     C4'  735   3.332   3.480   9.496
   24DG     H4'  736   3.270   3.390   9.490
   24DG     O4'  737   3.392   3.500   9.368
   24DG     C1'  738   3.526   3.453   9.373
   24DG     H1'  739   3.545   3.384   9.290
   24DG      N9  740   3.623   3.565   9.362
   24DG      C8  741   3.609   3.698   9.393
   24DG      H8  742   3.518   3.739   9.436
   24DG      N7  743   3.714   3.771   9.368
   24DG      C5  744   3.807   3.679   9.317
   24DG      C6  745   3.943   3.693   9.274
   24DG      O6  746   4.013   3.794   9.267
   24DG      N1  747   4.003   3.573   9.242
   24DG      H1  748   4.099   3.577   9.212
   24DG      C2  749   3.939   3.454   9.245
   24DG      N2  750   4.008   3.349   9.212
   24DG     H21  751   4.105   3.361   9.183
   24DG     H22  752   3.957   3.263   9.201
   24DG      N3  753   3.813   3.435   9.282
   24DG      C4  754   3.752   3.552   9.317
   24DG     C3'  755   3.443   3.452   9.600
   24DG     H3'  756   3.485   3.546   9.635
   24DG     C2'  757   3.539   3.379   9.506
   24DG    H2'1  758   3.641   3.381   9.541
   24DG    H2'2  759   3.507   3.276   9.492
   24DG     O3'  760   3.399   3.367   9.707
   25DC       P  761   3.478   3.354   9.848
   25DC     O1P  762   3.412   3.246   9.926
   25DC     O2P  763   3.499   3.486   9.909
   25DC     O5'  764   3.624   3.300   9.809
   25DC     C5'  765   3.644   3.165   9.775
   25DC    H5'1  766   3.577   3.142   9.692
   25DC    H5'2  767   3.619   3.104   9.862
   25DC     C4'  768   3.786   3.132   9.731
   25DC     H4'  769   3.793   3.025   9.712
   25DC     O4'  770   3.816   3.200   9.611
   25DC     C1'  771   3.954   3.234   9.609
   25DC     H1'  772   4.002   3.192   9.520
   25DC      N1  773   3.975   3.382   9.610
   25DC      C6  774   3.878   3.472   9.646
   25DC      H6  775   3.783   3.437   9.682
   25DC      C5  776   3.903   3.605   9.635
   25DC      H5  777   3.826   3.677   9.660
   25DC      C4  778   4.031   3.645   9.587
   25DC      N4  779   4.059   3.770   9.568
   25DC     H41  780   3.984   3.837   9.567
   25DC     H42  781   4.146   3.790   9.520
   25DC      N3  782   4.127   3.560   9.560
   25DC      C2  783   4.101   3.428   9.570
   25DC      O2  784   4.194   3.350   9.551
   25DC     C3'  785   3.896   3.170   9.831
   25DC     H3'  786   3.877   3.270   9.871
   25DC     C2'  787   4.014   3.171   9.735
   25DC    H2'1  788   4.097   3.228   9.775
   25DC    H2'2  789   4.046   3.069   9.713
   25DC     O3'  790   3.919   3.074   9.933
   25DC     H3T  791   3.896   3.114  10.018
   26G      O5'  792   5.058   3.971   9.217
   26G      H5T  793   4.997   3.981   9.140
   26G      C5'  794   5.140   3.858   9.194
   26G     H5'1  795   5.232   3.867   9.250
   26G     H5'2  796   5.166   3.855   9.089
   26G      C4'  797   5.074   3.725   9.229
   26G      H4'  798   5.153   3.651   9.233
   26G      O4'  799   5.008   3.729   9.356
   26G      C1'  800   4.890   3.649   9.348
   26G      H1'  801   4.888   3.575   9.428
   26G       N9  802   4.766   3.730   9.361
   26G       C8  803   4.746   3.866   9.348
   26G       H8  804   4.824   3.935   9.318
   26G       N7  805   4.625   3.905   9.380
   26G       C5  806   4.557   3.785   9.408
   26G       C6  807   4.421   3.758   9.446
   26G       O6  808   4.328   3.835   9.470
   26G       N1  809   4.395   3.623   9.461
   26G       H1  810   4.299   3.598   9.480
   26G       C2  811   4.489   3.527   9.448
   26G       N2  812   4.451   3.404   9.470
   26G      H21  813   4.352   3.384   9.485
   26G      H22  814   4.520   3.331   9.471
   26G       N3  815   4.617   3.547   9.422
   26G       C4  816   4.645   3.679   9.398
   26G      C3'  817   4.973   3.672   9.127
   26G      H3'  818   4.908   3.753   9.094
   26G      C2'  819   4.894   3.575   9.215
   26G     H2'1  820   4.794   3.558   9.175
   26G      O2'  821   4.963   3.452   9.236
   26G     HO'2  822   4.969   3.411   9.149
   26G      O3'  823   5.037   3.606   9.018
   27C        P  824   4.962   3.594   8.877
   27C      O1P  825   5.051   3.524   8.782
   27C      O2P  826   4.911   3.727   8.844
   27C      O5'  827   4.841   3.496   8.913
   27C      C5'  828   4.862   3.356   8.922
   27C     H5'1  829   4.945   3.335   8.989
   27C     H5'2  830   4.888   3.317   8.823
   27C      C4'  831   4.740   3.279   8.971
   27C      H4'  832   4.770   3.177   8.992
   27C      O4'  833   4.685   3.335   9.091
   27C      C1'  834   4.543   3.326   9.086
   27C      H1'  835   4.509   3.266   9.170
   27C       N1  836   4.475   3.458   9.093
   27C       C6  837   4.535   3.575   9.053
   27C       H6  838   4.634   3.573   9.008
   27C       C5  839   4.471   3.693   9.070
   27C       H5  840   4.518   3.785   9.037
   27C       C4  841   4.340   3.690   9.124
   27C       N4  842   4.276   3.801   9.146
   27C      H41  843   4.319   3.888   9.119
   27C      H42  844   4.181   3.797   9.180
   27C       N3  845   4.280   3.579   9.163
   27C       C2  846   4.345   3.461   9.145
   27C       O2  847   4.287   3.358   9.178
   27C      C3'  848   4.628   3.273   8.867
   27C      H3'  849   4.623   3.368   8.812
   27C      C2'  850   4.505   3.255   8.957
   27C     H2'1  851   4.419   3.302   8.910
   27C      O2'  852   4.477   3.119   8.987
   27C     HO'2  853   4.434   3.086   8.907
   27C      O3'  854   4.648   3.162   8.781
   28G        P  855   4.585   3.160   8.635
   28G      O1P  856   4.616   3.025   8.580
   28G      O2P  857   4.629   3.279   8.562
   28G      O5'  858   4.430   3.165   8.669
   28G      C5'  859   4.356   3.045   8.678
   28G     H5'1  860   4.404   2.976   8.747
   28G     H5'2  861   4.354   2.999   8.579
   28G      C4'  862   4.212   3.065   8.724
   28G      H4'  863   4.168   2.967   8.741
   28G      O4'  864   4.200   3.141   8.845
   28G      C1'  865   4.080   3.218   8.833
   28G      H1'  866   4.010   3.195   8.913
   28G       N9  867   4.106   3.364   8.838
   28G       C8  868   4.217   3.437   8.802
   28G       H8  869   4.304   3.393   8.755
   28G       N7  870   4.209   3.564   8.832
   28G       C5  871   4.078   3.579   8.881
   28G       C6  872   4.003   3.693   8.925
   28G       O6  873   4.038   3.810   8.941
   28G       N1  874   3.871   3.664   8.954
   28G       H1  875   3.809   3.741   8.974
   28G       C2  876   3.818   3.540   8.946
   28G       N2  877   3.691   3.530   8.970
   28G      H21  878   3.635   3.614   8.982
   28G      H22  879   3.648   3.441   8.956
   28G       N3  880   3.884   3.430   8.914
   28G       C4  881   4.014   3.456   8.880
   28G      C3'  882   4.130   3.132   8.616
   28G      H3'  883   4.185   3.214   8.570
   28G      C2'  884   4.014   3.182   8.700
   28G     H2'1  885   3.968   3.270   8.655
   28G      O2'  886   3.918   3.080   8.721
   28G     HO'2  887   3.881   3.067   8.632
   28G      O3'  888   4.091   3.033   8.522
   29C        P  889   4.038   3.075   8.378
   29C      O1P  890   4.001   2.949   8.310
   29C      O2P  891   4.137   3.166   8.319
   29C      O5'  892   3.906   3.154   8.419
   29C      C5'  893   3.781   3.089   8.427
   29C     H5'1  894   3.788   3.001   8.491
   29C     H5'2  895   3.754   3.055   8.327
   29C      C4'  896   3.668   3.179   8.477
   29C      H4'  897   3.582   3.116   8.497
   29C      O4'  898   3.698   3.250   8.597
   29C      C1'  899   3.632   3.376   8.592
   29C      H1'  900   3.563   3.385   8.675
   29C       N1  901   3.726   3.491   8.596
   29C       C6  902   3.855   3.482   8.552
   29C       H6  903   3.890   3.391   8.504
   29C       C5  904   3.938   3.588   8.563
   29C       H5  905   4.040   3.580   8.528
   29C       C4  906   3.883   3.709   8.612
   29C       N4  907   3.958   3.816   8.617
   29C      H41  908   4.047   3.813   8.573
   29C      H42  909   3.917   3.902   8.651
   29C       N3  910   3.759   3.720   8.656
   29C       C2  911   3.678   3.612   8.648
   29C       O2  912   3.563   3.623   8.690
   29C      C3'  913   3.621   3.280   8.373
   29C      H3'  914   3.707   3.323   8.320
   29C      C2'  915   3.551   3.382   8.462
   29C     H2'1  916   3.552   3.481   8.417
   29C      O2'  917   3.419   3.340   8.492
   29C     HO'2  918   3.388   3.306   8.407
   29C      O3'  919   3.528   3.216   8.287
   30A        P  920   3.506   3.268   8.139
   30A      O1P  921   3.410   3.169   8.083
   30A      O2P  922   3.638   3.284   8.078
   30A      O5'  923   3.432   3.409   8.164
   30A      C5'  924   3.293   3.415   8.187
   30A     H5'1  925   3.267   3.346   8.267
   30A     H5'2  926   3.241   3.383   8.097
   30A      C4'  927   3.241   3.555   8.227
   30A      H4'  928   3.137   3.543   8.256
   30A      O4'  929   3.311   3.607   8.340
   30A      C1'  930   3.329   3.747   8.323
   30A      H1'  931   3.287   3.801   8.408
   30A       N9  932   3.471   3.786   8.314
   30A       C8  933   3.581   3.713   8.273
   30A       H8  934   3.572   3.614   8.230
   30A       N7  935   3.695   3.774   8.292
   30A       C5  936   3.657   3.899   8.342
   30A       C6  937   3.726   4.015   8.384
   30A       N6  938   3.857   4.031   8.387
   30A      H61  939   3.914   3.958   8.348
   30A      H62  940   3.896   4.118   8.420
   30A       N1  941   3.659   4.122   8.429
   30A       C2  942   3.528   4.115   8.432
   30A       H2  943   3.479   4.202   8.471
   30A       N3  944   3.448   4.014   8.400
   30A       C4  945   3.521   3.908   8.354
   30A      C3'  946   3.240   3.660   8.116
   30A      H3'  947   3.325   3.647   8.049
   30A      C2'  948   3.251   3.789   8.199
   30A     H2'1  949   3.303   3.866   8.143
   30A      O2'  950   3.124   3.835   8.243
   30A     HO'2  951   3.070   3.836   8.163
   30A      O3'  952   3.114   3.656   8.047
   31G        P  953   3.094   3.724   7.903
   31G      O1P  954   2.947   3.728   7.878
   31G      O2P  955   3.182   3.656   7.808
   31G      O5'  956   3.144   3.874   7.927
   31G      C5'  957   3.048   3.976   7.944
   31G     H5'1  958   2.977   3.946   8.022
   31G     H5'2  959   2.996   3.986   7.849
   31G      C4'  960   3.100   4.115   7.979
   31G      H4'  961   3.015   4.177   8.005
   31G      O4'  962   3.190   4.116   8.089
   31G      C1'  963   3.278   4.226   8.069
   31G      H1'  964   3.265   4.299   8.148
   31G       N9  965   3.419   4.183   8.067
   31G       C8  966   3.473   4.062   8.035
   31G       H8  967   3.414   3.978   8.001
   31G       N7  968   3.603   4.056   8.052
   31G       C5  969   3.637   4.186   8.090
   31G       C6  970   3.763   4.248   8.122
   31G       O6  971   3.876   4.199   8.130
   31G       N1  972   3.753   4.383   8.148
   31G       H1  973   3.839   4.433   8.163
   31G       C2  974   3.636   4.451   8.149
   31G       N2  975   3.640   4.579   8.173
   31G      H21  976   3.730   4.625   8.181
   31G      H22  977   3.554   4.630   8.167
   31G       N3  978   3.516   4.398   8.128
   31G       C4  979   3.524   4.265   8.097
   31G      C3'  980   3.171   4.181   7.862
   31G      H3'  981   3.242   4.111   7.817
   31G      C2'  982   3.243   4.293   7.936
   31G     H2'1  983   3.332   4.325   7.881
   31G      O2'  984   3.157   4.403   7.963
   31G     HO'2  985   3.124   4.431   7.877
   31G      O3'  986   3.075   4.229   7.769
   32A        P  987   3.115   4.257   7.619
   32A      O1P  988   2.989   4.290   7.549
   32A      O2P  989   3.194   4.143   7.572
   32A      O5'  990   3.211   4.384   7.633
   32A      C5'  991   3.161   4.515   7.645
   32A     H5'1  992   3.081   4.517   7.719
   32A     H5'2  993   3.119   4.543   7.549
   32A      C4'  994   3.269   4.617   7.685
   32A      H4'  995   3.218   4.710   7.709
   32A      O4'  996   3.346   4.578   7.798
   32A      C1'  997   3.480   4.627   7.784
   32A      H1'  998   3.507   4.692   7.867
   32A       N9  999   3.579   4.517   7.780
   32A       C8 1000   3.562   4.385   7.744
   32A       H8 1001   3.469   4.346   7.704
   32A       N7 1002   3.668   4.311   7.765
   32A       C5 1003   3.764   4.403   7.809
   32A       C6 1004   3.901   4.395   7.845
   32A       N6 1005   3.972   4.284   7.846
   32A      H61 1006   3.929   4.200   7.811
   32A      H62 1007   4.070   4.286   7.873
   32A       N1 1008   3.969   4.504   7.881
   32A       C2 1009   3.904   4.619   7.884
   32A       H2 1010   3.963   4.705   7.913
   32A       N3 1011   3.776   4.643   7.855
   32A       C4 1012   3.711   4.529   7.817
   32A      C3' 1013   3.368   4.649   7.573
   32A      H3' 1014   3.397   4.558   7.521
   32A      C2' 1015   3.484   4.706   7.654
   32A     H2'1 1016   3.579   4.693   7.602
   32A      O2' 1017   3.460   4.844   7.683
   32A     HO'2 1018   3.429   4.876   7.597
   32A      O3' 1019   3.315   4.749   7.486
   33U        P 1020   3.361   4.757   7.334
   33U      O1P 1021   3.284   4.868   7.272
   33U      O2P 1022   3.355   4.620   7.280
   33U      O5' 1023   3.515   4.800   7.351
   33U      C5' 1024   3.551   4.936   7.359
   33U     H5'1 1025   3.487   4.985   7.431
   33U     H5'2 1026   3.534   4.982   7.261
   33U      C4' 1027   3.698   4.959   7.400
   33U      H4' 1028   3.710   5.065   7.423
   33U      O4' 1029   3.740   4.883   7.513
   33U      C1' 1030   3.879   4.854   7.499
   33U      H1' 1031   3.936   4.899   7.580
   33U       N1 1032   3.907   4.707   7.499
   33U       C6 1033   3.811   4.614   7.466
   33U       H6 1034   3.714   4.646   7.429
   33U       C5 1035   3.836   4.481   7.481
   33U       H5 1036   3.761   4.408   7.457
   33U       C4 1037   3.965   4.433   7.527
   33U       O4 1038   3.995   4.317   7.549
   33U       N3 1039   4.056   4.532   7.551
   33U       H3 1040   4.148   4.501   7.577
   33U       C2 1041   4.035   4.667   7.538
   33U       O2 1042   4.127   4.746   7.560
   33U      C3' 1043   3.796   4.928   7.288
   33U      H3' 1044   3.770   4.833   7.240
   33U      C2' 1045   3.926   4.917   7.368
   33U     H2'1 1046   3.998   4.853   7.317
   33U      O2' 1047   3.983   5.044   7.395
   33U     HO'2 1048   3.993   5.086   7.309
   33U      O3' 1049   3.799   5.037   7.198
   34G        P 1050   3.833   5.015   7.044
   34G      O1P 1051   3.829   5.151   6.986
   34G      O2P 1052   3.743   4.910   6.993
   34G      O5' 1053   3.985   4.967   7.056
   34G      C5' 1054   4.087   5.065   7.061
   34G     H5'1 1055   4.060   5.142   7.132
   34G     H5'2 1056   4.095   5.111   6.962
   34G      C4' 1057   4.225   5.011   7.100
   34G      H4' 1058   4.290   5.098   7.113
   34G      O4' 1059   4.226   4.939   7.222
   34G      C1' 1060   4.325   4.837   7.213
   34G      H1' 1061   4.396   4.844   7.295
   34G       N9 1062   4.264   4.702   7.218
   34G       C8 1063   4.135   4.663   7.192
   34G       H8 1064   4.060   4.732   7.156
   34G       N7 1065   4.113   4.537   7.216
   34G       C5 1066   4.238   4.486   7.253
   34G       C6 1067   4.283   4.353   7.287
   34G       O6 1068   4.220   4.249   7.300
   34G       N1 1069   4.420   4.346   7.304
   34G       H1 1070   4.459   4.254   7.319
   34G       C2 1071   4.504   4.452   7.297
   34G       N2 1072   4.631   4.429   7.310
   34G      H21 1073   4.665   4.333   7.318
   34G      H22 1074   4.692   4.508   7.305
   34G       N3 1075   4.467   4.577   7.273
   34G       C4 1076   4.332   4.587   7.250
   34G      C3' 1077   4.290   4.923   6.994
   34G      H3' 1078   4.218   4.852   6.953
   34G      C2' 1079   4.397   4.855   7.079
   34G     H2'1 1080   4.427   4.759   7.036
   34G      O2' 1081   4.508   4.943   7.094
   34G     HO'2 1082   4.503   4.995   7.013
   34G      O3' 1083   4.349   5.007   6.897
   35C        P 1084   4.373   4.957   6.749
   35C      O1P 1085   4.434   5.074   6.682
   35C      O2P 1086   4.249   4.897   6.698
   35C      O5' 1087   4.482   4.843   6.769
   35C      C5' 1088   4.618   4.876   6.779
   35C     H5'1 1089   4.628   4.956   6.851
   35C     H5'2 1090   4.652   4.911   6.682
   35C      C4' 1091   4.708   4.760   6.823
   35C      H4' 1092   4.808   4.799   6.842
   35C      O4' 1093   4.666   4.694   6.942
   35C      C1' 1094   4.695   4.555   6.930
   35C      H1' 1095   4.761   4.523   7.010
   35C       N1 1096   4.571   4.473   6.935
   35C       C6 1097   4.447   4.521   6.900
   35C       H6 1098   4.437   4.621   6.859
   35C       C5 1099   4.337   4.444   6.915
   35C       H5 1100   4.240   4.482   6.887
   35C       C4 1101   4.355   4.313   6.967
   35C       N4 1102   4.252   4.236   6.988
   35C      H41 1103   4.160   4.268   6.966
   35C      H42 1104   4.269   4.143   7.026
   35C       N3 1105   4.474   4.264   6.997
   35C       C2 1106   4.583   4.341   6.979
   35C       O2 1107   4.694   4.292   7.003
   35C      C3' 1108   4.721   4.655   6.714
   35C      H3' 1109   4.624   4.636   6.668
   35C      C2' 1110   4.766   4.533   6.796
   35C     H2'1 1111   4.730   4.441   6.749
   35C      O2' 1112   4.907   4.525   6.816
   35C     HO'2 1113   4.936   4.455   6.756
   35C      O3' 1114   4.819   4.697   6.621
   36C        P 1115   4.807   4.655   6.468
   36C      O1P 1116   4.926   4.714   6.402
   36C      O2P 1117   4.672   4.690   6.423
   36C      O5' 1118   4.828   4.496   6.481
   36C      C5' 1119   4.959   4.443   6.487
   36C     H5'1 1120   5.018   4.501   6.558
   36C     H5'2 1121   5.004   4.455   6.389
   36C      C4' 1122   4.968   4.295   6.526
   36C      H4' 1123   5.073   4.272   6.545
   36C      O4' 1124   4.897   4.265   6.645
   36C      C1' 1125   4.847   4.132   6.636
   36C      H1' 1126   4.889   4.071   6.717
   36C       N1 1127   4.699   4.125   6.647
   36C       C6 1128   4.619   4.234   6.621
   36C       H6 1129   4.662   4.324   6.579
   36C       C5 1130   4.486   4.228   6.648
   36C       H5 1131   4.423   4.314   6.632
   36C       C4 1132   4.435   4.105   6.697
   36C       N4 1133   4.307   4.092   6.720
   36C      H41 1134   4.245   4.168   6.700
   36C      H42 1135   4.273   4.003   6.753
   36C       N3 1136   4.509   3.998   6.718
   36C       C2 1137   4.642   4.006   6.692
   36C       O2 1138   4.710   3.905   6.710
   36C      C3' 1139   4.922   4.199   6.417
   36C      H3' 1140   4.831   4.236   6.369
   36C      C2' 1141   4.894   4.074   6.502
   36C     H2'1 1142   4.815   4.014   6.456
   36C      O2' 1143   5.010   3.995   6.524
   36C     HO'2 1144   5.019   3.945   6.441
   36C      O3' 1145   5.030   4.181   6.325
   37C        P 1146   5.011   4.110   6.184
   37C      O1P 1147   5.149   4.088   6.136
   37C      O2P 1148   4.920   4.191   6.102
   37C      O5' 1149   4.943   3.968   6.214
   37C      C5' 1150   5.018   3.847   6.216
   37C     H5'1 1151   5.101   3.857   6.285
   37C     H5'2 1152   5.059   3.830   6.116
   37C      C4' 1153   4.935   3.724   6.255
   37C      H4' 1154   5.004   3.643   6.276
   37C      O4' 1155   4.856   3.746   6.372
   37C      C1' 1156   4.739   3.664   6.368
   37C      H1' 1157   4.745   3.588   6.446
   37C       N1 1158   4.611   3.738   6.386
   37C       C6 1159   4.599   3.870   6.354
   37C       H6 1160   4.683   3.923   6.309
   37C       C5 1161   4.482   3.935   6.376
   37C       H5 1162   4.472   4.039   6.350
   37C       C4 1163   4.374   3.860   6.430
   37C       N4 1164   4.261   3.921   6.453
   37C      H41 1165   4.250   4.017   6.423
   37C      H42 1166   4.181   3.870   6.489
   37C       N3 1167   4.381   3.731   6.455
   37C       C2 1168   4.499   3.667   6.432
   37C       O2 1169   4.503   3.545   6.452
   37C      C3' 1170   4.839   3.674   6.147
   37C      H3' 1171   4.790   3.759   6.098
   37C      C2' 1172   4.739   3.594   6.232
   37C     H2'1 1173   4.640   3.598   6.186
   37C      O2' 1174   4.778   3.459   6.253
   37C     HO'2 1175   4.728   3.407   6.188
   37C      O3' 1176   4.908   3.591   6.054
   38U        P 1177   4.848   3.561   5.910
   38U      O1P 1178   4.940   3.463   5.847
   38U      O2P 1179   4.826   3.689   5.842
   38U      O5' 1180   4.710   3.485   5.939
   38U      C5' 1181   4.710   3.344   5.955
   38U     H5'1 1182   4.789   3.317   6.025
   38U     H5'2 1183   4.731   3.298   5.859
   38U      C4' 1184   4.579   3.286   6.008
   38U      H4' 1185   4.597   3.182   6.037
   38U      O4' 1186   4.530   3.356   6.121
   38U      C1' 1187   4.388   3.349   6.119
   38U      H1' 1188   4.353   3.295   6.208
   38U       N1 1189   4.324   3.483   6.120
   38U       C6 1190   4.389   3.597   6.076
   38U       H6 1191   4.487   3.589   6.030
   38U       C5 1192   4.332   3.719   6.093
   38U       H5 1193   4.383   3.809   6.060
   38U       C4 1194   4.201   3.735   6.153
   38U       O4 1195   4.143   3.839   6.175
   38U       N3 1196   4.141   3.617   6.187
   38U       H3 1197   4.047   3.623   6.223
   38U       C2 1198   4.194   3.491   6.170
   38U       O2 1199   4.126   3.392   6.197
   38U      C3' 1200   4.468   3.284   5.904
   38U      H3' 1201   4.465   3.378   5.849
   38U      C2' 1202   4.347   3.269   5.996
   38U     H2'1 1203   4.256   3.307   5.949
   38U      O2' 1204   4.329   3.133   6.036
   38U     HO'2 1205   4.354   3.079   5.960
   38U      O3' 1206   4.482   3.170   5.819
   39U        P 1207   4.436   3.176   5.667
   39U      O1P 1208   4.472   3.045   5.608
   39U      O2P 1209   4.491   3.299   5.608
   39U      O5' 1210   4.276   3.185   5.680
   39U      C5' 1211   4.201   3.067   5.706
   39U     H5'1 1212   4.244   3.016   5.792
   39U     H5'2 1213   4.208   3.001   5.620
   39U      C4' 1214   4.053   3.091   5.737
   39U      H4' 1215   4.005   2.995   5.750
   39U      O4' 1216   4.038   3.163   5.859
   39U      C1' 1217   3.918   3.238   5.852
   39U      H1' 1218   3.850   3.206   5.932
   39U       N1 1219   3.942   3.384   5.865
   39U       C6 1220   4.057   3.444   5.818
   39U       H6 1221   4.134   3.383   5.771
   39U       C5 1222   4.075   3.578   5.831
   39U       H5 1223   4.165   3.626   5.795
   39U       C4 1224   3.974   3.662   5.891
   39U       O4 1225   3.982   3.783   5.905
   39U       N3 1226   3.862   3.596   5.932
   39U       H3 1227   3.788   3.654   5.969
   39U       C2 1228   3.840   3.461   5.922
   39U       O2 1229   3.734   3.413   5.963
   39U      C3' 1230   3.971   3.166   5.631
   39U      H3' 1231   4.026   3.254   5.598
   39U      C2' 1232   3.852   3.206   5.719
   39U     H2'1 1233   3.801   3.293   5.679
   39U      O2' 1234   3.760   3.099   5.740
   39U     HO'2 1235   3.691   3.109   5.672
   39U      O3' 1236   3.934   3.083   5.522
   40C        P 1237   3.873   3.147   5.390
   40C      O1P 1238   3.848   3.037   5.294
   40C      O2P 1239   3.958   3.259   5.349
   40C      O5' 1240   3.734   3.207   5.434
   40C      C5' 1241   3.618   3.128   5.447
   40C     H5'1 1242   3.637   3.045   5.515
   40C     H5'2 1243   3.590   3.087   5.350
   40C      C4' 1244   3.505   3.215   5.501
   40C      H4' 1245   3.420   3.151   5.525
   40C      O4' 1246   3.539   3.286   5.619
   40C      C1' 1247   3.472   3.411   5.618
   40C      H1' 1248   3.406   3.420   5.705
   40C       N1 1249   3.568   3.525   5.619
   40C       C6 1250   3.698   3.513   5.578
   40C       H6 1251   3.731   3.421   5.533
   40C       C5 1252   3.785   3.616   5.592
   40C       H5 1253   3.887   3.605   5.559
   40C       C4 1254   3.734   3.737   5.645
   40C       N4 1255   3.813   3.839   5.660
   40C      H41 1256   3.912   3.831   5.642
   40C      H42 1257   3.775   3.924   5.701
   40C       N3 1258   3.608   3.753   5.678
   40C       C2 1259   3.523   3.649   5.667
   40C       O2 1260   3.405   3.665   5.699
   40C      C3' 1261   3.459   3.318   5.398
   40C      H3' 1262   3.544   3.366   5.349
   40C      C2' 1263   3.386   3.415   5.491
   40C     H2'1 1264   3.382   3.515   5.448
   40C      O2' 1265   3.255   3.367   5.518
   40C     HO'2 1266   3.225   3.332   5.433
   40C      O3' 1267   3.371   3.256   5.306
   41C        P 1268   3.349   3.312   5.159
   41C      O1P 1269   3.247   3.223   5.101
   41C      O2P 1270   3.478   3.326   5.090
   41C      O5' 1271   3.281   3.455   5.184
   41C      C5' 1272   3.141   3.465   5.207
   41C     H5'1 1273   3.112   3.393   5.284
   41C     H5'2 1274   3.089   3.438   5.115
   41C      C4' 1275   3.095   3.604   5.251
   41C      H4' 1276   2.989   3.598   5.276
   41C      O4' 1277   3.161   3.650   5.368
   41C      C1' 1278   3.173   3.792   5.361
   41C      H1' 1279   3.122   3.838   5.446
   41C       N1 1280   3.315   3.838   5.362
   41C       C6 1281   3.418   3.753   5.332
   41C       H6 1282   3.398   3.653   5.294
   41C       C5 1283   3.545   3.795   5.349
   41C       H5 1284   3.626   3.727   5.328
   41C       C4 1285   3.567   3.928   5.390
   41C       N4 1286   3.689   3.969   5.406
   41C      H41 1287   3.763   3.901   5.396
   41C      H42 1288   3.708   4.064   5.438
   41C       N3 1289   3.469   4.013   5.415
   41C       C2 1290   3.341   3.970   5.400
   41C       O2 1291   3.249   4.049   5.420
   41C      C3' 1292   3.109   3.712   5.143
   41C      H3' 1293   3.206   3.702   5.094
   41C      C2' 1294   3.105   3.836   5.232
   41C     H2'1 1295   3.160   3.918   5.186
   41C      O2' 1296   2.973   3.876   5.262
   41C     HO'2 1297   2.954   3.950   5.203
   41C      O3' 1298   3.001   3.712   5.051
   42G        P 1299   3.012   3.790   4.913
   42G      O1P 1300   2.882   3.779   4.844
   42G      O2P 1301   3.133   3.742   4.845
   42G      O5' 1302   3.035   3.945   4.948
   42G      C5' 1303   2.925   4.033   4.963
   42G     H5'1 1304   2.858   3.994   5.039
   42G     H5'2 1305   2.870   4.038   4.869
   42G      C4' 1306   2.968   4.175   5.001
   42G      H4' 1307   2.878   4.232   5.024
   42G      O4' 1308   3.052   4.176   5.116
   42G      C1' 1309   3.144   4.284   5.104
   42G      H1' 1310   3.135   4.353   5.187
   42G       N9 1311   3.284   4.235   5.100
   42G       C8 1312   3.331   4.109   5.074
   42G       H8 1313   3.268   4.027   5.045
   42G       N7 1314   3.460   4.097   5.089
   42G       C5 1315   3.503   4.226   5.123
   42G       C6 1316   3.634   4.280   5.149
   42G       O6 1317   3.743   4.224   5.152
   42G       N1 1318   3.633   4.416   5.173
   42G       H1 1319   3.722   4.459   5.191
   42G       C2 1320   3.521   4.491   5.172
   42G       N2 1321   3.536   4.620   5.185
   42G      H21 1322   3.630   4.657   5.193
   42G      H22 1323   3.457   4.678   5.167
   42G       N3 1324   3.397   4.447   5.151
   42G       C4 1325   3.395   4.312   5.127
   42G      C3' 1326   3.041   4.250   4.890
   42G      H3' 1327   3.113   4.186   4.840
   42G      C2' 1328   3.109   4.358   4.975
   42G     H2'1 1329   3.199   4.397   4.925
   42G      O2' 1330   3.018   4.463   5.005
   42G     HO'2 1331   2.973   4.479   4.921
   42G      O3' 1332   2.946   4.308   4.800
   43U        P 1333   2.984   4.347   4.650
   43U      O1P 1334   2.861   4.405   4.591
   43U      O2P 1335   3.048   4.232   4.586
   43U      O5' 1336   3.092   4.464   4.667
   43U      C5' 1337   3.050   4.597   4.690
   43U     H5'1 1338   2.977   4.599   4.771
   43U     H5'2 1339   3.003   4.634   4.599
   43U      C4' 1340   3.165   4.692   4.727
   43U      H4' 1341   3.121   4.789   4.749
   43U      O4' 1342   3.240   4.651   4.840
   43U      C1' 1343   3.375   4.693   4.823
   43U      H1' 1344   3.405   4.759   4.905
   43U       N1 1345   3.469   4.577   4.818
   43U       C6 1346   3.428   4.450   4.780
   43U       H6 1347   3.325   4.433   4.751
   43U       C5 1348   3.515   4.346   4.779
   43U       H5 1349   3.483   4.247   4.752
   43U       C4 1350   3.654   4.364   4.814
   43U       O4 1351   3.741   4.278   4.810
   43U       N3 1352   3.686   4.492   4.853
   43U       H3 1353   3.783   4.508   4.875
   43U       C2 1354   3.602   4.600   4.854
   43U       O2 1355   3.645   4.712   4.884
   43U      C3' 1356   3.265   4.712   4.613
   43U      H3' 1357   3.293   4.617   4.569
   43U      C2' 1358   3.380   4.773   4.692
   43U     H2'1 1359   3.475   4.759   4.641
   43U      O2' 1360   3.353   4.911   4.714
   43U     HO'2 1361   3.304   4.935   4.634
   43U      O3' 1362   3.213   4.804   4.519
   44A        P 1363   3.250   4.794   4.364
   44A      O1P 1364   3.173   4.901   4.299
   44A      O2P 1365   3.230   4.654   4.322
   44A      O5' 1366   3.406   4.833   4.366
   44A      C5' 1367   3.444   4.968   4.384
   44A     H5'1 1368   3.384   5.011   4.464
   44A     H5'2 1369   3.422   5.022   4.292
   44A      C4' 1370   3.591   4.990   4.419
   44A      H4' 1371   3.603   5.097   4.435
   44A      O4' 1372   3.633   4.925   4.539
   44A      C1' 1373   3.771   4.890   4.528
   44A      H1' 1374   3.829   4.932   4.610
   44A       N9 1375   3.790   4.743   4.531
   44A       C8 1376   3.696   4.643   4.518
   44A       H8 1377   3.593   4.662   4.493
   44A       N7 1378   3.742   4.523   4.541
   44A       C5 1379   3.878   4.544   4.564
   44A       C6 1380   3.989   4.460   4.590
   44A       N6 1381   3.982   4.329   4.603
   44A      H61 1382   3.891   4.286   4.608
   44A      H62 1383   4.064   4.274   4.626
   44A       N1 1384   4.112   4.512   4.605
   44A       C2 1385   4.125   4.644   4.598
   44A       H2 1386   4.225   4.681   4.612
   44A       N3 1387   4.031   4.736   4.575
   44A       C4 1388   3.908   4.678   4.557
   44A      C3' 1389   3.691   4.952   4.311
   44A      H3' 1390   3.668   4.852   4.273
   44A      C2' 1391   3.819   4.950   4.396
   44A     H2'1 1392   3.896   4.888   4.350
   44A      O2' 1393   3.866   5.083   4.419
   44A     HO'2 1394   3.878   5.120   4.331
   44A      O3' 1395   3.694   5.051   4.209
   45G        P 1396   3.725   5.009   4.058
   45G      O1P 1397   3.711   5.128   3.971
   45G      O2P 1398   3.646   4.889   4.027
   45G      O5' 1399   3.882   4.975   4.072
   45G      C5' 1400   3.976   5.080   4.088
   45G     H5'1 1401   3.941   5.147   4.166
   45G     H5'2 1402   3.981   5.137   3.995
   45G      C4' 1403   4.118   5.035   4.125
   45G      H4' 1404   4.177   5.126   4.134
   45G      O4' 1405   4.129   4.967   4.250
   45G      C1' 1406   4.223   4.861   4.236
   45G      H1' 1407   4.297   4.862   4.317
   45G       N9 1408   4.160   4.728   4.242
   45G       C8 1409   4.029   4.691   4.219
   45G       H8 1410   3.953   4.760   4.186
   45G       N7 1411   4.006   4.564   4.239
   45G       C5 1412   4.131   4.512   4.273
   45G       C6 1413   4.173   4.378   4.302
   45G       O6 1414   4.107   4.275   4.305
   45G       N1 1415   4.308   4.367   4.327
   45G       H1 1416   4.343   4.274   4.346
   45G       C2 1417   4.394   4.472   4.325
   45G       N2 1418   4.521   4.445   4.340
   45G      H21 1419   4.551   4.348   4.351
   45G      H22 1420   4.583   4.522   4.332
   45G       N3 1421   4.360   4.598   4.298
   45G       C4 1422   4.226   4.611   4.273
   45G      C3' 1423   4.189   4.951   4.019
   45G      H3' 1424   4.119   4.880   3.975
   45G      C2' 1425   4.295   4.880   4.103
   45G     H2'1 1426   4.322   4.784   4.059
   45G      O2' 1427   4.412   4.959   4.128
   45G     HO'2 1428   4.486   4.907   4.095
   45G      O3' 1429   4.248   5.035   3.921
   46A        P 1430   4.291   4.980   3.779
   46A      O1P 1431   4.371   5.090   3.721
   46A      O2P 1432   4.170   4.933   3.708
   46A      O5' 1433   4.390   4.856   3.801
   46A      C5' 1434   4.529   4.878   3.809
   46A     H5'1 1435   4.549   4.951   3.888
   46A     H5'2 1436   4.564   4.918   3.714
   46A      C4' 1437   4.611   4.753   3.840
   46A      H4' 1438   4.715   4.783   3.855
   46A      O4' 1439   4.565   4.693   3.960
   46A      C1' 1440   4.589   4.553   3.951
   46A      H1' 1441   4.655   4.520   4.031
   46A       N9 1442   4.463   4.477   3.960
   46A       C8 1443   4.334   4.519   3.940
   46A       H8 1444   4.309   4.621   3.911
   46A       N7 1445   4.244   4.427   3.958
   46A       C5 1446   4.319   4.314   3.992
   46A       C6 1447   4.289   4.179   4.024
   46A       N6 1448   4.167   4.130   4.033
   46A      H61 1449   4.090   4.195   4.027
   46A      H62 1450   4.151   4.037   4.070
   46A       N1 1451   4.386   4.091   4.048
   46A       C2 1452   4.511   4.136   4.048
   46A       H2 1453   4.587   4.062   4.071
   46A       N3 1454   4.555   4.259   4.024
   46A       C4 1455   4.453   4.344   3.994
   46A      C3' 1456   4.611   4.646   3.730
   46A      H3' 1457   4.509   4.630   3.695
   46A      C2' 1458   4.658   4.528   3.816
   46A     H2'1 1459   4.630   4.432   3.773
   46A      O2' 1460   4.798   4.533   3.840
   46A     HO'2 1461   4.842   4.541   3.755
   46A      O3' 1462   4.701   4.678   3.624
   47G        P 1463   4.681   4.619   3.476
   47G      O1P 1464   4.789   4.668   3.388
   47G      O2P 1465   4.542   4.641   3.432
   47G      O5' 1466   4.704   4.461   3.491
   47G      C5' 1467   4.837   4.412   3.505
   47G     H5'1 1468   4.890   4.472   3.579
   47G     H5'2 1469   4.889   4.424   3.409
   47G      C4' 1470   4.844   4.266   3.547
   47G      H4' 1471   4.949   4.240   3.559
   47G      O4' 1472   4.780   4.243   3.671
   47G      C1' 1473   4.728   4.111   3.671
   47G      H1' 1474   4.766   4.053   3.756
   47G       N9 1475   4.580   4.115   3.679
   47G       C8 1476   4.494   4.219   3.651
   47G       H8 1477   4.528   4.316   3.620
   47G       N7 1478   4.368   4.188   3.662
   47G       C5 1479   4.369   4.055   3.706
   47G       C6 1480   4.263   3.961   3.736
   47G       O6 1481   4.141   3.973   3.730
   47G       N1 1482   4.309   3.836   3.771
   47G       H1 1483   4.240   3.768   3.798
   47G       C2 1484   4.440   3.802   3.772
   47G       N2 1485   4.468   3.675   3.790
   47G      H21 1486   4.394   3.608   3.809
   47G      H22 1487   4.565   3.653   3.793
   47G       N3 1488   4.541   3.882   3.741
   47G       C4 1489   4.499   4.009   3.712
   47G      C3' 1490   4.785   4.167   3.447
   47G      H3' 1491   4.686   4.202   3.415
   47G      C2' 1492   4.771   4.045   3.539
   47G     H2'1 1493   4.695   3.977   3.503
   47G      O2' 1494   4.897   3.980   3.550
   47G     HO'2 1495   4.937   3.994   3.464
   47G      O3' 1496   4.873   4.143   3.338
   48U        P 1497   4.817   4.103   3.194
   48U      O1P 1498   4.931   4.096   3.100
   48U      O2P 1499   4.700   4.188   3.164
   48U      O5' 1500   4.765   3.955   3.219
   48U      C5' 1501   4.857   3.848   3.230
   48U     H5'1 1502   4.935   3.873   3.302
   48U     H5'2 1503   4.903   3.830   3.133
   48U      C4' 1504   4.786   3.720   3.276
   48U      H4' 1505   4.862   3.643   3.289
   48U      O4' 1506   4.718   3.737   3.400
   48U      C1' 1507   4.597   3.661   3.398
   48U      H1' 1508   4.592   3.597   3.486
   48U       N1 1509   4.474   3.746   3.402
   48U       C6 1510   4.474   3.880   3.370
   48U       H6 1511   4.566   3.927   3.339
   48U       C5 1512   4.361   3.954   3.377
   48U       H5 1513   4.361   4.059   3.353
   48U       C4 1514   4.235   3.896   3.418
   48U       O4 1515   4.127   3.953   3.418
   48U       N3 1516   4.243   3.763   3.453
   48U       H3 1517   4.158   3.721   3.487
   48U       C2 1518   4.355   3.683   3.443
   48U       O2 1519   4.346   3.562   3.464
   48U      C3' 1520   4.683   3.668   3.177
   48U      H3' 1521   4.621   3.751   3.143
   48U      C2' 1522   4.604   3.576   3.270
   48U     H2'1 1523   4.504   3.556   3.231
   48U      O2' 1524   4.673   3.454   3.297
   48U     HO'2 1525   4.681   3.408   3.212
   48U      O3' 1526   4.746   3.600   3.069
   49C        P 1527   4.679   3.601   2.924
   49C      O1P 1528   4.776   3.540   2.830
   49C      O2P 1529   4.632   3.737   2.895
   49C      O5' 1530   4.552   3.505   2.941
   49C      C5' 1531   4.568   3.365   2.949
   49C     H5'1 1532   4.647   3.342   3.021
   49C     H5'2 1533   4.598   3.325   2.852
   49C      C4' 1534   4.439   3.295   2.995
   49C      H4' 1535   4.461   3.189   3.008
   49C      O4' 1536   4.393   3.344   3.120
   49C      C1' 1537   4.250   3.339   3.124
   49C      H1' 1538   4.217   3.279   3.209
   49C       N1 1539   4.188   3.475   3.134
   49C       C6 1540   4.259   3.590   3.106
   49C       H6 1541   4.361   3.584   3.072
   49C       C5 1542   4.200   3.711   3.121
   49C       H5 1543   4.256   3.802   3.100
   49C       C4 1544   4.065   3.714   3.164
   49C       N4 1545   4.006   3.829   3.180
   49C      H41 1546   4.062   3.912   3.187
   49C      H42 1547   3.912   3.832   3.217
   49C       N3 1548   3.995   3.605   3.190
   49C       C2 1549   4.055   3.485   3.177
   49C       O2 1550   3.989   3.384   3.204
   49C      C3' 1551   4.322   3.306   2.897
   49C      H3' 1552   4.312   3.409   2.862
   49C      C2' 1553   4.207   3.270   2.993
   49C     H2'1 1554   4.112   3.310   2.956
   49C      O2' 1555   4.197   3.130   3.016
   49C     HO'2 1556   4.105   3.109   3.036
   49C      O3' 1557   4.333   3.214   2.789
   50G        P 1558   4.250   3.230   2.654
   50G      O1P 1559   4.276   3.110   2.572
   50G      O2P 1560   4.280   3.363   2.597
   50G      O5' 1561   4.095   3.229   2.695
   50G      C5' 1562   4.027   3.106   2.718
   50G     H5'1 1563   4.080   3.049   2.795
   50G     H5'2 1564   4.026   3.047   2.627
   50G      C4' 1565   3.882   3.127   2.764
   50G      H4' 1566   3.836   3.029   2.776
   50G      O4' 1567   3.873   3.195   2.889
   50G      C1' 1568   3.753   3.272   2.889
   50G      H1' 1569   3.686   3.244   2.970
   50G       N9 1570   3.785   3.416   2.901
   50G       C8 1571   3.898   3.484   2.862
   50G       H8 1572   3.986   3.434   2.824
   50G       N7 1573   3.888   3.614   2.870
   50G       C5 1574   3.758   3.635   2.919
   50G       C6 1575   3.682   3.755   2.945
   50G       O6 1576   3.713   3.873   2.930
   50G       N1 1577   3.554   3.729   2.989
   50G       H1 1578   3.499   3.809   3.016
   50G       C2 1579   3.502   3.605   3.005
   50G       N2 1580   3.379   3.597   3.048
   50G      H21 1581   3.327   3.682   3.066
   50G      H22 1582   3.349   3.505   3.074
   50G       N3 1583   3.567   3.492   2.981
   50G       C4 1584   3.696   3.513   2.939
   50G      C3' 1585   3.797   3.208   2.666
   50G      H3' 1586   3.851   3.298   2.638
   50G      C2' 1587   3.681   3.249   2.756
   50G     H2'1 1588   3.634   3.341   2.720
   50G      O2' 1589   3.584   3.145   2.768
   50G     HO'2 1590   3.525   3.153   2.692
   50G      O3' 1591   3.755   3.137   2.549
   50G      H3T 1592   3.811   3.171   2.477
   51SOL     OW 1593   0.261   0.616   0.057
   51SOL    HW1 1594   0.215   0.657   0.131
   51SOL    HW2 1595   0.213   0.535   0.042
   52SOL     OW 1596   0.212   0.292   0.992
   52SOL    HW1 1597   0.257   0.246   1.064
   52SOL    HW2 1598   0.129   0.247   0.982
   53SOL     OW 1599   7.995   0.388   0.597
   53SOL    HW1 1600   7.908   0.384   0.636
   53SOL    HW2 1601   8.011   0.298   0.566
   54SOL     OW 1602   0.574   1.301   1.195
   54SOL    HW1 1603   0.487   1.306   1.154
   54SOL    HW2 1604   0.591   1.390   1.226
   55SOL     OW 1605   1.576   1.521   0.714
   55SOL    HW1 1606   1.532   1.495   0.795
   55SOL    HW2 1607   1.506   1.522   0.648
   56SOL     OW 1608   1.132   0.703   0.693
   56SOL    HW1 1609   1.180   0.785   0.682
   56SOL    HW2 1610   1.085   0.713   0.776
   57SOL     OW 1611   1.733   0.626   0.278
   57SOL    HW1 1612   1.719   0.633   0.184
   57SOL    HW2 1613   1.706   0.536   0.300
   58SOL     OW 1614   0.734   1.132   1.048
   58SOL    HW1 1615   0.673   1.172   1.110
   58SOL    HW2 1616   0.778   1.207   1.007
   59SOL     OW 1617   0.880   0.750   1.823
   59SOL    HW1 1618   0.880   0.817   1.892
   59SOL    HW2 1619   0.902   0.797   1.743
   60SOL     OW 1620   0.688   0.996   0.646
   60SOL    HW1 1621   0.755   0.990   0.714
   60SOL    HW2 1622   0.621   1.053   0.683
   61SOL     OW 1623   0.713   1.149   1.823
   61SOL    HW1 1624   0.762   1.226   1.854
   61SOL    HW2 1625   0.636   1.186   1.780
   62SOL     OW 1626   0.342   1.410   1.067
   62SOL    HW1 1627   0.280   1.364   1.011
   62SOL    HW2 1628   0.388   1.470   1.008
   63SOL     OW 1629   1.459   1.505   1.366
   63SOL    HW1 1630   1.513   1.583   1.377
   63SOL    HW2 1631   1.389   1.515   1.430
   64SOL     OW 1632   0.448   0.378   1.478
   64SOL    HW1 1633   0.535   0.340   1.476
   64SOL    HW2 1634   0.396   0.317   1.532
   65SOL     OW 1635   1.614   0.465   0.735
   65SOL    HW1 1636   1.575   0.503   0.656
   65SOL    HW2 1637   1.588   0.524   0.806
   66SOL     OW 1638   0.234   1.702   0.494
   66SOL    HW1 1639   0.238   1.784   0.543
   66SOL    HW2 1640   0.304   1.709   0.429
   67SOL     OW 1641   1.137   1.343   1.694
   67SOL    HW1 1642   1.180   1.335   1.779
   67SOL    HW2 1643   1.085   1.263   1.686
   68SOL     OW 1644   0.278   1.438   0.520
   68SOL    HW1 1645   0.259   1.531   0.531
   68SOL    HW2 1646   0.230   1.394   0.590
   69SOL     OW 1647   0.278   1.081   0.894
   69SOL    HW1 1648   0.279   0.988   0.918
   69SOL    HW2 1649   0.202   1.116   0.940
   70SOL     OW 1650   0.604   1.800   1.415
   70SOL    HW1 1651   0.527   1.777   1.466
   70SOL    HW2 1652   0.630   1.886   1.448
   71SOL     OW 1653   0.581   0.969   0.159
   71SOL    HW1 1654   0.645   0.986   0.089
   71SOL    HW2 1655   0.616   1.015   0.235
   72SOL     OW 1656   1.650   0.128   1.484
   72SOL    HW1 1657   1.624   0.191   1.417
   72SOL    HW2 1658   1.597   0.152   1.560
   73SOL     OW 1659   0.129   0.638   0.544
   73SOL    HW1 1660   0.091   0.552   0.564
   73SOL    HW2 1661   0.115   0.689   0.624
   74SOL     OW 1662   1.856   1.737   0.310
   74SOL    HW1 1663   1.924   1.713   0.373
   74SOL    HW2 1664   1.869   1.831   0.295
   75SOL     OW 1665   0.027   1.556   0.100
   75SOL    HW1 1666   0.022   1.480   0.159
   75SOL    HW2 1667   0.054   1.628   0.156
   76SOL     OW 1668   1.684   0.936   0.651
   76SOL    HW1 1669   1.750   0.889   0.600
   76SOL    HW2 1670   1.648   1.000   0.591
   77SOL     OW 1671   1.643   1.117   0.433
   77SOL    HW1 1672   1.729   1.114   0.392
   77SOL    HW2 1673   1.653   1.181   0.504
   78SOL     OW 1674   0.149   0.768   1.584
   78SOL    HW1 1675   0.245   0.763   1.585
   78SOL    HW2 1676   0.128   0.846   1.636
   79SOL     OW 1677   0.618   1.394   0.735
   79SOL    HW1 1678   0.575   1.309   0.744
   79SOL    HW2 1679   0.604   1.419   0.644
   80SOL     OW 1680   1.282   1.234   1.417
   80SOL    HW1 1681   1.312   1.165   1.358
   80SOL    HW2 1682   1.341   1.228   1.492
   81SOL     OW 1683   0.841   0.032   0.577
   81SOL    HW1 1684   0.875   0.111   0.535
   81SOL    HW2 1685   0.747   0.034   0.559
   82SOL     OW 1686   0.168   0.912   1.264
   82SOL    HW1 1687   0.261   0.889   1.267
   82SOL    HW2 1688   0.146   0.911   1.171
   83SOL     OW 1689   1.492   1.016   0.227
   83SOL    HW1 1690   1.430   0.956   0.269
   83SOL    HW2 1691   1.549   1.044   0.299
   84SOL     OW 1692   1.178   1.819   1.629
   84SOL    HW1 1693   1.185   1.882   1.557
   84SOL    HW2 1694   1.200   1.735   1.590
   85SOL     OW 1695   0.324   0.238   1.760
   85SOL    HW1 1696   0.391   0.289   1.806
   85SOL    HW2 1697   0.243   0.257   1.807
   86SOL     OW 1698   1.468   1.419   0.945
   86SOL    HW1 1699   1.402   1.435   1.013
   86SOL    HW2 1700   1.454   1.328   0.920
   87SOL     OW 1701   1.651   1.766   0.583
   87SOL    HW1 1702   1.629   1.729   0.498
   87SOL    HW2 1703   1.636   1.694   0.645
   88SOL     OW 1704   0.597   0.718   0.281
   88SOL    HW1 1705   0.603   0.806   0.244
   88SOL    HW2 1706   0.532   0.725   0.351
   89SOL     OW 1707   1.294   0.379   0.934
   89SOL    HW1 1708   1.203   0.350   0.939
   89SOL    HW2 1709   1.340   0.322   0.996
   90SOL     OW 1710   1.590   1.676   0.329
   90SOL    HW1 1711   1.685   1.684   0.320
   90SOL    HW2 1712   1.557   1.689   0.240
   91SOL     OW 1713   0.770   0.643   1.441
   91SOL    HW1 1714   0.760   0.610   1.530
   91SOL    HW2 1715   0.764   0.565   1.386
   92SOL     OW 1716   1.418   0.491   1.677
   92SOL    HW1 1717   1.421   0.534   1.763
   92SOL    HW2 1718   1.472   0.412   1.688
   93SOL     OW 1719   0.949   0.881   1.587
   93SOL    HW1 1720   1.000   0.811   1.547
   93SOL    HW2 1721   0.899   0.919   1.514
   94SOL     OW 1722   1.010   0.416   1.210
   94SOL    HW1 1723   0.923   0.435   1.244
   94SOL    HW2 1724   0.994   0.377   1.124
   95SOL     OW 1725   1.057   0.704   0.425
   95SOL    HW1 1726   1.073   0.699   0.520
   95SOL    HW2 1727   0.973   0.661   0.413
   96SOL     OW 1728   0.095   0.781   0.775
   96SOL    HW1 1729   0.174   0.793   0.827
   96SOL    HW2 1730   0.044   0.861   0.790
   97SOL     OW 1731   0.125   1.813   1.564
   97SOL    HW1 1732   0.129   1.806   1.659
   97SOL    HW2 1733   0.033   1.795   1.543
   98SOL     OW 1734   0.886   0.363   0.210
   98SOL    HW1 1735   0.931   0.434   0.166
   98SOL    HW2 1736   0.844   0.313   0.140
   99SOL     OW 1737   1.705   0.568   1.832
   99SOL    HW1 1738   1.671   0.645   1.785
   99SOL    HW2 1739   1.729   0.507   1.763
  100SOL     OW 1740   1.380   1.142   0.535
  100SOL    HW1 1741   1.461   1.138   0.485
  100SOL    HW2 1742   1.326   1.204   0.487
  101SOL     OW 1743   0.494   0.214   0.929
  101SOL    HW1 1744   0.531   0.258   1.006
  101SOL    HW2 1745   0.549   0.245   0.857
  102SOL     OW 1746   0.992   1.435   0.473
  102SOL    HW1 1747   0.956   1.513   0.431
  102SOL    HW2 1748   0.973   1.447   0.566
  103SOL     OW 1749   0.360   1.827   0.876
  103SOL    HW1 1750   0.405   1.743   0.885
  103SOL    HW2 1751   0.427   1.892   0.895
  104SOL     OW 1752   1.808   1.046   0.877
  104SOL    HW1 1753   1.756   1.025   0.799
  104SOL    HW2 1754   1.743   1.055   0.947
  105SOL     OW 1755   1.225   1.544   1.514
  105SOL    HW1 1756   1.213   1.471   1.575
  105SOL    HW2 1757   1.151   1.536   1.454
  106SOL     OW 1758   0.304   0.955   0.228
  106SOL    HW1 1759   0.395   0.976   0.210
  106SOL    HW2 1760   0.263   0.949   0.141
  107SOL     OW 1761   1.479   0.764   0.723
  107SOL    HW1 1762   1.479   0.721   0.809
  107SOL    HW2 1763   1.557   0.819   0.724
  108SOL     OW 1764   0.467   1.267   1.740
  108SOL    HW1 1765   0.444   1.272   1.647
  108SOL    HW2 1766   0.383   1.254   1.785
  109SOL     OW 1767   1.068   1.782   0.226
  109SOL    HW1 1768   1.033   1.735   0.301
  109SOL    HW2 1769   1.135   1.724   0.190
  110SOL     OW 1770   0.165   0.270   1.501
  110SOL    HW1 1771   0.164   0.365   1.491
  110SOL    HW2 1772   0.188   0.257   1.593
  111SOL     OW 1773   1.655   1.411   0.078
  111SOL    HW1 1774   1.588   1.475   0.051
  111SOL    HW2 1775   1.608   1.328   0.081
  112SOL     OW 1776   0.450   1.740   0.326
  112SOL    HW1 1777   0.498   1.798   0.384
  112SOL    HW2 1778   0.517   1.700   0.270
  113SOL     OW 1779   1.395   0.107   0.421
  113SOL    HW1 1780   1.390   0.055   0.341
  113SOL    HW2 1781   1.489   0.120   0.436
  114SOL     OW 1782   0.238   1.784   1.227
  114SOL    HW1 1783   0.288   1.710   1.261
  114SOL    HW2 1784   0.208   1.755   1.140
  115SOL     OW 1785   0.941   1.702   0.895
  115SOL    HW1 1786   1.020   1.655   0.920
  115SOL    HW2 1787   0.903   1.650   0.825
  116SOL     OW 1788   0.404   0.684   0.478
  116SOL    HW1 1789   0.426   0.592   0.488
  116SOL    HW2 1790   0.312   0.689   0.506
  117SOL     OW 1791   1.528   0.220   1.720
  117SOL    HW1 1792   1.540   0.244   1.812
  117SOL    HW2 1793   1.476   0.140   1.722
  118SOL     OW 1794   0.602   0.089   0.094
  118SOL    HW1 1795   0.675   0.080   0.155
  118SOL    HW2 1796   0.619   0.022   0.027
  119SOL     OW 1797   0.717   0.305   1.759
  119SOL    HW1 1798   0.810   0.290   1.773
  119SOL    HW2 1799   0.674   0.265   1.835
  120SOL     OW 1800   0.876   1.523   1.194
  120SOL    HW1 1801   0.857   1.483   1.109
  120SOL    HW2 1802   0.944   1.468   1.232
  121SOL     OW 1803   1.339   0.597   1.437
  121SOL    HW1 1804   1.379   0.568   1.519
  121SOL    HW2 1805   1.374   0.685   1.422
  122SOL     OW 1806   0.821   1.381   0.952
  122SOL    HW1 1807   0.907   1.374   0.910
  122SOL    HW2 1808   0.760   1.395   0.879
  123SOL     OW 1809   0.924   0.522   0.889
  123SOL    HW1 1810   0.894   0.512   0.799
  123SOL    HW2 1811   0.961   0.436   0.912
  124SOL     OW 1812   0.589   0.042   0.448
  124SOL    HW1 1813   0.513   0.006   0.494
  124SOL    HW2 1814   0.557   0.123   0.408
  125SOL     OW 1815   1.459   1.220   0.050
  125SOL    HW1 1816   1.472   1.141   0.102
  125SOL    HW2 1817   1.369   1.246   0.067
  126SOL     OW 1818   0.346   0.007   0.178
  126SOL    HW1 1819   0.433   0.038   0.154
  126SOL    HW2 1820   0.356  -0.024   0.268
  127SOL     OW 1821   0.945   0.260   0.462
  127SOL    HW1 1822   0.917   0.285   0.374
  127SOL    HW2 1823   1.040   0.271   0.460
  128SOL     OW 1824   1.076   0.673   1.461
  128SOL    HW1 1825   1.023   0.595   1.478
  128SOL    HW2 1826   1.166   0.640   1.456
  129SOL     OW 1827   1.217   1.574   0.795
  129SOL    HW1 1828   1.228   1.639   0.726
  129SOL    HW2 1829   1.283   1.595   0.860
  130SOL     OW 1830   0.476   1.156   0.723
  130SOL    HW1 1831   0.413   1.133   0.791
  130SOL    HW2 1832   0.430   1.142   0.641
  131SOL     OW 1833   1.256   1.789   0.614
  131SOL    HW1 1834   1.307   1.853   0.564
  131SOL    HW2 1835   1.186   1.840   0.654
  132SOL     OW 1836   1.014   0.571   0.096
  132SOL    HW1 1837   1.018   0.638   0.027
  132SOL    HW2 1838   1.098   0.577   0.140
  133SOL     OW 1839   0.101   0.582   1.388
  133SOL    HW1 1840   0.192   0.575   1.358
  133SOL    HW2 1841   0.105   0.647   1.459
  134SOL     OW 1842   0.585   0.229   1.201
  134SOL    HW1 1843   0.618   0.187   1.281
  134SOL    HW2 1844   0.489   0.222   1.210
  135SOL     OW 1845   0.856   0.464   0.631
  135SOL    HW1 1846   0.830   0.520   0.558
  135SOL    HW2 1847   0.886   0.383   0.589
  136SOL     OW 1848   0.980   0.037   0.806
  136SOL    HW1 1849   0.931   0.036   0.724
  136SOL    HW2 1850   1.000  -0.055   0.823
  137SOL     OW 1851   1.442   1.158   0.859
  137SOL    HW1 1852   1.369   1.096   0.857
  137SOL    HW2 1853   1.469   1.167   0.767
  138SOL     OW 1854   1.467   0.610   0.955
  138SOL    HW1 1855   1.408   0.535   0.961
  138SOL    HW2 1856   1.521   0.604   1.034
  139SOL     OW 1857   1.832   0.828   0.437
  139SOL    HW1 1858   1.887   0.764   0.483
  139SOL    HW2 1859   1.790   0.778   0.367
  140SOL     OW 1860   0.488   1.399   0.154
  140SOL    HW1 1861   0.428   1.346   0.206
  140SOL    HW2 1862   0.430   1.451   0.097
  141SOL     OW 1863   1.676   1.268   0.651
  141SOL    HW1 1864   1.771   1.264   0.663
  141SOL    HW2 1865   1.653   1.358   0.671
  142SOL     OW 1866   1.401   0.549   0.080
  142SOL    HW1 1867   1.348   0.546   0.159
  142SOL    HW2 1868   1.458   0.472   0.087
  143SOL     OW 1869   0.506   0.258   0.303
  143SOL    HW1 1870   0.540   0.212   0.226
  143SOL    HW2 1871   0.490   0.347   0.272
  144SOL     OW 1872   1.743   1.243   1.548
  144SOL    HW1 1873   1.831   1.205   1.543
  144SOL    HW2 1874   1.757   1.331   1.582
  145SOL     OW 1875   1.050   1.349   1.326
  145SOL    HW1 1876   0.974   1.320   1.377
  145SOL    HW2 1877   1.125   1.310   1.371
  146SOL     OW 1878   1.607   1.629   1.661
  146SOL    HW1 1879   1.600   1.665   1.573
  146SOL    HW2 1880   1.687   1.577   1.660
  147SOL     OW 1881   1.136   1.212   1.099
  147SOL    HW1 1882   1.079   1.253   1.165
  147SOL    HW2 1883   1.109   1.252   1.016
  148SOL     OW 1884   1.622   1.096   1.074
  148SOL    HW1 1885   1.614   1.160   1.146
  148SOL    HW2 1886   1.549   1.116   1.016
  149SOL     OW 1887   0.913   0.128   1.392
  149SOL    HW1 1888   0.936   0.115   1.300
  149SOL    HW2 1889   0.997   0.131   1.438
  150SOL     OW 1890   0.983   1.116   1.720
  150SOL    HW1 1891   0.892   1.131   1.747
  150SOL    HW2 1892   0.979   1.036   1.668
  151SOL     OW 1893   0.714   1.064   0.379
  151SOL    HW1 1894   0.702   1.042   0.471
  151SOL    HW2 1895   0.792   1.014   0.353
  152SOL     OW 1896   0.426   0.821   1.253
  152SOL    HW1 1897   0.489   0.840   1.322
  152SOL    HW2 1898   0.402   0.729   1.268
  153SOL     OW 1899   1.269   0.381   1.285
  153SOL    HW1 1900   1.298   0.461   1.328
  153SOL    HW2 1901   1.180   0.402   1.254
  154SOL     OW 1902   0.045   1.594   1.330
  154SOL    HW1 1903   0.098   1.672   1.314
  154SOL    HW2 1904   0.082   1.555   1.409
  155SOL     OW 1905   0.330   1.107   0.492
  155SOL    HW1 1906   0.319   1.179   0.431
  155SOL    HW2 1907   0.344   1.030   0.437
  156SOL     OW 1908   0.543   0.539   0.855
  156SOL    HW1 1909   0.560   0.600   0.783
  156SOL    HW2 1910   0.612   0.559   0.919
  157SOL     OW 1911   1.242   1.349   0.396
  157SOL    HW1 1912   1.298   1.419   0.430
  157SOL    HW2 1913   1.155   1.370   0.429
  158SOL     OW 1914   1.295   1.464   1.151
  158SOL    HW1 1915   1.351   1.473   1.229
  158SOL    HW2 1916   1.238   1.390   1.171
  159SOL     OW 1917   1.551   0.607   0.505
  159SOL    HW1 1918   1.504   0.669   0.561
  159SOL    HW2 1919   1.588   0.660   0.435
  160SOL     OW 1920   0.349   1.535   1.309
  160SOL    HW1 1921   0.333   1.485   1.229
  160SOL    HW2 1922   0.444   1.543   1.314
  161SOL     OW 1923   0.434   0.724   1.619
  161SOL    HW1 1924   0.482   0.780   1.557
  161SOL    HW2 1925   0.500   0.664   1.653
  162SOL     OW 1926   1.616   0.783   1.693
  162SOL    HW1 1927   1.529   0.823   1.687
  162SOL    HW2 1928   1.666   0.825   1.623
  163SOL     OW 1929   1.045   0.060   1.727
  163SOL    HW1 1930   1.060   0.151   1.752
  163SOL    HW2 1931   0.949   0.051   1.726
  164SOL     OW 1932   0.499   0.018   1.733
  164SOL    HW1 1933   0.485  -0.032   1.652
  164SOL    HW2 1934   0.441   0.093   1.726
  165SOL     OW 1935   0.589   0.877   1.033
  165SOL    HW1 1936   0.627   0.965   1.036
  165SOL    HW2 1937   0.533   0.872   1.111
  166SOL     OW 1938   1.334   0.855   1.014
  166SOL    HW1 1939   1.246   0.836   0.984
  166SOL    HW2 1940   1.383   0.774   1.001
  167SOL     OW 1941   1.219   0.533   0.282
  167SOL    HW1 1942   1.226   0.456   0.338
  167SOL    HW2 1943   1.169   0.596   0.334
  168SOL     OW 1944   0.314   0.202   1.241
  168SOL    HW1 1945   0.265   0.224   1.320
  168SOL    HW2 1946   0.298   0.108   1.229
  169SOL     OW 1947   0.051   1.308   1.269
  169SOL    HW1 1948   0.075   1.257   1.346
  169SOL    HW2 1949   0.054   1.399   1.298
  170SOL     OW 1950   0.715   0.627   1.048
  170SOL    HW1 1951   0.793   0.618   0.994
  170SOL    HW2 1952   0.688   0.718   1.035
  171SOL     OW 1953   1.743   0.963   1.864
  171SOL    HW1 1954   1.701   0.893   1.814
  171SOL    HW2 1955   1.683   0.983   1.935
  172SOL     OW 1956   0.406   0.083   0.665
  172SOL    HW1 1957   0.357   0.157   0.700
  172SOL    HW2 1958   0.353   0.006   0.685
  173SOL     OW 1959   1.632   0.382   0.370
  173SOL    HW1 1960   1.637   0.302   0.422
  173SOL    HW2 1961   1.591   0.446   0.428
  174SOL     OW 1962   1.032   0.761   0.962
  174SOL    HW1 1963   1.018   0.775   1.055
  174SOL    HW2 1964   1.000   0.673   0.945
  175SOL     OW 1965   0.979   1.565   1.725
  175SOL    HW1 1966   0.964   1.609   1.641
  175SOL    HW2 1967   1.023   1.483   1.702
  176SOL     OW 1968   1.846   1.497   1.604
  176SOL    HW1 1969   1.871   1.527   1.517
  176SOL    HW2 1970   1.924   1.510   1.657
  177SOL     OW 1971   0.361   0.945   1.792
  177SOL    HW1 1972   0.436   0.964   1.848
  177SOL    HW2 1973   0.382   0.861   1.751
  178SOL     OW 1974   1.509   0.274   0.149
  178SOL    HW1 1975   1.555   0.190   0.151
  178SOL    HW2 1976   1.549   0.325   0.220
  179SOL     OW 1977   1.288   0.805   0.058
  179SOL    HW1 1978   1.341   0.726   0.047
  179SOL    HW2 1979   1.329   0.869  -0.001
  180SOL     OW 1980   1.072   1.344   0.860
  180SOL    HW1 1981   1.079   1.272   0.797
  180SOL    HW2 1982   1.128   1.413   0.824
  181SOL     OW 1983   0.320   0.805   0.939
  181SOL    HW1 1984   0.413   0.828   0.940
  181SOL    HW2 1985   0.316   0.718   0.977
  182SOL     OW 1986   0.333   0.529   1.018
  182SOL    HW1 1987   0.294   0.443   1.003
  182SOL    HW2 1988   0.407   0.533   0.958
  183SOL     OW 1989   1.174   0.372   1.701
  183SOL    HW1 1990   1.113   0.426   1.751
  183SOL    HW2 1991   1.251   0.427   1.688
  184SOL     OW 1992   1.164   0.218   1.477
  184SOL    HW1 1993   1.177   0.266   1.559
  184SOL    HW2 1994   1.203   0.275   1.410
  185SOL     OW 1995   7.996   1.299   0.203
  185SOL    HW1 1996   7.910   1.324   0.237
  185SOL    HW2 1997   8.007   1.207   0.230
  186SOL     OW 1998   0.104   1.744   0.938
  186SOL    HW1 1999   0.106   1.673   0.873
  186SOL    HW2 2000   0.183   1.795   0.921
  187SOL     OW 2001   0.489   1.575   0.903
  187SOL    HW1 2002   0.558   1.637   0.927
  187SOL    HW2 2003   0.531   1.514   0.844
  188SOL     OW 2004   0.964   0.778   1.227
  188SOL    HW1 2005   1.026   0.755   1.296
  188SOL    HW2 2006   0.879   0.753   1.262
  189SOL     OW 2007   0.068   0.548   1.121
  189SOL    HW1 2008   0.162   0.545   1.101
  189SOL    HW2 2009   0.065   0.559   1.216
  190SOL     OW 2010   0.200   0.506   1.672
  190SOL    HW1 2011   0.293   0.518   1.651
  190SOL    HW2 2012   0.166   0.595   1.680
  191SOL     OW 2013   1.385   0.927   1.655
  191SOL    HW1 2014   1.405   1.021   1.652
  191SOL    HW2 2015   1.380   0.900   1.563
  192SOL     OW 2016   0.817   0.577   0.379
  192SOL    HW1 2017   0.828   0.503   0.319
  192SOL    HW2 2018   0.744   0.628   0.343
  193SOL     OW 2019   1.636   0.607   1.170
  193SOL    HW1 2020   1.628   0.554   1.250
  193SOL    HW2 2021   1.725   0.591   1.140
  194SOL     OW 2022   0.291   1.532   1.720
  194SOL    HW1 2023   0.253   1.605   1.769
  194SOL    HW2 2024   0.282   1.457   1.779
  195SOL     OW 2025   0.737   0.451   1.253
  195SOL    HW1 2026   0.678   0.377   1.235
  195SOL    HW2 2027   0.719   0.513   1.183
  196SOL     OW 2028   0.923   1.676   1.472
  196SOL    HW1 2029   0.893   1.636   1.390
  196SOL    HW2 2030   0.917   1.770   1.457
  197SOL     OW 2031   0.466   0.496   0.193
  197SOL    HW1 2032   0.524   0.568   0.217
  197SOL    HW2 2033   0.399   0.537   0.138
  198SOL     OW 2034   0.155   1.119   1.453
  198SOL    HW1 2035   0.135   1.075   1.535
  198SOL    HW2 2036   0.159   1.049   1.388
  199SOL     OW 2037   1.317   1.041   1.213
  199SOL    HW1 2038   1.334   0.977   1.144
  199SOL    HW2 2039   1.252   1.101   1.175
  200SOL     OW 2040   1.301   0.844   0.330
  200SOL    HW1 2041   1.224   0.808   0.374
  200SOL    HW2 2042   1.291   0.819   0.239
  201SOL     OW 2043   1.779   1.731   1.161
  201SOL    HW1 2044   1.839   1.757   1.091
  201SOL    HW2 2045   1.752   1.642   1.137
  202SOL     OW 2046   1.237   1.730   1.093
  202SOL    HW1 2047   1.322   1.758   1.057
  202SOL    HW2 2048   1.251   1.639   1.119
  203SOL     OW 2049   0.060   1.185   1.032
  203SOL    HW1 2050   0.062   1.227   1.118
  203SOL    HW2 2051  -0.006   1.233   0.983
  204SOL     OW 2052   0.682   1.674   1.747
  204SOL    HW1 2053   0.622   1.747   1.735
  204SOL    HW2 2054   0.756   1.694   1.690
  205SOL     OW 2055   0.951   0.083   0.047
  205SOL    HW1 2056   1.028   0.128   0.082
  205SOL    HW2 2057   0.895   0.068   0.124
  206SOL     OW 2058   1.660   0.137   0.505
  206SOL    HW1 2059   1.755   0.124   0.501
  206SOL    HW2 2060   1.632   0.090   0.583
  207SOL     OW 2061   1.393   1.566   0.498
  207SOL    HW1 2062   1.454   1.600   0.433
  207SOL    HW2 2063   1.343   1.642   0.526
  208SOL     OW 2064   0.173   1.743   1.841
  208SOL    HW1 2065   0.108   1.696   1.893
  208SOL    HW2 2066   0.217   1.801   1.903
  209SOL     OW 2067   1.274   0.934   0.670
  209SOL    HW1 2068   1.348   0.876   0.685
  209SOL    HW2 2069   1.308   1.003   0.613
  210SOL     OW 2070   0.796   1.282   1.421
  210SOL    HW1 2071   0.770   1.324   1.502
  210SOL    HW2 2072   0.723   1.296   1.361
  211SOL     OW 2073   0.660   1.610   0.196
  211SOL    HW1 2074   0.722   1.619   0.123
  211SOL    HW2 2075   0.615   1.527   0.179
  212SOL     OW 2076   1.617   1.731   1.394
  212SOL    HW1 2077   1.671   1.734   1.315
  212SOL    HW2 2078   1.602   1.822   1.417
  213SOL     OW 2079   1.850   0.171   0.950
  213SOL    HW1 2080   1.846   0.082   0.984
  213SOL    HW2 2081   1.764   0.185   0.910
  214SOL     OW 2082   0.249   0.302   0.718
  214SOL    HW1 2083   0.171   0.355   0.698
  214SOL    HW2 2084   0.257   0.307   0.813
  215SOL     OW 2085   1.202   1.602   0.073
  215SOL    HW1 2086   1.198   1.508   0.089
  215SOL    HW2 2087   1.156   1.614  -0.011
  216SOL     OW 2088   0.824   1.013   1.378
  216SOL    HW1 2089   0.867   1.006   1.293
  216SOL    HW2 2090   0.819   1.107   1.395
  217SOL     OW 2091   0.928   0.924   0.296
  217SOL    HW1 2092   0.986   0.948   0.223
  217SOL    HW2 2093   0.974   0.852   0.340
  218SOL     OW 2094   1.462   1.580   0.003
  218SOL    HW1 2095   1.375   1.605   0.036
  218SOL    HW2 2096   1.514   1.661   0.010
  219SOL     OW 2097   0.369   1.299   1.490
  219SOL    HW1 2098   0.349   1.379   1.441
  219SOL    HW2 2099   0.295   1.241   1.470
  220SOL     OW 2100   1.608   1.288   1.280
  220SOL    HW1 2101   1.661   1.266   1.357
  220SOL    HW2 2102   1.547   1.354   1.312
  221SOL     OW 2103   1.066   1.115   0.714
  221SOL    HW1 2104   0.993   1.065   0.751
  221SOL    HW2 2105   1.131   1.050   0.691
  222SOL     OW 2106   1.030   0.269   0.952
  222SOL    HW1 2107   1.016   0.214   0.875
  222SOL    HW2 2108   1.034   0.207   1.026
  223SOL     OW 2109   0.606   1.478   0.479
  223SOL    HW1 2110   0.650   1.437   0.404
  223SOL    HW2 2111   0.524   1.512   0.443
  224SOL     OW 2112   1.721   0.426   1.379
  224SOL    HW1 2113   1.795   0.486   1.390
  224SOL    HW2 2114   1.753   0.358   1.321
  225SOL     OW 2115   0.270   1.297   0.295
  225SOL    HW1 2116   0.183   1.310   0.256
  225SOL    HW2 2117   0.272   1.357   0.369
  226SOL     OW 2118   0.100   1.002   1.713
  226SOL    HW1 2119   0.066   1.089   1.735
  226SOL    HW2 2120   0.185   0.998   1.756
  227SOL     OW 2121   0.673   0.220   1.493
  227SOL    HW1 2122   0.748   0.166   1.467
  227SOL    HW2 2123   0.689   0.240   1.586
  228SOL     OW 2124   0.107   0.381   0.013
  228SOL    HW1 2125   0.032   0.389   0.071
  228SOL    HW2 2126   0.078   0.419  -0.070
  229SOL     OW 2127   1.422   0.859   1.392
  229SOL    HW1 2128   1.372   0.920   1.338
  229SOL    HW2 2129   1.511   0.862   1.357
  230SOL     OW 2130   0.085   0.194   0.294
  230SOL    HW1 2131   0.154   0.259   0.284
  230SOL    HW2 2132   0.096   0.160   0.383
  231SOL     OW 2133   1.193   1.330   0.119
  231SOL    HW1 2134   1.097   1.326   0.109
  231SOL    HW2 2135   1.207   1.323   0.214
  232SOL     OW 2136   0.609   0.853   1.446
  232SOL    HW1 2137   0.669   0.927   1.432
  232SOL    HW2 2138   0.666   0.776   1.447
  233SOL     OW 2139   1.485   1.791   0.985
  233SOL    HW1 2140   1.507   1.864   0.927
  233SOL    HW2 2141   1.568   1.762   1.020
  234SOL     OW 2142   0.685   0.580   1.700
  234SOL    HW1 2143   0.746   0.629   1.755
  234SOL    HW2 2144   0.697   0.489   1.725
  235SOL     OW 2145   1.472   1.189   1.625
  235SOL    HW1 2146   1.460   1.206   1.718
  235SOL    HW2 2147   1.563   1.211   1.608
  236SOL     OW 2148   0.386   1.738   1.563
  236SOL    HW1 2149   0.298   1.768   1.542
  236SOL    HW2 2150   0.374   1.652   1.603
  237SOL     OW 2151   1.661   0.881   1.253
  237SOL    HW1 2152   1.656   0.796   1.208
  237SOL    HW2 2153   1.651   0.945   1.183
  238SOL     OW 2154   1.218   0.313   0.443
  238SOL    HW1 2155   1.279   0.239   0.440
  238SOL    HW2 2156   1.240   0.359   0.524
  239SOL     OW 2157   0.591   0.736   0.674
  239SOL    HW1 2158   0.630   0.822   0.661
  239SOL    HW2 2159   0.528   0.728   0.602
  240SOL     OW 2160   1.748   0.374   1.647
  240SOL    HW1 2161   1.735   0.392   1.554
  240SOL    HW2 2162   1.678   0.314   1.670
  241SOL     OW 2163   1.747   0.934   1.508
  241SOL    HW1 2164   1.734   1.027   1.521
  241SOL    HW2 2165   1.728   0.919   1.416
  242SOL     OW 2166   0.922   1.370   0.063
  242SOL    HW1 2167   0.864   1.351   0.137
  242SOL    HW2 2168   0.903   1.462   0.041
  243SOL     OW 2169   0.666   1.777   0.933
  243SOL    HW1 2170   0.649   1.870   0.917
  243SOL    HW2 2171   0.762   1.769   0.928
  244SOL     OW 2172   0.872   0.974   0.854
  244SOL    HW1 2173   0.923   0.903   0.892
  244SOL    HW2 2174   0.829   1.015   0.929
  245SOL     OW 2175   1.084   0.987   0.074
  245SOL    HW1 2176   1.126   1.063   0.033
  245SOL    HW2 2177   1.154   0.923   0.082
  246SOL     OW 2178   1.838   1.551   0.840
  246SOL    HW1 2179   1.759   1.542   0.787
  246SOL    HW2 2180   1.821   1.498   0.918
  247SOL     OW 2181   0.217   1.297   1.856
  247SOL    HW1 2182   0.124   1.285   1.836
  247SOL    HW2 2183   0.221   1.300   1.951
  248SOL     OW 2184   0.134   1.260   0.668
  248SOL    HW1 2185   0.058   1.211   0.700
  248SOL    HW2 2186   0.199   1.194   0.647
  249SOL     OW 2187   0.684   1.412   1.634
  249SOL    HW1 2188   0.603   1.372   1.666
  249SOL    HW2 2189   0.684   1.499   1.672
  250SOL     OW 2190   1.823   0.236   1.224
  250SOL    HW1 2191   1.782   0.150   1.237
  250SOL    HW2 2192   1.840   0.241   1.130
  251SOL     OW 2193   0.430   0.419   0.527
  251SOL    HW1 2194   0.448   0.351   0.462
  251SOL    HW2 2195   0.376   0.375   0.593
  252SOL     OW 2196   1.699   1.480   1.085
  252SOL    HW1 2197   1.618   1.462   1.037
  252SOL    HW2 2198   1.701   1.413   1.154
  253SOL     OW 2199   0.354   0.559   1.297
  253SOL    HW1 2200   0.398   0.497   1.354
  253SOL    HW2 2201   0.371   0.527   1.208
  254SOL     OW 2202   0.834   1.574   0.680
  254SOL    HW1 2203   0.815   1.635   0.608
  254SOL    HW2 2204   0.757   1.517   0.685
  255SOL     OW 2205   1.429   0.226   1.116
  255SOL    HW1 2206   1.489   0.166   1.160
  255SOL    HW2 2207   1.382   0.270   1.186
  256SOL     OW 2208   1.032   0.074   1.138
  256SOL    HW1 2209   0.975  -0.003   1.134
  256SOL    HW2 2210   1.119   0.039   1.155
  257SOL     OW 2211   0.791   1.322   0.306
  257SOL    HW1 2212   0.758   1.235   0.328
  257SOL    HW2 2213   0.862   1.338   0.368
  258SOL     OW 2214   0.623   1.558   1.286
  258SOL    HW1 2215   0.621   1.643   1.331
  258SOL    HW2 2216   0.711   1.552   1.251
  259SOL     OW 2217   1.333  -0.010   0.139
  259SOL    HW1 2218   1.421   0.028   0.128
  259SOL    HW2 2219   1.275   0.066   0.146
  260SOL     OW 2220   1.272   0.457   0.667
  260SOL    HW1 2221   1.229   0.542   0.675
  260SOL    HW2 2222   1.289   0.431   0.758
  261SOL     OW 2223   1.604   0.218   0.855
  261SOL    HW1 2224   1.530   0.216   0.916
  261SOL    HW2 2225   1.595   0.302   0.810
  262SOL     OW 2226   0.040   1.051   0.296
  262SOL    HW1 2227   0.132   1.029   0.278
  262SOL    HW2 2228   0.033   1.047   0.392
  263SOL     OW 2229   0.869   1.656   0.376
  263SOL    HW1 2230   0.791   1.641   0.322
  263SOL    HW2 2231   0.852   1.738   0.421
  264SOL     OW 2232   0.221   0.693   1.925
  264SOL    HW1 2233   0.158   0.680   1.996
  264SOL    HW2 2234   0.279   0.616   1.930
  265SOL     OW 2235   0.213   0.296   2.855
  265SOL    HW1 2236   0.249   0.245   2.928
  265SOL    HW2 2237   0.127   0.257   2.840
  266SOL     OW 2238   8.003   0.384   2.471
  266SOL    HW1 2239   7.913   0.384   2.505
  266SOL    HW2 2240   8.016   0.296   2.436
  267SOL     OW 2241   0.570   1.291   3.055
  267SOL    HW1 2242   0.485   1.295   3.011
  267SOL    HW2 2243   0.585   1.380   3.087
  268SOL     OW 2244   1.581   1.516   2.571
  268SOL    HW1 2245   1.537   1.493   2.652
  268SOL    HW2 2246   1.511   1.520   2.505
  269SOL     OW 2247   1.133   0.702   2.555
  269SOL    HW1 2248   1.181   0.784   2.545
  269SOL    HW2 2249   1.086   0.712   2.638
  270SOL     OW 2250   1.800   0.593   2.081
  270SOL    HW1 2251   1.764   0.589   1.993
  270SOL    HW2 2252   1.753   0.524   2.129
  271SOL     OW 2253   0.736   1.132   2.908
  271SOL    HW1 2254   0.673   1.171   2.968
  271SOL    HW2 2255   0.779   1.207   2.866
  272SOL     OW 2256   0.881   0.750   3.689
  272SOL    HW1 2257   0.881   0.817   3.758
  272SOL    HW2 2258   0.904   0.797   3.609
  273SOL     OW 2259   0.689   0.998   2.506
  273SOL    HW1 2260   0.757   0.991   2.573
  273SOL    HW2 2261   0.622   1.054   2.545
  274SOL     OW 2262   0.709   1.158   3.679
  274SOL    HW1 2263   0.742   1.242   3.712
  274SOL    HW2 2264   0.627   1.180   3.635
  275SOL     OW 2265   0.341   1.408   2.923
  275SOL    HW1 2266   0.285   1.358   2.865
  275SOL    HW2 2267   0.387   1.469   2.865
  276SOL     OW 2268   1.462   1.503   3.228
  276SOL    HW1 2269   1.517   1.581   3.228
  276SOL    HW2 2270   1.415   1.506   3.311
  277SOL     OW 2271   0.446   0.384   3.345
  277SOL    HW1 2272   0.534   0.347   3.340
  277SOL    HW2 2273   0.394   0.316   3.389
  278SOL     OW 2274   1.604   0.459   2.591
  278SOL    HW1 2275   1.532   0.478   2.530
  278SOL    HW2 2276   1.602   0.531   2.654
  279SOL     OW 2277   0.231   1.693   2.342
  279SOL    HW1 2278   0.215   1.777   2.383
  279SOL    HW2 2279   0.299   1.710   2.277
  280SOL     OW 2280   1.118   1.349   3.570
  280SOL    HW1 2281   1.174   1.333   3.646
  280SOL    HW2 2282   1.072   1.266   3.556
  281SOL     OW 2283   0.298   1.432   2.373
  281SOL    HW1 2284   0.273   1.524   2.380
  281SOL    HW2 2285   0.244   1.387   2.438
  282SOL     OW 2286   0.281   1.083   2.762
  282SOL    HW1 2287   0.283   0.990   2.782
  282SOL    HW2 2288   0.203   1.116   2.807
  283SOL     OW 2289   0.571   0.994   2.008
  283SOL    HW1 2290   0.624   1.034   1.939
  283SOL    HW2 2291   0.613   1.023   2.089
  284SOL     OW 2292   1.651   0.129   3.345
  284SOL    HW1 2293   1.635   0.196   3.278
  284SOL    HW2 2294   1.593   0.154   3.418
  285SOL     OW 2295   0.135   0.622   2.405
  285SOL    HW1 2296   0.093   0.540   2.432
  285SOL    HW2 2297   0.121   0.681   2.479
  286SOL     OW 2298   1.844   1.748   2.188
  286SOL    HW1 2299   1.915   1.725   2.249
  286SOL    HW2 2300   1.858   1.841   2.170
  287SOL     OW 2301   0.018   1.583   2.001
  287SOL    HW1 2302   0.002   1.489   1.991
  287SOL    HW2 2303   0.004   1.600   2.094
  288SOL     OW 2304   1.691   0.918   2.511
  288SOL    HW1 2305   1.777   0.878   2.499
  288SOL    HW2 2306   1.676   0.968   2.432
  289SOL     OW 2307   1.654   1.102   2.293
  289SOL    HW1 2308   1.740   1.100   2.252
  289SOL    HW2 2309   1.663   1.165   2.365
  290SOL     OW 2310   0.159   0.771   3.445
  290SOL    HW1 2311   0.255   0.766   3.448
  290SOL    HW2 2312   0.139   0.854   3.489
  291SOL     OW 2313   0.614   1.395   2.602
  291SOL    HW1 2314   0.572   1.310   2.607
  291SOL    HW2 2315   0.603   1.423   2.511
  292SOL     OW 2316   1.282   1.234   3.286
  292SOL    HW1 2317   1.310   1.167   3.223
  292SOL    HW2 2318   1.345   1.227   3.357
  293SOL     OW 2319   0.840   0.028   2.417
  293SOL    HW1 2320   0.879   0.109   2.385
  293SOL    HW2 2321   0.746   0.043   2.413
  294SOL     OW 2322   0.172   0.922   3.129
  294SOL    HW1 2323   0.264   0.895   3.131
  294SOL    HW2 2324   0.148   0.915   3.036
  295SOL     OW 2325   1.531   1.006   2.063
  295SOL    HW1 2326   1.462   0.949   2.096
  295SOL    HW2 2327   1.576   1.037   2.142
  296SOL     OW 2328   1.117   1.795   3.444
  296SOL    HW1 2329   1.161   1.869   3.402
  296SOL    HW2 2330   1.170   1.719   3.420
  297SOL     OW 2331   0.320   0.239   3.620
  297SOL    HW1 2332   0.390   0.283   3.668
  297SOL    HW2 2333   0.241   0.258   3.670
  298SOL     OW 2334   1.463   1.421   2.801
  298SOL    HW1 2335   1.402   1.437   2.872
  298SOL    HW2 2336   1.450   1.329   2.778
  299SOL     OW 2337   1.647   1.767   2.436
  299SOL    HW1 2338   1.630   1.726   2.351
  299SOL    HW2 2339   1.640   1.695   2.498
  300SOL     OW 2340   0.590   0.713   2.129
  300SOL    HW1 2341   0.597   0.801   2.092
  300SOL    HW2 2342   0.531   0.724   2.204
  301SOL     OW 2343   1.291   0.377   2.795
  301SOL    HW1 2344   1.200   0.346   2.802
  301SOL    HW2 2345   1.339   0.322   2.857
  302SOL     OW 2346   1.578   1.671   2.175
  302SOL    HW1 2347   1.671   1.693   2.168
  302SOL    HW2 2348   1.550   1.656   2.085
  303SOL     OW 2349   0.761   0.640   3.301
  303SOL    HW1 2350   0.761   0.607   3.391
  303SOL    HW2 2351   0.762   0.562   3.246
  304SOL     OW 2352   1.412   0.488   3.540
  304SOL    HW1 2353   1.419   0.532   3.625
  304SOL    HW2 2354   1.465   0.409   3.549
  305SOL     OW 2355   0.951   0.879   3.452
  305SOL    HW1 2356   1.002   0.807   3.415
  305SOL    HW2 2357   0.900   0.913   3.378
  306SOL     OW 2358   1.010   0.420   3.067
  306SOL    HW1 2359   0.923   0.434   3.104
  306SOL    HW2 2360   0.994   0.374   2.985
  307SOL     OW 2361   1.054   0.700   2.287
  307SOL    HW1 2362   1.074   0.694   2.380
  307SOL    HW2 2363   0.970   0.654   2.278
  308SOL     OW 2364   0.100   0.780   2.633
  308SOL    HW1 2365   0.180   0.791   2.684
  308SOL    HW2 2366   0.049   0.859   2.649
  309SOL     OW 2367   0.148   1.810   3.429
  309SOL    HW1 2368   0.150   1.801   3.524
  309SOL    HW2 2369   0.054   1.813   3.408
  310SOL     OW 2370   0.892   0.350   2.068
  310SOL    HW1 2371   0.947   0.395   2.004
  310SOL    HW2 2372   0.904   0.257   2.047
  311SOL     OW 2373   1.700   0.567   3.695
  311SOL    HW1 2374   1.668   0.644   3.648
  311SOL    HW2 2375   1.726   0.506   3.627
  312SOL     OW 2376   1.384   1.142   2.398
  312SOL    HW1 2377   1.466   1.132   2.348
  312SOL    HW2 2378   1.333   1.205   2.347
  313SOL     OW 2379   0.504   0.225   2.783
  313SOL    HW1 2380   0.526   0.246   2.873
  313SOL    HW2 2381   0.541   0.297   2.732
  314SOL     OW 2382   0.996   1.446   2.327
  314SOL    HW1 2383   0.969   1.522   2.277
  314SOL    HW2 2384   0.975   1.467   2.418
  315SOL     OW 2385   0.366   1.828   2.725
  315SOL    HW1 2386   0.412   1.745   2.738
  315SOL    HW2 2387   0.431   1.895   2.746
  316SOL     OW 2388   1.801   1.046   2.742
  316SOL    HW1 2389   1.749   1.032   2.663
  316SOL    HW2 2390   1.736   1.054   2.812
  317SOL     OW 2391   1.203   1.538   3.380
  317SOL    HW1 2392   1.196   1.465   3.442
  317SOL    HW2 2393   1.179   1.499   3.295
  318SOL     OW 2394   0.305   0.950   2.099
  318SOL    HW1 2395   0.391   0.976   2.069
  318SOL    HW2 2396   0.283   0.874   2.045
  319SOL     OW 2397   1.480   0.758   2.582
  319SOL    HW1 2398   1.479   0.718   2.669
  319SOL    HW2 2399   1.559   0.811   2.581
  320SOL     OW 2400   0.473   1.267   3.590
  320SOL    HW1 2401   0.442   1.273   3.499
  320SOL    HW2 2402   0.393   1.260   3.642
  321SOL     OW 2403   1.126   1.780   2.086
  321SOL    HW1 2404   1.049   1.742   2.129
  321SOL    HW2 2405   1.151   1.715   2.020
  322SOL     OW 2406   0.171   0.265   3.370
  322SOL    HW1 2407   0.164   0.361   3.367
  322SOL    HW2 2408   0.198   0.246   3.460
  323SOL     OW 2409   1.627   1.382   1.952
  323SOL    HW1 2410   1.586   1.468   1.940
  323SOL    HW2 2411   1.558   1.319   1.929
  324SOL     OW 2412   0.456   1.747   2.175
  324SOL    HW1 2413   0.504   1.797   2.241
  324SOL    HW2 2414   0.523   1.704   2.122
  325SOL     OW 2415   1.417   0.135   2.266
  325SOL    HW1 2416   1.444   0.108   2.178
  325SOL    HW2 2417   1.499   0.147   2.314
  326SOL     OW 2418   0.233   1.782   3.085
  326SOL    HW1 2419   0.283   1.705   3.110
  326SOL    HW2 2420   0.200   1.763   2.998
  327SOL     OW 2421   0.945   1.700   2.758
  327SOL    HW1 2422   1.030   1.659   2.771
  327SOL    HW2 2423   0.904   1.650   2.686
  328SOL     OW 2424   0.410   0.692   2.341
  328SOL    HW1 2425   0.430   0.600   2.359
  328SOL    HW2 2426   0.315   0.699   2.353
  329SOL     OW 2427   1.520   0.224   3.582
  329SOL    HW1 2428   1.534   0.245   3.674
  329SOL    HW2 2429   1.479   0.137   3.583
  330SOL     OW 2430   0.601   0.147   1.954
  330SOL    HW1 2431   0.672   0.103   2.001
  330SOL    HW2 2432   0.569   0.081   1.893
  331SOL     OW 2433   0.722   0.306   3.621
  331SOL    HW1 2434   0.812   0.276   3.630
  331SOL    HW2 2435   0.676   0.267   3.696
  332SOL     OW 2436   0.874   1.526   3.060
  332SOL    HW1 2437   0.859   1.490   2.973
  332SOL    HW2 2438   0.946   1.473   3.095
  333SOL     OW 2439   1.337   0.600   3.300
  333SOL    HW1 2440   1.377   0.569   3.381
  333SOL    HW2 2441   1.374   0.687   3.286
  334SOL     OW 2442   0.817   1.385   2.812
  334SOL    HW1 2443   0.904   1.376   2.772
  334SOL    HW2 2444   0.757   1.396   2.739
  335SOL     OW 2445   0.924   0.522   2.752
  335SOL    HW1 2446   0.895   0.512   2.661
  335SOL    HW2 2447   0.960   0.436   2.775
  336SOL     OW 2448   0.576   0.032   2.292
  336SOL    HW1 2449   0.498  -0.010   2.328
  336SOL    HW2 2450   0.549   0.122   2.274
  337SOL     OW 2451   1.426   1.201   1.897
  337SOL    HW1 2452   1.457   1.129   1.951
  337SOL    HW2 2453   1.342   1.226   1.935
  338SOL     OW 2454   0.292   0.037   2.043
  338SOL    HW1 2455   0.349   0.110   2.063
  338SOL    HW2 2456   0.307  -0.026   2.113
  339SOL     OW 2457   0.950   0.264   2.327
  339SOL    HW1 2458   0.920   0.295   2.242
  339SOL    HW2 2459   1.045   0.278   2.326
  340SOL     OW 2460   1.072   0.669   3.324
  340SOL    HW1 2461   1.022   0.588   3.338
  340SOL    HW2 2462   1.163   0.639   3.319
  341SOL     OW 2463   1.209   1.582   2.662
  341SOL    HW1 2464   1.228   1.643   2.591
  341SOL    HW2 2465   1.286   1.588   2.719
  342SOL     OW 2466   0.475   1.157   2.586
  342SOL    HW1 2467   0.413   1.133   2.655
  342SOL    HW2 2468   0.428   1.138   2.504
  343SOL     OW 2469   1.262   1.792   2.476
  343SOL    HW1 2470   1.314   1.852   2.423
  343SOL    HW2 2471   1.197   1.849   2.519
  344SOL     OW 2472   1.029   0.519   1.883
  344SOL    HW1 2473   0.984   0.601   1.867
  344SOL    HW2 2474   1.088   0.538   1.956
  345SOL     OW 2475   0.100   0.601   3.244
  345SOL    HW1 2476   0.190   0.584   3.216
  345SOL    HW2 2477   0.110   0.662   3.318
  346SOL     OW 2478   0.575   0.231   3.057
  346SOL    HW1 2479   0.615   0.181   3.128
  346SOL    HW2 2480   0.481   0.225   3.073
  347SOL     OW 2481   0.854   0.467   2.494
  347SOL    HW1 2482   0.825   0.519   2.420
  347SOL    HW2 2483   0.883   0.384   2.456
  348SOL     OW 2484   0.955   0.038   2.665
  348SOL    HW1 2485   0.915   0.037   2.578
  348SOL    HW2 2486   0.993  -0.050   2.675
  349SOL     OW 2487   1.438   1.158   2.719
  349SOL    HW1 2488   1.371   1.089   2.718
  349SOL    HW2 2489   1.466   1.166   2.627
  350SOL     OW 2490   1.464   0.615   2.821
  350SOL    HW1 2491   1.408   0.537   2.824
  350SOL    HW2 2492   1.522   0.606   2.897
  351SOL     OW 2493   1.834   0.805   2.248
  351SOL    HW1 2494   1.894   0.761   2.308
  351SOL    HW2 2495   1.819   0.742   2.178
  352SOL     OW 2496   0.491   1.419   2.005
  352SOL    HW1 2497   0.411   1.390   2.048
  352SOL    HW2 2498   0.494   1.370   1.923
  353SOL     OW 2499   1.686   1.262   2.505
  353SOL    HW1 2500   1.781   1.257   2.521
  353SOL    HW2 2501   1.663   1.353   2.527
  354SOL     OW 2502   1.395   0.576   1.936
  354SOL    HW1 2503   1.328   0.554   2.000
  354SOL    HW2 2504   1.478   0.555   1.979
  355SOL     OW 2505   0.496   0.274   2.168
  355SOL    HW1 2506   0.546   0.228   2.101
  355SOL    HW2 2507   0.477   0.360   2.130
  356SOL     OW 2508   1.744   1.246   3.418
  356SOL    HW1 2509   1.831   1.209   3.404
  356SOL    HW2 2510   1.761   1.336   3.447
  357SOL     OW 2511   1.053   1.353   3.195
  357SOL    HW1 2512   0.975   1.318   3.238
  357SOL    HW2 2513   1.125   1.305   3.234
  358SOL     OW 2514   1.598   1.625   3.511
  358SOL    HW1 2515   1.600   1.667   3.425
  358SOL    HW2 2516   1.681   1.578   3.517
  359SOL     OW 2517   1.142   1.222   2.962
  359SOL    HW1 2518   1.079   1.260   3.024
  359SOL    HW2 2519   1.114   1.256   2.877
  360SOL     OW 2520   1.614   1.091   2.935
  360SOL    HW1 2521   1.607   1.154   3.007
  360SOL    HW2 2522   1.542   1.114   2.875
  361SOL     OW 2523   0.912   0.144   3.252
  361SOL    HW1 2524   0.931   0.118   3.162
  361SOL    HW2 2525   0.996   0.143   3.296
  362SOL     OW 2526   0.971   1.117   3.581
  362SOL    HW1 2527   0.879   1.124   3.607
  362SOL    HW2 2528   0.975   1.038   3.528
  363SOL     OW 2529   0.711   1.062   2.236
  363SOL    HW1 2530   0.699   1.041   2.329
  363SOL    HW2 2531   0.786   1.009   2.209
  364SOL     OW 2532   0.426   0.822   3.116
  364SOL    HW1 2533   0.489   0.839   3.186
  364SOL    HW2 2534   0.402   0.730   3.128
  365SOL     OW 2535   1.267   0.383   3.148
  365SOL    HW1 2536   1.297   0.463   3.191
  365SOL    HW2 2537   1.180   0.405   3.116
  366SOL     OW 2538   0.045   1.598   3.193
  366SOL    HW1 2539   0.102   1.671   3.168
  366SOL    HW2 2540   0.084   1.564   3.274
  367SOL     OW 2541   0.327   1.109   2.352
  367SOL    HW1 2542   0.341   1.183   2.294
  367SOL    HW2 2543   0.332   1.032   2.295
  368SOL     OW 2544   0.554   0.522   2.717
  368SOL    HW1 2545   0.565   0.584   2.645
  368SOL    HW2 2546   0.618   0.551   2.783
  369SOL     OW 2547   1.247   1.352   2.252
  369SOL    HW1 2548   1.303   1.422   2.286
  369SOL    HW2 2549   1.159   1.373   2.285
  370SOL     OW 2550   1.297   1.464   3.013
  370SOL    HW1 2551   1.354   1.471   3.090
  370SOL    HW2 2552   1.251   1.381   3.025
  371SOL     OW 2553   1.570   0.637   2.343
  371SOL    HW1 2554   1.520   0.678   2.415
  371SOL    HW2 2555   1.625   0.707   2.309
  372SOL     OW 2556   0.347   1.534   3.163
  372SOL    HW1 2557   0.335   1.484   3.082
  372SOL    HW2 2558   0.442   1.544   3.171
  373SOL     OW 2559   0.439   0.723   3.485
  373SOL    HW1 2560   0.486   0.777   3.421
  373SOL    HW2 2561   0.503   0.660   3.516
  374SOL     OW 2562   1.610   0.782   3.558
  374SOL    HW1 2563   1.524   0.823   3.552
  374SOL    HW2 2564   1.661   0.824   3.488
  375SOL     OW 2565   1.046   0.060   3.589
  375SOL    HW1 2566   1.064   0.139   3.639
  375SOL    HW2 2567   0.951   0.052   3.591
  376SOL     OW 2568   0.498   0.017   3.597
  376SOL    HW1 2569   0.485  -0.032   3.516
  376SOL    HW2 2570   0.439   0.092   3.589
  377SOL     OW 2571   0.588   0.878   2.895
  377SOL    HW1 2572   0.628   0.965   2.899
  377SOL    HW2 2573   0.534   0.872   2.973
  378SOL     OW 2574   1.334   0.859   2.876
  378SOL    HW1 2575   1.246   0.836   2.845
  378SOL    HW2 2576   1.385   0.779   2.866
  379SOL     OW 2577   1.189   0.533   2.113
  379SOL    HW1 2578   1.200   0.450   2.160
  379SOL    HW2 2579   1.151   0.592   2.177
  380SOL     OW 2580   0.308   0.201   3.105
  380SOL    HW1 2581   0.261   0.224   3.185
  380SOL    HW2 2582   0.293   0.107   3.094
  381SOL     OW 2583   0.038   1.310   3.134
  381SOL    HW1 2584   0.068   1.256   3.207
  381SOL    HW2 2585   0.052   1.400   3.163
  382SOL     OW 2586   0.716   0.629   2.909
  382SOL    HW1 2587   0.794   0.617   2.855
  382SOL    HW2 2588   0.689   0.719   2.894
  383SOL     OW 2589   1.742   0.963   3.726
  383SOL    HW1 2590   1.699   0.893   3.676
  383SOL    HW2 2591   1.683   0.980   3.799
  384SOL     OW 2592   0.368   0.102   2.518
  384SOL    HW1 2593   0.338   0.184   2.558
  384SOL    HW2 2594   0.368   0.039   2.590
  385SOL     OW 2595   1.629   0.408   2.209
  385SOL    HW1 2596   1.643   0.335   2.269
  385SOL    HW2 2597   1.600   0.480   2.265
  386SOL     OW 2598   1.029   0.763   2.825
  386SOL    HW1 2599   1.017   0.775   2.919
  386SOL    HW2 2600   1.000   0.673   2.809
  387SOL     OW 2601   0.967   1.578   3.577
  387SOL    HW1 2602   1.002   1.638   3.510
  387SOL    HW2 2603   1.007   1.494   3.557
  388SOL     OW 2604   1.844   1.502   3.464
  388SOL    HW1 2605   1.870   1.532   3.377
  388SOL    HW2 2606   1.921   1.515   3.519
  389SOL     OW 2607   0.373   0.939   3.655
  389SOL    HW1 2608   0.443   0.955   3.718
  389SOL    HW2 2609   0.400   0.861   3.608
  390SOL     OW 2610   1.567   0.275   1.979
  390SOL    HW1 2611   1.590   0.188   2.011
  390SOL    HW2 2612   1.582   0.332   2.054
  391SOL     OW 2613   1.282   0.824   1.887
  391SOL    HW1 2614   1.325   0.739   1.895
  391SOL    HW2 2615   1.317   0.861   1.806
  392SOL     OW 2616   1.068   1.344   2.721
  392SOL    HW1 2617   1.077   1.272   2.659
  392SOL    HW2 2618   1.124   1.414   2.686
  393SOL     OW 2619   0.321   0.806   2.802
  393SOL    HW1 2620   0.414   0.827   2.802
  393SOL    HW2 2621   0.316   0.718   2.837
  394SOL     OW 2622   0.338   0.530   2.879
  394SOL    HW1 2623   0.297   0.445   2.864
  394SOL    HW2 2624   0.413   0.531   2.819
  395SOL     OW 2625   1.159   0.385   3.545
  395SOL    HW1 2626   1.110   0.431   3.612
  395SOL    HW2 2627   1.242   0.432   3.538
  396SOL     OW 2628   1.170   0.211   3.334
  396SOL    HW1 2629   1.175   0.260   3.417
  396SOL    HW2 2630   1.204   0.272   3.269
  397SOL     OW 2631   7.981   1.301   2.063
  397SOL    HW1 2632   7.891   1.320   2.091
  397SOL    HW2 2633   7.990   1.207   2.077
  398SOL     OW 2634   0.128   1.745   2.827
  398SOL    HW1 2635   0.110   1.678   2.762
  398SOL    HW2 2636   0.202   1.794   2.792
  399SOL     OW 2637   0.494   1.580   2.770
  399SOL    HW1 2638   0.564   1.640   2.796
  399SOL    HW2 2639   0.536   1.518   2.710
  400SOL     OW 2640   0.961   0.782   3.093
  400SOL    HW1 2641   1.025   0.756   3.160
  400SOL    HW2 2642   0.878   0.744   3.123
  401SOL     OW 2643   0.069   0.550   2.981
  401SOL    HW1 2644   0.162   0.540   2.963
  401SOL    HW2 2645   0.064   0.564   3.076
  402SOL     OW 2646   0.199   0.510   3.531
  402SOL    HW1 2647   0.291   0.515   3.504
  402SOL    HW2 2648   0.167   0.600   3.523
  403SOL     OW 2649   1.381   0.932   3.518
  403SOL    HW1 2650   1.407   1.024   3.514
  403SOL    HW2 2651   1.382   0.903   3.426
  404SOL     OW 2652   0.816   0.570   2.232
  404SOL    HW1 2653   0.827   0.496   2.172
  404SOL    HW2 2654   0.741   0.619   2.196
  405SOL     OW 2655   1.638   0.605   3.032
  405SOL    HW1 2656   1.630   0.552   3.111
  405SOL    HW2 2657   1.727   0.590   3.001
  406SOL     OW 2658   0.298   1.534   3.579
  406SOL    HW1 2659   0.261   1.607   3.629
  406SOL    HW2 2660   0.292   1.459   3.638
  407SOL     OW 2661   0.736   0.448   3.110
  407SOL    HW1 2662   0.676   0.376   3.093
  407SOL    HW2 2663   0.718   0.511   3.040
  408SOL     OW 2664   0.833   1.715   3.300
  408SOL    HW1 2665   0.862   1.657   3.229
  408SOL    HW2 2666   0.902   1.780   3.307
  409SOL     OW 2667   0.444   0.504   2.019
  409SOL    HW1 2668   0.503   0.574   2.046
  409SOL    HW2 2669   0.367   0.515   2.075
  410SOL     OW 2670   0.147   1.129   3.319
  410SOL    HW1 2671   0.135   1.088   3.405
  410SOL    HW2 2672   0.154   1.057   3.258
  411SOL     OW 2673   1.312   1.043   3.078
  411SOL    HW1 2674   1.333   0.979   3.009
  411SOL    HW2 2675   1.252   1.104   3.036
  412SOL     OW 2676   1.318   0.861   2.162
  412SOL    HW1 2677   1.249   0.824   2.217
  412SOL    HW2 2678   1.289   0.844   2.072
  413SOL     OW 2679   1.753   1.734   3.000
  413SOL    HW1 2680   1.826   1.761   2.944
  413SOL    HW2 2681   1.744   1.640   2.984
  414SOL     OW 2682   1.240   1.733   2.962
  414SOL    HW1 2683   1.324   1.762   2.926
  414SOL    HW2 2684   1.254   1.640   2.984
  415SOL     OW 2685   0.059   1.185   2.895
  415SOL    HW1 2686   0.055   1.230   2.980
  415SOL    HW2 2687  -0.005   1.231   2.841
  416SOL     OW 2688   0.710   1.674   3.586
  416SOL    HW1 2689   0.684   1.678   3.679
  416SOL    HW2 2690   0.801   1.645   3.588
  417SOL     OW 2691   1.675   0.167   2.352
  417SOL    HW1 2692   1.757   0.155   2.304
  417SOL    HW2 2693   1.693   0.132   2.439
  418SOL     OW 2694   1.394   1.567   2.357
  418SOL    HW1 2695   1.452   1.601   2.290
  418SOL    HW2 2696   1.344   1.643   2.387
  419SOL     OW 2697   0.184   1.744   3.704
  419SOL    HW1 2698   0.114   1.698   3.751
  419SOL    HW2 2699   0.221   1.803   3.770
  420SOL     OW 2700   1.277   0.934   2.533
  420SOL    HW1 2701   1.350   0.874   2.546
  420SOL    HW2 2702   1.313   1.003   2.477
  421SOL     OW 2703   0.796   1.274   3.268
  421SOL    HW1 2704   0.762   1.321   3.344
  421SOL    HW2 2705   0.723   1.273   3.206
  422SOL     OW 2706   0.665   1.629   2.021
  422SOL    HW1 2707   0.679   1.644   1.928
  422SOL    HW2 2708   0.611   1.550   2.024
  423SOL     OW 2709   1.611   1.732   3.245
  423SOL    HW1 2710   1.665   1.736   3.167
  423SOL    HW2 2711   1.598   1.824   3.270
  424SOL     OW 2712   1.848   0.178   2.821
  424SOL    HW1 2713   1.847   0.085   2.843
  424SOL    HW2 2714   1.767   0.192   2.772
  425SOL     OW 2715   0.257   0.340   2.586
  425SOL    HW1 2716   0.169   0.363   2.558
  425SOL    HW2 2717   0.251   0.331   2.681
  426SOL     OW 2718   1.207   1.597   1.896
  426SOL    HW1 2719   1.196   1.505   1.923
  426SOL    HW2 2720   1.140   1.610   1.830
  427SOL     OW 2721   0.826   1.003   3.241
  427SOL    HW1 2722   0.875   0.984   3.161
  427SOL    HW2 2723   0.827   1.099   3.247
  428SOL     OW 2724   0.915   0.909   2.155
  428SOL    HW1 2725   0.973   0.941   2.086
  428SOL    HW2 2726   0.967   0.843   2.201
  429SOL     OW 2727   1.486   1.632   1.910
  429SOL    HW1 2728   1.392   1.620   1.894
  429SOL    HW2 2729   1.525   1.638   1.823
  430SOL     OW 2730   0.363   1.305   3.347
  430SOL    HW1 2731   0.345   1.382   3.294
  430SOL    HW2 2732   0.290   1.246   3.329
  431SOL     OW 2733   1.598   1.281   3.134
  431SOL    HW1 2734   1.672   1.269   3.194
  431SOL    HW2 2735   1.546   1.351   3.173
  432SOL     OW 2736   1.067   1.115   2.578
  432SOL    HW1 2737   0.995   1.063   2.613
  432SOL    HW2 2738   1.133   1.050   2.553
  433SOL     OW 2739   1.024   0.265   2.814
  433SOL    HW1 2740   1.004   0.212   2.737
  433SOL    HW2 2741   1.031   0.201   2.886
  434SOL     OW 2742   0.611   1.488   2.346
  434SOL    HW1 2743   0.662   1.441   2.280
  434SOL    HW2 2744   0.524   1.498   2.307
  435SOL     OW 2745   1.720   0.426   3.243
  435SOL    HW1 2746   1.794   0.486   3.254
  435SOL    HW2 2747   1.753   0.358   3.184
  436SOL     OW 2748   0.249   1.336   2.128
  436SOL    HW1 2749   0.154   1.341   2.122
  436SOL    HW2 2750   0.270   1.376   2.213
  437SOL     OW 2751   0.121   1.008   3.577
  437SOL    HW1 2752   0.060   0.987   3.648
  437SOL    HW2 2753   0.208   0.996   3.615
  438SOL     OW 2754   0.666   0.219   3.358
  438SOL    HW1 2755   0.742   0.170   3.327
  438SOL    HW2 2756   0.688   0.244   3.448
  439SOL     OW 2757   0.068   0.340   1.848
  439SOL    HW1 2758   0.020   0.391   1.913
  439SOL    HW2 2759   0.107   0.405   1.790
  440SOL     OW 2760   1.422   0.861   3.257
  440SOL    HW1 2761   1.374   0.923   3.201
  440SOL    HW2 2762   1.511   0.863   3.223
  441SOL     OW 2763   0.119   0.261   2.189
  441SOL    HW1 2764   0.073   0.215   2.119
  441SOL    HW2 2765   0.117   0.200   2.263
  442SOL     OW 2766   1.178   1.330   1.981
  442SOL    HW1 2767   1.088   1.299   1.983
  442SOL    HW2 2768   1.205   1.333   2.073
  443SOL     OW 2769   0.607   0.854   3.311
  443SOL    HW1 2770   0.669   0.925   3.294
  443SOL    HW2 2771   0.661   0.774   3.310
  444SOL     OW 2772   1.491   1.792   2.855
  444SOL    HW1 2773   1.514   1.862   2.794
  444SOL    HW2 2774   1.573   1.768   2.897
  445SOL     OW 2775   0.683   0.580   3.568
  445SOL    HW1 2776   0.747   0.627   3.621
  445SOL    HW2 2777   0.699   0.488   3.588
  446SOL     OW 2778   1.472   1.196   3.488
  446SOL    HW1 2779   1.465   1.207   3.583
  446SOL    HW2 2780   1.565   1.212   3.469
  447SOL     OW 2781   0.409   1.725   3.408
  447SOL    HW1 2782   0.324   1.762   3.387
  447SOL    HW2 2783   0.388   1.641   3.450
  448SOL     OW 2784   1.659   0.879   3.113
  448SOL    HW1 2785   1.658   0.794   3.070
  448SOL    HW2 2786   1.650   0.942   3.042
  449SOL     OW 2787   1.217   0.325   2.310
  449SOL    HW1 2788   1.282   0.256   2.294
  449SOL    HW2 2789   1.251   0.372   2.387
  450SOL     OW 2790   0.590   0.737   2.546
  450SOL    HW1 2791   0.633   0.821   2.531
  450SOL    HW2 2792   0.528   0.728   2.473
  451SOL     OW 2793   1.746   0.371   3.512
  451SOL    HW1 2794   1.735   0.390   3.419
  451SOL    HW2 2795   1.673   0.313   3.533
  452SOL     OW 2796   1.732   0.934   3.372
  452SOL    HW1 2797   1.740   1.028   3.383
  452SOL    HW2 2798   1.722   0.921   3.278
  453SOL     OW 2799   0.864   1.363   1.911
  453SOL    HW1 2800   0.827   1.389   1.996
  453SOL    HW2 2801   0.878   1.446   1.865
  454SOL     OW 2802   0.671   1.784   2.811
  454SOL    HW1 2803   0.654   1.874   2.786
  454SOL    HW2 2804   0.764   1.771   2.797
  455SOL     OW 2805   0.872   0.973   2.715
  455SOL    HW1 2806   0.923   0.900   2.752
  455SOL    HW2 2807   0.830   1.013   2.790
  456SOL     OW 2808   1.069   0.983   1.947
  456SOL    HW1 2809   1.052   1.038   1.870
  456SOL    HW2 2810   1.145   0.930   1.922
  457SOL     OW 2811   1.844   1.548   2.697
  457SOL    HW1 2812   1.762   1.541   2.648
  457SOL    HW2 2813   1.828   1.499   2.778
  458SOL     OW 2814   0.234   1.300   3.723
  458SOL    HW1 2815   0.151   1.254   3.710
  458SOL    HW2 2816   0.240   1.312   3.818
  459SOL     OW 2817   0.138   1.263   2.517
  459SOL    HW1 2818   0.061   1.218   2.553
  459SOL    HW2 2819   0.197   1.193   2.491
  460SOL     OW 2820   0.663   1.430   3.451
  460SOL    HW1 2821   0.599   1.378   3.499
  460SOL    HW2 2822   0.681   1.505   3.507
  461SOL     OW 2823   1.827   0.237   3.091
  461SOL    HW1 2824   1.818   0.144   3.114
  461SOL    HW2 2825   1.835   0.238   2.996
  462SOL     OW 2826   0.444   0.431   2.400
  462SOL    HW1 2827   0.447   0.363   2.333
  462SOL    HW2 2828   0.379   0.399   2.463
  463SOL     OW 2829   1.705   1.473   2.937
  463SOL    HW1 2830   1.620   1.454   2.896
  463SOL    HW2 2831   1.713   1.407   3.006
  464SOL     OW 2832   0.352   0.560   3.158
  464SOL    HW1 2833   0.396   0.498   3.216
  464SOL    HW2 2834   0.371   0.528   3.070
  465SOL     OW 2835   0.833   1.589   2.534
  465SOL    HW1 2836   0.816   1.660   2.472
  465SOL    HW2 2837   0.758   1.531   2.525
  466SOL     OW 2838   1.426   0.227   2.978
  466SOL    HW1 2839   1.488   0.167   3.019
  466SOL    HW2 2840   1.384   0.271   3.051
  467SOL     OW 2841   1.043   0.070   3.001
  467SOL    HW1 2842   1.004  -0.016   3.018
  467SOL    HW2 2843   1.137   0.056   3.012
  468SOL     OW 2844   0.776   1.333   2.187
  468SOL    HW1 2845   0.753   1.241   2.197
  468SOL    HW2 2846   0.858   1.343   2.235
  469SOL     OW 2847   0.622   1.536   3.170
  469SOL    HW1 2848   0.651   1.519   3.259
  469SOL    HW2 2849   0.702   1.551   3.120
  470SOL     OW 2850   1.361   8.002   1.960
  470SOL    HW1 2851   1.438   7.959   1.998
  470SOL    HW2 2852   1.292   7.987   2.024
  471SOL     OW 2853   1.296   0.468   2.534
  471SOL    HW1 2854   1.244   0.547   2.538
  471SOL    HW2 2855   1.297   0.435   2.623
  472SOL     OW 2856   1.607   0.214   2.710
  472SOL    HW1 2857   1.532   0.207   2.770
  472SOL    HW2 2858   1.596   0.299   2.668
  473SOL     OW 2859   0.042   1.035   2.140
  473SOL    HW1 2860   0.135   1.018   2.121
  473SOL    HW2 2861   0.039   1.044   2.235
  474SOL     OW 2862   0.890   1.666   2.197
  474SOL    HW1 2863   0.812   1.650   2.143
  474SOL    HW2 2864   0.864   1.737   2.255
  475SOL     OW 2865   0.229   0.694   3.801
  475SOL    HW1 2866   0.197   0.639   3.874
  475SOL    HW2 2867   0.286   0.636   3.751
  476SOL     OW 2868   0.218   0.292   4.715
  476SOL    HW1 2869   0.253   0.248   4.792
  476SOL    HW2 2870   0.131   0.253   4.702
  477SOL     OW 2871   7.994   0.390   4.324
  477SOL    HW1 2872   7.907   0.382   4.363
  477SOL    HW2 2873   8.005   0.309   4.275
  478SOL     OW 2874   0.573   1.303   4.917
  478SOL    HW1 2875   0.484   1.308   4.881
  478SOL    HW2 2876   0.591   1.392   4.948
  479SOL     OW 2877   1.579   1.514   4.435
  479SOL    HW1 2878   1.536   1.492   4.517
  479SOL    HW2 2879   1.508   1.518   4.371
  480SOL     OW 2880   1.132   0.704   4.416
  480SOL    HW1 2881   1.181   0.785   4.406
  480SOL    HW2 2882   1.086   0.713   4.499
  481SOL     OW 2883   1.799   0.591   3.943
  481SOL    HW1 2884   1.762   0.588   3.854
  481SOL    HW2 2885   1.752   0.523   3.991
  482SOL     OW 2886   0.731   1.132   4.770
  482SOL    HW1 2887   0.670   1.172   4.832
  482SOL    HW2 2888   0.778   1.206   4.732
  483SOL     OW 2889   0.881   0.750   5.547
  483SOL    HW1 2890   0.880   0.818   5.615
  483SOL    HW2 2891   0.902   0.797   5.467
  484SOL     OW 2892   0.690   0.998   4.367
  484SOL    HW1 2893   0.758   0.991   4.434
  484SOL    HW2 2894   0.623   1.055   4.407
  485SOL     OW 2895   0.711   1.148   5.545
  485SOL    HW1 2896   0.759   1.224   5.577
  485SOL    HW2 2897   0.634   1.184   5.503
  486SOL     OW 2898   0.337   1.411   4.794
  486SOL    HW1 2899   0.275   1.361   4.742
  486SOL    HW2 2900   0.382   1.466   4.731
  487SOL     OW 2901   1.460   1.507   5.089
  487SOL    HW1 2902   1.517   1.584   5.097
  487SOL    HW2 2903   1.395   1.518   5.159
  488SOL     OW 2904   0.447   0.382   5.201
  488SOL    HW1 2905   0.535   0.345   5.203
  488SOL    HW2 2906   0.392   0.317   5.245
  489SOL     OW 2907   1.604   0.460   4.452
  489SOL    HW1 2908   1.531   0.481   4.392
  489SOL    HW2 2909   1.604   0.532   4.514
  490SOL     OW 2910   0.233   1.696   4.204
  490SOL    HW1 2911   0.233   1.778   4.253
  490SOL    HW2 2912   0.301   1.708   4.137
  491SOL     OW 2913   1.137   1.343   5.420
  491SOL    HW1 2914   1.184   1.333   5.503
  491SOL    HW2 2915   1.085   1.263   5.412
  492SOL     OW 2916   0.304   1.435   4.236
  492SOL    HW1 2917   0.275   1.526   4.245
  492SOL    HW2 2918   0.249   1.386   4.297
  493SOL     OW 2919   0.277   1.082   4.608
  493SOL    HW1 2920   0.279   0.991   4.638
  493SOL    HW2 2921   0.206   1.122   4.658
  494SOL     OW 2922   0.594   1.810   5.126
  494SOL    HW1 2923   0.521   1.783   5.182
  494SOL    HW2 2924   0.627   1.890   5.167
  495SOL     OW 2925   0.569   0.998   3.870
  495SOL    HW1 2926   0.625   1.036   3.802
  495SOL    HW2 2927   0.611   1.023   3.952
  496SOL     OW 2928   1.640   0.132   5.205
  496SOL    HW1 2929   1.644   0.206   5.145
  496SOL    HW2 2930   1.588   0.164   5.278
  497SOL     OW 2931   0.128   0.628   4.265
  497SOL    HW1 2932   0.086   0.546   4.291
  497SOL    HW2 2933   0.117   0.686   4.341
  498SOL     OW 2934   1.845   1.750   4.057
  498SOL    HW1 2935   1.917   1.726   4.115
  498SOL    HW2 2936   1.861   1.841   4.035
  499SOL     OW 2937   0.014   1.579   3.849
  499SOL    HW1 2938   0.009   1.483   3.849
  499SOL    HW2 2939   0.001   1.603   3.941
  500SOL     OW 2940   1.690   0.914   4.372
  500SOL    HW1 2941   1.779   0.880   4.367
  500SOL    HW2 2942   1.680   0.965   4.291
  501SOL     OW 2943   1.655   1.104   4.155
  501SOL    HW1 2944   1.741   1.100   4.114
  501SOL    HW2 2945   1.665   1.165   4.228
  502SOL     OW 2946   0.151   0.764   5.311
  502SOL    HW1 2947   0.246   0.760   5.309
  502SOL    HW2 2948   0.131   0.845   5.358
  503SOL     OW 2949   0.623   1.397   4.458
  503SOL    HW1 2950   0.579   1.312   4.466
  503SOL    HW2 2951   0.608   1.422   4.366
  504SOL     OW 2952   1.282   1.233   5.141
  504SOL    HW1 2953   1.313   1.165   5.081
  504SOL    HW2 2954   1.343   1.229   5.215
  505SOL     OW 2955   0.846   0.025   4.279
  505SOL    HW1 2956   0.885   0.107   4.247
  505SOL    HW2 2957   0.751   0.042   4.277
  506SOL     OW 2958   0.173   0.915   4.987
  506SOL    HW1 2959   0.267   0.896   4.990
  506SOL    HW2 2960   0.148   0.892   4.897
  507SOL     OW 2961   1.531   1.006   3.926
  507SOL    HW1 2962   1.461   0.950   3.960
  507SOL    HW2 2963   1.577   1.037   4.004
  508SOL     OW 2964   1.166   1.815   5.348
  508SOL    HW1 2965   1.184   1.879   5.279
  508SOL    HW2 2966   1.195   1.732   5.312
  509SOL     OW 2967   0.331   0.256   5.492
  509SOL    HW1 2968   0.396   0.307   5.541
  509SOL    HW2 2969   0.249   0.269   5.540
  510SOL     OW 2970   1.462   1.419   4.667
  510SOL    HW1 2971   1.401   1.435   4.738
  510SOL    HW2 2972   1.449   1.327   4.644
  511SOL     OW 2973   1.645   1.765   4.302
  511SOL    HW1 2974   1.639   1.722   4.217
  511SOL    HW2 2975   1.638   1.694   4.365
  512SOL     OW 2976   0.588   0.711   3.991
  512SOL    HW1 2977   0.601   0.800   3.958
  512SOL    HW2 2978   0.531   0.722   4.067
  513SOL     OW 2979   1.291   0.377   4.657
  513SOL    HW1 2980   1.201   0.346   4.663
  513SOL    HW2 2981   1.340   0.321   4.719
  514SOL     OW 2982   1.580   1.673   4.033
  514SOL    HW1 2983   1.672   1.697   4.031
  514SOL    HW2 2984   1.558   1.653   3.942
  515SOL     OW 2985   0.767   0.644   5.160
  515SOL    HW1 2986   0.764   0.610   5.249
  515SOL    HW2 2987   0.763   0.566   5.105
  516SOL     OW 2988   1.416   0.492   5.401
  516SOL    HW1 2989   1.424   0.534   5.486
  516SOL    HW2 2990   1.464   0.410   5.410
  517SOL     OW 2991   0.948   0.880   5.312
  517SOL    HW1 2992   1.000   0.811   5.271
  517SOL    HW2 2993   0.899   0.918   5.239
  518SOL     OW 2994   1.008   0.412   4.939
  518SOL    HW1 2995   0.920   0.431   4.972
  518SOL    HW2 2996   0.993   0.373   4.853
  519SOL     OW 2997   1.052   0.703   4.148
  519SOL    HW1 2998   1.074   0.697   4.241
  519SOL    HW2 2999   0.969   0.655   4.140
  520SOL     OW 3000   0.101   0.778   4.498
  520SOL    HW1 3001   0.183   0.789   4.546
  520SOL    HW2 3002   0.046   0.851   4.527
  521SOL     OW 3003   0.125   1.818   5.287
  521SOL    HW1 3004   0.131   1.809   5.382
  521SOL    HW2 3005   0.033   1.799   5.267
  522SOL     OW 3006   0.891   0.348   3.931
  522SOL    HW1 3007   0.948   0.388   3.866
  522SOL    HW2 3008   0.896   0.254   3.913
  523SOL     OW 3009   1.695   0.568   5.558
  523SOL    HW1 3010   1.666   0.645   5.510
  523SOL    HW2 3011   1.725   0.507   5.491
  524SOL     OW 3012   1.386   1.140   4.258
  524SOL    HW1 3013   1.470   1.131   4.212
  524SOL    HW2 3014   1.338   1.207   4.208
  525SOL     OW 3015   0.522   0.234   4.648
  525SOL    HW1 3016   0.532   0.249   4.742
  525SOL    HW2 3017   0.545   0.317   4.607
  526SOL     OW 3018   0.993   1.443   4.190
  526SOL    HW1 3019   0.971   1.525   4.145
  526SOL    HW2 3020   0.975   1.461   4.283
  527SOL     OW 3021   0.359   1.825   4.586
  527SOL    HW1 3022   0.404   1.742   4.600
  527SOL    HW2 3023   0.424   1.891   4.609
  528SOL     OW 3024   1.798   1.042   4.609
  528SOL    HW1 3025   1.746   1.036   4.529
  528SOL    HW2 3026   1.733   1.052   4.678
  529SOL     OW 3027   1.223   1.543   5.241
  529SOL    HW1 3028   1.213   1.471   5.303
  529SOL    HW2 3029   1.161   1.521   5.170
  530SOL     OW 3030   0.298   0.941   3.958
  530SOL    HW1 3031   0.385   0.968   3.930
  530SOL    HW2 3032   0.277   0.866   3.902
  531SOL     OW 3033   1.479   0.757   4.444
  531SOL    HW1 3034   1.479   0.719   4.531
  531SOL    HW2 3035   1.558   0.811   4.441
  532SOL     OW 3036   0.466   1.268   5.464
  532SOL    HW1 3037   0.443   1.272   5.371
  532SOL    HW2 3038   0.383   1.256   5.509
  533SOL     OW 3039   1.120   1.787   3.932
  533SOL    HW1 3040   1.051   1.749   3.986
  533SOL    HW2 3041   1.150   1.715   3.876
  534SOL     OW 3042   0.165   0.276   5.222
  534SOL    HW1 3043   0.153   0.370   5.208
  534SOL    HW2 3044   0.183   0.267   5.315
  535SOL     OW 3045   1.624   1.380   3.816
  535SOL    HW1 3046   1.585   1.467   3.800
  535SOL    HW2 3047   1.555   1.318   3.791
  536SOL     OW 3048   0.457   1.749   4.036
  536SOL    HW1 3049   0.501   1.799   4.106
  536SOL    HW2 3050   0.529   1.707   3.989
  537SOL     OW 3051   1.419   0.135   4.128
  537SOL    HW1 3052   1.445   0.104   4.041
  537SOL    HW2 3053   1.501   0.147   4.175
  538SOL     OW 3054   0.238   1.789   4.952
  538SOL    HW1 3055   0.288   1.715   4.988
  538SOL    HW2 3056   0.207   1.758   4.868
  539SOL     OW 3057   0.943   1.701   4.622
  539SOL    HW1 3058   1.026   1.660   4.648
  539SOL    HW2 3059   0.910   1.647   4.551
  540SOL     OW 3060   0.407   0.692   4.202
  540SOL    HW1 3061   0.425   0.600   4.220
  540SOL    HW2 3062   0.314   0.703   4.222
  541SOL     OW 3063   1.517   0.228   5.445
  541SOL    HW1 3064   1.527   0.247   5.538
  541SOL    HW2 3065   1.476   0.141   5.442
  542SOL     OW 3066   0.604   0.150   3.815
  542SOL    HW1 3067   0.676   0.106   3.861
  542SOL    HW2 3068   0.569   0.083   3.756
  543SOL     OW 3069   0.734   0.290   5.492
  543SOL    HW1 3070   0.826   0.293   5.516
  543SOL    HW2 3071   0.690   0.258   5.571
  544SOL     OW 3072   0.876   1.523   4.920
  544SOL    HW1 3073   0.858   1.482   4.836
  544SOL    HW2 3074   0.945   1.470   4.959
  545SOL     OW 3075   1.339   0.598   5.159
  545SOL    HW1 3076   1.380   0.570   5.241
  545SOL    HW2 3077   1.374   0.686   5.143
  546SOL     OW 3078   0.822   1.382   4.677
  546SOL    HW1 3079   0.908   1.373   4.636
  546SOL    HW2 3080   0.762   1.393   4.604
  547SOL     OW 3081   0.924   0.521   4.616
  547SOL    HW1 3082   0.897   0.513   4.525
  547SOL    HW2 3083   0.960   0.436   4.638
  548SOL     OW 3084   0.585   0.028   4.141
  548SOL    HW1 3085   0.515  -0.017   4.188
  548SOL    HW2 3086   0.560   0.120   4.142
  549SOL     OW 3087   1.425   1.198   3.760
  549SOL    HW1 3088   1.463   1.126   3.811
  549SOL    HW2 3089   1.345   1.220   3.807
  550SOL     OW 3090   0.295   0.042   3.902
  550SOL    HW1 3091   0.348   0.116   3.931
  550SOL    HW2 3092   0.308  -0.025   3.969
  551SOL     OW 3093   0.953   0.263   4.190
  551SOL    HW1 3094   0.922   0.294   4.105
  551SOL    HW2 3095   1.048   0.278   4.188
  552SOL     OW 3096   1.076   0.674   5.184
  552SOL    HW1 3097   1.024   0.595   5.201
  552SOL    HW2 3098   1.166   0.642   5.179
  553SOL     OW 3099   1.217   1.573   4.516
  553SOL    HW1 3100   1.233   1.640   4.450
  553SOL    HW2 3101   1.286   1.585   4.581
  554SOL     OW 3102   0.478   1.160   4.445
  554SOL    HW1 3103   0.417   1.136   4.514
  554SOL    HW2 3104   0.433   1.139   4.363
  555SOL     OW 3105   1.262   1.793   4.336
  555SOL    HW1 3106   1.316   1.855   4.287
  555SOL    HW2 3107   1.200   1.847   4.384
  556SOL     OW 3108   1.032   0.518   3.746
  556SOL    HW1 3109   0.986   0.601   3.733
  556SOL    HW2 3110   1.090   0.535   3.821
  557SOL     OW 3111   0.110   0.569   5.119
  557SOL    HW1 3112   0.199   0.569   5.085
  557SOL    HW2 3113   0.109   0.639   5.184
  558SOL     OW 3114   0.572   0.235   4.922
  558SOL    HW1 3115   0.614   0.185   4.992
  558SOL    HW2 3116   0.478   0.227   4.939
  559SOL     OW 3117   0.860   0.472   4.356
  559SOL    HW1 3118   0.830   0.521   4.279
  559SOL    HW2 3119   0.880   0.384   4.323
  560SOL     OW 3120   0.955   0.038   4.528
  560SOL    HW1 3121   0.915   0.037   4.441
  560SOL    HW2 3122   0.994  -0.049   4.537
  561SOL     OW 3123   1.441   1.157   4.583
  561SOL    HW1 3124   1.375   1.087   4.583
  561SOL    HW2 3125   1.469   1.164   4.492
  562SOL     OW 3126   1.464   0.615   4.684
  562SOL    HW1 3127   1.409   0.536   4.686
  562SOL    HW2 3128   1.522   0.606   4.760
  563SOL     OW 3129   1.831   0.805   4.109
  563SOL    HW1 3130   1.892   0.762   4.169
  563SOL    HW2 3131   1.818   0.741   4.039
  564SOL     OW 3132   0.484   1.427   3.880
  564SOL    HW1 3133   0.403   1.397   3.922
  564SOL    HW2 3134   0.500   1.364   3.810
  565SOL     OW 3135   1.685   1.259   4.370
  565SOL    HW1 3136   1.780   1.253   4.385
  565SOL    HW2 3137   1.664   1.350   4.393
  566SOL     OW 3138   1.394   0.578   3.798
  566SOL    HW1 3139   1.330   0.554   3.865
  566SOL    HW2 3140   1.479   0.558   3.838
  567SOL     OW 3141   0.498   0.277   4.030
  567SOL    HW1 3142   0.549   0.229   3.966
  567SOL    HW2 3143   0.478   0.360   3.988
  568SOL     OW 3144   1.745   1.244   5.280
  568SOL    HW1 3145   1.832   1.209   5.263
  568SOL    HW2 3146   1.760   1.334   5.309
  569SOL     OW 3147   1.053   1.351   5.052
  569SOL    HW1 3148   0.976   1.321   5.101
  569SOL    HW2 3149   1.127   1.308   5.095
  570SOL     OW 3150   1.606   1.628   5.380
  570SOL    HW1 3151   1.601   1.667   5.293
  570SOL    HW2 3152   1.688   1.580   5.380
  571SOL     OW 3153   1.128   1.207   4.823
  571SOL    HW1 3154   1.078   1.255   4.889
  571SOL    HW2 3155   1.106   1.251   4.741
  572SOL     OW 3156   1.613   1.092   4.801
  572SOL    HW1 3157   1.606   1.156   4.872
  572SOL    HW2 3158   1.542   1.115   4.741
  573SOL     OW 3159   0.922   0.132   5.119
  573SOL    HW1 3160   0.931   0.110   5.026
  573SOL    HW2 3161   1.012   0.151   5.147
  574SOL     OW 3162   0.982   1.115   5.445
  574SOL    HW1 3163   0.891   1.131   5.470
  574SOL    HW2 3164   0.978   1.035   5.392
  575SOL     OW 3165   0.713   1.062   4.098
  575SOL    HW1 3166   0.701   1.042   4.191
  575SOL    HW2 3167   0.787   1.007   4.071
  576SOL     OW 3168   0.430   0.823   4.977
  576SOL    HW1 3169   0.491   0.842   5.047
  576SOL    HW2 3170   0.406   0.731   4.990
  577SOL     OW 3171   1.266   0.378   5.014
  577SOL    HW1 3172   1.298   0.458   5.055
  577SOL    HW2 3173   1.178   0.400   4.982
  578SOL     OW 3174   0.046   1.596   5.053
  578SOL    HW1 3175   0.095   1.677   5.043
  578SOL    HW2 3176   0.083   1.554   5.130
  579SOL     OW 3177   0.337   1.103   4.212
  579SOL    HW1 3178   0.339   1.177   4.151
  579SOL    HW2 3179   0.338   1.026   4.155
  580SOL     OW 3180   0.555   0.520   4.575
  580SOL    HW1 3181   0.566   0.583   4.504
  580SOL    HW2 3182   0.616   0.549   4.643
  581SOL     OW 3183   1.249   1.357   4.116
  581SOL    HW1 3184   1.305   1.426   4.151
  581SOL    HW2 3185   1.163   1.374   4.154
  582SOL     OW 3186   1.295   1.463   4.879
  582SOL    HW1 3187   1.356   1.477   4.952
  582SOL    HW2 3188   1.241   1.390   4.906
  583SOL     OW 3189   1.571   0.639   4.204
  583SOL    HW1 3190   1.523   0.680   4.276
  583SOL    HW2 3191   1.634   0.706   4.176
  584SOL     OW 3192   0.348   1.539   5.035
  584SOL    HW1 3193   0.332   1.487   4.956
  584SOL    HW2 3194   0.444   1.545   5.040
  585SOL     OW 3195   0.433   0.724   5.342
  585SOL    HW1 3196   0.482   0.780   5.282
  585SOL    HW2 3197   0.497   0.662   5.375
  586SOL     OW 3198   1.611   0.784   5.419
  586SOL    HW1 3199   1.525   0.825   5.412
  586SOL    HW2 3200   1.663   0.825   5.350
  587SOL     OW 3201   1.015   0.077   5.473
  587SOL    HW1 3202   1.079   0.131   5.520
  587SOL    HW2 3203   1.012   0.116   5.385
  588SOL     OW 3204   0.439  -0.000   5.476
  588SOL    HW1 3205   0.494  -0.022   5.401
  588SOL    HW2 3206   0.421   0.093   5.465
  589SOL     OW 3207   0.587   0.881   4.755
  589SOL    HW1 3208   0.628   0.967   4.760
  589SOL    HW2 3209   0.536   0.874   4.835
  590SOL     OW 3210   1.334   0.859   4.733
  590SOL    HW1 3211   1.246   0.835   4.706
  590SOL    HW2 3212   1.385   0.778   4.725
  591SOL     OW 3213   1.189   0.532   3.977
  591SOL    HW1 3214   1.201   0.451   4.027
  591SOL    HW2 3215   1.150   0.593   4.040
  592SOL     OW 3216   0.305   0.202   4.966
  592SOL    HW1 3217   0.257   0.224   5.046
  592SOL    HW2 3218   0.294   0.108   4.956
  593SOL     OW 3219   0.048   1.307   4.991
  593SOL    HW1 3220   0.072   1.252   5.066
  593SOL    HW2 3221   0.050   1.397   5.025
  594SOL     OW 3222   0.711   0.628   4.768
  594SOL    HW1 3223   0.793   0.617   4.719
  594SOL    HW2 3224   0.688   0.720   4.756
  595SOL     OW 3225   1.745   0.959   5.591
  595SOL    HW1 3226   1.700   0.893   5.538
  595SOL    HW2 3227   1.682   0.981   5.661
  596SOL     OW 3228   0.418   0.095   4.388
  596SOL    HW1 3229   0.356   0.164   4.413
  596SOL    HW2 3230   0.364   0.026   4.351
  597SOL     OW 3231   1.627   0.408   4.071
  597SOL    HW1 3232   1.643   0.335   4.131
  597SOL    HW2 3233   1.599   0.480   4.127
  598SOL     OW 3234   1.029   0.763   4.685
  598SOL    HW1 3235   1.016   0.776   4.779
  598SOL    HW2 3236   0.999   0.673   4.669
  599SOL     OW 3237   0.976   1.563   5.450
  599SOL    HW1 3238   0.963   1.608   5.367
  599SOL    HW2 3239   1.022   1.482   5.427
  600SOL     OW 3240   1.847   1.500   5.324
  600SOL    HW1 3241   1.871   1.530   5.237
  600SOL    HW2 3242   1.925   1.514   5.378
  601SOL     OW 3243   0.363   0.949   5.512
  601SOL    HW1 3244   0.434   0.966   5.573
  601SOL    HW2 3245   0.385   0.864   5.473
  602SOL     OW 3246   1.558   0.275   3.843
  602SOL    HW1 3247   1.585   0.188   3.872
  602SOL    HW2 3248   1.576   0.332   3.917
  603SOL     OW 3249   1.275   0.823   3.747
  603SOL    HW1 3250   1.320   0.739   3.756
  603SOL    HW2 3251   1.312   0.862   3.668
  604SOL     OW 3252   1.070   1.343   4.581
  604SOL    HW1 3253   1.080   1.271   4.519
  604SOL    HW2 3254   1.128   1.412   4.548
  605SOL     OW 3255   0.322   0.806   4.664
  605SOL    HW1 3256   0.414   0.832   4.670
  605SOL    HW2 3257   0.319   0.718   4.700
  606SOL     OW 3258   0.338   0.530   4.737
  606SOL    HW1 3259   0.297   0.445   4.723
  606SOL    HW2 3260   0.413   0.530   4.677
  607SOL     OW 3261   1.158   0.403   5.396
  607SOL    HW1 3262   1.108   0.445   5.466
  607SOL    HW2 3263   1.243   0.447   5.397
  608SOL     OW 3264   1.167   0.215   5.208
  608SOL    HW1 3265   1.175   0.274   5.283
  608SOL    HW2 3266   1.203   0.266   5.134
  609SOL     OW 3267   7.983   1.305   3.913
  609SOL    HW1 3268   7.893   1.323   3.941
  609SOL    HW2 3269   7.999   1.215   3.942
  610SOL     OW 3270   0.106   1.746   4.672
  610SOL    HW1 3271   0.116   1.661   4.629
  610SOL    HW2 3272   0.181   1.797   4.643
  611SOL     OW 3273   0.486   1.574   4.625
  611SOL    HW1 3274   0.554   1.636   4.651
  611SOL    HW2 3275   0.531   1.511   4.569
  612SOL     OW 3276   0.961   0.779   4.952
  612SOL    HW1 3277   1.027   0.757   5.018
  612SOL    HW2 3278   0.878   0.750   4.990
  613SOL     OW 3279   0.074   0.552   4.847
  613SOL    HW1 3280   0.167   0.547   4.829
  613SOL    HW2 3281   0.068   0.556   4.942
  614SOL     OW 3282   0.192   0.510   5.415
  614SOL    HW1 3283   0.284   0.510   5.387
  614SOL    HW2 3284   0.162   0.599   5.398
  615SOL     OW 3285   1.382   0.930   5.379
  615SOL    HW1 3286   1.405   1.023   5.376
  615SOL    HW2 3287   1.380   0.903   5.287
  616SOL     OW 3288   0.817   0.569   4.092
  616SOL    HW1 3289   0.829   0.493   4.035
  616SOL    HW2 3290   0.740   0.614   4.055
  617SOL     OW 3291   1.637   0.602   4.895
  617SOL    HW1 3292   1.629   0.550   4.975
  617SOL    HW2 3293   1.727   0.587   4.865
  618SOL     OW 3294   0.287   1.536   5.445
  618SOL    HW1 3295   0.248   1.607   5.495
  618SOL    HW2 3296   0.281   1.460   5.503
  619SOL     OW 3297   0.735   0.451   4.972
  619SOL    HW1 3298   0.673   0.379   4.957
  619SOL    HW2 3299   0.716   0.513   4.902
  620SOL     OW 3300   0.906   1.681   5.205
  620SOL    HW1 3301   0.890   1.640   5.119
  620SOL    HW2 3302   0.912   1.774   5.186
  621SOL     OW 3303   0.440   0.502   3.886
  621SOL    HW1 3304   0.501   0.572   3.911
  621SOL    HW2 3305   0.362   0.519   3.937
  622SOL     OW 3306   0.153   1.121   5.174
  622SOL    HW1 3307   0.134   1.076   5.257
  622SOL    HW2 3308   0.159   1.050   5.110
  623SOL     OW 3309   1.312   1.039   4.938
  623SOL    HW1 3310   1.334   0.978   4.867
  623SOL    HW2 3311   1.246   1.097   4.899
  624SOL     OW 3312   1.314   0.865   4.022
  624SOL    HW1 3313   1.251   0.822   4.079
  624SOL    HW2 3314   1.286   0.841   3.934
  625SOL     OW 3315   1.751   1.734   4.860
  625SOL    HW1 3316   1.824   1.762   4.805
  625SOL    HW2 3317   1.744   1.640   4.845
  626SOL     OW 3318   1.237   1.728   4.809
  626SOL    HW1 3319   1.323   1.759   4.779
  626SOL    HW2 3320   1.253   1.639   4.839
  627SOL     OW 3321   0.073   1.198   4.749
  627SOL    HW1 3322   0.070   1.237   4.836
  627SOL    HW2 3323  -0.006   1.229   4.705
  628SOL     OW 3324   0.686   1.673   5.470
  628SOL    HW1 3325   0.631   1.749   5.451
  628SOL    HW2 3326   0.765   1.687   5.418
  629SOL     OW 3327   1.679   0.166   4.211
  629SOL    HW1 3328   1.760   0.157   4.161
  629SOL    HW2 3329   1.701   0.131   4.297
  630SOL     OW 3330   1.393   1.571   4.215
  630SOL    HW1 3331   1.455   1.606   4.151
  630SOL    HW2 3332   1.348   1.648   4.249
  631SOL     OW 3333   0.166   1.751   5.564
  631SOL    HW1 3334   0.106   1.699   5.618
  631SOL    HW2 3335   0.217   1.801   5.627
  632SOL     OW 3336   1.277   0.934   4.393
  632SOL    HW1 3337   1.350   0.874   4.409
  632SOL    HW2 3338   1.314   1.003   4.338
  633SOL     OW 3339   0.798   1.281   5.143
  633SOL    HW1 3340   0.772   1.323   5.225
  633SOL    HW2 3341   0.724   1.294   5.084
  634SOL     OW 3342   0.667   1.622   3.869
  634SOL    HW1 3343   0.736   1.564   3.836
  634SOL    HW2 3344   0.591   1.565   3.878
  635SOL     OW 3345   1.615   1.732   5.110
  635SOL    HW1 3346   1.666   1.736   5.030
  635SOL    HW2 3347   1.601   1.823   5.135
  636SOL     OW 3348   1.846   0.179   4.684
  636SOL    HW1 3349   1.847   0.084   4.699
  636SOL    HW2 3350   1.766   0.194   4.634
  637SOL     OW 3351   0.247   0.305   4.439
  637SOL    HW1 3352   0.166   0.352   4.418
  637SOL    HW2 3353   0.252   0.307   4.535
  638SOL     OW 3354   1.206   1.589   3.758
  638SOL    HW1 3355   1.197   1.500   3.790
  638SOL    HW2 3356   1.139   1.597   3.689
  639SOL     OW 3357   0.825   1.011   5.103
  639SOL    HW1 3358   0.873   1.002   5.021
  639SOL    HW2 3359   0.822   1.106   5.118
  640SOL     OW 3360   0.915   0.909   4.006
  640SOL    HW1 3361   0.980   0.947   3.946
  640SOL    HW2 3362   0.965   0.845   4.057
  641SOL     OW 3363   1.487   1.631   3.767
  641SOL    HW1 3364   1.394   1.618   3.751
  641SOL    HW2 3365   1.526   1.636   3.680
  642SOL     OW 3366   0.367   1.299   5.213
  642SOL    HW1 3367   0.347   1.380   5.167
  642SOL    HW2 3368   0.293   1.241   5.194
  643SOL     OW 3369   1.597   1.284   4.998
  643SOL    HW1 3370   1.671   1.273   5.059
  643SOL    HW2 3371   1.544   1.353   5.037
  644SOL     OW 3372   1.065   1.114   4.433
  644SOL    HW1 3373   0.995   1.063   4.474
  644SOL    HW2 3374   1.133   1.050   4.414
  645SOL     OW 3375   1.026   0.266   4.676
  645SOL    HW1 3376   1.005   0.214   4.599
  645SOL    HW2 3377   1.032   0.202   4.748
  646SOL     OW 3378   0.608   1.482   4.197
  646SOL    HW1 3379   0.652   1.433   4.127
  646SOL    HW2 3380   0.516   1.481   4.173
  647SOL     OW 3381   1.723   0.419   5.111
  647SOL    HW1 3382   1.795   0.481   5.120
  647SOL    HW2 3383   1.756   0.354   5.048
  648SOL     OW 3384   0.248   1.341   3.993
  648SOL    HW1 3385   0.153   1.343   3.987
  648SOL    HW2 3386   0.268   1.378   4.079
  649SOL     OW 3387   0.101   1.002   5.433
  649SOL    HW1 3388   0.065   1.087   5.457
  649SOL    HW2 3389   0.186   0.999   5.477
  650SOL     OW 3390   0.669   0.221   5.224
  650SOL    HW1 3391   0.728   0.150   5.200
  650SOL    HW2 3392   0.684   0.235   5.317
  651SOL     OW 3393   0.070   0.343   3.710
  651SOL    HW1 3394   0.020   0.393   3.774
  651SOL    HW2 3395   0.107   0.409   3.651
  652SOL     OW 3396   1.421   0.859   5.117
  652SOL    HW1 3397   1.372   0.921   5.062
  652SOL    HW2 3398   1.511   0.864   5.084
  653SOL     OW 3399   0.124   0.266   4.047
  653SOL    HW1 3400   0.081   0.214   3.979
  653SOL    HW2 3401   0.121   0.210   4.124
  654SOL     OW 3402   1.175   1.322   3.854
  654SOL    HW1 3403   1.120   1.244   3.866
  654SOL    HW2 3404   1.208   1.341   3.942
  655SOL     OW 3405   0.609   0.855   5.172
  655SOL    HW1 3406   0.669   0.928   5.158
  655SOL    HW2 3407   0.665   0.777   5.171
  656SOL     OW 3408   1.493   1.790   4.714
  656SOL    HW1 3409   1.516   1.863   4.656
  656SOL    HW2 3410   1.574   1.769   4.760
  657SOL     OW 3411   0.688   0.579   5.424
  657SOL    HW1 3412   0.748   0.630   5.478
  657SOL    HW2 3413   0.711   0.488   5.441
  658SOL     OW 3414   1.473   1.191   5.347
  658SOL    HW1 3415   1.464   1.207   5.441
  658SOL    HW2 3416   1.565   1.211   5.328
  659SOL     OW 3417   0.386   1.741   5.288
  659SOL    HW1 3418   0.298   1.769   5.266
  659SOL    HW2 3419   0.375   1.655   5.328
  660SOL     OW 3420   1.659   0.879   4.977
  660SOL    HW1 3421   1.658   0.795   4.931
  660SOL    HW2 3422   1.650   0.944   4.908
  661SOL     OW 3423   1.220   0.326   4.170
  661SOL    HW1 3424   1.285   0.257   4.156
  661SOL    HW2 3425   1.251   0.372   4.248
  662SOL     OW 3426   0.590   0.735   4.404
  662SOL    HW1 3427   0.634   0.820   4.393
  662SOL    HW2 3428   0.529   0.730   4.331
  663SOL     OW 3429   1.748   0.366   5.382
  663SOL    HW1 3430   1.741   0.387   5.288
  663SOL    HW2 3431   1.670   0.314   5.401
  664SOL     OW 3432   1.738   0.933   5.236
  664SOL    HW1 3433   1.739   1.028   5.247
  664SOL    HW2 3434   1.725   0.921   5.142
  665SOL     OW 3435   0.807   1.401   3.775
  665SOL    HW1 3436   0.810   1.371   3.866
  665SOL    HW2 3437   0.898   1.421   3.753
  666SOL     OW 3438   0.665   1.776   4.651
  666SOL    HW1 3439   0.650   1.869   4.639
  666SOL    HW2 3440   0.760   1.767   4.655
  667SOL     OW 3441   0.873   0.974   4.576
  667SOL    HW1 3442   0.924   0.902   4.614
  667SOL    HW2 3443   0.830   1.015   4.651
  668SOL     OW 3444   1.080   1.005   3.810
  668SOL    HW1 3445   1.054   1.042   3.725
  668SOL    HW2 3446   1.149   0.943   3.788
  669SOL     OW 3447   1.843   1.546   4.560
  669SOL    HW1 3448   1.761   1.540   4.511
  669SOL    HW2 3449   1.826   1.501   4.642
  670SOL     OW 3450   0.216   1.299   5.578
  670SOL    HW1 3451   0.123   1.284   5.559
  670SOL    HW2 3452   0.220   1.301   5.674
  671SOL     OW 3453   0.136   1.263   4.368
  671SOL    HW1 3454   0.058   1.226   4.410
  671SOL    HW2 3455   0.199   1.192   4.366
  672SOL     OW 3456   0.682   1.411   5.354
  672SOL    HW1 3457   0.602   1.371   5.390
  672SOL    HW2 3458   0.685   1.498   5.394
  673SOL     OW 3459   1.828   0.234   4.953
  673SOL    HW1 3460   1.820   0.141   4.973
  673SOL    HW2 3461   1.835   0.238   4.858
  674SOL     OW 3462   0.429   0.429   4.257
  674SOL    HW1 3463   0.452   0.362   4.192
  674SOL    HW2 3464   0.373   0.383   4.319
  675SOL     OW 3465   1.706   1.471   4.798
  675SOL    HW1 3466   1.620   1.454   4.760
  675SOL    HW2 3467   1.714   1.408   4.869
  676SOL     OW 3468   0.358   0.561   5.017
  676SOL    HW1 3469   0.401   0.500   5.077
  676SOL    HW2 3470   0.378   0.527   4.930
  677SOL     OW 3471   0.837   1.578   4.400
  677SOL    HW1 3472   0.803   1.645   4.341
  677SOL    HW2 3473   0.763   1.518   4.413
  678SOL     OW 3474   1.426   0.227   4.840
  678SOL    HW1 3475   1.489   0.167   4.880
  678SOL    HW2 3476   1.384   0.270   4.914
  679SOL     OW 3477   1.043   0.069   4.860
  679SOL    HW1 3478   0.998  -0.015   4.872
  679SOL    HW2 3479   1.136   0.047   4.869
  680SOL     OW 3480   0.794   1.323   4.035
  680SOL    HW1 3481   0.767   1.235   4.059
  680SOL    HW2 3482   0.865   1.345   4.095
  681SOL     OW 3483   0.622   1.562   5.008
  681SOL    HW1 3484   0.618   1.648   5.049
  681SOL    HW2 3485   0.712   1.553   4.977
  682SOL     OW 3486   1.361   8.000   3.826
  682SOL    HW1 3487   1.441   7.959   3.861
  682SOL    HW2 3488   1.293   7.978   3.889
  683SOL     OW 3489   1.294   0.467   4.395
  683SOL    HW1 3490   1.242   0.548   4.400
  683SOL    HW2 3491   1.296   0.435   4.485
  684SOL     OW 3492   1.607   0.215   4.570
  684SOL    HW1 3493   1.531   0.206   4.629
  684SOL    HW2 3494   1.595   0.300   4.528
  685SOL     OW 3495   0.050   1.062   4.016
  685SOL    HW1 3496   0.134   1.023   3.992
  685SOL    HW2 3497   0.046   1.056   4.111
  686SOL     OW 3498   0.893   1.669   4.060
  686SOL    HW1 3499   0.809   1.653   4.017
  686SOL    HW2 3500   0.875   1.738   4.124
  687SOL     OW 3501   0.230   0.708   5.664
  687SOL    HW1 3502   0.170   0.683   5.734
  687SOL    HW2 3503   0.257   0.625   5.625
  688SOL     OW 3504   0.229   0.290   6.567
  688SOL    HW1 3505   0.256   0.245   6.648
  688SOL    HW2 3506   0.138   0.264   6.554
  689SOL     OW 3507   8.001   0.377   6.188
  689SOL    HW1 3508   7.911   0.359   6.216
  689SOL    HW2 3509   8.009   0.335   6.102
  690SOL     OW 3510   0.572   1.301   6.780
  690SOL    HW1 3511   0.486   1.307   6.739
  690SOL    HW2 3512   0.590   1.390   6.812
  691SOL     OW 3513   1.580   1.514   6.293
  691SOL    HW1 3514   1.534   1.493   6.375
  691SOL    HW2 3515   1.511   1.520   6.228
  692SOL     OW 3516   1.132   0.704   6.278
  692SOL    HW1 3517   1.182   0.785   6.266
  692SOL    HW2 3518   1.086   0.716   6.361
  693SOL     OW 3519   1.796   0.593   5.805
  693SOL    HW1 3520   1.760   0.590   5.716
  693SOL    HW2 3521   1.750   0.523   5.851
  694SOL     OW 3522   0.734   1.132   6.635
  694SOL    HW1 3523   0.672   1.173   6.696
  694SOL    HW2 3524   0.778   1.206   6.593
  695SOL     OW 3525   0.879   0.752   7.407
  695SOL    HW1 3526   0.879   0.820   7.474
  695SOL    HW2 3527   0.900   0.798   7.326
  696SOL     OW 3528   0.687   0.994   6.231
  696SOL    HW1 3529   0.756   0.991   6.298
  696SOL    HW2 3530   0.621   1.052   6.269
  697SOL     OW 3531   0.714   1.151   7.412
  697SOL    HW1 3532   0.763   1.227   7.442
  697SOL    HW2 3533   0.638   1.189   7.367
  698SOL     OW 3534   0.342   1.411   6.652
  698SOL    HW1 3535   0.283   1.362   6.595
  698SOL    HW2 3536   0.389   1.471   6.594
  699SOL     OW 3537   1.459   1.505   6.953
  699SOL    HW1 3538   1.515   1.582   6.960
  699SOL    HW2 3539   1.391   1.518   7.019
  700SOL     OW 3540   0.449   0.382   7.067
  700SOL    HW1 3541   0.535   0.340   7.067
  700SOL    HW2 3542   0.389   0.314   7.099
  701SOL     OW 3543   1.606   0.462   6.311
  701SOL    HW1 3544   1.542   0.487   6.245
  701SOL    HW2 3545   1.609   0.537   6.371
  702SOL     OW 3546   0.234   1.695   6.069
  702SOL    HW1 3547   0.231   1.779   6.114
  702SOL    HW2 3548   0.302   1.706   6.003
  703SOL     OW 3549   1.138   1.342   7.280
  703SOL    HW1 3550   1.184   1.332   7.363
  703SOL    HW2 3551   1.086   1.262   7.272
  704SOL     OW 3552   0.295   1.431   6.096
  704SOL    HW1 3553   0.272   1.523   6.106
  704SOL    HW2 3554   0.242   1.385   6.161
  705SOL     OW 3555   0.277   1.084   6.483
  705SOL    HW1 3556   0.279   0.991   6.505
  705SOL    HW2 3557   0.199   1.118   6.527
  706SOL     OW 3558   0.600   1.802   6.997
  706SOL    HW1 3559   0.524   1.779   7.050
  706SOL    HW2 3560   0.629   1.886   7.032
  707SOL     OW 3561   0.571   0.993   5.732
  707SOL    HW1 3562   0.623   1.033   5.663
  707SOL    HW2 3563   0.613   1.022   5.813
  708SOL     OW 3564   1.642   0.130   7.076
  708SOL    HW1 3565   1.645   0.198   7.009
  708SOL    HW2 3566   1.584   0.166   7.144
  709SOL     OW 3567   0.137   0.620   6.133
  709SOL    HW1 3568   0.094   0.540   6.162
  709SOL    HW2 3569   0.122   0.683   6.203
  710SOL     OW 3570   1.846   1.750   5.918
  710SOL    HW1 3571   1.919   1.727   5.975
  710SOL    HW2 3572   1.862   1.842   5.894
  711SOL     OW 3573   0.019   1.588   5.726
  711SOL    HW1 3574   0.001   1.496   5.708
  711SOL    HW2 3575   0.008   1.598   5.820
  712SOL     OW 3576   1.689   0.916   6.233
  712SOL    HW1 3577   1.776   0.879   6.219
  712SOL    HW2 3578   1.673   0.969   6.154
  713SOL     OW 3579   1.653   1.103   6.018
  713SOL    HW1 3580   1.739   1.101   5.977
  713SOL    HW2 3581   1.663   1.165   6.091
  714SOL     OW 3582   0.150   0.760   7.169
  714SOL    HW1 3583   0.246   0.764   7.165
  714SOL    HW2 3584   0.124   0.839   7.217
  715SOL     OW 3585   0.617   1.394   6.323
  715SOL    HW1 3586   0.574   1.309   6.329
  715SOL    HW2 3587   0.604   1.421   6.232
  716SOL     OW 3588   1.281   1.232   7.006
  716SOL    HW1 3589   1.310   1.164   6.944
  716SOL    HW2 3590   1.344   1.228   7.078
  717SOL     OW 3591   0.836   0.036   6.134
  717SOL    HW1 3592   0.886   0.110   6.101
  717SOL    HW2 3593   0.750   0.073   6.157
  718SOL     OW 3594   0.163   0.906   6.853
  718SOL    HW1 3595   0.257   0.886   6.853
  718SOL    HW2 3596   0.141   0.912   6.760
  719SOL     OW 3597   1.530   1.006   5.788
  719SOL    HW1 3598   1.462   0.947   5.823
  719SOL    HW2 3599   1.575   1.038   5.866
  720SOL     OW 3600   1.173   1.816   7.216
  720SOL    HW1 3601   1.183   1.881   7.146
  720SOL    HW2 3602   1.198   1.733   7.175
  721SOL     OW 3603   0.324   0.237   7.348
  721SOL    HW1 3604   0.389   0.295   7.386
  721SOL    HW2 3605   0.244   0.255   7.397
  722SOL     OW 3606   1.464   1.421   6.527
  722SOL    HW1 3607   1.401   1.437   6.597
  722SOL    HW2 3608   1.452   1.329   6.504
  723SOL     OW 3609   1.647   1.767   6.162
  723SOL    HW1 3610   1.635   1.728   6.075
  723SOL    HW2 3611   1.638   1.693   6.222
  724SOL     OW 3612   0.592   0.714   5.855
  724SOL    HW1 3613   0.597   0.802   5.815
  724SOL    HW2 3614   0.532   0.724   5.928
  725SOL     OW 3615   1.294   0.377   6.520
  725SOL    HW1 3616   1.203   0.347   6.524
  725SOL    HW2 3617   1.341   0.321   6.583
  726SOL     OW 3618   1.580   1.671   5.898
  726SOL    HW1 3619   1.673   1.695   5.891
  726SOL    HW2 3620   1.554   1.655   5.807
  727SOL     OW 3621   0.778   0.640   7.027
  727SOL    HW1 3622   0.762   0.607   7.115
  727SOL    HW2 3623   0.762   0.565   6.970
  728SOL     OW 3624   1.416   0.494   7.260
  728SOL    HW1 3625   1.422   0.537   7.345
  728SOL    HW2 3626   1.464   0.412   7.271
  729SOL     OW 3627   0.947   0.883   7.172
  729SOL    HW1 3628   1.001   0.816   7.132
  729SOL    HW2 3629   0.899   0.923   7.099
  730SOL     OW 3630   1.002   0.412   6.805
  730SOL    HW1 3631   0.912   0.433   6.829
  730SOL    HW2 3632   0.995   0.374   6.717
  731SOL     OW 3633   1.055   0.698   6.009
  731SOL    HW1 3634   1.074   0.695   6.102
  731SOL    HW2 3635   0.971   0.653   6.000
  732SOL     OW 3636   0.098   0.782   6.356
  732SOL    HW1 3637   0.177   0.796   6.408
  732SOL    HW2 3638   0.049   0.864   6.363
  733SOL     OW 3639   0.123   1.815   7.150
  733SOL    HW1 3640   0.127   1.808   7.245
  733SOL    HW2 3641   0.032   1.794   7.129
  734SOL     OW 3642   0.899   0.346   5.783
  734SOL    HW1 3643   0.948   0.401   5.722
  734SOL    HW2 3644   0.924   0.257   5.761
  735SOL     OW 3645   1.698   0.572   7.421
  735SOL    HW1 3646   1.668   0.648   7.371
  735SOL    HW2 3647   1.726   0.509   7.355
  736SOL     OW 3648   1.383   1.140   6.118
  736SOL    HW1 3649   1.466   1.133   6.070
  736SOL    HW2 3650   1.333   1.205   6.069
  737SOL     OW 3651   0.555   0.237   6.513
  737SOL    HW1 3652   0.541   0.253   6.606
  737SOL    HW2 3653   0.551   0.324   6.473
  738SOL     OW 3654   0.995   1.445   6.051
  738SOL    HW1 3655   0.969   1.522   6.001
  738SOL    HW2 3656   0.974   1.467   6.142
  739SOL     OW 3657   0.361   1.827   6.448
  739SOL    HW1 3658   0.406   1.744   6.461
  739SOL    HW2 3659   0.426   1.893   6.470
  740SOL     OW 3660   1.799   1.040   6.472
  740SOL    HW1 3661   1.750   1.036   6.390
  740SOL    HW2 3662   1.732   1.050   6.540
  741SOL     OW 3663   1.224   1.543   7.101
  741SOL    HW1 3664   1.213   1.469   7.161
  741SOL    HW2 3665   1.158   1.529   7.033
  742SOL     OW 3666   0.304   0.946   5.822
  742SOL    HW1 3667   0.392   0.972   5.792
  742SOL    HW2 3668   0.282   0.870   5.769
  743SOL     OW 3669   1.480   0.757   6.307
  743SOL    HW1 3670   1.480   0.720   6.395
  743SOL    HW2 3671   1.558   0.812   6.303
  744SOL     OW 3672   0.465   1.267   7.327
  744SOL    HW1 3673   0.443   1.272   7.234
  744SOL    HW2 3674   0.381   1.254   7.371
  745SOL     OW 3675   1.122   1.782   5.806
  745SOL    HW1 3676   1.048   1.742   5.851
  745SOL    HW2 3677   1.149   1.716   5.741
  746SOL     OW 3678   0.167   0.276   7.077
  746SOL    HW1 3679   0.150   0.368   7.055
  746SOL    HW2 3680   0.179   0.276   7.172
  747SOL     OW 3681   1.624   1.381   5.682
  747SOL    HW1 3682   1.586   1.468   5.664
  747SOL    HW2 3683   1.556   1.320   5.654
  748SOL     OW 3684   0.455   1.744   5.899
  748SOL    HW1 3685   0.503   1.794   5.965
  748SOL    HW2 3686   0.522   1.701   5.847
  749SOL     OW 3687   1.423   0.132   5.992
  749SOL    HW1 3688   1.446   0.102   5.904
  749SOL    HW2 3689   1.507   0.145   6.036
  750SOL     OW 3690   0.236   1.784   6.811
  750SOL    HW1 3691   0.287   1.710   6.844
  750SOL    HW2 3692   0.206   1.756   6.725
  751SOL     OW 3693   0.944   1.700   6.482
  751SOL    HW1 3694   1.029   1.658   6.500
  751SOL    HW2 3695   0.907   1.648   6.411
  752SOL     OW 3696   0.411   0.690   6.066
  752SOL    HW1 3697   0.431   0.598   6.084
  752SOL    HW2 3698   0.317   0.698   6.078
  753SOL     OW 3699   1.515   0.230   7.308
  753SOL    HW1 3700   1.527   0.248   7.402
  753SOL    HW2 3701   1.472   0.145   7.305
  754SOL     OW 3702   0.577   0.124   5.686
  754SOL    HW1 3703   0.652   0.083   5.730
  754SOL    HW2 3704   0.554   0.063   5.616
  755SOL     OW 3705   0.720   0.300   7.351
  755SOL    HW1 3706   0.815   0.301   7.345
  755SOL    HW2 3707   0.702   0.280   7.443
  756SOL     OW 3708   0.874   1.521   6.782
  756SOL    HW1 3709   0.858   1.482   6.696
  756SOL    HW2 3710   0.945   1.468   6.819
  757SOL     OW 3711   1.339   0.599   7.019
  757SOL    HW1 3712   1.379   0.571   7.101
  757SOL    HW2 3713   1.375   0.686   7.003
  758SOL     OW 3714   0.820   1.380   6.537
  758SOL    HW1 3715   0.907   1.374   6.496
  758SOL    HW2 3716   0.760   1.395   6.463
  759SOL     OW 3717   0.922   0.521   6.478
  759SOL    HW1 3718   0.894   0.512   6.387
  759SOL    HW2 3719   0.960   0.436   6.499
  760SOL     OW 3720   0.550   0.027   6.008
  760SOL    HW1 3721   0.506   0.025   6.093
  760SOL    HW2 3722   0.552   0.119   5.984
  761SOL     OW 3723   1.425   1.200   5.620
  761SOL    HW1 3724   1.457   1.128   5.674
  761SOL    HW2 3725   1.342   1.226   5.660
  762SOL     OW 3726   0.298   0.032   5.784
  762SOL    HW1 3727   0.381   0.072   5.758
  762SOL    HW2 3728   0.318  -0.014   5.866
  763SOL     OW 3729   0.953   0.264   6.046
  763SOL    HW1 3730   0.921   0.297   5.962
  763SOL    HW2 3731   1.047   0.280   6.043
  764SOL     OW 3732   1.080   0.681   7.046
  764SOL    HW1 3733   1.026   0.604   7.059
  764SOL    HW2 3734   1.169   0.647   7.039
  765SOL     OW 3735   1.213   1.579   6.383
  765SOL    HW1 3736   1.228   1.642   6.312
  765SOL    HW2 3737   1.285   1.593   6.444
  766SOL     OW 3738   0.475   1.156   6.309
  766SOL    HW1 3739   0.412   1.135   6.378
  766SOL    HW2 3740   0.428   1.137   6.228
  767SOL     OW 3741   1.261   1.792   6.200
  767SOL    HW1 3742   1.313   1.852   6.148
  767SOL    HW2 3743   1.196   1.847   6.243
  768SOL     OW 3744   1.031   0.522   5.611
  768SOL    HW1 3745   0.985   0.604   5.592
  768SOL    HW2 3746   1.090   0.545   5.683
  769SOL     OW 3747   0.115   0.554   6.987
  769SOL    HW1 3748   0.203   0.560   6.950
  769SOL    HW2 3749   0.108   0.629   7.045
  770SOL     OW 3750   0.563   0.241   6.791
  770SOL    HW1 3751   0.607   0.186   6.855
  770SOL    HW2 3752   0.470   0.229   6.809
  771SOL     OW 3753   0.855   0.465   6.219
  771SOL    HW1 3754   0.825   0.519   6.145
  771SOL    HW2 3755   0.882   0.383   6.178
  772SOL     OW 3756   0.947   0.037   6.388
  772SOL    HW1 3757   0.908   0.039   6.300
  772SOL    HW2 3758   0.995  -0.046   6.391
  773SOL     OW 3759   1.445   1.159   6.442
  773SOL    HW1 3760   1.372   1.098   6.433
  773SOL    HW2 3761   1.481   1.168   6.354
  774SOL     OW 3762   1.464   0.616   6.548
  774SOL    HW1 3763   1.411   0.536   6.547
  774SOL    HW2 3764   1.522   0.606   6.623
  775SOL     OW 3765   1.831   0.804   5.973
  775SOL    HW1 3766   1.894   0.761   6.032
  775SOL    HW2 3767   1.818   0.742   5.902
  776SOL     OW 3768   0.489   1.420   5.729
  776SOL    HW1 3769   0.409   1.390   5.772
  776SOL    HW2 3770   0.495   1.368   5.650
  777SOL     OW 3771   1.683   1.256   6.238
  777SOL    HW1 3772   1.778   1.251   6.250
  777SOL    HW2 3773   1.661   1.348   6.253
  778SOL     OW 3774   1.395   0.575   5.661
  778SOL    HW1 3775   1.333   0.556   5.732
  778SOL    HW2 3776   1.481   0.563   5.701
  779SOL     OW 3777   0.515   0.282   5.898
  779SOL    HW1 3778   0.543   0.226   5.825
  779SOL    HW2 3779   0.495   0.366   5.856
  780SOL     OW 3780   1.746   1.243   7.146
  780SOL    HW1 3781   1.833   1.208   7.126
  780SOL    HW2 3782   1.761   1.333   7.174
  781SOL     OW 3783   1.052   1.351   6.916
  781SOL    HW1 3784   0.975   1.321   6.965
  781SOL    HW2 3785   1.126   1.309   6.958
  782SOL     OW 3786   1.608   1.628   7.245
  782SOL    HW1 3787   1.599   1.666   7.158
  782SOL    HW2 3788   1.690   1.578   7.242
  783SOL     OW 3789   1.133   1.212   6.686
  783SOL    HW1 3790   1.078   1.257   6.751
  783SOL    HW2 3791   1.109   1.253   6.603
  784SOL     OW 3792   1.611   1.089   6.663
  784SOL    HW1 3793   1.603   1.155   6.732
  784SOL    HW2 3794   1.542   1.112   6.600
  785SOL     OW 3795   0.910   0.130   6.972
  785SOL    HW1 3796   0.934   0.118   6.880
  785SOL    HW2 3797   0.994   0.135   7.018
  786SOL     OW 3798   0.983   1.115   7.309
  786SOL    HW1 3799   0.892   1.132   7.334
  786SOL    HW2 3800   0.979   1.036   7.255
  787SOL     OW 3801   0.711   1.062   5.961
  787SOL    HW1 3802   0.699   1.041   6.053
  787SOL    HW2 3803   0.785   1.009   5.933
  788SOL     OW 3804   0.424   0.824   6.841
  788SOL    HW1 3805   0.489   0.843   6.909
  788SOL    HW2 3806   0.403   0.732   6.853
  789SOL     OW 3807   1.264   0.379   6.877
  789SOL    HW1 3808   1.297   0.460   6.915
  789SOL    HW2 3809   1.177   0.401   6.844
  790SOL     OW 3810   0.046   1.593   6.914
  790SOL    HW1 3811   0.097   1.672   6.897
  790SOL    HW2 3812   0.085   1.555   6.993
  791SOL     OW 3813   0.328   1.108   6.075
  791SOL    HW1 3814   0.341   1.183   6.018
  791SOL    HW2 3815   0.332   1.032   6.017
  792SOL     OW 3816   0.556   0.514   6.443
  792SOL    HW1 3817   0.563   0.574   6.369
  792SOL    HW2 3818   0.619   0.547   6.507
  793SOL     OW 3819   1.247   1.353   5.978
  793SOL    HW1 3820   1.303   1.423   6.010
  793SOL    HW2 3821   1.160   1.374   6.012
  794SOL     OW 3822   1.297   1.463   6.738
  794SOL    HW1 3823   1.354   1.473   6.814
  794SOL    HW2 3824   1.243   1.387   6.759
  795SOL     OW 3825   1.573   0.635   6.069
  795SOL    HW1 3826   1.522   0.681   6.136
  795SOL    HW2 3827   1.632   0.701   6.033
  796SOL     OW 3828   0.348   1.534   6.896
  796SOL    HW1 3829   0.333   1.485   6.815
  796SOL    HW2 3830   0.444   1.543   6.900
  797SOL     OW 3831   0.435   0.726   7.203
  797SOL    HW1 3832   0.484   0.781   7.141
  797SOL    HW2 3833   0.500   0.665   7.237
  798SOL     OW 3834   1.614   0.786   7.280
  798SOL    HW1 3835   1.527   0.827   7.271
  798SOL    HW2 3836   1.666   0.826   7.210
  799SOL     OW 3837   1.045   0.059   7.325
  799SOL    HW1 3838   1.062   0.153   7.321
  799SOL    HW2 3839   0.950   0.052   7.310
  800SOL     OW 3840   0.503   0.024   7.316
  800SOL    HW1 3841   0.483  -0.023   7.235
  800SOL    HW2 3842   0.445   0.101   7.314
  801SOL     OW 3843   0.589   0.878   6.620
  801SOL    HW1 3844   0.629   0.966   6.621
  801SOL    HW2 3845   0.533   0.877   6.697
  802SOL     OW 3846   1.335   0.857   6.601
  802SOL    HW1 3847   1.248   0.838   6.565
  802SOL    HW2 3848   1.384   0.776   6.590
  803SOL     OW 3849   1.193   0.527   5.842
  803SOL    HW1 3850   1.205   0.450   5.898
  803SOL    HW2 3851   1.154   0.592   5.900
  804SOL     OW 3852   0.298   0.203   6.831
  804SOL    HW1 3853   0.243   0.226   6.906
  804SOL    HW2 3854   0.266   0.117   6.804
  805SOL     OW 3855   0.051   1.307   6.856
  805SOL    HW1 3856   0.076   1.258   6.934
  805SOL    HW2 3857   0.054   1.399   6.884
  806SOL     OW 3858   0.713   0.628   6.634
  806SOL    HW1 3859   0.792   0.618   6.581
  806SOL    HW2 3860   0.686   0.719   6.621
  807SOL     OW 3861   1.747   0.957   7.455
  807SOL    HW1 3862   1.703   0.892   7.400
  807SOL    HW2 3863   1.682   0.980   7.522
  808SOL     OW 3864   0.401   0.077   6.249
  808SOL    HW1 3865   0.353   0.158   6.261
  808SOL    HW2 3866   0.333   0.012   6.228
  809SOL     OW 3867   1.624   0.406   5.931
  809SOL    HW1 3868   1.643   0.334   5.992
  809SOL    HW2 3869   1.599   0.479   5.988
  810SOL     OW 3870   1.029   0.762   6.544
  810SOL    HW1 3871   1.017   0.776   6.638
  810SOL    HW2 3872   0.998   0.673   6.529
  811SOL     OW 3873   0.977   1.561   7.311
  811SOL    HW1 3874   0.962   1.607   7.228
  811SOL    HW2 3875   1.025   1.482   7.286
  812SOL     OW 3876   1.847   1.500   7.185
  812SOL    HW1 3877   1.872   1.528   7.097
  812SOL    HW2 3878   1.926   1.513   7.237
  813SOL     OW 3879   0.360   0.946   7.373
  813SOL    HW1 3880   0.432   0.967   7.432
  813SOL    HW2 3881   0.386   0.864   7.331
  814SOL     OW 3882   1.539   0.269   5.710
  814SOL    HW1 3883   1.575   0.184   5.736
  814SOL    HW2 3884   1.563   0.328   5.782
  815SOL     OW 3885   1.281   0.823   5.609
  815SOL    HW1 3886   1.326   0.739   5.616
  815SOL    HW2 3887   1.315   0.863   5.529
  816SOL     OW 3888   1.072   1.344   6.446
  816SOL    HW1 3889   1.080   1.273   6.383
  816SOL    HW2 3890   1.127   1.414   6.411
  817SOL     OW 3891   0.321   0.809   6.523
  817SOL    HW1 3892   0.414   0.831   6.523
  817SOL    HW2 3893   0.318   0.720   6.561
  818SOL     OW 3894   0.338   0.532   6.601
  818SOL    HW1 3895   0.297   0.447   6.584
  818SOL    HW2 3896   0.414   0.534   6.543
  819SOL     OW 3897   1.174   0.371   7.293
  819SOL    HW1 3898   1.112   0.428   7.340
  819SOL    HW2 3899   1.250   0.427   7.277
  820SOL     OW 3900   1.159   0.219   7.069
  820SOL    HW1 3901   1.178   0.268   7.149
  820SOL    HW2 3902   1.199   0.272   6.999
  821SOL     OW 3903   7.979   1.302   5.784
  821SOL    HW1 3904   7.890   1.321   5.813
  821SOL    HW2 3905   7.989   1.208   5.798
  822SOL     OW 3906   0.110   1.744   6.531
  822SOL    HW1 3907   0.112   1.668   6.473
  822SOL    HW2 3908   0.186   1.796   6.505
  823SOL     OW 3909   0.489   1.576   6.489
  823SOL    HW1 3910   0.558   1.638   6.513
  823SOL    HW2 3911   0.532   1.514   6.431
  824SOL     OW 3912   0.964   0.779   6.811
  824SOL    HW1 3913   1.030   0.762   6.879
  824SOL    HW2 3914   0.881   0.751   6.850
  825SOL     OW 3915   0.076   0.550   6.710
  825SOL    HW1 3916   0.170   0.554   6.690
  825SOL    HW2 3917   0.073   0.548   6.806
  826SOL     OW 3918   0.206   0.518   7.286
  826SOL    HW1 3919   0.295   0.517   7.249
  826SOL    HW2 3920   0.168   0.599   7.254
  827SOL     OW 3921   1.383   0.930   7.240
  827SOL    HW1 3922   1.406   1.023   7.236
  827SOL    HW2 3923   1.379   0.902   7.149
  828SOL     OW 3924   0.816   0.568   5.953
  828SOL    HW1 3925   0.823   0.495   5.893
  828SOL    HW2 3926   0.742   0.620   5.921
  829SOL     OW 3927   1.636   0.601   6.760
  829SOL    HW1 3928   1.629   0.548   6.839
  829SOL    HW2 3929   1.726   0.586   6.730
  830SOL     OW 3930   0.291   1.532   7.307
  830SOL    HW1 3931   0.253   1.605   7.355
  830SOL    HW2 3932   0.282   1.457   7.365
  831SOL     OW 3933   0.730   0.452   6.839
  831SOL    HW1 3934   0.669   0.380   6.822
  831SOL    HW2 3935   0.715   0.514   6.768
  832SOL     OW 3936   0.912   1.678   7.064
  832SOL    HW1 3937   0.891   1.638   6.980
  832SOL    HW2 3938   0.913   1.772   7.046
  833SOL     OW 3939   0.451   0.500   5.745
  833SOL    HW1 3940   0.506   0.575   5.768
  833SOL    HW2 3941   0.369   0.514   5.792
  834SOL     OW 3942   0.157   1.118   7.039
  834SOL    HW1 3943   0.135   1.074   7.121
  834SOL    HW2 3944   0.158   1.047   6.974
  835SOL     OW 3945   1.310   1.039   6.802
  835SOL    HW1 3946   1.332   0.977   6.732
  835SOL    HW2 3947   1.247   1.099   6.762
  836SOL     OW 3948   1.319   0.855   5.885
  836SOL    HW1 3949   1.245   0.826   5.938
  836SOL    HW2 3950   1.289   0.844   5.794
  837SOL     OW 3951   1.774   1.731   6.740
  837SOL    HW1 3952   1.838   1.760   6.675
  837SOL    HW2 3953   1.752   1.641   6.716
  838SOL     OW 3954   1.239   1.730   6.679
  838SOL    HW1 3955   1.323   1.760   6.644
  838SOL    HW2 3956   1.254   1.639   6.705
  839SOL     OW 3957   0.056   1.186   6.618
  839SOL    HW1 3958   0.059   1.228   6.704
  839SOL    HW2 3959  -0.012   1.234   6.570
  840SOL     OW 3960   0.684   1.674   7.332
  840SOL    HW1 3961   0.623   1.747   7.319
  840SOL    HW2 3962   0.757   1.692   7.273
  841SOL     OW 3963   1.688   0.166   6.067
  841SOL    HW1 3964   1.762   0.161   6.007
  841SOL    HW2 3965   1.723   0.131   6.150
  842SOL     OW 3966   1.395   1.568   6.080
  842SOL    HW1 3967   1.454   1.602   6.013
  842SOL    HW2 3968   1.346   1.645   6.109
  843SOL     OW 3969   0.174   1.742   7.427
  843SOL    HW1 3970   0.108   1.696   7.480
  843SOL    HW2 3971   0.217   1.801   7.489
  844SOL     OW 3972   1.278   0.933   6.255
  844SOL    HW1 3973   1.352   0.874   6.269
  844SOL    HW2 3974   1.313   1.003   6.200
  845SOL     OW 3975   0.798   1.281   7.009
  845SOL    HW1 3976   0.771   1.323   7.090
  845SOL    HW2 3977   0.727   1.299   6.948
  846SOL     OW 3978   0.663   1.630   5.745
  846SOL    HW1 3979   0.679   1.644   5.651
  846SOL    HW2 3980   0.610   1.550   5.748
  847SOL     OW 3981   1.617   1.728   6.977
  847SOL    HW1 3982   1.672   1.732   6.899
  847SOL    HW2 3983   1.602   1.820   7.000
  848SOL     OW 3984   1.846   0.176   6.542
  848SOL    HW1 3985   1.856   0.082   6.527
  848SOL    HW2 3986   1.762   0.198   6.501
  849SOL     OW 3987   0.259   0.310   6.293
  849SOL    HW1 3988   0.172   0.341   6.267
  849SOL    HW2 3989   0.256   0.309   6.388
  850SOL     OW 3990   1.207   1.596   5.620
  850SOL    HW1 3991   1.197   1.505   5.647
  850SOL    HW2 3992   1.139   1.609   5.553
  851SOL     OW 3993   0.825   1.013   6.963
  851SOL    HW1 3994   0.867   1.007   6.877
  851SOL    HW2 3995   0.819   1.107   6.980
  852SOL     OW 3996   0.914   0.908   5.879
  852SOL    HW1 3997   0.972   0.941   5.809
  852SOL    HW2 3998   0.967   0.843   5.925
  853SOL     OW 3999   1.487   1.631   5.632
  853SOL    HW1 4000   1.394   1.620   5.615
  853SOL    HW2 4001   1.527   1.637   5.545
  854SOL     OW 4002   0.369   1.298   7.076
  854SOL    HW1 4003   0.351   1.378   7.027
  854SOL    HW2 4004   0.296   1.241   7.056
  855SOL     OW 4005   1.598   1.284   6.857
  855SOL    HW1 4006   1.675   1.277   6.913
  855SOL    HW2 4007   1.544   1.352   6.898
  856SOL     OW 4008   1.067   1.115   6.300
  856SOL    HW1 4009   0.995   1.064   6.337
  856SOL    HW2 4010   1.133   1.050   6.276
  857SOL     OW 4011   1.030   0.269   6.536
  857SOL    HW1 4012   1.004   0.217   6.459
  857SOL    HW2 4013   1.035   0.205   6.607
  858SOL     OW 4014   0.608   1.486   6.068
  858SOL    HW1 4015   0.661   1.440   6.002
  858SOL    HW2 4016   0.521   1.493   6.028
  859SOL     OW 4017   1.727   0.414   6.974
  859SOL    HW1 4018   1.799   0.477   6.982
  859SOL    HW2 4019   1.758   0.350   6.911
  860SOL     OW 4020   0.247   1.337   5.851
  860SOL    HW1 4021   0.152   1.341   5.845
  860SOL    HW2 4022   0.268   1.376   5.936
  861SOL     OW 4023   0.098   0.999   7.296
  861SOL    HW1 4024   0.065   1.086   7.319
  861SOL    HW2 4025   0.184   0.994   7.339
  862SOL     OW 4026   0.668   0.213   7.083
  862SOL    HW1 4027   0.744   0.164   7.051
  862SOL    HW2 4028   0.688   0.232   7.175
  863SOL     OW 4029   0.072   0.334   5.590
  863SOL    HW1 4030   0.020   0.385   5.651
  863SOL    HW2 4031   0.104   0.398   5.526
  864SOL     OW 4032   1.421   0.859   6.979
  864SOL    HW1 4033   1.371   0.920   6.925
  864SOL    HW2 4034   1.510   0.863   6.943
  865SOL     OW 4035   0.099   0.264   5.936
  865SOL    HW1 4036   0.074   0.218   5.856
  865SOL    HW2 4037   0.124   0.194   5.996
  866SOL     OW 4038   1.181   1.329   5.707
  866SOL    HW1 4039   1.091   1.295   5.711
  866SOL    HW2 4040   1.208   1.335   5.799
  867SOL     OW 4041   0.613   0.850   7.030
  867SOL    HW1 4042   0.671   0.925   7.016
  867SOL    HW2 4043   0.672   0.774   7.032
  868SOL     OW 4044   1.487   1.792   6.572
  868SOL    HW1 4045   1.509   1.865   6.513
  868SOL    HW2 4046   1.571   1.766   6.609
  869SOL     OW 4047   0.687   0.580   7.283
  869SOL    HW1 4048   0.747   0.631   7.337
  869SOL    HW2 4049   0.702   0.489   7.309
  870SOL     OW 4050   1.475   1.189   7.210
  870SOL    HW1 4051   1.465   1.208   7.303
  870SOL    HW2 4052   1.566   1.211   7.190
  871SOL     OW 4053   0.385   1.740   7.150
  871SOL    HW1 4054   0.297   1.769   7.129
  871SOL    HW2 4055   0.373   1.653   7.189
  872SOL     OW 4056   1.659   0.879   6.841
  872SOL    HW1 4057   1.658   0.795   6.795
  872SOL    HW2 4058   1.648   0.944   6.772
  873SOL     OW 4059   1.221   0.322   6.031
  873SOL    HW1 4060   1.288   0.254   6.020
  873SOL    HW2 4061   1.248   0.369   6.110
  874SOL     OW 4062   0.588   0.733   6.273
  874SOL    HW1 4063   0.632   0.817   6.260
  874SOL    HW2 4064   0.528   0.725   6.199
  875SOL     OW 4065   1.748   0.367   7.248
  875SOL    HW1 4066   1.746   0.385   7.154
  875SOL    HW2 4067   1.669   0.316   7.265
  876SOL     OW 4068   1.749   0.932   7.097
  876SOL    HW1 4069   1.741   1.027   7.109
  876SOL    HW2 4070   1.730   0.918   7.004
  877SOL     OW 4071   0.856   1.363   5.632
  877SOL    HW1 4072   0.826   1.389   5.719
  877SOL    HW2 4073   0.878   1.445   5.588
  878SOL     OW 4074   0.667   1.777   6.517
  878SOL    HW1 4075   0.651   1.870   6.503
  878SOL    HW2 4076   0.763   1.769   6.516
  879SOL     OW 4077   0.872   0.974   6.439
  879SOL    HW1 4078   0.923   0.903   6.476
  879SOL    HW2 4079   0.831   1.016   6.515
  880SOL     OW 4080   1.068   0.981   5.671
  880SOL    HW1 4081   1.051   1.037   5.595
  880SOL    HW2 4082   1.145   0.930   5.645
  881SOL     OW 4083   1.842   1.549   6.422
  881SOL    HW1 4084   1.762   1.541   6.370
  881SOL    HW2 4085   1.823   1.500   6.503
  882SOL     OW 4086   0.215   1.296   7.441
  882SOL    HW1 4087   0.122   1.284   7.422
  882SOL    HW2 4088   0.220   1.299   7.537
  883SOL     OW 4089   0.136   1.261   6.240
  883SOL    HW1 4090   0.061   1.215   6.276
  883SOL    HW2 4091   0.197   1.192   6.215
  884SOL     OW 4092   0.685   1.409   7.224
  884SOL    HW1 4093   0.601   1.373   7.253
  884SOL    HW2 4094   0.686   1.498   7.258
  885SOL     OW 4095   1.826   0.227   6.814
  885SOL    HW1 4096   1.783   0.141   6.824
  885SOL    HW2 4097   1.842   0.233   6.720
  886SOL     OW 4098   0.447   0.429   6.126
  886SOL    HW1 4099   0.465   0.366   6.056
  886SOL    HW2 4100   0.381   0.387   6.181
  887SOL     OW 4101   1.701   1.478   6.663
  887SOL    HW1 4102   1.618   1.462   6.618
  887SOL    HW2 4103   1.704   1.411   6.732
  888SOL     OW 4104   0.360   0.561   6.880
  888SOL    HW1 4105   0.406   0.499   6.937
  888SOL    HW2 4106   0.379   0.530   6.792
  889SOL     OW 4107   0.837   1.583   6.259
  889SOL    HW1 4108   0.814   1.653   6.198
  889SOL    HW2 4109   0.760   1.526   6.259
  890SOL     OW 4110   1.424   0.225   6.705
  890SOL    HW1 4111   1.489   0.168   6.746
  890SOL    HW2 4112   1.380   0.268   6.778
  891SOL     OW 4113   1.038   0.074   6.721
  891SOL    HW1 4114   0.980  -0.001   6.716
  891SOL    HW2 4115   1.125   0.036   6.738
  892SOL     OW 4116   0.777   1.334   5.910
  892SOL    HW1 4117   0.755   1.241   5.921
  892SOL    HW2 4118   0.858   1.345   5.960
  893SOL     OW 4119   0.622   1.558   6.874
  893SOL    HW1 4120   0.619   1.644   6.917
  893SOL    HW2 4121   0.710   1.551   6.838
  894SOL     OW 4122   1.362   7.988   5.698
  894SOL    HW1 4123   1.435   7.931   5.723
  894SOL    HW2 4124   1.294   7.970   5.762
  895SOL     OW 4125   1.286   0.464   6.256
  895SOL    HW1 4126   1.238   0.547   6.262
  895SOL    HW2 4127   1.295   0.435   6.346
  896SOL     OW 4128   1.605   0.222   6.439
  896SOL    HW1 4129   1.526   0.214   6.492
  896SOL    HW2 4130   1.594   0.305   6.392
  897SOL     OW 4131   0.043   1.036   5.860
  897SOL    HW1 4132   0.135   1.017   5.844
  897SOL    HW2 4133   0.036   1.045   5.955
  898SOL     OW 4134   0.890   1.665   5.920
  898SOL    HW1 4135   0.812   1.650   5.867
  898SOL    HW2 4136   0.865   1.735   5.980
  899SOL     OW 4137   0.239   0.701   7.533
  899SOL    HW1 4138   0.199   0.656   7.606
  899SOL    HW2 4139   0.241   0.637   7.462
  900SOL     OW 4140   0.238   0.286   8.427
  900SOL    HW1 4141   0.280   0.207   8.460
  900SOL    HW2 4142   0.145   0.264   8.422
  901SOL     OW 4143   8.000   0.374   8.049
  901SOL    HW1 4144   7.909   0.357   8.073
  901SOL    HW2 4145   8.010   0.336   7.962
  902SOL     OW 4146   0.573   1.301   8.644
  902SOL    HW1 4147   0.489   1.306   8.598
  902SOL    HW2 4148   0.589   1.390   8.675
  903SOL     OW 4149   1.578   1.513   8.155
  903SOL    HW1 4150   1.531   1.495   8.236
  903SOL    HW2 4151   1.510   1.520   8.088
  904SOL     OW 4152   1.137   0.703   8.142
  904SOL    HW1 4153   1.184   0.786   8.129
  904SOL    HW2 4154   1.088   0.716   8.223
  905SOL     OW 4155   1.789   0.598   7.671
  905SOL    HW1 4156   1.757   0.596   7.581
  905SOL    HW2 4157   1.745   0.525   7.714
  906SOL     OW 4158   0.740   1.134   8.503
  906SOL    HW1 4159   0.677   1.175   8.562
  906SOL    HW2 4160   0.781   1.207   8.457
  907SOL     OW 4161   0.882   0.752   9.268
  907SOL    HW1 4162   0.876   0.821   9.335
  907SOL    HW2 4163   0.903   0.799   9.187
  908SOL     OW 4164   0.688   0.997   8.093
  908SOL    HW1 4165   0.755   0.993   8.161
  908SOL    HW2 4166   0.620   1.054   8.129
  909SOL     OW 4167   0.716   1.152   9.274
  909SOL    HW1 4168   0.765   1.229   9.305
  909SOL    HW2 4169   0.640   1.188   9.229
  910SOL     OW 4170   0.344   1.411   8.513
  910SOL    HW1 4171   0.284   1.365   8.454
  910SOL    HW2 4172   0.391   1.472   8.456
  911SOL     OW 4173   1.462   1.492   8.816
  911SOL    HW1 4174   1.516   1.571   8.819
  911SOL    HW2 4175   1.390   1.511   8.877
  912SOL     OW 4176   0.444   0.382   8.941
  912SOL    HW1 4177   0.534   0.350   8.934
  912SOL    HW2 4178   0.392   0.304   8.957
  913SOL     OW 4179   1.602   0.459   8.167
  913SOL    HW1 4180   1.526   0.471   8.111
  913SOL    HW2 4181   1.621   0.547   8.200
  914SOL     OW 4182   0.232   1.693   7.929
  914SOL    HW1 4183   0.218   1.778   7.970
  914SOL    HW2 4184   0.300   1.710   7.863
  915SOL     OW 4185   1.138   1.343   9.144
  915SOL    HW1 4186   1.176   1.337   9.232
  915SOL    HW2 4187   1.086   1.263   9.135
  916SOL     OW 4188   0.289   1.430   7.961
  916SOL    HW1 4189   0.268   1.524   7.968
  916SOL    HW2 4190   0.237   1.389   8.030
  917SOL     OW 4191   0.280   1.084   8.350
  917SOL    HW1 4192   0.280   0.991   8.372
  917SOL    HW2 4193   0.201   1.119   8.392
  918SOL     OW 4194   0.610   1.794   8.871
  918SOL    HW1 4195   0.528   1.776   8.918
  918SOL    HW2 4196   0.633   1.883   8.898
  919SOL     OW 4197   0.571   0.993   7.593
  919SOL    HW1 4198   0.623   1.035   7.524
  919SOL    HW2 4199   0.612   1.022   7.675
  920SOL     OW 4200   1.653   0.122   8.950
  920SOL    HW1 4201   1.614   0.119   8.863
  920SOL    HW2 4202   1.588   0.166   9.004
  921SOL     OW 4203   0.139   0.619   7.997
  921SOL    HW1 4204   0.093   0.540   8.026
  921SOL    HW2 4205   0.119   0.684   8.064
  922SOL     OW 4206   1.847   1.751   7.781
  922SOL    HW1 4207   1.921   1.729   7.836
  922SOL    HW2 4208   1.862   1.842   7.756
  923SOL     OW 4209   0.019   1.583   7.588
  923SOL    HW1 4210   0.002   1.489   7.580
  923SOL    HW2 4211   0.003   1.602   7.680
  924SOL     OW 4212   1.693   0.918   8.092
  924SOL    HW1 4213   1.771   0.872   8.060
  924SOL    HW2 4214   1.667   0.974   8.020
  925SOL     OW 4215   1.651   1.105   7.884
  925SOL    HW1 4216   1.736   1.103   7.842
  925SOL    HW2 4217   1.661   1.167   7.956
  926SOL     OW 4218   0.147   0.756   9.036
  926SOL    HW1 4219   0.242   0.763   9.028
  926SOL    HW2 4220   0.120   0.838   9.078
  927SOL     OW 4221   0.614   1.391   8.189
  927SOL    HW1 4222   0.570   1.306   8.192
  927SOL    HW2 4223   0.603   1.421   8.099
  928SOL     OW 4224   1.270   1.230   8.882
  928SOL    HW1 4225   1.306   1.179   8.809
  928SOL    HW2 4226   1.341   1.236   8.945
  929SOL     OW 4227   0.843   0.034   8.013
  929SOL    HW1 4228   0.880   0.114   7.975
  929SOL    HW2 4229   0.751   0.035   7.987
  930SOL     OW 4230   0.160   0.901   8.719
  930SOL    HW1 4231   0.254   0.882   8.716
  930SOL    HW2 4232   0.135   0.910   8.627
  931SOL     OW 4233   1.530   1.006   7.651
  931SOL    HW1 4234   1.462   0.947   7.685
  931SOL    HW2 4235   1.574   1.039   7.729
  932SOL     OW 4236   1.178   1.819   9.079
  932SOL    HW1 4237   1.183   1.887   9.012
  932SOL    HW2 4238   1.205   1.739   9.035
  933SOL     OW 4239   0.325   0.241   9.213
  933SOL    HW1 4240   0.387   0.303   9.251
  933SOL    HW2 4241   0.244   0.255   9.262
  934SOL     OW 4242   1.474   1.412   8.401
  934SOL    HW1 4243   1.402   1.434   8.460
  934SOL    HW2 4244   1.451   1.327   8.365
  935SOL     OW 4245   1.651   1.764   8.024
  935SOL    HW1 4246   1.638   1.731   7.935
  935SOL    HW2 4247   1.636   1.688   8.081
  936SOL     OW 4248   0.593   0.719   7.717
  936SOL    HW1 4249   0.595   0.804   7.674
  936SOL    HW2 4250   0.532   0.729   7.789
  937SOL     OW 4251   1.298   0.378   8.382
  937SOL    HW1 4252   1.207   0.349   8.386
  937SOL    HW2 4253   1.343   0.322   8.445
  938SOL     OW 4254   1.581   1.670   7.761
  938SOL    HW1 4255   1.673   1.695   7.752
  938SOL    HW2 4256   1.552   1.656   7.671
  939SOL     OW 4257   0.774   0.644   8.897
  939SOL    HW1 4258   0.759   0.608   8.984
  939SOL    HW2 4259   0.766   0.569   8.838
  940SOL     OW 4260   1.409   0.482   9.131
  940SOL    HW1 4261   1.415   0.525   9.217
  940SOL    HW2 4262   1.457   0.400   9.141
  941SOL     OW 4263   0.956   0.885   9.030
  941SOL    HW1 4264   0.998   0.809   8.991
  941SOL    HW2 4265   0.905   0.923   8.959
  942SOL     OW 4266   1.006   0.414   8.658
  942SOL    HW1 4267   0.918   0.431   8.689
  942SOL    HW2 4268   0.995   0.377   8.571
  943SOL     OW 4269   1.055   0.697   7.873
  943SOL    HW1 4270   1.073   0.691   7.967
  943SOL    HW2 4271   0.970   0.652   7.863
  944SOL     OW 4272   0.093   0.789   8.215
  944SOL    HW1 4273   0.171   0.804   8.268
  944SOL    HW2 4274   0.052   0.875   8.208
  945SOL     OW 4275   0.123   1.814   9.012
  945SOL    HW1 4276   0.125   1.809   9.107
  945SOL    HW2 4277   0.033   1.793   8.988
  946SOL     OW 4278   0.895   0.346   7.643
  946SOL    HW1 4279   0.945   0.402   7.584
  946SOL    HW2 4280   0.927   0.257   7.625
  947SOL     OW 4281   1.702   0.583   9.277
  947SOL    HW1 4282   1.663   0.652   9.224
  947SOL    HW2 4283   1.724   0.514   9.214
  948SOL     OW 4284   1.380   1.141   7.978
  948SOL    HW1 4285   1.461   1.132   7.928
  948SOL    HW2 4286   1.329   1.205   7.930
  949SOL     OW 4287   0.549   0.203   8.387
  949SOL    HW1 4288   0.535   0.281   8.441
  949SOL    HW2 4289   0.574   0.237   8.302
  950SOL     OW 4290   0.996   1.448   7.914
  950SOL    HW1 4291   0.969   1.522   7.860
  950SOL    HW2 4292   0.969   1.471   8.002
  951SOL     OW 4293   0.363   1.828   8.314
  951SOL    HW1 4294   0.410   1.746   8.325
  951SOL    HW2 4295   0.429   1.896   8.331
  952SOL     OW 4296   1.799   1.036   8.333
  952SOL    HW1 4297   1.760   1.029   8.246
  952SOL    HW2 4298   1.726   1.056   8.391
  953SOL     OW 4299   1.227   1.541   8.960
  953SOL    HW1 4300   1.211   1.468   9.020
  953SOL    HW2 4301   1.148   1.545   8.906
  954SOL     OW 4302   0.305   0.943   7.683
  954SOL    HW1 4303   0.391   0.970   7.652
  954SOL    HW2 4304   0.283   0.866   7.631
  955SOL     OW 4305   1.481   0.761   8.173
  955SOL    HW1 4306   1.482   0.719   8.259
  955SOL    HW2 4307   1.562   0.812   8.170
  956SOL     OW 4308   0.466   1.265   9.189
  956SOL    HW1 4309   0.444   1.271   9.096
  956SOL    HW2 4310   0.382   1.252   9.233
  957SOL     OW 4311   1.126   1.775   7.676
  957SOL    HW1 4312   1.047   1.738   7.715
  957SOL    HW2 4313   1.151   1.713   7.608
  958SOL     OW 4314   0.164   0.271   8.948
  958SOL    HW1 4315   0.155   0.365   8.934
  958SOL    HW2 4316   0.187   0.262   9.041
  959SOL     OW 4317   1.626   1.382   7.549
  959SOL    HW1 4318   1.589   1.468   7.529
  959SOL    HW2 4319   1.559   1.320   7.519
  960SOL     OW 4320   0.457   1.745   7.761
  960SOL    HW1 4321   0.505   1.796   7.825
  960SOL    HW2 4322   0.525   1.705   7.706
  961SOL     OW 4323   1.421   0.132   7.861
  961SOL    HW1 4324   1.437   0.110   7.769
  961SOL    HW2 4325   1.509   0.142   7.899
  962SOL     OW 4326   0.230   1.783   8.669
  962SOL    HW1 4327   0.284   1.709   8.698
  962SOL    HW2 4328   0.201   1.759   8.581
  963SOL     OW 4329   0.945   1.699   8.342
  963SOL    HW1 4330   1.030   1.657   8.355
  963SOL    HW2 4331   0.904   1.649   8.271
  964SOL     OW 4332   0.412   0.690   7.929
  964SOL    HW1 4333   0.433   0.599   7.947
  964SOL    HW2 4334   0.317   0.695   7.940
  965SOL     OW 4335   1.516   0.228   9.171
  965SOL    HW1 4336   1.535   0.246   9.263
  965SOL    HW2 4337   1.472   0.143   9.172
  966SOL     OW 4338   0.567   0.114   7.564
  966SOL    HW1 4339   0.653   0.085   7.596
  966SOL    HW2 4340   0.559   0.074   7.478
  967SOL     OW 4341   0.728   0.298   9.220
  967SOL    HW1 4342   0.804   0.240   9.224
  967SOL    HW2 4343   0.674   0.272   9.295
  968SOL     OW 4344   0.872   1.521   8.641
  968SOL    HW1 4345   0.855   1.485   8.554
  968SOL    HW2 4346   0.943   1.467   8.677
  969SOL     OW 4347   1.333   0.587   8.895
  969SOL    HW1 4348   1.367   0.549   8.976
  969SOL    HW2 4349   1.386   0.666   8.882
  970SOL     OW 4350   0.821   1.380   8.396
  970SOL    HW1 4351   0.908   1.374   8.356
  970SOL    HW2 4352   0.761   1.394   8.323
  971SOL     OW 4353   0.922   0.522   8.339
  971SOL    HW1 4354   0.896   0.514   8.247
  971SOL    HW2 4355   0.961   0.437   8.359
  972SOL     OW 4356   0.597   0.039   7.886
  972SOL    HW1 4357   0.522  -0.010   7.920
  972SOL    HW2 4358   0.561   0.125   7.866
  973SOL     OW 4359   1.427   1.203   7.482
  973SOL    HW1 4360   1.456   1.129   7.536
  973SOL    HW2 4361   1.342   1.228   7.520
  974SOL     OW 4362   0.296   0.039   7.625
  974SOL    HW1 4363   0.380   0.079   7.605
  974SOL    HW2 4364   0.311  -0.007   7.708
  975SOL     OW 4365   0.947   0.265   7.908
  975SOL    HW1 4366   0.917   0.295   7.823
  975SOL    HW2 4367   1.042   0.279   7.907
  976SOL     OW 4368   1.071   0.668   8.911
  976SOL    HW1 4369   1.012   0.595   8.923
  976SOL    HW2 4370   1.158   0.628   8.906
  977SOL     OW 4371   1.215   1.585   8.250
  977SOL    HW1 4372   1.225   1.641   8.173
  977SOL    HW2 4373   1.281   1.616   8.312
  978SOL     OW 4374   0.473   1.153   8.171
  978SOL    HW1 4375   0.410   1.133   8.240
  978SOL    HW2 4376   0.426   1.138   8.089
  979SOL     OW 4377   1.259   1.792   8.062
  979SOL    HW1 4378   1.312   1.852   8.009
  979SOL    HW2 4379   1.192   1.849   8.101
  980SOL     OW 4380   1.026   0.523   7.472
  980SOL    HW1 4381   0.983   0.606   7.453
  980SOL    HW2 4382   1.088   0.544   7.542
  981SOL     OW 4383   0.108   0.553   8.850
  981SOL    HW1 4384   0.196   0.555   8.813
  981SOL    HW2 4385   0.104   0.630   8.907
  982SOL     OW 4386   0.560   0.253   8.673
  982SOL    HW1 4387   0.607   0.185   8.722
  982SOL    HW2 4388   0.468   0.228   8.680
  983SOL     OW 4389   0.864   0.474   8.078
  983SOL    HW1 4390   0.829   0.524   8.005
  983SOL    HW2 4391   0.886   0.388   8.040
  984SOL     OW 4392   0.950   0.037   8.258
  984SOL    HW1 4393   0.910   0.041   8.172
  984SOL    HW2 4394   0.996  -0.047   8.259
  985SOL     OW 4395   1.446   1.160   8.291
  985SOL    HW1 4396   1.370   1.111   8.260
  985SOL    HW2 4397   1.499   1.175   8.212
  986SOL     OW 4398   1.463   0.615   8.413
  986SOL    HW1 4399   1.412   0.535   8.404
  986SOL    HW2 4400   1.523   0.598   8.486
  987SOL     OW 4401   1.832   0.805   7.842
  987SOL    HW1 4402   1.897   0.760   7.896
  987SOL    HW2 4403   1.816   0.746   7.769
  988SOL     OW 4404   0.491   1.418   7.589
  988SOL    HW1 4405   0.411   1.389   7.633
  988SOL    HW2 4406   0.492   1.370   7.506
  989SOL     OW 4407   1.677   1.252   8.113
  989SOL    HW1 4408   1.773   1.247   8.119
  989SOL    HW2 4409   1.658   1.345   8.119
  990SOL     OW 4410   1.396   0.577   7.519
  990SOL    HW1 4411   1.332   0.555   7.586
  990SOL    HW2 4412   1.481   0.557   7.559
  991SOL     OW 4413   0.505   0.277   7.769
  991SOL    HW1 4414   0.532   0.218   7.699
  991SOL    HW2 4415   0.492   0.361   7.726
  992SOL     OW 4416   1.758   1.243   9.029
  992SOL    HW1 4417   1.843   1.215   8.996
  992SOL    HW2 4418   1.770   1.336   9.050
  993SOL     OW 4419   1.046   1.350   8.778
  993SOL    HW1 4420   0.967   1.324   8.825
  993SOL    HW2 4421   1.117   1.310   8.828
  994SOL     OW 4422   1.608   1.623   9.105
  994SOL    HW1 4423   1.598   1.662   9.019
  994SOL    HW2 4424   1.693   1.578   9.102
  995SOL     OW 4425   1.146   1.213   8.556
  995SOL    HW1 4426   1.080   1.248   8.615
  995SOL    HW2 4427   1.121   1.247   8.470
  996SOL     OW 4428   1.604   1.107   8.510
  996SOL    HW1 4429   1.586   1.175   8.574
  996SOL    HW2 4430   1.539   1.121   8.442
  997SOL     OW 4431   0.915   0.122   8.849
  997SOL    HW1 4432   0.928   0.107   8.756
  997SOL    HW2 4433   1.004   0.125   8.885
  998SOL     OW 4434   0.986   1.113   9.173
  998SOL    HW1 4435   0.896   1.133   9.199
  998SOL    HW2 4436   0.978   1.036   9.117
  999SOL     OW 4437   0.710   1.061   7.822
  999SOL    HW1 4438   0.698   1.040   7.915
  999SOL    HW2 4439   0.786   1.009   7.795
 1000SOL     OW 4440   0.422   0.821   8.703
 1000SOL    HW1 4441   0.488   0.840   8.769
 1000SOL    HW2 4442   0.401   0.729   8.715
 1001SOL     OW 4443   1.262   0.374   8.739
 1001SOL    HW1 4444   1.292   0.456   8.779
 1001SOL    HW2 4445   1.176   0.395   8.703
 1002SOL     OW 4446   0.047   1.591   8.774
 1002SOL    HW1 4447   0.097   1.669   8.750
 1002SOL    HW2 4448   0.092   1.557   8.851
 1003SOL     OW 4449   0.323   1.110   7.937
 1003SOL    HW1 4450   0.335   1.185   7.880
 1003SOL    HW2 4451   0.330   1.034   7.879
 1004SOL     OW 4452   0.546   0.537   8.315
 1004SOL    HW1 4453   0.560   0.594   8.240
 1004SOL    HW2 4454   0.619   0.556   8.374
 1005SOL     OW 4455   1.245   1.352   7.841
 1005SOL    HW1 4456   1.302   1.423   7.871
 1005SOL    HW2 4457   1.158   1.376   7.873
 1006SOL     OW 4458   1.293   1.468   8.599
 1006SOL    HW1 4459   1.348   1.473   8.678
 1006SOL    HW2 4460   1.230   1.399   8.619
 1007SOL     OW 4461   1.574   0.634   7.929
 1007SOL    HW1 4462   1.519   0.684   7.990
 1007SOL    HW2 4463   1.628   0.700   7.886
 1008SOL     OW 4464   0.347   1.531   8.757
 1008SOL    HW1 4465   0.333   1.484   8.675
 1008SOL    HW2 4466   0.442   1.543   8.761
 1009SOL     OW 4467   0.432   0.730   9.064
 1009SOL    HW1 4468   0.483   0.783   9.003
 1009SOL    HW2 4469   0.494   0.664   9.096
 1010SOL     OW 4470   1.597   0.790   9.127
 1010SOL    HW1 4471   1.508   0.823   9.113
 1010SOL    HW2 4472   1.650   0.836   9.061
 1011SOL     OW 4473   1.045   0.068   9.194
 1011SOL    HW1 4474   1.062   0.159   9.168
 1011SOL    HW2 4475   0.951   0.056   9.180
 1012SOL     OW 4476   0.507   0.030   9.179
 1012SOL    HW1 4477   0.483  -0.031   9.110
 1012SOL    HW2 4478   0.434   0.092   9.183
 1013SOL     OW 4479   0.594   0.876   8.484
 1013SOL    HW1 4480   0.627   0.966   8.484
 1013SOL    HW2 4481   0.531   0.873   8.557
 1014SOL     OW 4482   1.336   0.848   8.492
 1014SOL    HW1 4483   1.257   0.844   8.438
 1014SOL    HW2 4484   1.384   0.768   8.469
 1015SOL     OW 4485   1.193   0.532   7.700
 1015SOL    HW1 4486   1.202   0.448   7.746
 1015SOL    HW2 4487   1.153   0.591   7.764
 1016SOL     OW 4488   0.297   0.191   8.717
 1016SOL    HW1 4489   0.250   0.227   8.792
 1016SOL    HW2 4490   0.231   0.143   8.667
 1017SOL     OW 4491   0.050   1.305   8.720
 1017SOL    HW1 4492   0.077   1.258   8.799
 1017SOL    HW2 4493   0.053   1.397   8.745
 1018SOL     OW 4494   0.724   0.631   8.504
 1018SOL    HW1 4495   0.797   0.618   8.444
 1018SOL    HW2 4496   0.693   0.720   8.486
 1019SOL     OW 4497   1.734   0.959   9.308
 1019SOL    HW1 4498   1.687   0.889   9.262
 1019SOL    HW2 4499   1.677   0.982   9.381
 1020SOL     OW 4500   0.405   0.091   8.115
 1020SOL    HW1 4501   0.348   0.167   8.129
 1020SOL    HW2 4502   0.354   0.033   8.059
 1021SOL     OW 4503   1.627   0.403   7.796
 1021SOL    HW1 4504   1.642   0.330   7.856
 1021SOL    HW2 4505   1.600   0.476   7.852
 1022SOL     OW 4506   1.027   0.764   8.405
 1022SOL    HW1 4507   1.019   0.775   8.499
 1022SOL    HW2 4508   0.997   0.674   8.389
 1023SOL     OW 4509   0.980   1.565   9.172
 1023SOL    HW1 4510   0.964   1.609   9.089
 1023SOL    HW2 4511   1.025   1.484   9.148
 1024SOL     OW 4512   1.852   1.502   9.046
 1024SOL    HW1 4513   1.873   1.531   8.957
 1024SOL    HW2 4514   1.932   1.518   9.096
 1025SOL     OW 4515   0.360   0.946   9.238
 1025SOL    HW1 4516   0.435   0.964   9.294
 1025SOL    HW2 4517   0.384   0.865   9.192
 1026SOL     OW 4518   1.546   0.266   7.573
 1026SOL    HW1 4519   1.584   0.182   7.599
 1026SOL    HW2 4520   1.570   0.326   7.644
 1027SOL     OW 4521   1.286   0.827   7.475
 1027SOL    HW1 4522   1.329   0.741   7.479
 1027SOL    HW2 4523   1.319   0.865   7.393
 1028SOL     OW 4524   1.080   1.344   8.316
 1028SOL    HW1 4525   1.083   1.274   8.250
 1028SOL    HW2 4526   1.132   1.415   8.277
 1029SOL     OW 4527   0.318   0.808   8.383
 1029SOL    HW1 4528   0.411   0.825   8.372
 1029SOL    HW2 4529   0.313   0.721   8.422
 1030SOL     OW 4530   0.331   0.533   8.470
 1030SOL    HW1 4531   0.297   0.445   8.453
 1030SOL    HW2 4532   0.407   0.539   8.413
 1031SOL     OW 4533   1.165   0.358   9.159
 1031SOL    HW1 4534   1.102   0.415   9.202
 1031SOL    HW2 4535   1.242   0.413   9.146
 1032SOL     OW 4536   1.164   0.211   8.930
 1032SOL    HW1 4537   1.172   0.264   9.009
 1032SOL    HW2 4538   1.200   0.266   8.860
 1033SOL     OW 4539   7.981   1.303   7.651
 1033SOL    HW1 4540   7.891   1.320   7.678
 1033SOL    HW2 4541   7.992   1.209   7.662
 1034SOL     OW 4542   0.120   1.742   8.400
 1034SOL    HW1 4543   0.106   1.680   8.329
 1034SOL    HW2 4544   0.197   1.792   8.373
 1035SOL     OW 4545   0.492   1.577   8.354
 1035SOL    HW1 4546   0.561   1.639   8.377
 1035SOL    HW2 4547   0.534   1.515   8.295
 1036SOL     OW 4548   0.970   0.778   8.673
 1036SOL    HW1 4549   1.025   0.751   8.747
 1036SOL    HW2 4550   0.882   0.749   8.697
 1037SOL     OW 4551   0.071   0.553   8.573
 1037SOL    HW1 4552   0.164   0.553   8.549
 1037SOL    HW2 4553   0.070   0.546   8.668
 1038SOL     OW 4554   0.213   0.512   9.138
 1038SOL    HW1 4555   0.298   0.501   9.095
 1038SOL    HW2 4556   0.183   0.599   9.111
 1039SOL     OW 4557   1.369   0.937   9.070
 1039SOL    HW1 4558   1.407   1.024   9.078
 1039SOL    HW2 4559   1.277   0.953   9.047
 1040SOL     OW 4560   0.815   0.570   7.815
 1040SOL    HW1 4561   0.822   0.497   7.753
 1040SOL    HW2 4562   0.742   0.623   7.781
 1041SOL     OW 4563   1.640   0.597   8.626
 1041SOL    HW1 4564   1.636   0.538   8.701
 1041SOL    HW2 4565   1.728   0.584   8.590
 1042SOL     OW 4566   0.293   1.531   9.169
 1042SOL    HW1 4567   0.255   1.605   9.217
 1042SOL    HW2 4568   0.282   1.456   9.227
 1043SOL     OW 4569   0.736   0.455   8.709
 1043SOL    HW1 4570   0.673   0.385   8.696
 1043SOL    HW2 4571   0.722   0.515   8.636
 1044SOL     OW 4572   0.928   1.672   8.917
 1044SOL    HW1 4573   0.895   1.634   8.836
 1044SOL    HW2 4574   0.923   1.767   8.904
 1045SOL     OW 4575   0.461   0.495   7.617
 1045SOL    HW1 4576   0.512   0.574   7.634
 1045SOL    HW2 4577   0.374   0.515   7.651
 1046SOL     OW 4578   0.158   1.116   8.903
 1046SOL    HW1 4579   0.136   1.073   8.985
 1046SOL    HW2 4580   0.159   1.045   8.838
 1047SOL     OW 4581   1.336   1.052   8.669
 1047SOL    HW1 4582   1.341   0.976   8.611
 1047SOL    HW2 4583   1.269   1.108   8.630
 1048SOL     OW 4584   1.318   0.854   7.750
 1048SOL    HW1 4585   1.243   0.820   7.799
 1048SOL    HW2 4586   1.294   0.843   7.658
 1049SOL     OW 4587   1.776   1.735   8.603
 1049SOL    HW1 4588   1.841   1.766   8.540
 1049SOL    HW2 4589   1.754   1.646   8.575
 1050SOL     OW 4590   1.240   1.734   8.542
 1050SOL    HW1 4591   1.324   1.763   8.506
 1050SOL    HW2 4592   1.254   1.642   8.565
 1051SOL     OW 4593   0.055   1.190   8.478
 1051SOL    HW1 4594   0.058   1.230   8.565
 1051SOL    HW2 4595  -0.006   1.245   8.429
 1052SOL     OW 4596   0.680   1.675   9.193
 1052SOL    HW1 4597   0.616   1.746   9.185
 1052SOL    HW2 4598   0.748   1.697   9.130
 1053SOL     OW 4599   1.691   0.167   7.932
 1053SOL    HW1 4600   1.752   0.153   7.860
 1053SOL    HW2 4601   1.736   0.133   8.009
 1054SOL     OW 4602   1.396   1.568   7.943
 1054SOL    HW1 4603   1.455   1.601   7.875
 1054SOL    HW2 4604   1.345   1.645   7.969
 1055SOL     OW 4605   0.176   1.740   9.291
 1055SOL    HW1 4606   0.109   1.695   9.342
 1055SOL    HW2 4607   0.217   1.801   9.352
 1056SOL     OW 4608   1.279   0.938   8.124
 1056SOL    HW1 4609   1.352   0.877   8.135
 1056SOL    HW2 4610   1.312   1.003   8.062
 1057SOL     OW 4611   0.795   1.284   8.871
 1057SOL    HW1 4612   0.767   1.326   8.953
 1057SOL    HW2 4613   0.724   1.302   8.810
 1058SOL     OW 4614   0.665   1.627   7.606
 1058SOL    HW1 4615   0.680   1.644   7.513
 1058SOL    HW2 4616   0.610   1.549   7.608
 1059SOL     OW 4617   1.614   1.723   8.835
 1059SOL    HW1 4618   1.671   1.730   8.758
 1059SOL    HW2 4619   1.600   1.814   8.862
 1060SOL     OW 4620   1.852   0.176   8.404
 1060SOL    HW1 4621   1.872   0.098   8.353
 1060SOL    HW2 4622   1.766   0.204   8.373
 1061SOL     OW 4623   0.256   0.319   8.153
 1061SOL    HW1 4624   0.168   0.349   8.127
 1061SOL    HW2 4625   0.254   0.322   8.249
 1062SOL     OW 4626   1.208   1.598   7.482
 1062SOL    HW1 4627   1.197   1.506   7.505
 1062SOL    HW2 4628   1.143   1.613   7.413
 1063SOL     OW 4629   0.824   1.016   8.826
 1063SOL    HW1 4630   0.855   1.010   8.735
 1063SOL    HW2 4631   0.816   1.109   8.843
 1064SOL     OW 4632   0.918   0.910   7.746
 1064SOL    HW1 4633   0.974   0.941   7.674
 1064SOL    HW2 4634   0.970   0.842   7.789
 1065SOL     OW 4635   1.489   1.630   7.496
 1065SOL    HW1 4636   1.395   1.620   7.478
 1065SOL    HW2 4637   1.528   1.637   7.409
 1066SOL     OW 4638   0.370   1.298   8.938
 1066SOL    HW1 4639   0.352   1.377   8.887
 1066SOL    HW2 4640   0.297   1.240   8.918
 1067SOL     OW 4641   1.584   1.253   8.755
 1067SOL    HW1 4642   1.677   1.274   8.763
 1067SOL    HW2 4643   1.539   1.334   8.779
 1068SOL     OW 4644   1.067   1.118   8.168
 1068SOL    HW1 4645   0.993   1.067   8.201
 1068SOL    HW2 4646   1.131   1.052   8.140
 1069SOL     OW 4647   1.036   0.271   8.399
 1069SOL    HW1 4648   1.009   0.218   8.324
 1069SOL    HW2 4649   1.041   0.209   8.472
 1070SOL     OW 4650   0.612   1.489   7.936
 1070SOL    HW1 4651   0.662   1.441   7.871
 1070SOL    HW2 4652   0.529   1.510   7.892
 1071SOL     OW 4653   1.730   0.422   8.832
 1071SOL    HW1 4654   1.807   0.478   8.838
 1071SOL    HW2 4655   1.757   0.349   8.776
 1072SOL     OW 4656   0.250   1.334   7.715
 1072SOL    HW1 4657   0.154   1.339   7.708
 1072SOL    HW2 4658   0.269   1.375   7.799
 1073SOL     OW 4659   0.099   0.997   9.157
 1073SOL    HW1 4660   0.064   1.083   9.182
 1073SOL    HW2 4661   0.185   0.993   9.201
 1074SOL     OW 4662   0.680   0.232   8.950
 1074SOL    HW1 4663   0.751   0.174   8.922
 1074SOL    HW2 4664   0.695   0.245   9.044
 1075SOL     OW 4665   0.072   0.339   7.444
 1075SOL    HW1 4666   0.020   0.388   7.507
 1075SOL    HW2 4667   0.112   0.406   7.388
 1076SOL     OW 4668   0.095   0.262   7.801
 1076SOL    HW1 4669   0.067   0.217   7.721
 1076SOL    HW2 4670   0.123   0.192   7.860
 1077SOL     OW 4671   1.179   1.329   7.566
 1077SOL    HW1 4672   1.086   1.306   7.566
 1077SOL    HW2 4673   1.202   1.332   7.659
 1078SOL     OW 4674   0.611   0.852   8.892
 1078SOL    HW1 4675   0.669   0.926   8.877
 1078SOL    HW2 4676   0.670   0.776   8.895
 1079SOL     OW 4677   1.486   1.789   8.428
 1079SOL    HW1 4678   1.502   1.862   8.368
 1079SOL    HW2 4679   1.572   1.770   8.466
 1080SOL     OW 4680   0.693   0.571   9.150
 1080SOL    HW1 4681   0.752   0.623   9.204
 1080SOL    HW2 4682   0.710   0.481   9.177
 1081SOL     OW 4683   1.486   1.183   9.065
 1081SOL    HW1 4684   1.465   1.202   9.157
 1081SOL    HW2 4685   1.577   1.212   9.055
 1082SOL     OW 4686   0.385   1.739   9.011
 1082SOL    HW1 4687   0.296   1.770   8.990
 1082SOL    HW2 4688   0.371   1.653   9.050
 1083SOL     OW 4689   1.645   0.871   8.669
 1083SOL    HW1 4690   1.648   0.778   8.649
 1083SOL    HW2 4691   1.658   0.914   8.584
 1084SOL     OW 4692   1.216   0.321   7.900
 1084SOL    HW1 4693   1.283   0.254   7.884
 1084SOL    HW2 4694   1.249   0.371   7.975
 1085SOL     OW 4695   0.587   0.740   8.135
 1085SOL    HW1 4696   0.632   0.823   8.118
 1085SOL    HW2 4697   0.528   0.729   8.060
 1086SOL     OW 4698   1.744   0.377   9.104
 1086SOL    HW1 4699   1.740   0.390   9.010
 1086SOL    HW2 4700   1.672   0.317   9.123
 1087SOL     OW 4701   1.706   0.971   8.947
 1087SOL    HW1 4702   1.739   1.043   9.000
 1087SOL    HW2 4703   1.783   0.940   8.898
 1088SOL     OW 4704   0.870   1.365   7.498
 1088SOL    HW1 4705   0.827   1.399   7.577
 1088SOL    HW2 4706   0.885   1.442   7.444
 1089SOL     OW 4707   0.669   1.778   8.385
 1089SOL    HW1 4708   0.651   1.871   8.366
 1089SOL    HW2 4709   0.765   1.771   8.377
 1090SOL     OW 4710   0.870   0.976   8.303
 1090SOL    HW1 4711   0.921   0.902   8.337
 1090SOL    HW2 4712   0.830   1.016   8.380
 1091SOL     OW 4713   1.068   0.978   7.534
 1091SOL    HW1 4714   1.051   1.036   7.460
 1091SOL    HW2 4715   1.146   0.929   7.509
 1092SOL     OW 4716   1.842   1.550   8.282
 1092SOL    HW1 4717   1.766   1.545   8.224
 1092SOL    HW2 4718   1.811   1.513   8.364
 1093SOL     OW 4719   0.215   1.296   9.304
 1093SOL    HW1 4720   0.122   1.283   9.286
 1093SOL    HW2 4721   0.221   1.299   9.400
 1094SOL     OW 4722   0.134   1.258   8.109
 1094SOL    HW1 4723   0.061   1.205   8.142
 1094SOL    HW2 4724   0.195   1.194   8.073
 1095SOL     OW 4725   0.687   1.409   9.090
 1095SOL    HW1 4726   0.602   1.374   9.115
 1095SOL    HW2 4727   0.685   1.499   9.122
 1096SOL     OW 4728   1.834   0.225   8.677
 1096SOL    HW1 4729   1.777   0.149   8.692
 1096SOL    HW2 4730   1.848   0.225   8.583
 1097SOL     OW 4731   0.452   0.429   7.992
 1097SOL    HW1 4732   0.460   0.369   7.918
 1097SOL    HW2 4733   0.382   0.393   8.046
 1098SOL     OW 4734   1.710   1.483   8.521
 1098SOL    HW1 4735   1.626   1.459   8.482
 1098SOL    HW2 4736   1.726   1.416   8.587
 1099SOL     OW 4737   0.355   0.557   8.746
 1099SOL    HW1 4738   0.403   0.495   8.801
 1099SOL    HW2 4739   0.372   0.528   8.657
 1100SOL     OW 4740   0.836   1.589   8.115
 1100SOL    HW1 4741   0.824   1.666   8.059
 1100SOL    HW2 4742   0.758   1.536   8.100
 1101SOL     OW 4743   1.424   0.225   8.570
 1101SOL    HW1 4744   1.490   0.172   8.614
 1101SOL    HW2 4745   1.375   0.267   8.641
 1102SOL     OW 4746   1.014   0.076   8.585
 1102SOL    HW1 4747   0.931   0.048   8.548
 1102SOL    HW2 4748   1.061  -0.005   8.604
 1103SOL     OW 4749   0.772   1.333   7.778
 1103SOL    HW1 4750   0.750   1.240   7.784
 1103SOL    HW2 4751   0.857   1.340   7.821
 1104SOL     OW 4752   0.622   1.556   8.739
 1104SOL    HW1 4753   0.621   1.640   8.784
 1104SOL    HW2 4754   0.708   1.551   8.699
 1105SOL     OW 4755   1.370   7.994   7.552
 1105SOL    HW1 4756   1.419   7.918   7.582
 1105SOL    HW2 4757   1.289   7.994   7.604
 1106SOL     OW 4758   1.297   0.468   8.119
 1106SOL    HW1 4759   1.244   0.548   8.123
 1106SOL    HW2 4760   1.299   0.437   8.210
 1107SOL     OW 4761   1.610   0.231   8.315
 1107SOL    HW1 4762   1.523   0.212   8.351
 1107SOL    HW2 4763   1.596   0.309   8.260
 1108SOL     OW 4764   0.046   1.038   7.718
 1108SOL    HW1 4765   0.138   1.016   7.701
 1108SOL    HW2 4766   0.039   1.040   7.813
 1109SOL     OW 4767   0.888   1.664   7.781
 1109SOL    HW1 4768   0.811   1.650   7.726
 1109SOL    HW2 4769   0.862   1.736   7.839
 1110SOL     OW 4770   0.235   0.700   9.393
 1110SOL    HW1 4771   0.189   0.655   9.464
 1110SOL    HW2 4772   0.254   0.631   9.330
 1111SOL     OW 4773   0.237   0.284  10.288
 1111SOL    HW1 4774   0.275   0.203  10.322
 1111SOL    HW2 4775   0.143   0.265  10.280
 1112SOL     OW 4776   8.001   0.378   9.911
 1112SOL    HW1 4777   7.910   0.361   9.935
 1112SOL    HW2 4778   8.012   0.337   9.825
 1113SOL     OW 4779   0.571   1.300  10.504
 1113SOL    HW1 4780   0.487   1.306  10.458
 1113SOL    HW2 4781   0.587   1.389  10.537
 1114SOL     OW 4782   1.579   1.515  10.016
 1114SOL    HW1 4783   1.533   1.493  10.096
 1114SOL    HW2 4784   1.511   1.521   9.949
 1115SOL     OW 4785   1.136   0.702  10.006
 1115SOL    HW1 4786   1.183   0.784   9.991
 1115SOL    HW2 4787   1.087   0.716  10.087
 1116SOL     OW 4788   1.795   0.597   9.529
 1116SOL    HW1 4789   1.760   0.596   9.439
 1116SOL    HW2 4790   1.749   0.525   9.572
 1117SOL     OW 4791   0.737   1.133  10.362
 1117SOL    HW1 4792   0.675   1.175  10.422
 1117SOL    HW2 4793   0.779   1.207  10.317
 1118SOL     OW 4794   0.885   0.762  11.142
 1118SOL    HW1 4795   0.832   0.827  11.189
 1118SOL    HW2 4796   0.899   0.801  11.056
 1119SOL     OW 4797   0.688   0.997   9.955
 1119SOL    HW1 4798   0.756   0.993  10.023
 1119SOL    HW2 4799   0.621   1.054   9.992
 1120SOL     OW 4800   0.715   1.153  11.136
 1120SOL    HW1 4801   0.762   1.231  11.166
 1120SOL    HW2 4802   0.637   1.187  11.092
 1121SOL     OW 4803   0.342   1.412  10.373
 1121SOL    HW1 4804   0.286   1.363  10.313
 1121SOL    HW2 4805   0.391   1.472  10.317
 1122SOL     OW 4806   1.459   1.503  10.678
 1122SOL    HW1 4807   1.514   1.581  10.685
 1122SOL    HW2 4808   1.389   1.517  10.742
 1123SOL     OW 4809   0.447   0.380  10.806
 1123SOL    HW1 4810   0.536   0.343  10.811
 1123SOL    HW2 4811   0.392   0.305  10.783
 1124SOL     OW 4812   1.605   0.461  10.033
 1124SOL    HW1 4813   1.535   0.478   9.970
 1124SOL    HW2 4814   1.610   0.541  10.085
 1125SOL     OW 4815   0.234   1.693   9.791
 1125SOL    HW1 4816   0.221   1.778   9.833
 1125SOL    HW2 4817   0.300   1.709   9.724
 1126SOL     OW 4818   1.137   1.339  11.004
 1126SOL    HW1 4819   1.182   1.331  11.088
 1126SOL    HW2 4820   1.086   1.258  10.996
 1127SOL     OW 4821   0.288   1.430   9.823
 1127SOL    HW1 4822   0.268   1.523   9.830
 1127SOL    HW2 4823   0.236   1.390   9.893
 1128SOL     OW 4824   0.279   1.085  10.213
 1128SOL    HW1 4825   0.279   0.992  10.234
 1128SOL    HW2 4826   0.199   1.118  10.255
 1129SOL     OW 4827   0.605   1.799  10.727
 1129SOL    HW1 4828   0.527   1.778  10.778
 1129SOL    HW2 4829   0.632   1.885  10.757
 1130SOL     OW 4830   0.572   0.994   9.456
 1130SOL    HW1 4831   0.623   1.036   9.387
 1130SOL    HW2 4832   0.613   1.023   9.537
 1131SOL     OW 4833   1.649   0.129  10.812
 1131SOL    HW1 4834   1.649   0.184  10.733
 1131SOL    HW2 4835   1.581   0.168  10.868
 1132SOL     OW 4836   0.135   0.622   9.858
 1132SOL    HW1 4837   0.093   0.542   9.888
 1132SOL    HW2 4838   0.118   0.686   9.927
 1133SOL     OW 4839   1.846   1.751   9.640
 1133SOL    HW1 4840   1.920   1.729   9.697
 1133SOL    HW2 4841   1.861   1.843   9.616
 1134SOL     OW 4842   0.018   1.581   9.450
 1134SOL    HW1 4843   0.002   1.487   9.443
 1134SOL    HW2 4844   0.002   1.602   9.542
 1135SOL     OW 4845   1.691   0.919   9.956
 1135SOL    HW1 4846   1.773   0.877   9.933
 1135SOL    HW2 4847   1.669   0.973   9.880
 1136SOL     OW 4848   1.651   1.103   9.742
 1136SOL    HW1 4849   1.738   1.101   9.701
 1136SOL    HW2 4850   1.661   1.166   9.814
 1137SOL     OW 4851   0.150   0.754  10.891
 1137SOL    HW1 4852   0.245   0.766  10.883
 1137SOL    HW2 4853   0.119   0.836  10.930
 1138SOL     OW 4854   0.612   1.392  10.050
 1138SOL    HW1 4855   0.569   1.306  10.053
 1138SOL    HW2 4856   0.602   1.421   9.960
 1139SOL     OW 4857   1.279   1.229  10.733
 1139SOL    HW1 4858   1.308   1.163  10.670
 1139SOL    HW2 4859   1.344   1.224  10.803
 1140SOL     OW 4860   0.841   0.038   9.880
 1140SOL    HW1 4861   0.880   0.117   9.840
 1140SOL    HW2 4862   0.750   0.039   9.851
 1141SOL     OW 4863   0.160   0.901  10.580
 1141SOL    HW1 4864   0.254   0.882  10.576
 1141SOL    HW2 4865   0.134   0.908  10.488
 1142SOL     OW 4866   1.528   1.008   9.511
 1142SOL    HW1 4867   1.460   0.950   9.545
 1142SOL    HW2 4868   1.573   1.040   9.589
 1143SOL     OW 4869   1.177   1.817  10.942
 1143SOL    HW1 4870   1.183   1.883  10.872
 1143SOL    HW2 4871   1.200   1.735  10.899
 1144SOL     OW 4872   0.323   0.246  11.084
 1144SOL    HW1 4873   0.386   0.308  11.120
 1144SOL    HW2 4874   0.242   0.263  11.133
 1145SOL     OW 4875   1.467   1.421  10.251
 1145SOL    HW1 4876   1.402   1.437  10.319
 1145SOL    HW2 4877   1.454   1.330  10.227
 1146SOL     OW 4878   1.652   1.765   9.885
 1146SOL    HW1 4879   1.636   1.730   9.797
 1146SOL    HW2 4880   1.638   1.690   9.943
 1147SOL     OW 4881   0.592   0.719   9.579
 1147SOL    HW1 4882   0.595   0.805   9.536
 1147SOL    HW2 4883   0.531   0.730   9.652
 1148SOL     OW 4884   1.297   0.378  10.246
 1148SOL    HW1 4885   1.206   0.348  10.248
 1148SOL    HW2 4886   1.342   0.321  10.309
 1149SOL     OW 4887   1.581   1.670   9.623
 1149SOL    HW1 4888   1.673   1.695   9.614
 1149SOL    HW2 4889   1.551   1.655   9.533
 1150SOL     OW 4890   0.778   0.641  10.754
 1150SOL    HW1 4891   0.758   0.609  10.842
 1150SOL    HW2 4892   0.760   0.567  10.696
 1151SOL     OW 4893   1.403   0.489  10.982
 1151SOL    HW1 4894   1.418   0.532  11.066
 1151SOL    HW2 4895   1.450   0.406  10.987
 1152SOL     OW 4896   0.942   0.878  10.901
 1152SOL    HW1 4897   0.994   0.808  10.861
 1152SOL    HW2 4898   0.899   0.921  10.828
 1153SOL     OW 4899   1.001   0.413  10.526
 1153SOL    HW1 4900   0.910   0.430  10.550
 1153SOL    HW2 4901   0.996   0.379  10.436
 1154SOL     OW 4902   1.054   0.698   9.738
 1154SOL    HW1 4903   1.073   0.691   9.831
 1154SOL    HW2 4904   0.969   0.654   9.728
 1155SOL     OW 4905   0.094   0.791  10.077
 1155SOL    HW1 4906   0.173   0.805  10.130
 1155SOL    HW2 4907   0.052   0.876  10.073
 1156SOL     OW 4908   0.121   1.793  10.876
 1156SOL    HW1 4909   0.128   1.795  10.972
 1156SOL    HW2 4910   0.027   1.793  10.858
 1157SOL     OW 4911   0.890   0.353   9.518
 1157SOL    HW1 4912   0.935   0.403   9.450
 1157SOL    HW2 4913   0.893   0.262   9.488
 1158SOL     OW 4914   1.685   0.572  11.147
 1158SOL    HW1 4915   1.663   0.649  11.095
 1158SOL    HW2 4916   1.717   0.508  11.084
 1159SOL     OW 4917   1.381   1.141   9.843
 1159SOL    HW1 4918   1.462   1.133   9.793
 1159SOL    HW2 4919   1.329   1.205   9.794
 1160SOL     OW 4920   0.564   0.208  10.249
 1160SOL    HW1 4921   0.531   0.290  10.287
 1160SOL    HW2 4922   0.586   0.231  10.159
 1161SOL     OW 4923   0.996   1.447   9.775
 1161SOL    HW1 4924   0.968   1.522   9.722
 1161SOL    HW2 4925   0.971   1.470   9.864
 1162SOL     OW 4926   0.364   1.829  10.178
 1162SOL    HW1 4927   0.412   1.746  10.188
 1162SOL    HW2 4928   0.430   1.897  10.194
 1163SOL     OW 4929   1.800   1.041  10.194
 1163SOL    HW1 4930   1.752   1.032  10.112
 1163SOL    HW2 4931   1.732   1.049  10.261
 1164SOL     OW 4932   1.224   1.542  10.825
 1164SOL    HW1 4933   1.213   1.467  10.883
 1164SOL    HW2 4934   1.156   1.533  10.759
 1165SOL     OW 4935   0.302   0.944   9.543
 1165SOL    HW1 4936   0.388   0.973   9.513
 1165SOL    HW2 4937   0.281   0.868   9.489
 1166SOL     OW 4938   1.482   0.759  10.032
 1166SOL    HW1 4939   1.481   0.721  10.120
 1166SOL    HW2 4940   1.560   0.813  10.030
 1167SOL     OW 4941   0.468   1.244  11.042
 1167SOL    HW1 4942   0.441   1.255  10.951
 1167SOL    HW2 4943   0.386   1.248  11.092
 1168SOL     OW 4944   1.126   1.775   9.540
 1168SOL    HW1 4945   1.047   1.737   9.579
 1168SOL    HW2 4946   1.151   1.713   9.472
 1169SOL     OW 4947   0.147   0.281  10.802
 1169SOL    HW1 4948   0.140   0.374  10.779
 1169SOL    HW2 4949   0.177   0.281  10.893
 1170SOL     OW 4950   1.622   1.375   9.405
 1170SOL    HW1 4951   1.586   1.463   9.390
 1170SOL    HW2 4952   1.553   1.316   9.375
 1171SOL     OW 4953   0.458   1.744   9.623
 1171SOL    HW1 4954   0.506   1.797   9.687
 1171SOL    HW2 4955   0.527   1.706   9.567
 1172SOL     OW 4956   1.423   0.131   9.727
 1172SOL    HW1 4957   1.436   0.115   9.633
 1172SOL    HW2 4958   1.511   0.141   9.762
 1173SOL     OW 4959   0.227   1.789  10.528
 1173SOL    HW1 4960   0.283   1.717  10.555
 1173SOL    HW2 4961   0.196   1.765  10.441
 1174SOL     OW 4962   0.945   1.699  10.203
 1174SOL    HW1 4963   1.031   1.657  10.215
 1174SOL    HW2 4964   0.904   1.649  10.133
 1175SOL     OW 4965   0.411   0.690   9.791
 1175SOL    HW1 4966   0.432   0.599   9.807
 1175SOL    HW2 4967   0.316   0.695   9.802
 1176SOL     OW 4968   1.507   0.233  11.032
 1176SOL    HW1 4969   1.523   0.252  11.125
 1176SOL    HW2 4970   1.472   0.143  11.032
 1177SOL     OW 4971   0.595   0.138   9.412
 1177SOL    HW1 4972   0.671   0.092   9.449
 1177SOL    HW2 4973   0.571   0.086   9.335
 1178SOL     OW 4974   0.763   0.318  11.105
 1178SOL    HW1 4975   0.825   0.251  11.076
 1178SOL    HW2 4976   0.699   0.270  11.159
 1179SOL     OW 4977   0.869   1.517  10.507
 1179SOL    HW1 4978   0.855   1.483  10.419
 1179SOL    HW2 4979   0.943   1.467  10.541
 1180SOL     OW 4980   1.336   0.601  10.739
 1180SOL    HW1 4981   1.377   0.572  10.821
 1180SOL    HW2 4982   1.374   0.688  10.724
 1181SOL     OW 4983   0.819   1.381  10.258
 1181SOL    HW1 4984   0.906   1.375  10.218
 1181SOL    HW2 4985   0.759   1.395  10.185
 1182SOL     OW 4986   0.921   0.522  10.202
 1182SOL    HW1 4987   0.895   0.515  10.110
 1182SOL    HW2 4988   0.961   0.437  10.222
 1183SOL     OW 4989   0.596   0.043   9.748
 1183SOL    HW1 4990   0.522  -0.010   9.779
 1183SOL    HW2 4991   0.557   0.126   9.723
 1184SOL     OW 4992   1.419   1.196   9.336
 1184SOL    HW1 4993   1.451   1.128   9.395
 1184SOL    HW2 4994   1.338   1.227   9.376
 1185SOL     OW 4995   0.284   0.049   9.499
 1185SOL    HW1 4996   0.360   0.104   9.481
 1185SOL    HW2 4997   0.314  -0.012   9.566
 1186SOL     OW 4998   0.950   0.266   9.774
 1186SOL    HW1 4999   0.920   0.297   9.688
 1186SOL    HW2 5000   1.045   0.279   9.773
 1187SOL     OW 5001   1.078   0.672  10.785
 1187SOL    HW1 5002   1.024   0.594  10.774
 1187SOL    HW2 5003   1.167   0.643  10.766
 1188SOL     OW 5004   1.211   1.584  10.110
 1188SOL    HW1 5005   1.225   1.644  10.037
 1188SOL    HW2 5006   1.284   1.600  10.169
 1189SOL     OW 5007   0.473   1.153  10.033
 1189SOL    HW1 5008   0.410   1.133  10.103
 1189SOL    HW2 5009   0.425   1.137   9.952
 1190SOL     OW 5010   1.259   1.792   9.925
 1190SOL    HW1 5011   1.311   1.852   9.872
 1190SOL    HW2 5012   1.191   1.847   9.964
 1191SOL     OW 5013   1.023   0.519   9.335
 1191SOL    HW1 5014   0.981   0.603   9.315
 1191SOL    HW2 5015   1.085   0.540   9.405
 1192SOL     OW 5016   0.121   0.545  10.715
 1192SOL    HW1 5017   0.209   0.554  10.678
 1192SOL    HW2 5018   0.110   0.623  10.770
 1193SOL     OW 5019   0.555   0.248  10.541
 1193SOL    HW1 5020   0.598   0.163  10.542
 1193SOL    HW2 5021   0.462   0.228  10.550
 1194SOL     OW 5022   0.863   0.473   9.942
 1194SOL    HW1 5023   0.828   0.524   9.869
 1194SOL    HW2 5024   0.887   0.389   9.903
 1195SOL     OW 5025   0.948   0.032  10.125
 1195SOL    HW1 5026   0.907   0.041  10.039
 1195SOL    HW2 5027   0.998  -0.049  10.120
 1196SOL     OW 5028   1.447   1.160  10.164
 1196SOL    HW1 5029   1.370   1.104  10.149
 1196SOL    HW2 5030   1.486   1.170  10.077
 1197SOL     OW 5031   1.464   0.616  10.272
 1197SOL    HW1 5032   1.412   0.536  10.269
 1197SOL    HW2 5033   1.522   0.604  10.348
 1198SOL     OW 5034   1.834   0.805   9.700
 1198SOL    HW1 5035   1.897   0.760   9.757
 1198SOL    HW2 5036   1.818   0.743   9.628
 1199SOL     OW 5037   0.491   1.418   9.450
 1199SOL    HW1 5038   0.411   1.389   9.495
 1199SOL    HW2 5039   0.490   1.371   9.366
 1200SOL     OW 5040   1.681   1.257   9.963
 1200SOL    HW1 5041   1.776   1.253   9.974
 1200SOL    HW2 5042   1.659   1.349   9.976
 1201SOL     OW 5043   1.398   0.580   9.385
 1201SOL    HW1 5044   1.329   0.554   9.446
 1201SOL    HW2 5045   1.479   0.549   9.425
 1202SOL     OW 5046   0.502   0.274   9.623
 1202SOL    HW1 5047   0.544   0.224   9.553
 1202SOL    HW2 5048   0.483   0.359   9.583
 1203SOL     OW 5049   1.746   1.241  10.872
 1203SOL    HW1 5050   1.833   1.207  10.852
 1203SOL    HW2 5051   1.760   1.331  10.899
 1204SOL     OW 5052   1.051   1.351  10.641
 1204SOL    HW1 5053   0.975   1.322  10.691
 1204SOL    HW2 5054   1.126   1.309  10.684
 1205SOL     OW 5055   1.609   1.627  10.971
 1205SOL    HW1 5056   1.599   1.665  10.883
 1205SOL    HW2 5057   1.691   1.577  10.966
 1206SOL     OW 5058   1.137   1.216  10.412
 1206SOL    HW1 5059   1.078   1.257  10.474
 1206SOL    HW2 5060   1.112   1.253  10.327
 1207SOL     OW 5061   1.611   1.088  10.385
 1207SOL    HW1 5062   1.602   1.155  10.454
 1207SOL    HW2 5063   1.542   1.109  10.322
 1208SOL     OW 5064   0.923   0.138  10.703
 1208SOL    HW1 5065   0.935   0.120  10.610
 1208SOL    HW2 5066   1.011   0.127  10.741
 1209SOL     OW 5067   0.982   1.108  11.044
 1209SOL    HW1 5068   0.891   1.132  11.061
 1209SOL    HW2 5069   0.976   1.034  10.985
 1210SOL     OW 5070   0.711   1.061   9.685
 1210SOL    HW1 5071   0.699   1.040   9.777
 1210SOL    HW2 5072   0.786   1.009   9.658
 1211SOL     OW 5073   0.423   0.826  10.565
 1211SOL    HW1 5074   0.490   0.845  10.631
 1211SOL    HW2 5075   0.404   0.733  10.576
 1212SOL     OW 5076   1.262   0.378  10.602
 1212SOL    HW1 5077   1.294   0.461  10.637
 1212SOL    HW2 5078   1.175   0.398  10.568
 1213SOL     OW 5079   0.069   1.578  10.653
 1213SOL    HW1 5080   0.070   1.672  10.635
 1213SOL    HW2 5081   0.161   1.553  10.660
 1214SOL     OW 5082   0.321   1.110   9.800
 1214SOL    HW1 5083   0.335   1.186   9.743
 1214SOL    HW2 5084   0.330   1.035   9.741
 1215SOL     OW 5085   0.545   0.536  10.177
 1215SOL    HW1 5086   0.558   0.593  10.101
 1215SOL    HW2 5087   0.618   0.557  10.236
 1216SOL     OW 5088   1.245   1.352   9.701
 1216SOL    HW1 5089   1.302   1.423   9.733
 1216SOL    HW2 5090   1.158   1.375   9.734
 1217SOL     OW 5091   1.297   1.463  10.461
 1217SOL    HW1 5092   1.353   1.470  10.538
 1217SOL    HW2 5093   1.243   1.385  10.476
 1218SOL     OW 5094   1.570   0.634   9.793
 1218SOL    HW1 5095   1.520   0.680   9.860
 1218SOL    HW2 5096   1.622   0.703   9.751
 1219SOL     OW 5097   0.339   1.527  10.618
 1219SOL    HW1 5098   0.332   1.482  10.534
 1219SOL    HW2 5099   0.433   1.544  10.630
 1220SOL     OW 5100   0.431   0.740  10.921
 1220SOL    HW1 5101   0.486   0.792  10.862
 1220SOL    HW2 5102   0.484   0.663  10.940
 1221SOL     OW 5103   1.610   0.788  11.003
 1221SOL    HW1 5104   1.524   0.830  10.992
 1221SOL    HW2 5105   1.664   0.826  10.934
 1222SOL     OW 5106   1.042   0.071  11.049
 1222SOL    HW1 5107   1.068   0.162  11.033
 1222SOL    HW2 5108   0.950   0.068  11.022
 1223SOL     OW 5109   0.431  -0.004  11.050
 1223SOL    HW1 5110   0.479  -0.010  10.968
 1223SOL    HW2 5111   0.406   0.088  11.057
 1224SOL     OW 5112   0.595   0.876  10.346
 1224SOL    HW1 5113   0.630   0.965  10.344
 1224SOL    HW2 5114   0.532   0.877  10.418
 1225SOL     OW 5115   1.335   0.854  10.331
 1225SOL    HW1 5116   1.252   0.841  10.286
 1225SOL    HW2 5117   1.384   0.774  10.316
 1226SOL     OW 5118   1.190   0.536   9.559
 1226SOL    HW1 5119   1.201   0.450   9.600
 1226SOL    HW2 5120   1.151   0.590   9.628
 1227SOL     OW 5121   0.293   0.191  10.587
 1227SOL    HW1 5122   0.233   0.219  10.656
 1227SOL    HW2 5123   0.238   0.144  10.525
 1228SOL     OW 5124   0.049   1.305  10.583
 1228SOL    HW1 5125   0.079   1.251  10.656
 1228SOL    HW2 5126   0.055   1.395  10.616
 1229SOL     OW 5127   0.721   0.629  10.367
 1229SOL    HW1 5128   0.796   0.616  10.308
 1229SOL    HW2 5129   0.693   0.718  10.350
 1230SOL     OW 5130   1.747   0.958  11.176
 1230SOL    HW1 5131   1.702   0.894  11.122
 1230SOL    HW2 5132   1.684   0.980  11.245
 1231SOL     OW 5133   0.401   0.090   9.979
 1231SOL    HW1 5134   0.345   0.167   9.992
 1231SOL    HW2 5135   0.349   0.033   9.922
 1232SOL     OW 5136   1.633   0.406   9.660
 1232SOL    HW1 5137   1.643   0.333   9.720
 1232SOL    HW2 5138   1.602   0.478   9.714
 1233SOL     OW 5139   1.028   0.763  10.268
 1233SOL    HW1 5140   1.019   0.775  10.363
 1233SOL    HW2 5141   0.997   0.674  10.252
 1234SOL     OW 5142   0.980   1.562  11.034
 1234SOL    HW1 5143   0.963   1.608  10.952
 1234SOL    HW2 5144   1.027   1.482  11.008
 1235SOL     OW 5145   1.848   1.499  10.910
 1235SOL    HW1 5146   1.871   1.526  10.822
 1235SOL    HW2 5147   1.928   1.511  10.961
 1236SOL     OW 5148   0.347   0.907  11.131
 1236SOL    HW1 5149   0.425   0.956  11.157
 1236SOL    HW2 5150   0.378   0.848  11.062
 1237SOL     OW 5151   1.581   0.275   9.427
 1237SOL    HW1 5152   1.602   0.187   9.459
 1237SOL    HW2 5153   1.592   0.331   9.503
 1238SOL     OW 5154   1.291   0.827   9.329
 1238SOL    HW1 5155   1.330   0.741   9.343
 1238SOL    HW2 5156   1.331   0.859   9.248
 1239SOL     OW 5157   1.074   1.345  10.172
 1239SOL    HW1 5158   1.081   1.275  10.108
 1239SOL    HW2 5159   1.127   1.416  10.136
 1240SOL     OW 5160   0.319   0.808  10.244
 1240SOL    HW1 5161   0.413   0.825  10.232
 1240SOL    HW2 5162   0.315   0.721  10.284
 1241SOL     OW 5163   0.331   0.530  10.333
 1241SOL    HW1 5164   0.296   0.443  10.315
 1241SOL    HW2 5165   0.407   0.538  10.275
 1242SOL     OW 5166   1.160   0.358  11.005
 1242SOL    HW1 5167   1.087   0.393  10.954
 1242SOL    HW2 5168   1.232   0.419  10.989
 1243SOL     OW 5169   1.183   0.194  10.783
 1243SOL    HW1 5170   1.187   0.246  10.863
 1243SOL    HW2 5171   1.210   0.255  10.714
 1244SOL     OW 5172   7.981   1.303   9.515
 1244SOL    HW1 5173   7.891   1.321   9.541
 1244SOL    HW2 5174   7.989   1.208   9.524
 1245SOL     OW 5175   0.123   1.740  10.265
 1245SOL    HW1 5176   0.105   1.682  10.191
 1245SOL    HW2 5177   0.200   1.790  10.237
 1246SOL     OW 5178   0.493   1.577  10.217
 1246SOL    HW1 5179   0.562   1.639  10.239
 1246SOL    HW2 5180   0.534   1.515  10.157
 1247SOL     OW 5181   0.972   0.778  10.538
 1247SOL    HW1 5182   1.035   0.766  10.609
 1247SOL    HW2 5183   0.890   0.743  10.573
 1248SOL     OW 5184   0.075   0.554  10.438
 1248SOL    HW1 5185   0.167   0.553  10.413
 1248SOL    HW2 5186   0.076   0.543  10.533
 1249SOL     OW 5187   0.201   0.521  11.023
 1249SOL    HW1 5188   0.282   0.498  10.978
 1249SOL    HW2 5189   0.171   0.601  10.979
 1250SOL     OW 5190   1.374   0.927  10.969
 1250SOL    HW1 5191   1.399   1.020  10.967
 1250SOL    HW2 5192   1.372   0.901  10.877
 1251SOL     OW 5193   0.814   0.573   9.682
 1251SOL    HW1 5194   0.824   0.499   9.622
 1251SOL    HW2 5195   0.741   0.623   9.645
 1252SOL     OW 5196   1.637   0.601  10.487
 1252SOL    HW1 5197   1.630   0.544  10.564
 1252SOL    HW2 5198   1.726   0.586  10.454
 1253SOL     OW 5199   0.341   1.536  11.062
 1253SOL    HW1 5200   0.284   1.603  11.099
 1253SOL    HW2 5201   0.283   1.462  11.044
 1254SOL     OW 5202   0.731   0.452  10.571
 1254SOL    HW1 5203   0.667   0.381  10.560
 1254SOL    HW2 5204   0.715   0.510  10.497
 1255SOL     OW 5205   0.916   1.676  10.786
 1255SOL    HW1 5206   0.891   1.636  10.703
 1255SOL    HW2 5207   0.915   1.770  10.768
 1256SOL     OW 5208   0.455   0.497   9.480
 1256SOL    HW1 5209   0.508   0.575   9.497
 1256SOL    HW2 5210   0.370   0.518   9.518
 1257SOL     OW 5211   0.154   1.118  10.759
 1257SOL    HW1 5212   0.137   1.078  10.845
 1257SOL    HW2 5213   0.157   1.044  10.698
 1258SOL     OW 5214   1.309   1.039  10.529
 1258SOL    HW1 5215   1.330   0.976  10.460
 1258SOL    HW2 5216   1.248   1.100  10.487
 1259SOL     OW 5217   1.318   0.857   9.610
 1259SOL    HW1 5218   1.247   0.822   9.664
 1259SOL    HW2 5219   1.289   0.843   9.520
 1260SOL     OW 5220   1.784   1.729  10.473
 1260SOL    HW1 5221   1.844   1.758  10.404
 1260SOL    HW2 5222   1.755   1.643  10.445
 1261SOL     OW 5223   1.240   1.732  10.410
 1261SOL    HW1 5224   1.323   1.760  10.371
 1261SOL    HW2 5225   1.254   1.639  10.431
 1262SOL     OW 5226   0.053   1.190  10.341
 1262SOL    HW1 5227   0.056   1.231  10.427
 1262SOL    HW2 5228  -0.010   1.242  10.291
 1263SOL     OW 5229   0.683   1.674  11.055
 1263SOL    HW1 5230   0.619   1.745  11.046
 1263SOL    HW2 5231   0.751   1.694  10.992
 1264SOL     OW 5232   1.693   0.166   9.794
 1264SOL    HW1 5233   1.759   0.157   9.726
 1264SOL    HW2 5234   1.735   0.131   9.873
 1265SOL     OW 5235   1.396   1.568   9.805
 1265SOL    HW1 5236   1.454   1.601   9.736
 1265SOL    HW2 5237   1.344   1.644   9.832
 1266SOL     OW 5238   0.174   1.735  11.149
 1266SOL    HW1 5239   0.109   1.688  11.201
 1266SOL    HW2 5240   0.215   1.796  11.211
 1267SOL     OW 5241   1.278   0.934   9.982
 1267SOL    HW1 5242   1.352   0.875   9.993
 1267SOL    HW2 5243   1.312   1.003   9.924
 1268SOL     OW 5244   0.799   1.282  10.738
 1268SOL    HW1 5245   0.769   1.323  10.819
 1268SOL    HW2 5246   0.731   1.304  10.674
 1269SOL     OW 5247   0.666   1.626   9.467
 1269SOL    HW1 5248   0.680   1.644   9.374
 1269SOL    HW2 5249   0.611   1.548   9.469
 1270SOL     OW 5250   1.617   1.728  10.704
 1270SOL    HW1 5251   1.673   1.731  10.626
 1270SOL    HW2 5252   1.603   1.820  10.726
 1271SOL     OW 5253   1.852   0.171  10.259
 1271SOL    HW1 5254   1.873   0.100  10.198
 1271SOL    HW2 5255   1.764   0.198  10.234
 1272SOL     OW 5256   0.257   0.322  10.014
 1272SOL    HW1 5257   0.168   0.346   9.987
 1272SOL    HW2 5258   0.253   0.321  10.110
 1273SOL     OW 5259   1.209   1.601   9.344
 1273SOL    HW1 5260   1.196   1.509   9.368
 1273SOL    HW2 5261   1.144   1.617   9.276
 1274SOL     OW 5262   0.829   1.014  10.691
 1274SOL    HW1 5263   0.863   1.008  10.602
 1274SOL    HW2 5264   0.821   1.108  10.707
 1275SOL     OW 5265   0.918   0.910   9.607
 1275SOL    HW1 5266   0.975   0.941   9.537
 1275SOL    HW2 5267   0.969   0.842   9.652
 1276SOL     OW 5268   1.491   1.623   9.357
 1276SOL    HW1 5269   1.396   1.618   9.341
 1276SOL    HW2 5270   1.529   1.631   9.269
 1277SOL     OW 5271   0.371   1.294  10.797
 1277SOL    HW1 5272   0.353   1.375  10.750
 1277SOL    HW2 5273   0.294   1.239  10.780
 1278SOL     OW 5274   1.598   1.285  10.579
 1278SOL    HW1 5275   1.676   1.277  10.635
 1278SOL    HW2 5276   1.544   1.351  10.621
 1279SOL     OW 5277   1.068   1.116  10.028
 1279SOL    HW1 5278   0.994   1.066  10.062
 1279SOL    HW2 5279   1.132   1.050  10.000
 1280SOL     OW 5280   1.035   0.273  10.261
 1280SOL    HW1 5281   1.007   0.221  10.186
 1280SOL    HW2 5282   1.041   0.210  10.333
 1281SOL     OW 5283   0.612   1.489   9.797
 1281SOL    HW1 5284   0.662   1.440   9.731
 1281SOL    HW2 5285   0.532   1.514   9.752
 1282SOL     OW 5286   1.729   0.412  10.698
 1282SOL    HW1 5287   1.802   0.474  10.706
 1282SOL    HW2 5288   1.758   0.348  10.634
 1283SOL     OW 5289   0.250   1.334   9.577
 1283SOL    HW1 5290   0.154   1.339   9.570
 1283SOL    HW2 5291   0.269   1.375   9.661
 1284SOL     OW 5292   0.107   0.998  11.011
 1284SOL    HW1 5293   0.062   1.077  11.041
 1284SOL    HW2 5294   0.184   0.991  11.068
 1285SOL     OW 5295   0.681   0.215  10.826
 1285SOL    HW1 5296   0.745   0.186  10.761
 1285SOL    HW2 5297   0.700   0.162  10.904
 1286SOL     OW 5298   0.082   0.347   9.310
 1286SOL    HW1 5299   0.024   0.396   9.368
 1286SOL    HW2 5300   0.119   0.413   9.251
 1287SOL     OW 5301   1.420   0.862  10.707
 1287SOL    HW1 5302   1.370   0.922  10.652
 1287SOL    HW2 5303   1.509   0.864  10.670
 1288SOL     OW 5304   0.094   0.264   9.664
 1288SOL    HW1 5305   0.071   0.225   9.579
 1288SOL    HW2 5306   0.122   0.190   9.718
 1289SOL     OW 5307   1.176   1.331   9.426
 1289SOL    HW1 5308   1.082   1.313   9.427
 1289SOL    HW2 5309   1.200   1.333   9.519
 1290SOL     OW 5310   0.616   0.852  10.753
 1290SOL    HW1 5311   0.673   0.928  10.737
 1290SOL    HW2 5312   0.675   0.777  10.752
 1291SOL     OW 5313   1.483   1.792  10.292
 1291SOL    HW1 5314   1.501   1.865  10.232
 1291SOL    HW2 5315   1.569   1.763  10.322
 1292SOL     OW 5316   0.710   0.565  11.007
 1292SOL    HW1 5317   0.756   0.621  11.070
 1292SOL    HW2 5318   0.720   0.477  11.042
 1293SOL     OW 5319   1.475   1.183  10.936
 1293SOL    HW1 5320   1.466   1.206  11.029
 1293SOL    HW2 5321   1.566   1.207  10.915
 1294SOL     OW 5322   0.388   1.736  10.876
 1294SOL    HW1 5323   0.297   1.757  10.857
 1294SOL    HW2 5324   0.384   1.655  10.926
 1295SOL     OW 5325   1.657   0.878  10.566
 1295SOL    HW1 5326   1.656   0.794  10.521
 1295SOL    HW2 5327   1.646   0.943  10.497
 1296SOL     OW 5328   1.217   0.321   9.764
 1296SOL    HW1 5329   1.285   0.255   9.747
 1296SOL    HW2 5330   1.251   0.371   9.838
 1297SOL     OW 5331   0.586   0.740   9.997
 1297SOL    HW1 5332   0.631   0.822   9.980
 1297SOL    HW2 5333   0.528   0.728   9.922
 1298SOL     OW 5334   1.745   0.369  10.976
 1298SOL    HW1 5335   1.747   0.384  10.881
 1298SOL    HW2 5336   1.669   0.314  10.990
 1299SOL     OW 5337   1.750   0.932  10.821
 1299SOL    HW1 5338   1.741   1.026  10.833
 1299SOL    HW2 5339   1.731   0.917  10.729
 1300SOL     OW 5340   0.878   1.364   9.364
 1300SOL    HW1 5341   0.831   1.393   9.442
 1300SOL    HW2 5342   0.885   1.443   9.310
 1301SOL     OW 5343   0.670   1.779  10.247
 1301SOL    HW1 5344   0.651   1.871  10.228
 1301SOL    HW2 5345   0.765   1.771  10.239
 1302SOL     OW 5346   0.871   0.976  10.164
 1302SOL    HW1 5347   0.922   0.903  10.200
 1302SOL    HW2 5348   0.831   1.016  10.241
 1303SOL     OW 5349   1.073   0.978   9.398
 1303SOL    HW1 5350   1.053   1.036   9.325
 1303SOL    HW2 5351   1.150   0.928   9.370
 1304SOL     OW 5352   1.840   1.552  10.149
 1304SOL    HW1 5353   1.764   1.544  10.091
 1304SOL    HW2 5354   1.817   1.502  10.227
 1305SOL     OW 5355   0.226   1.273  11.167
 1305SOL    HW1 5356   0.138   1.294  11.135
 1305SOL    HW2 5357   0.223   1.295  11.260
 1306SOL     OW 5358   0.134   1.257   9.973
 1306SOL    HW1 5359   0.062   1.204  10.006
 1306SOL    HW2 5360   0.195   1.194   9.936
 1307SOL     OW 5361   0.684   1.407  10.953
 1307SOL    HW1 5362   0.598   1.371  10.976
 1307SOL    HW2 5363   0.682   1.497  10.986
 1308SOL     OW 5364   1.822   0.223  10.534
 1308SOL    HW1 5365   1.769   0.144  10.539
 1308SOL    HW2 5366   1.847   0.229  10.441
 1309SOL     OW 5367   0.450   0.428   9.848
 1309SOL    HW1 5368   0.456   0.367   9.775
 1309SOL    HW2 5369   0.382   0.392   9.904
 1310SOL     OW 5370   1.698   1.482  10.389
 1310SOL    HW1 5371   1.617   1.466  10.341
 1310SOL    HW2 5372   1.700   1.413  10.456
 1311SOL     OW 5373   0.367   0.561  10.607
 1311SOL    HW1 5374   0.415   0.497  10.658
 1311SOL    HW2 5375   0.377   0.532  10.516
 1312SOL     OW 5376   0.835   1.591   9.977
 1312SOL    HW1 5377   0.824   1.667   9.921
 1312SOL    HW2 5378   0.757   1.537   9.961
 1313SOL     OW 5379   1.421   0.221  10.432
 1313SOL    HW1 5380   1.488   0.168  10.474
 1313SOL    HW2 5381   1.376   0.265  10.505
 1314SOL     OW 5382   1.025   0.079  10.447
 1314SOL    HW1 5383   0.944   0.041  10.412
 1314SOL    HW2 5384   1.083   0.004  10.460
 1315SOL     OW 5385   0.774   1.333   9.637
 1315SOL    HW1 5386   0.751   1.240   9.645
 1315SOL    HW2 5387   0.857   1.341   9.683
 1316SOL     OW 5388   0.618   1.556  10.602
 1316SOL    HW1 5389   0.618   1.642  10.645
 1316SOL    HW2 5390   0.705   1.549  10.563
 1317SOL     OW 5391   1.362   8.001   9.415
 1317SOL    HW1 5392   1.432   7.942   9.444
 1317SOL    HW2 5393   1.288   7.982   9.472
 1318SOL     OW 5394   1.296   0.468   9.983
 1318SOL    HW1 5395   1.243   0.548   9.986
 1318SOL    HW2 5396   1.299   0.437  10.074
 1319SOL     OW 5397   1.608   0.231  10.178
 1319SOL    HW1 5398   1.521   0.215  10.214
 1319SOL    HW2 5399   1.596   0.309  10.123
 1320SOL     OW 5400   0.041   1.033   9.585
 1320SOL    HW1 5401   0.132   1.015   9.562
 1320SOL    HW2 5402   0.042   1.046   9.680
 1321SOL     OW 5403   0.888   1.664   9.643
 1321SOL    HW1 5404   0.811   1.650   9.587
 1321SOL    HW2 5405   0.862   1.736   9.701
 1322SOL     OW 5406   0.217   0.623  11.291
 1322SOL    HW1 5407   0.143   0.682  11.306
 1322SOL    HW2 5408   0.209   0.598  11.199
 1323SOL     OW 5409   0.237   0.288  12.156
 1323SOL    HW1 5410   0.266   0.244  12.235
 1323SOL    HW2 5411   0.148   0.256  12.141
 1324SOL     OW 5412   7.987   0.372  11.786
 1324SOL    HW1 5413   7.897   0.357  11.813
 1324SOL    HW2 5414   8.003   0.308  11.717
 1325SOL     OW 5415   0.546   1.247  12.344
 1325SOL    HW1 5416   0.473   1.293  12.301
 1325SOL    HW2 5417   0.555   1.292  12.428
 1326SOL     OW 5418   1.581   1.516  11.882
 1326SOL    HW1 5419   1.538   1.494  11.965
 1326SOL    HW2 5420   1.510   1.521  11.819
 1327SOL     OW 5421   1.132   0.703  11.866
 1327SOL    HW1 5422   1.181   0.785  11.858
 1327SOL    HW2 5423   1.085   0.710  11.949
 1328SOL     OW 5424   1.798   0.593  11.390
 1328SOL    HW1 5425   1.760   0.591  11.303
 1328SOL    HW2 5426   1.754   0.522  11.437
 1329SOL     OW 5427   0.755   1.128  12.230
 1329SOL    HW1 5428   0.676   1.161  12.272
 1329SOL    HW2 5429   0.789   1.203  12.181
 1330SOL     OW 5430   0.691   0.995  11.820
 1330SOL    HW1 5431   0.758   0.991  11.888
 1330SOL    HW2 5432   0.623   1.052  11.856
 1331SOL     OW 5433   0.350   1.409  12.230
 1331SOL    HW1 5434   0.277   1.369  12.182
 1331SOL    HW2 5435   0.391   1.468  12.167
 1332SOL     OW 5436   1.605   0.458  11.899
 1332SOL    HW1 5437   1.535   0.477  11.837
 1332SOL    HW2 5438   1.601   0.529  11.963
 1333SOL     OW 5439   0.236   1.691  11.653
 1333SOL    HW1 5440   0.221   1.776  11.694
 1333SOL    HW2 5441   0.301   1.708  11.585
 1334SOL     OW 5442   0.292   1.428  11.687
 1334SOL    HW1 5443   0.271   1.521  11.693
 1334SOL    HW2 5444   0.235   1.387  11.752
 1335SOL     OW 5445   0.269   1.086  12.059
 1335SOL    HW1 5446   0.272   0.994  12.086
 1335SOL    HW2 5447   0.194   1.123  12.106
 1336SOL     OW 5448   0.585   0.993  11.320
 1336SOL    HW1 5449   0.627   1.042  11.250
 1336SOL    HW2 5450   0.624   1.026  11.401
 1337SOL     OW 5451   1.844   1.751  11.500
 1337SOL    HW1 5452   1.917   1.728  11.559
 1337SOL    HW2 5453   1.859   1.842  11.478
 1338SOL     OW 5454   0.016   1.580  11.310
 1338SOL    HW1 5455  -0.000   1.486  11.303
 1338SOL    HW2 5456   0.003   1.601  11.402
 1339SOL     OW 5457   1.690   0.918  11.821
 1339SOL    HW1 5458   1.777   0.880  11.809
 1339SOL    HW2 5459   1.675   0.969  11.741
 1340SOL     OW 5460   1.654   1.104  11.603
 1340SOL    HW1 5461   1.741   1.102  11.563
 1340SOL    HW2 5462   1.663   1.166  11.676
 1341SOL     OW 5463   0.155   0.727   0.287
 1341SOL    HW1 5464   0.149   0.694   0.377
 1341SOL    HW2 5465   0.216   0.801   0.292
 1342SOL     OW 5466   0.611   1.397  11.901
 1342SOL    HW1 5467   0.568   1.312  11.908
 1342SOL    HW2 5468   0.597   1.425  11.811
 1343SOL     OW 5469   0.840   0.025  11.725
 1343SOL    HW1 5470   0.887   0.102  11.695
 1343SOL    HW2 5471   0.751   0.056  11.741
 1344SOL     OW 5472   0.193   0.927  12.452
 1344SOL    HW1 5473   0.283   0.904  12.428
 1344SOL    HW2 5474   0.145   0.922  12.370
 1345SOL     OW 5475   1.530   1.008  11.374
 1345SOL    HW1 5476   1.464   0.949  11.412
 1345SOL    HW2 5477   1.578   1.041  11.450
 1346SOL     OW 5478   1.474   1.415  12.118
 1346SOL    HW1 5479   1.406   1.432  12.183
 1346SOL    HW2 5480   1.458   1.325  12.090
 1347SOL     OW 5481   1.650   1.767  11.746
 1347SOL    HW1 5482   1.632   1.728  11.660
 1347SOL    HW2 5483   1.640   1.694  11.807
 1348SOL     OW 5484   0.610   0.721  11.430
 1348SOL    HW1 5485   0.608   0.810  11.393
 1348SOL    HW2 5486   0.553   0.726  11.507
 1349SOL     OW 5487   1.293   0.375  12.105
 1349SOL    HW1 5488   1.203   0.343  12.107
 1349SOL    HW2 5489   1.340   0.319  12.167
 1350SOL     OW 5490   1.579   1.671  11.485
 1350SOL    HW1 5491   1.671   1.695  11.477
 1350SOL    HW2 5492   1.549   1.656  11.396
 1351SOL     OW 5493   0.995   0.381  12.370
 1351SOL    HW1 5494   0.923   0.422  12.418
 1351SOL    HW2 5495   0.954   0.347  12.290
 1352SOL     OW 5496   1.052   0.715  11.602
 1352SOL    HW1 5497   1.074   0.706  11.694
 1352SOL    HW2 5498   0.973   0.663  11.591
 1353SOL     OW 5499   0.102   0.792  11.919
 1353SOL    HW1 5500   0.181   0.806  11.971
 1353SOL    HW2 5501   0.056   0.876  11.922
 1354SOL     OW 5502   0.069   1.763   0.264
 1354SOL    HW1 5503   0.098   1.763   0.355
 1354SOL    HW2 5504   0.015   1.842   0.256
 1355SOL     OW 5505   0.890   0.314  11.396
 1355SOL    HW1 5506   0.968   0.312  11.342
 1355SOL    HW2 5507   0.854   0.225  11.391
 1356SOL     OW 5508   1.382   1.139  11.702
 1356SOL    HW1 5509   1.465   1.134  11.655
 1356SOL    HW2 5510   1.332   1.206  11.654
 1357SOL     OW 5511   0.564   0.253  12.078
 1357SOL    HW1 5512   0.546   0.255  12.172
 1357SOL    HW2 5513   0.554   0.344  12.050
 1358SOL     OW 5514   0.994   1.446  11.638
 1358SOL    HW1 5515   0.967   1.522  11.586
 1358SOL    HW2 5516   0.970   1.469  11.728
 1359SOL     OW 5517   0.360   1.828  12.036
 1359SOL    HW1 5518   0.406   1.745  12.048
 1359SOL    HW2 5519   0.426   1.895  12.056
 1360SOL     OW 5520   1.798   1.050  12.055
 1360SOL    HW1 5521   1.747   1.036  11.976
 1360SOL    HW2 5522   1.733   1.057  12.125
 1361SOL     OW 5523   0.324   0.957  11.419
 1361SOL    HW1 5524   0.412   0.984  11.395
 1361SOL    HW2 5525   0.295   0.902  11.347
 1362SOL     OW 5526   1.479   0.757  11.888
 1362SOL    HW1 5527   1.478   0.717  11.975
 1362SOL    HW2 5528   1.558   0.811  11.888
 1363SOL     OW 5529   1.127   1.776  11.401
 1363SOL    HW1 5530   1.048   1.738  11.440
 1363SOL    HW2 5531   1.151   1.713  11.333
 1364SOL     OW 5532   1.629   1.381  11.271
 1364SOL    HW1 5533   1.592   1.468  11.253
 1364SOL    HW2 5534   1.562   1.320  11.242
 1365SOL     OW 5535   0.458   1.746  11.483
 1365SOL    HW1 5536   0.506   1.797  11.548
 1365SOL    HW2 5537   0.527   1.706  11.429
 1366SOL     OW 5538   1.417   0.137  11.572
 1366SOL    HW1 5539   1.440   0.112  11.483
 1366SOL    HW2 5540   1.501   0.145  11.618
 1367SOL     OW 5541   0.226   1.785  12.389
 1367SOL    HW1 5542   0.250   1.702  12.430
 1367SOL    HW2 5543   0.181   1.759  12.308
 1368SOL     OW 5544   0.947   1.694  12.069
 1368SOL    HW1 5545   1.029   1.647  12.078
 1368SOL    HW2 5546   0.900   1.648  12.000
 1369SOL     OW 5547   0.431   0.691  11.636
 1369SOL    HW1 5548   0.439   0.599  11.660
 1369SOL    HW2 5549   0.339   0.702  11.614
 1370SOL     OW 5550   0.611   0.131  11.240
 1370SOL    HW1 5551   0.668   0.092  11.306
 1370SOL    HW2 5552   0.536   0.071  11.235
 1371SOL     OW 5553   0.812   1.356  12.099
 1371SOL    HW1 5554   0.900   1.367  12.064
 1371SOL    HW2 5555   0.754   1.381  12.027
 1372SOL     OW 5556   0.928   0.519  12.061
 1372SOL    HW1 5557   0.893   0.509  11.972
 1372SOL    HW2 5558   0.966   0.434  12.082
 1373SOL     OW 5559   0.572   0.017  11.577
 1373SOL    HW1 5560   0.502  -0.029  11.625
 1373SOL    HW2 5561   0.571   0.105  11.614
 1374SOL     OW 5562   1.425   1.205  11.208
 1374SOL    HW1 5563   1.456   1.134  11.265
 1374SOL    HW2 5564   1.343   1.234  11.248
 1375SOL     OW 5565   0.308   0.061  11.383
 1375SOL    HW1 5566   0.355   0.140  11.412
 1375SOL    HW2 5567   0.329  -0.005  11.449
 1376SOL     OW 5568   0.959   0.261  11.654
 1376SOL    HW1 5569   0.928   0.284  11.566
 1376SOL    HW2 5570   1.053   0.277  11.650
 1377SOL     OW 5571   1.215   1.583  11.970
 1377SOL    HW1 5572   1.228   1.643  11.897
 1377SOL    HW2 5573   1.290   1.599  12.028
 1378SOL     OW 5574   0.476   1.154  11.893
 1378SOL    HW1 5575   0.411   1.134  11.961
 1378SOL    HW2 5576   0.430   1.137  11.811
 1379SOL     OW 5577   1.259   1.790  11.785
 1379SOL    HW1 5578   1.310   1.852  11.733
 1379SOL    HW2 5579   1.189   1.843  11.823
 1380SOL     OW 5580   0.566   0.248  12.357
 1380SOL    HW1 5581   0.603   0.197  12.429
 1380SOL    HW2 5582   0.471   0.245  12.371
 1381SOL     OW 5583   0.845   0.461  11.806
 1381SOL    HW1 5584   0.820   0.516  11.731
 1381SOL    HW2 5585   0.885   0.384  11.766
 1382SOL     OW 5586   1.003   0.032  11.944
 1382SOL    HW1 5587   0.946   0.027  11.867
 1382SOL    HW2 5588   1.001  -0.056  11.981
 1383SOL     OW 5589   1.441   1.157  12.027
 1383SOL    HW1 5590   1.373   1.090  12.017
 1383SOL    HW2 5591   1.477   1.168  11.939
 1384SOL     OW 5592   1.463   0.613  12.127
 1384SOL    HW1 5593   1.408   0.534  12.132
 1384SOL    HW2 5594   1.525   0.604  12.199
 1385SOL     OW 5595   1.830   0.804  11.560
 1385SOL    HW1 5596   1.892   0.761  11.618
 1385SOL    HW2 5597   1.818   0.742  11.488
 1386SOL     OW 5598   0.487   1.422  11.319
 1386SOL    HW1 5599   0.410   1.389  11.363
 1386SOL    HW2 5600   0.465   1.418  11.226
 1387SOL     OW 5601   1.680   1.260  11.821
 1387SOL    HW1 5602   1.775   1.255  11.834
 1387SOL    HW2 5603   1.658   1.351  11.839
 1388SOL     OW 5604   1.416   0.571  11.245
 1388SOL    HW1 5605   1.377   0.514  11.310
 1388SOL    HW2 5606   1.511   0.557  11.255
 1389SOL     OW 5607   0.482   0.272  11.460
 1389SOL    HW1 5608   0.551   0.236  11.404
 1389SOL    HW2 5609   0.468   0.361  11.426
 1390SOL     OW 5610   1.105   1.240  12.287
 1390SOL    HW1 5611   1.024   1.263  12.332
 1390SOL    HW2 5612   1.093   1.270  12.197
 1391SOL     OW 5613   1.604   1.094  12.248
 1391SOL    HW1 5614   1.572   1.133  12.329
 1391SOL    HW2 5615   1.538   1.117  12.182
 1392SOL     OW 5616   0.713   1.063  11.551
 1392SOL    HW1 5617   0.700   1.042  11.643
 1392SOL    HW2 5618   0.785   1.006  11.523
 1393SOL     OW 5619   0.445   0.817  12.444
 1393SOL    HW1 5620   0.494   0.846  12.521
 1393SOL    HW2 5621   0.398   0.739  12.474
 1394SOL     OW 5622   1.254   0.359  12.437
 1394SOL    HW1 5623   1.286   0.444  12.467
 1394SOL    HW2 5624   1.163   0.375  12.411
 1395SOL     OW 5625   0.331   1.112  11.660
 1395SOL    HW1 5626   0.336   1.193  11.611
 1395SOL    HW2 5627   0.337   1.043  11.594
 1396SOL     OW 5628   0.554   0.525  12.031
 1396SOL    HW1 5629   0.569   0.587  11.959
 1396SOL    HW2 5630   0.614   0.553  12.100
 1397SOL     OW 5631   1.244   1.352  11.564
 1397SOL    HW1 5632   1.300   1.422  11.595
 1397SOL    HW2 5633   1.157   1.374  11.597
 1398SOL     OW 5634   1.290   1.448  12.316
 1398SOL    HW1 5635   1.347   1.447  12.393
 1398SOL    HW2 5636   1.234   1.371  12.327
 1399SOL     OW 5637   1.571   0.636  11.652
 1399SOL    HW1 5638   1.524   0.679  11.723
 1399SOL    HW2 5639   1.631   0.704  11.619
 1400SOL     OW 5640   0.363   1.549  12.462
 1400SOL    HW1 5641   0.343   1.490  12.389
 1400SOL    HW2 5642   0.437   1.601  12.431
 1401SOL     OW 5643   0.576   0.875  12.207
 1401SOL    HW1 5644   0.613   0.963  12.213
 1401SOL    HW2 5645   0.533   0.860  12.291
 1402SOL     OW 5646   1.322   0.854  12.169
 1402SOL    HW1 5647   1.234   0.824  12.145
 1402SOL    HW2 5648   1.377   0.776  12.163
 1403SOL     OW 5649   1.161   0.543  11.411
 1403SOL    HW1 5650   1.184   0.450  11.422
 1403SOL    HW2 5651   1.150   0.575  11.501
 1404SOL     OW 5652   0.306   0.217  12.413
 1404SOL    HW1 5653   0.242   0.272  12.458
 1404SOL    HW2 5654   0.290   0.129  12.447
 1405SOL     OW 5655   0.082   1.337  12.433
 1405SOL    HW1 5656   0.055   1.292  12.512
 1405SOL    HW2 5657   0.086   1.430  12.458
 1406SOL     OW 5658   0.718   0.632  12.221
 1406SOL    HW1 5659   0.795   0.622  12.166
 1406SOL    HW2 5660   0.687   0.721  12.204
 1407SOL     OW 5661   0.399   0.088  11.847
 1407SOL    HW1 5662   0.346   0.166  11.861
 1407SOL    HW2 5663   0.342   0.030  11.794
 1408SOL     OW 5664   1.628   0.406  11.520
 1408SOL    HW1 5665   1.641   0.334  11.581
 1408SOL    HW2 5666   1.600   0.480  11.575
 1409SOL     OW 5667   1.035   0.757  12.140
 1409SOL    HW1 5668   1.024   0.767  12.234
 1409SOL    HW2 5669   1.004   0.668  12.121
 1410SOL     OW 5670   1.553   0.275  11.294
 1410SOL    HW1 5671   1.584   0.187  11.318
 1410SOL    HW2 5672   1.577   0.330  11.369
 1411SOL     OW 5673   1.278   0.794  11.188
 1411SOL    HW1 5674   1.343   0.725  11.204
 1411SOL    HW2 5675   1.311   0.840  11.111
 1412SOL     OW 5676   1.076   1.346  12.030
 1412SOL    HW1 5677   1.083   1.274  11.967
 1412SOL    HW2 5678   1.131   1.415  11.994
 1413SOL     OW 5679   0.317   0.812  12.100
 1413SOL    HW1 5680   0.409   0.836  12.112
 1413SOL    HW2 5681   0.312   0.721  12.131
 1414SOL     OW 5682   0.320   0.544  12.166
 1414SOL    HW1 5683   0.292   0.452  12.166
 1414SOL    HW2 5684   0.404   0.542  12.120
 1415SOL     OW 5685   1.172   0.207   0.150
 1415SOL    HW1 5686   1.169   0.264   0.226
 1415SOL    HW2 5687   1.206   0.262   0.080
 1416SOL     OW 5688   7.978   1.304  11.368
 1416SOL    HW1 5689   7.889   1.320  11.400
 1416SOL    HW2 5690   7.988   1.209  11.372
 1417SOL     OW 5691   0.115   1.741  12.127
 1417SOL    HW1 5692   0.099   1.682  12.053
 1417SOL    HW2 5693   0.192   1.792  12.101
 1418SOL     OW 5694   0.495   1.583  12.074
 1418SOL    HW1 5695   0.565   1.643  12.099
 1418SOL    HW2 5696   0.537   1.520  12.014
 1419SOL     OW 5697   0.976   0.788  12.408
 1419SOL    HW1 5698   1.020   0.858  12.456
 1419SOL    HW2 5699   0.884   0.798  12.430
 1420SOL     OW 5700   0.082   0.560  12.302
 1420SOL    HW1 5701   0.174   0.563  12.274
 1420SOL    HW2 5702   0.068   0.644  12.346
 1421SOL     OW 5703   0.829   0.569  11.529
 1421SOL    HW1 5704   0.830   0.488  11.479
 1421SOL    HW2 5705   0.755   0.618  11.494
 1422SOL     OW 5706   1.655   0.607  12.323
 1422SOL    HW1 5707   1.647   0.562  12.407
 1422SOL    HW2 5708   1.748   0.604  12.303
 1423SOL     OW 5709   0.735   0.454  12.430
 1423SOL    HW1 5710   0.665   0.392  12.408
 1423SOL    HW2 5711   0.723   0.527  12.369
 1424SOL     OW 5712   0.890   1.655   0.033
 1424SOL    HW1 5713   0.899   1.716  -0.041
 1424SOL    HW2 5714   0.933   1.700   0.105
 1425SOL     OW 5715   0.461   0.508  11.334
 1425SOL    HW1 5716   0.520   0.579  11.359
 1425SOL    HW2 5717   0.376   0.551  11.322
 1426SOL     OW 5718   1.281   1.035  12.369
 1426SOL    HW1 5719   1.304   0.979  12.294
 1426SOL    HW2 5720   1.230   1.106  12.331
 1427SOL     OW 5721   1.321   0.862  11.475
 1427SOL    HW1 5722   1.255   0.831  11.537
 1427SOL    HW2 5723   1.285   0.841  11.389
 1428SOL     OW 5724   1.753   1.750  12.304
 1428SOL    HW1 5725   1.824   1.769  12.242
 1428SOL    HW2 5726   1.740   1.655  12.297
 1429SOL     OW 5727   1.247   1.718  12.276
 1429SOL    HW1 5728   1.327   1.754  12.236
 1429SOL    HW2 5729   1.265   1.625  12.284
 1430SOL     OW 5730   0.055   1.194  12.204
 1430SOL    HW1 5731   0.073   1.240  12.285
 1430SOL    HW2 5732  -0.021   1.238  12.168
 1431SOL     OW 5733   1.679   0.163  11.656
 1431SOL    HW1 5734   1.762   0.158  11.610
 1431SOL    HW2 5735   1.698   0.128  11.743
 1432SOL     OW 5736   1.394   1.567  11.667
 1432SOL    HW1 5737   1.453   1.600  11.599
 1432SOL    HW2 5738   1.343   1.643  11.695
 1433SOL     OW 5739   1.276   0.933  11.838
 1433SOL    HW1 5740   1.351   0.874  11.853
 1433SOL    HW2 5741   1.312   1.003  11.784
 1434SOL     OW 5742   0.668   1.626  11.330
 1434SOL    HW1 5743   0.681   1.642  11.236
 1434SOL    HW2 5744   0.613   1.548  11.334
 1435SOL     OW 5745   1.624   1.792   0.041
 1435SOL    HW1 5746   1.674   1.778  -0.039
 1435SOL    HW2 5747   1.655   1.876   0.075
 1436SOL     OW 5748   1.847   0.182  12.128
 1436SOL    HW1 5749   1.856   0.087  12.137
 1436SOL    HW2 5750   1.764   0.194  12.083
 1437SOL     OW 5751   0.258   0.326  11.886
 1437SOL    HW1 5752   0.164   0.332  11.868
 1437SOL    HW2 5753   0.264   0.317  11.981
 1438SOL     OW 5754   1.210   1.600  11.205
 1438SOL    HW1 5755   1.198   1.508  11.228
 1438SOL    HW2 5756   1.145   1.616  11.136
 1439SOL     OW 5757   0.791   1.014  12.486
 1439SOL    HW1 5758   0.793   1.059  12.401
 1439SOL    HW2 5759   0.871   1.042  12.530
 1440SOL     OW 5760   0.910   0.904  11.457
 1440SOL    HW1 5761   0.974   0.944  11.398
 1440SOL    HW2 5762   0.963   0.853  11.519
 1441SOL     OW 5763   1.490   1.628  11.220
 1441SOL    HW1 5764   1.396   1.620  11.203
 1441SOL    HW2 5765   1.529   1.635  11.133
 1442SOL     OW 5766   1.068   1.114  11.887
 1442SOL    HW1 5767   0.996   1.064  11.924
 1442SOL    HW2 5768   1.133   1.049  11.863
 1443SOL     OW 5769   1.033   0.258  12.101
 1443SOL    HW1 5770   1.021   0.201  12.025
 1443SOL    HW2 5771   1.040   0.198  12.175
 1444SOL     OW 5772   0.609   1.494  11.648
 1444SOL    HW1 5773   0.659   1.444  11.583
 1444SOL    HW2 5774   0.526   1.513  11.605
 1445SOL     OW 5775   1.740   0.457   0.045
 1445SOL    HW1 5776   1.809   0.451   0.111
 1445SOL    HW2 5777   1.757   0.384  -0.014
 1446SOL     OW 5778   0.246   1.336  11.440
 1446SOL    HW1 5779   0.151   1.343  11.432
 1446SOL    HW2 5780   0.265   1.376  11.525
 1447SOL     OW 5781   0.072   0.334  11.183
 1447SOL    HW1 5782   0.018   0.383  11.244
 1447SOL    HW2 5783   0.106   0.400  11.122
 1448SOL     OW 5784   0.124   0.279  11.532
 1448SOL    HW1 5785   0.093   0.238  11.452
 1448SOL    HW2 5786   0.136   0.207  11.594
 1449SOL     OW 5787   1.175   1.330  11.289
 1449SOL    HW1 5788   1.080   1.321  11.286
 1449SOL    HW2 5789   1.196   1.334  11.383
 1450SOL     OW 5790   1.488   1.786  12.155
 1450SOL    HW1 5791   1.509   1.860  12.098
 1450SOL    HW2 5792   1.571   1.767  12.200
 1451SOL     OW 5793   1.677   0.874  12.407
 1451SOL    HW1 5794   1.656   0.790  12.365
 1451SOL    HW2 5795   1.653   0.940  12.342
 1452SOL     OW 5796   1.220   0.327  11.619
 1452SOL    HW1 5797   1.285   0.259  11.602
 1452SOL    HW2 5798   1.254   0.374  11.696
 1453SOL     OW 5799   0.596   0.732  11.855
 1453SOL    HW1 5800   0.636   0.819  11.846
 1453SOL    HW2 5801   0.538   0.725  11.779
 1454SOL     OW 5802   1.822   0.888   0.132
 1454SOL    HW1 5803   1.805   0.974   0.171
 1454SOL    HW2 5804   1.763   0.884   0.057
 1455SOL     OW 5805   0.884   1.364  11.228
 1455SOL    HW1 5806   0.833   1.392  11.304
 1455SOL    HW2 5807   0.888   1.441  11.172
 1456SOL     OW 5808   0.667   1.790  12.120
 1456SOL    HW1 5809   0.649   1.879  12.090
 1456SOL    HW2 5810   0.762   1.780  12.110
 1457SOL     OW 5811   0.877   0.970  12.028
 1457SOL    HW1 5812   0.927   0.898  12.067
 1457SOL    HW2 5813   0.838   1.015  12.103
 1458SOL     OW 5814   1.082   0.971  11.261
 1458SOL    HW1 5815   1.045   1.035  11.200
 1458SOL    HW2 5816   1.170   0.954  11.227
 1459SOL     OW 5817   1.846   1.554  12.013
 1459SOL    HW1 5818   1.763   1.544  11.965
 1459SOL    HW2 5819   1.841   1.491  12.084
 1460SOL     OW 5820   0.127   1.259  11.827
 1460SOL    HW1 5821   0.054   1.209  11.865
 1460SOL    HW2 5822   0.195   1.193  11.811
 1461SOL     OW 5823   1.830   0.254  12.391
 1461SOL    HW1 5824   1.783   0.177  12.424
 1461SOL    HW2 5825   1.841   0.237  12.298
 1462SOL     OW 5826   0.434   0.432  11.700
 1462SOL    HW1 5827   0.460   0.359  11.644
 1462SOL    HW2 5828   0.379   0.392  11.768
 1463SOL     OW 5829   1.708   1.487  12.271
 1463SOL    HW1 5830   1.628   1.453  12.232
 1463SOL    HW2 5831   1.727   1.427  12.343
 1464SOL     OW 5832   0.830   1.590  11.844
 1464SOL    HW1 5833   0.815   1.662  11.783
 1464SOL    HW2 5834   0.754   1.534  11.835
 1465SOL     OW 5835   1.440   0.226  12.283
 1465SOL    HW1 5836   1.507   0.176  12.331
 1465SOL    HW2 5837   1.385   0.263  12.352
 1466SOL     OW 5838   1.028   0.060  12.287
 1466SOL    HW1 5839   0.995   0.074  12.376
 1466SOL    HW2 5840   1.105   0.004  12.298
 1467SOL     OW 5841   0.775   1.333  11.497
 1467SOL    HW1 5842   0.751   1.241  11.510
 1467SOL    HW2 5843   0.856   1.344  11.546
 1468SOL     OW 5844   1.363   8.009  11.280
 1468SOL    HW1 5845   1.443   7.967  11.311
 1468SOL    HW2 5846   1.295   7.979  11.341
 1469SOL     OW 5847   1.295   0.468  11.844
 1469SOL    HW1 5848   1.242   0.547  11.850
 1469SOL    HW2 5849   1.297   0.432  11.933
 1470SOL     OW 5850   1.602   0.218  12.030
 1470SOL    HW1 5851   1.531   0.219  12.093
 1470SOL    HW2 5852   1.592   0.300  11.981
 1471SOL     OW 5853   0.050   1.035  11.448
 1471SOL    HW1 5854   0.146   1.030  11.445
 1471SOL    HW2 5855   0.030   1.062  11.537
 1472SOL     OW 5856   0.889   1.664  11.507
 1472SOL    HW1 5857   0.813   1.650  11.450
 1472SOL    HW2 5858   0.862   1.736  11.564
 1473SOL     OW 5859   0.268   2.483   0.060
 1473SOL    HW1 5860   0.222   2.520   0.135
 1473SOL    HW2 5861   0.225   2.399   0.045
 1474SOL     OW 5862   0.236   2.130   0.987
 1474SOL    HW1 5863   0.263   2.103   1.075
 1474SOL    HW2 5864   0.152   2.087   0.973
 1475SOL     OW 5865   8.009   2.259   0.599
 1475SOL    HW1 5866   7.923   2.245   0.639
 1475SOL    HW2 5867   8.014   2.195   0.529
 1476SOL     OW 5868   0.574   3.163   1.195
 1476SOL    HW1 5869   0.487   3.168   1.156
 1476SOL    HW2 5870   0.591   3.252   1.226
 1477SOL     OW 5871   1.582   3.388   0.714
 1477SOL    HW1 5872   1.540   3.362   0.796
 1477SOL    HW2 5873   1.511   3.388   0.650
 1478SOL     OW 5874   1.133   2.564   0.692
 1478SOL    HW1 5875   1.181   2.646   0.681
 1478SOL    HW2 5876   1.086   2.574   0.775
 1479SOL     OW 5877   1.730   2.475   0.270
 1479SOL    HW1 5878   1.732   2.474   0.175
 1479SOL    HW2 5879   1.704   2.386   0.294
 1480SOL     OW 5880   0.735   2.994   1.048
 1480SOL    HW1 5881   0.673   3.034   1.110
 1480SOL    HW2 5882   0.779   3.069   1.007
 1481SOL     OW 5883   0.878   2.616   1.824
 1481SOL    HW1 5884   0.876   2.683   1.892
 1481SOL    HW2 5885   0.899   2.663   1.744
 1482SOL     OW 5886   0.687   2.855   0.647
 1482SOL    HW1 5887   0.754   2.850   0.714
 1482SOL    HW2 5888   0.620   2.913   0.684
 1483SOL     OW 5889   0.712   3.011   1.822
 1483SOL    HW1 5890   0.760   3.087   1.854
 1483SOL    HW2 5891   0.634   3.048   1.780
 1484SOL     OW 5892   0.341   3.271   1.068
 1484SOL    HW1 5893   0.279   3.224   1.013
 1484SOL    HW2 5894   0.387   3.330   1.008
 1485SOL     OW 5895   1.459   3.369   1.363
 1485SOL    HW1 5896   1.514   3.446   1.376
 1485SOL    HW2 5897   1.390   3.378   1.429
 1486SOL     OW 5898   0.452   2.243   1.479
 1486SOL    HW1 5899   0.532   2.191   1.487
 1486SOL    HW2 5900   0.382   2.181   1.495
 1487SOL     OW 5901   1.605   2.303   0.752
 1487SOL    HW1 5902   1.560   2.336   0.674
 1487SOL    HW2 5903   1.584   2.367   0.820
 1488SOL     OW 5904   0.230   3.566   0.486
 1488SOL    HW1 5905   0.234   3.646   0.538
 1488SOL    HW2 5906   0.305   3.571   0.427
 1489SOL     OW 5907   1.138   3.206   1.695
 1489SOL    HW1 5908   1.182   3.198   1.779
 1489SOL    HW2 5909   1.085   3.126   1.687
 1490SOL     OW 5910   0.289   3.303   0.523
 1490SOL    HW1 5911   0.262   3.395   0.531
 1490SOL    HW2 5912   0.236   3.256   0.587
 1491SOL     OW 5913   0.279   2.943   0.892
 1491SOL    HW1 5914   0.281   2.851   0.918
 1491SOL    HW2 5915   0.203   2.979   0.939
 1492SOL     OW 5916   0.604   3.663   1.413
 1492SOL    HW1 5917   0.527   3.639   1.464
 1492SOL    HW2 5918   0.630   3.748   1.448
 1493SOL     OW 5919   0.580   2.829   0.162
 1493SOL    HW1 5920   0.644   2.847   0.092
 1493SOL    HW2 5921   0.616   2.875   0.238
 1494SOL     OW 5922   1.595   1.994   1.461
 1494SOL    HW1 5923   1.627   2.073   1.418
 1494SOL    HW2 5924   1.570   2.022   1.549
 1495SOL     OW 5925   0.128   2.511   0.545
 1495SOL    HW1 5926   0.098   2.423   0.567
 1495SOL    HW2 5927   0.116   2.561   0.626
 1496SOL     OW 5928   1.914   3.612   0.397
 1496SOL    HW1 5929   1.834   3.599   0.448
 1496SOL    HW2 5930   1.900   3.695   0.352
 1497SOL     OW 5931   0.028   3.418   0.097
 1497SOL    HW1 5932   0.025   3.343   0.157
 1497SOL    HW2 5933   0.055   3.492   0.152
 1498SOL     OW 5934   1.684   2.797   0.652
 1498SOL    HW1 5935   1.751   2.748   0.604
 1498SOL    HW2 5936   1.650   2.860   0.588
 1499SOL     OW 5937   1.647   2.979   0.434
 1499SOL    HW1 5938   1.732   2.974   0.391
 1499SOL    HW2 5939   1.659   3.044   0.504
 1500SOL     OW 5940   0.151   2.626   1.591
 1500SOL    HW1 5941   0.246   2.626   1.590
 1500SOL    HW2 5942   0.128   2.706   1.640
 1501SOL     OW 5943   0.620   3.256   0.735
 1501SOL    HW1 5944   0.576   3.171   0.744
 1501SOL    HW2 5945   0.606   3.281   0.644
 1502SOL     OW 5946   1.282   3.096   1.416
 1502SOL    HW1 5947   1.313   3.026   1.358
 1502SOL    HW2 5948   1.340   3.091   1.492
 1503SOL     OW 5949   0.826   1.877   0.529
 1503SOL    HW1 5950   0.865   1.960   0.501
 1503SOL    HW2 5951   0.732   1.893   0.529
 1504SOL     OW 5952   0.172   2.777   1.265
 1504SOL    HW1 5953   0.265   2.753   1.266
 1504SOL    HW2 5954   0.147   2.769   1.172
 1505SOL     OW 5955   1.496   2.880   0.226
 1505SOL    HW1 5956   1.433   2.819   0.265
 1505SOL    HW2 5957   1.551   2.908   0.299
 1506SOL     OW 5958   1.176   3.681   1.627
 1506SOL    HW1 5959   1.186   3.743   1.555
 1506SOL    HW2 5960   1.201   3.596   1.590
 1507SOL     OW 5961   0.360   2.118   1.842
 1507SOL    HW1 5962   0.407   2.195   1.875
 1507SOL    HW2 5963   0.267   2.141   1.852
 1508SOL     OW 5964   1.471   3.280   0.943
 1508SOL    HW1 5965   1.406   3.297   1.011
 1508SOL    HW2 5966   1.455   3.189   0.917
 1509SOL     OW 5967   1.681   3.599   0.543
 1509SOL    HW1 5968   1.633   3.568   0.466
 1509SOL    HW2 5969   1.655   3.542   0.614
 1510SOL     OW 5970   0.595   2.576   0.280
 1510SOL    HW1 5971   0.600   2.664   0.243
 1510SOL    HW2 5972   0.529   2.584   0.349
 1511SOL     OW 5973   1.281   2.238   0.937
 1511SOL    HW1 5974   1.192   2.204   0.944
 1511SOL    HW2 5975   1.333   2.182   0.994
 1512SOL     OW 5976   1.574   3.531   0.298
 1512SOL    HW1 5977   1.645   3.573   0.251
 1512SOL    HW2 5978   1.520   3.491   0.230
 1513SOL     OW 5979   0.791   2.479   1.444
 1513SOL    HW1 5980   0.764   2.452   1.532
 1513SOL    HW2 5981   0.760   2.409   1.387
 1514SOL     OW 5982   1.391   2.335   1.678
 1514SOL    HW1 5983   1.396   2.381   1.762
 1514SOL    HW2 5984   1.448   2.259   1.689
 1515SOL     OW 5985   0.946   2.745   1.589
 1515SOL    HW1 5986   1.004   2.680   1.548
 1515SOL    HW2 5987   0.899   2.785   1.516
 1516SOL     OW 5988   0.998   2.268   1.226
 1516SOL    HW1 5989   0.907   2.284   1.254
 1516SOL    HW2 5990   0.990   2.227   1.140
 1517SOL     OW 5991   1.057   2.566   0.425
 1517SOL    HW1 5992   1.074   2.561   0.519
 1517SOL    HW2 5993   0.972   2.523   0.414
 1518SOL     OW 5994   0.097   2.652   0.776
 1518SOL    HW1 5995   0.177   2.660   0.828
 1518SOL    HW2 5996   0.046   2.731   0.798
 1519SOL     OW 5997   0.124   3.672   1.564
 1519SOL    HW1 5998   0.131   3.665   1.659
 1519SOL    HW2 5999   0.031   3.658   1.545
 1520SOL     OW 6000   0.891   2.221   0.221
 1520SOL    HW1 6001   0.924   2.288   0.161
 1520SOL    HW2 6002   0.881   2.143   0.167
 1521SOL     OW 6003   1.693   2.424   1.832
 1521SOL    HW1 6004   1.664   2.501   1.783
 1521SOL    HW2 6005   1.727   2.365   1.765
 1522SOL     OW 6006   1.385   3.007   0.542
 1522SOL    HW1 6007   1.465   3.000   0.489
 1522SOL    HW2 6008   1.328   3.066   0.492
 1523SOL     OW 6009   0.557   2.034   0.903
 1523SOL    HW1 6010   0.559   2.065   0.994
 1523SOL    HW2 6011   0.555   2.114   0.851
 1524SOL     OW 6012   0.993   3.301   0.472
 1524SOL    HW1 6013   0.959   3.379   0.427
 1524SOL    HW2 6014   0.970   3.315   0.564
 1525SOL     OW 6015   0.358   3.687   0.874
 1525SOL    HW1 6016   0.403   3.603   0.884
 1525SOL    HW2 6017   0.425   3.753   0.895
 1526SOL     OW 6018   1.806   2.916   0.875
 1526SOL    HW1 6019   1.755   2.891   0.798
 1526SOL    HW2 6020   1.741   2.922   0.946
 1527SOL     OW 6021   1.225   3.406   1.514
 1527SOL    HW1 6022   1.215   3.334   1.576
 1527SOL    HW2 6023   1.150   3.399   1.456
 1528SOL     OW 6024   0.301   2.818   0.221
 1528SOL    HW1 6025   0.394   2.835   0.205
 1528SOL    HW2 6026   0.263   2.812   0.133
 1529SOL     OW 6027   1.481   2.621   0.721
 1529SOL    HW1 6028   1.481   2.578   0.806
 1529SOL    HW2 6029   1.559   2.678   0.723
 1530SOL     OW 6030   0.467   3.129   1.739
 1530SOL    HW1 6031   0.444   3.134   1.646
 1530SOL    HW2 6032   0.384   3.116   1.784
 1531SOL     OW 6033   1.090   3.648   0.238
 1531SOL    HW1 6034   1.036   3.599   0.300
 1531SOL    HW2 6035   1.142   3.580   0.194
 1532SOL     OW 6036   0.192   2.125   1.500
 1532SOL    HW1 6037   0.175   2.201   1.555
 1532SOL    HW2 6038   0.161   2.051   1.553
 1533SOL     OW 6039   1.652   3.272   0.099
 1533SOL    HW1 6040   1.593   3.344   0.079
 1533SOL    HW2 6041   1.598   3.193   0.089
 1534SOL     OW 6042   0.449   3.603   0.325
 1534SOL    HW1 6043   0.498   3.660   0.384
 1534SOL    HW2 6044   0.516   3.562   0.270
 1535SOL     OW 6045   1.402   1.959   0.450
 1535SOL    HW1 6046   1.397   1.928   0.360
 1535SOL    HW2 6047   1.496   1.966   0.468
 1536SOL     OW 6048   0.241   3.648   1.228
 1536SOL    HW1 6049   0.288   3.573   1.265
 1536SOL    HW2 6050   0.208   3.616   1.144
 1537SOL     OW 6051   0.940   3.565   0.896
 1537SOL    HW1 6052   1.017   3.516   0.925
 1537SOL    HW2 6053   0.904   3.511   0.825
 1538SOL     OW 6054   0.401   2.555   0.477
 1538SOL    HW1 6055   0.423   2.462   0.486
 1538SOL    HW2 6056   0.310   2.561   0.507
 1539SOL     OW 6057   1.523   2.085   1.720
 1539SOL    HW1 6058   1.536   2.105   1.813
 1539SOL    HW2 6059   1.454   2.018   1.720
 1540SOL     OW 6060   0.636   1.987   0.116
 1540SOL    HW1 6061   0.729   1.966   0.118
 1540SOL    HW2 6062   0.622   2.032   0.033
 1541SOL     OW 6063   0.759   2.141   1.756
 1541SOL    HW1 6064   0.843   2.094   1.753
 1541SOL    HW2 6065   0.716   2.109   1.835
 1542SOL     OW 6066   0.877   3.386   1.193
 1542SOL    HW1 6067   0.857   3.344   1.109
 1542SOL    HW2 6068   0.944   3.330   1.233
 1543SOL     OW 6069   1.336   2.452   1.435
 1543SOL    HW1 6070   1.368   2.421   1.520
 1543SOL    HW2 6071   1.375   2.539   1.425
 1544SOL     OW 6072   0.821   3.244   0.952
 1544SOL    HW1 6073   0.906   3.235   0.910
 1544SOL    HW2 6074   0.759   3.256   0.880
 1545SOL     OW 6075   0.930   2.372   0.897
 1545SOL    HW1 6076   0.904   2.363   0.806
 1545SOL    HW2 6077   0.960   2.284   0.922
 1546SOL     OW 6078   0.558   1.923   0.500
 1546SOL    HW1 6079   0.479   1.923   0.554
 1546SOL    HW2 6080   0.549   1.999   0.443
 1547SOL     OW 6081   1.456   3.087   0.052
 1547SOL    HW1 6082   1.475   3.007   0.101
 1547SOL    HW2 6083   1.363   3.104   0.069
 1548SOL     OW 6084   0.293   1.962   0.208
 1548SOL    HW1 6085   0.374   2.013   0.210
 1548SOL    HW2 6086   0.320   1.873   0.230
 1549SOL     OW 6087   0.948   2.114   0.465
 1549SOL    HW1 6088   0.921   2.151   0.381
 1549SOL    HW2 6089   1.043   2.127   0.467
 1550SOL     OW 6090   1.081   2.552   1.452
 1550SOL    HW1 6091   1.019   2.479   1.460
 1550SOL    HW2 6092   1.167   2.509   1.449
 1551SOL     OW 6093   1.219   3.433   0.794
 1551SOL    HW1 6094   1.231   3.501   0.728
 1551SOL    HW2 6095   1.282   3.453   0.862
 1552SOL     OW 6096   0.477   3.019   0.722
 1552SOL    HW1 6097   0.414   2.995   0.790
 1552SOL    HW2 6098   0.431   3.004   0.640
 1553SOL     OW 6099   1.258   3.651   0.613
 1553SOL    HW1 6100   1.306   3.717   0.562
 1553SOL    HW2 6101   1.186   3.701   0.654
 1554SOL     OW 6102   1.017   2.418   0.079
 1554SOL    HW1 6103   1.013   2.495   0.022
 1554SOL    HW2 6104   1.093   2.434   0.135
 1555SOL     OW 6105   0.096   2.469   1.376
 1555SOL    HW1 6106   0.186   2.446   1.354
 1555SOL    HW2 6107   0.104   2.527   1.452
 1556SOL     OW 6108   0.559   2.088   1.176
 1556SOL    HW1 6109   0.603   2.017   1.225
 1556SOL    HW2 6110   0.468   2.083   1.203
 1557SOL     OW 6111   0.865   2.320   0.638
 1557SOL    HW1 6112   0.827   2.377   0.571
 1557SOL    HW2 6113   0.890   2.241   0.591
 1558SOL     OW 6114   1.023   1.914   0.742
 1558SOL    HW1 6115   0.959   1.912   0.670
 1558SOL    HW2 6116   0.997   1.843   0.800
 1559SOL     OW 6117   1.436   3.019   0.857
 1559SOL    HW1 6118   1.368   2.953   0.868
 1559SOL    HW2 6119   1.449   3.025   0.762
 1560SOL     OW 6120   1.466   2.471   0.957
 1560SOL    HW1 6121   1.404   2.399   0.966
 1560SOL    HW2 6122   1.521   2.464   1.035
 1561SOL     OW 6123   1.826   2.686   0.429
 1561SOL    HW1 6124   1.879   2.622   0.478
 1561SOL    HW2 6125   1.784   2.634   0.360
 1562SOL     OW 6126   0.487   3.264   0.159
 1562SOL    HW1 6127   0.427   3.209   0.210
 1562SOL    HW2 6128   0.430   3.312   0.099
 1563SOL     OW 6129   1.694   3.139   0.640
 1563SOL    HW1 6130   1.788   3.137   0.656
 1563SOL    HW2 6131   1.666   3.226   0.670
 1564SOL     OW 6132   1.396   2.409   0.081
 1564SOL    HW1 6133   1.343   2.405   0.161
 1564SOL    HW2 6134   1.453   2.332   0.086
 1565SOL     OW 6135   0.520   2.120   0.319
 1565SOL    HW1 6136   0.573   2.074   0.254
 1565SOL    HW2 6137   0.502   2.205   0.278
 1566SOL     OW 6138   1.743   3.106   1.546
 1566SOL    HW1 6139   1.830   3.069   1.536
 1566SOL    HW2 6140   1.757   3.194   1.581
 1567SOL     OW 6141   1.049   3.210   1.325
 1567SOL    HW1 6142   0.974   3.182   1.376
 1567SOL    HW2 6143   1.125   3.172   1.370
 1568SOL     OW 6144   1.606   3.492   1.658
 1568SOL    HW1 6145   1.601   3.527   1.569
 1568SOL    HW2 6146   1.686   3.440   1.659
 1569SOL     OW 6147   1.136   3.073   1.099
 1569SOL    HW1 6148   1.081   3.114   1.165
 1569SOL    HW2 6149   1.109   3.113   1.016
 1570SOL     OW 6150   1.621   2.958   1.074
 1570SOL    HW1 6151   1.615   3.021   1.146
 1570SOL    HW2 6152   1.547   2.979   1.017
 1571SOL     OW 6153   0.920   1.952   1.389
 1571SOL    HW1 6154   0.942   1.935   1.297
 1571SOL    HW2 6155   0.999   1.992   1.426
 1572SOL     OW 6156   0.982   2.980   1.721
 1572SOL    HW1 6157   0.892   2.996   1.748
 1572SOL    HW2 6158   0.978   2.899   1.670
 1573SOL     OW 6159   0.716   2.927   0.380
 1573SOL    HW1 6160   0.702   2.904   0.472
 1573SOL    HW2 6161   0.793   2.877   0.354
 1574SOL     OW 6162   0.430   2.681   1.255
 1574SOL    HW1 6163   0.496   2.696   1.323
 1574SOL    HW2 6164   0.401   2.591   1.268
 1575SOL     OW 6165   1.263   2.236   1.285
 1575SOL    HW1 6166   1.294   2.314   1.331
 1575SOL    HW2 6167   1.172   2.256   1.262
 1576SOL     OW 6168   0.046   3.456   1.331
 1576SOL    HW1 6169   0.094   3.538   1.322
 1576SOL    HW2 6170   0.082   3.415   1.409
 1577SOL     OW 6171   0.331   2.968   0.491
 1577SOL    HW1 6172   0.319   3.038   0.427
 1577SOL    HW2 6173   0.347   2.890   0.438
 1578SOL     OW 6174   0.546   2.386   0.857
 1578SOL    HW1 6175   0.559   2.446   0.783
 1578SOL    HW2 6176   0.613   2.412   0.921
 1579SOL     OW 6177   1.244   3.212   0.399
 1579SOL    HW1 6178   1.299   3.282   0.435
 1579SOL    HW2 6179   1.156   3.232   0.431
 1580SOL     OW 6180   1.297   3.325   1.149
 1580SOL    HW1 6181   1.353   3.336   1.226
 1580SOL    HW2 6182   1.240   3.251   1.170
 1581SOL     OW 6183   1.556   2.457   0.508
 1581SOL    HW1 6184   1.513   2.519   0.567
 1581SOL    HW2 6185   1.592   2.511   0.438
 1582SOL     OW 6186   0.349   3.397   1.310
 1582SOL    HW1 6187   0.333   3.347   1.230
 1582SOL    HW2 6188   0.444   3.405   1.314
 1583SOL     OW 6189   0.431   2.588   1.613
 1583SOL    HW1 6190   0.484   2.640   1.553
 1583SOL    HW2 6191   0.491   2.521   1.646
 1584SOL     OW 6192   1.612   2.641   1.692
 1584SOL    HW1 6193   1.526   2.683   1.687
 1584SOL    HW2 6194   1.663   2.685   1.624
 1585SOL     OW 6195   0.995   2.001   1.755
 1585SOL    HW1 6196   1.053   2.075   1.736
 1585SOL    HW2 6197   1.045   1.924   1.731
 1586SOL     OW 6198   0.500   1.896   1.754
 1586SOL    HW1 6199   0.452   1.846   1.688
 1586SOL    HW2 6200   0.446   1.973   1.769
 1587SOL     OW 6201   0.589   2.738   1.033
 1587SOL    HW1 6202   0.626   2.826   1.036
 1587SOL    HW2 6203   0.534   2.733   1.112
 1588SOL     OW 6204   1.335   2.720   1.009
 1588SOL    HW1 6205   1.246   2.698   0.981
 1588SOL    HW2 6206   1.384   2.638   0.999
 1589SOL     OW 6207   1.213   2.390   0.283
 1589SOL    HW1 6208   1.225   2.315   0.342
 1589SOL    HW2 6209   1.165   2.454   0.335
 1590SOL     OW 6210   0.296   2.052   1.249
 1590SOL    HW1 6211   0.258   2.083   1.331
 1590SOL    HW2 6212   0.281   1.957   1.251
 1591SOL     OW 6213   0.051   3.170   1.268
 1591SOL    HW1 6214   0.074   3.118   1.345
 1591SOL    HW2 6215   0.053   3.260   1.299
 1592SOL     OW 6216   0.716   2.488   1.047
 1592SOL    HW1 6217   0.795   2.478   0.995
 1592SOL    HW2 6218   0.689   2.579   1.033
 1593SOL     OW 6219   1.742   2.824   1.862
 1593SOL    HW1 6220   1.697   2.753   1.814
 1593SOL    HW2 6221   1.683   2.844   1.935
 1594SOL     OW 6222   0.317   1.930   0.628
 1594SOL    HW1 6223   0.289   2.020   0.645
 1594SOL    HW2 6224   0.324   1.890   0.715
 1595SOL     OW 6225   1.617   2.230   0.367
 1595SOL    HW1 6226   1.650   2.163   0.426
 1595SOL    HW2 6227   1.583   2.299   0.424
 1596SOL     OW 6228   1.032   2.619   0.957
 1596SOL    HW1 6229   1.018   2.636   1.050
 1596SOL    HW2 6230   1.004   2.528   0.944
 1597SOL     OW 6231   0.979   3.428   1.725
 1597SOL    HW1 6232   0.965   3.470   1.640
 1597SOL    HW2 6233   1.022   3.345   1.703
 1598SOL     OW 6234   1.845   3.360   1.603
 1598SOL    HW1 6235   1.872   3.389   1.516
 1598SOL    HW2 6236   1.923   3.372   1.658
 1599SOL     OW 6237   0.361   2.810   1.789
 1599SOL    HW1 6238   0.433   2.828   1.850
 1599SOL    HW2 6239   0.383   2.726   1.750
 1600SOL     OW 6240   1.506   2.143   0.130
 1600SOL    HW1 6241   1.457   2.064   0.157
 1600SOL    HW2 6242   1.550   2.171   0.210
 1601SOL     OW 6243   1.290   2.667   0.057
 1601SOL    HW1 6244   1.340   2.585   0.047
 1601SOL    HW2 6245   1.334   2.728  -0.003
 1602SOL     OW 6246   1.071   3.205   0.858
 1602SOL    HW1 6247   1.079   3.133   0.796
 1602SOL    HW2 6248   1.128   3.273   0.824
 1603SOL     OW 6249   0.321   2.665   0.941
 1603SOL    HW1 6250   0.414   2.687   0.942
 1603SOL    HW2 6251   0.316   2.577   0.977
 1604SOL     OW 6252   0.332   2.381   1.017
 1604SOL    HW1 6253   0.296   2.294   1.001
 1604SOL    HW2 6254   0.407   2.387   0.958
 1605SOL     OW 6255   1.135   2.233   1.688
 1605SOL    HW1 6256   1.088   2.286   1.752
 1605SOL    HW2 6257   1.222   2.272   1.682
 1606SOL     OW 6258   1.160   2.057   1.473
 1606SOL    HW1 6259   1.149   2.120   1.545
 1606SOL    HW2 6260   1.204   2.108   1.405
 1607SOL     OW 6261   7.998   3.162   0.206
 1607SOL    HW1 6262   7.912   3.186   0.239
 1607SOL    HW2 6263   8.009   3.070   0.231
 1608SOL     OW 6264   0.101   3.608   0.937
 1608SOL    HW1 6265   0.108   3.531   0.880
 1608SOL    HW2 6266   0.180   3.658   0.919
 1609SOL     OW 6267   0.487   3.436   0.902
 1609SOL    HW1 6268   0.556   3.498   0.926
 1609SOL    HW2 6269   0.530   3.374   0.843
 1610SOL     OW 6270   0.964   2.645   1.220
 1610SOL    HW1 6271   1.027   2.630   1.290
 1610SOL    HW2 6272   0.882   2.609   1.252
 1611SOL     OW 6273   0.071   2.410   1.114
 1611SOL    HW1 6274   0.165   2.406   1.096
 1611SOL    HW2 6275   0.065   2.429   1.207
 1612SOL     OW 6276   0.198   2.362   1.663
 1612SOL    HW1 6277   0.290   2.368   1.639
 1612SOL    HW2 6278   0.163   2.450   1.650
 1613SOL     OW 6279   1.383   2.790   1.655
 1613SOL    HW1 6280   1.405   2.883   1.652
 1613SOL    HW2 6281   1.380   2.763   1.563
 1614SOL     OW 6282   0.817   2.440   0.381
 1614SOL    HW1 6283   0.826   2.364   0.324
 1614SOL    HW2 6284   0.742   2.488   0.346
 1615SOL     OW 6285   1.639   2.461   1.170
 1615SOL    HW1 6286   1.630   2.407   1.248
 1615SOL    HW2 6287   1.729   2.445   1.140
 1616SOL     OW 6288   0.290   3.394   1.721
 1616SOL    HW1 6289   0.253   3.467   1.770
 1616SOL    HW2 6290   0.282   3.319   1.779
 1617SOL     OW 6291   0.720   2.304   1.248
 1617SOL    HW1 6292   0.661   2.233   1.225
 1617SOL    HW2 6293   0.708   2.368   1.177
 1618SOL     OW 6294   0.924   3.537   1.471
 1618SOL    HW1 6295   0.892   3.499   1.389
 1618SOL    HW2 6296   0.918   3.631   1.457
 1619SOL     OW 6297   0.472   2.348   0.189
 1619SOL    HW1 6298   0.530   2.420   0.214
 1619SOL    HW2 6299   0.404   2.389   0.136
 1620SOL     OW 6300   0.155   2.982   1.453
 1620SOL    HW1 6301   0.133   2.937   1.534
 1620SOL    HW2 6302   0.159   2.912   1.388
 1621SOL     OW 6303   1.316   2.901   1.213
 1621SOL    HW1 6304   1.335   2.838   1.143
 1621SOL    HW2 6305   1.252   2.961   1.176
 1622SOL     OW 6306   1.303   2.709   0.329
 1622SOL    HW1 6307   1.227   2.671   0.374
 1622SOL    HW2 6308   1.293   2.682   0.237
 1623SOL     OW 6309   1.759   3.601   1.142
 1623SOL    HW1 6310   1.829   3.624   1.081
 1623SOL    HW2 6311   1.744   3.508   1.127
 1624SOL     OW 6312   1.238   3.591   1.087
 1624SOL    HW1 6313   1.324   3.619   1.057
 1624SOL    HW2 6314   1.251   3.501   1.117
 1625SOL     OW 6315   0.063   3.048   1.030
 1625SOL    HW1 6316   0.064   3.090   1.116
 1625SOL    HW2 6317  -0.007   3.092   0.983
 1626SOL     OW 6318   0.682   3.535   1.747
 1626SOL    HW1 6319   0.623   3.609   1.735
 1626SOL    HW2 6320   0.759   3.556   1.694
 1627SOL     OW 6321   0.906   1.965   0.096
 1627SOL    HW1 6322   0.952   1.983   0.014
 1627SOL    HW2 6323   0.972   1.923   0.152
 1628SOL     OW 6324   1.729   2.019   0.508
 1628SOL    HW1 6325   1.797   1.996   0.444
 1628SOL    HW2 6326   1.707   1.936   0.551
 1629SOL     OW 6327   1.395   3.432   0.500
 1629SOL    HW1 6328   1.446   3.468   0.427
 1629SOL    HW2 6329   1.341   3.505   0.531
 1630SOL     OW 6330   0.172   3.606   1.840
 1630SOL    HW1 6331   0.108   3.559   1.893
 1630SOL    HW2 6332   0.217   3.664   1.903
 1631SOL     OW 6333   1.276   2.793   0.669
 1631SOL    HW1 6334   1.350   2.734   0.683
 1631SOL    HW2 6335   1.311   2.863   0.614
 1632SOL     OW 6336   0.795   3.142   1.420
 1632SOL    HW1 6337   0.769   3.185   1.501
 1632SOL    HW2 6338   0.721   3.156   1.361
 1633SOL     OW 6339   0.660   3.472   0.195
 1633SOL    HW1 6340   0.719   3.477   0.120
 1633SOL    HW2 6341   0.612   3.390   0.182
 1634SOL     OW 6342   1.617   3.594   1.390
 1634SOL    HW1 6343   1.667   3.599   1.309
 1634SOL    HW2 6344   1.603   3.685   1.415
 1635SOL     OW 6345   1.844   2.029   0.961
 1635SOL    HW1 6346   1.870   1.940   0.940
 1635SOL    HW2 6347   1.755   2.037   0.925
 1636SOL     OW 6348   0.257   2.182   0.711
 1636SOL    HW1 6349   0.171   2.218   0.689
 1636SOL    HW2 6350   0.255   2.173   0.806
 1637SOL     OW 6351   1.202   3.463   0.070
 1637SOL    HW1 6352   1.194   3.369   0.088
 1637SOL    HW2 6353   1.151   3.478  -0.009
 1638SOL     OW 6354   0.824   2.872   1.379
 1638SOL    HW1 6355   0.867   2.867   1.293
 1638SOL    HW2 6356   0.817   2.966   1.396
 1639SOL     OW 6357   0.930   2.788   0.296
 1639SOL    HW1 6358   0.987   2.811   0.223
 1639SOL    HW2 6359   0.975   2.716   0.340
 1640SOL     OW 6360   1.470   3.470   0.044
 1640SOL    HW1 6361   1.374   3.471   0.050
 1640SOL    HW2 6362   1.488   3.487  -0.048
 1641SOL     OW 6363   0.369   3.160   1.488
 1641SOL    HW1 6364   0.348   3.241   1.442
 1641SOL    HW2 6365   0.295   3.102   1.470
 1642SOL     OW 6366   1.607   3.149   1.279
 1642SOL    HW1 6367   1.661   3.128   1.356
 1642SOL    HW2 6368   1.547   3.217   1.311
 1643SOL     OW 6369   1.067   2.976   0.713
 1643SOL    HW1 6370   0.994   2.926   0.751
 1643SOL    HW2 6371   1.132   2.909   0.690
 1644SOL     OW 6372   1.028   2.107   0.963
 1644SOL    HW1 6373   1.027   2.060   0.879
 1644SOL    HW2 6374   1.022   2.037   1.028
 1645SOL     OW 6375   0.608   3.341   0.479
 1645SOL    HW1 6376   0.649   3.299   0.404
 1645SOL    HW2 6377   0.521   3.366   0.448
 1646SOL     OW 6378   1.730   2.254   1.379
 1646SOL    HW1 6379   1.802   2.317   1.381
 1646SOL    HW2 6380   1.760   2.185   1.320
 1647SOL     OW 6381   0.270   3.160   0.298
 1647SOL    HW1 6382   0.183   3.174   0.262
 1647SOL    HW2 6383   0.275   3.220   0.373
 1648SOL     OW 6384   0.099   2.865   1.712
 1648SOL    HW1 6385   0.064   2.951   1.734
 1648SOL    HW2 6386   0.185   2.862   1.755
 1649SOL     OW 6387   0.680   2.058   1.499
 1649SOL    HW1 6388   0.764   2.035   1.460
 1649SOL    HW2 6389   0.701   2.089   1.587
 1650SOL     OW 6390   0.132   2.250   0.015
 1650SOL    HW1 6391   0.054   2.244   0.070
 1650SOL    HW2 6392   0.098   2.273  -0.072
 1651SOL     OW 6393   1.421   2.717   1.393
 1651SOL    HW1 6394   1.372   2.779   1.339
 1651SOL    HW2 6395   1.511   2.722   1.360
 1652SOL     OW 6396   0.072   2.090   0.356
 1652SOL    HW1 6397   0.034   2.145   0.288
 1652SOL    HW2 6398   0.154   2.058   0.319
 1653SOL     OW 6399   1.194   3.193   0.120
 1653SOL    HW1 6400   1.099   3.186   0.109
 1653SOL    HW2 6401   1.207   3.186   0.215
 1654SOL     OW 6402   0.624   2.695   1.442
 1654SOL    HW1 6403   0.680   2.771   1.429
 1654SOL    HW2 6404   0.684   2.621   1.446
 1655SOL     OW 6405   1.492   3.653   0.992
 1655SOL    HW1 6406   1.516   3.727   0.936
 1655SOL    HW2 6407   1.573   3.631   1.038
 1656SOL     OW 6408   0.708   2.422   1.698
 1656SOL    HW1 6409   0.758   2.480   1.756
 1656SOL    HW2 6410   0.727   2.334   1.730
 1657SOL     OW 6411   1.471   3.052   1.624
 1657SOL    HW1 6412   1.460   3.068   1.718
 1657SOL    HW2 6413   1.563   3.073   1.607
 1658SOL     OW 6414   0.387   3.600   1.563
 1658SOL    HW1 6415   0.298   3.629   1.542
 1658SOL    HW2 6416   0.375   3.514   1.603
 1659SOL     OW 6417   1.660   2.741   1.250
 1659SOL    HW1 6418   1.657   2.657   1.205
 1659SOL    HW2 6419   1.651   2.806   1.181
 1660SOL     OW 6420   1.222   2.174   0.454
 1660SOL    HW1 6421   1.283   2.100   0.453
 1660SOL    HW2 6422   1.244   2.223   0.533
 1661SOL     OW 6423   0.588   2.594   0.679
 1661SOL    HW1 6424   0.629   2.679   0.666
 1661SOL    HW2 6425   0.526   2.586   0.606
 1662SOL     OW 6426   1.754   2.221   1.652
 1662SOL    HW1 6427   1.741   2.240   1.559
 1662SOL    HW2 6428   1.679   2.168   1.677
 1663SOL     OW 6429   1.737   2.794   1.509
 1663SOL    HW1 6430   1.735   2.889   1.522
 1663SOL    HW2 6431   1.723   2.783   1.415
 1664SOL     OW 6432   0.923   3.231   0.064
 1664SOL    HW1 6433   0.865   3.212   0.138
 1664SOL    HW2 6434   0.904   3.322   0.042
 1665SOL     OW 6435   0.665   3.638   0.930
 1665SOL    HW1 6436   0.648   3.732   0.917
 1665SOL    HW2 6437   0.761   3.631   0.928
 1666SOL     OW 6438   0.873   2.836   0.854
 1666SOL    HW1 6439   0.923   2.763   0.891
 1666SOL    HW2 6440   0.830   2.877   0.929
 1667SOL     OW 6441   1.086   2.847   0.071
 1667SOL    HW1 6442   1.128   2.920   0.026
 1667SOL    HW2 6443   1.155   2.781   0.081
 1668SOL     OW 6444   1.857   3.405   0.814
 1668SOL    HW1 6445   1.765   3.406   0.789
 1668SOL    HW2 6446   1.860   3.347   0.890
 1669SOL     OW 6447   0.217   3.159   1.855
 1669SOL    HW1 6448   0.124   3.146   1.837
 1669SOL    HW2 6449   0.222   3.162   1.951
 1670SOL     OW 6450   0.133   3.125   0.659
 1670SOL    HW1 6451   0.058   3.078   0.695
 1670SOL    HW2 6452   0.198   3.057   0.642
 1671SOL     OW 6453   0.683   3.274   1.632
 1671SOL    HW1 6454   0.603   3.234   1.666
 1671SOL    HW2 6455   0.684   3.361   1.671
 1672SOL     OW 6456   1.807   2.043   1.232
 1672SOL    HW1 6457   1.815   1.948   1.246
 1672SOL    HW2 6458   1.821   2.054   1.138
 1673SOL     OW 6459   0.433   2.295   0.525
 1673SOL    HW1 6460   0.463   2.224   0.469
 1673SOL    HW2 6461   0.382   2.251   0.594
 1674SOL     OW 6462   1.705   3.342   1.079
 1674SOL    HW1 6463   1.623   3.322   1.035
 1674SOL    HW2 6464   1.712   3.277   1.149
 1675SOL     OW 6465   0.352   2.422   1.297
 1675SOL    HW1 6466   0.397   2.362   1.356
 1675SOL    HW2 6467   0.369   2.386   1.210
 1676SOL     OW 6468   0.835   3.436   0.679
 1676SOL    HW1 6469   0.808   3.501   0.614
 1676SOL    HW2 6470   0.760   3.377   0.687
 1677SOL     OW 6471   1.427   2.095   1.118
 1677SOL    HW1 6472   1.449   2.013   1.163
 1677SOL    HW2 6473   1.377   2.145   1.182
 1678SOL     OW 6474   1.009   1.879   1.130
 1678SOL    HW1 6475   0.953   1.815   1.087
 1678SOL    HW2 6476   1.096   1.839   1.130
 1679SOL     OW 6477   0.791   3.185   0.306
 1679SOL    HW1 6478   0.758   3.098   0.329
 1679SOL    HW2 6479   0.862   3.201   0.369
 1680SOL     OW 6480   0.623   3.421   1.285
 1680SOL    HW1 6481   0.620   3.505   1.330
 1680SOL    HW2 6482   0.712   3.415   1.250
 1681SOL     OW 6483   1.371   1.896   0.186
 1681SOL    HW1 6484   1.378   1.851   0.101
 1681SOL    HW2 6485   1.287   1.942   0.181
 1682SOL     OW 6486   1.279   2.322   0.673
 1682SOL    HW1 6487   1.232   2.406   0.678
 1682SOL    HW2 6488   1.285   2.292   0.764
 1683SOL     OW 6489   1.581   2.053   0.888
 1683SOL    HW1 6490   1.528   2.080   0.963
 1683SOL    HW2 6491   1.581   2.129   0.830
 1684SOL     OW 6492   0.038   2.910   0.292
 1684SOL    HW1 6493   0.129   2.887   0.272
 1684SOL    HW2 6494   0.033   2.903   0.387
 1685SOL     OW 6495   0.877   3.523   0.363
 1685SOL    HW1 6496   0.795   3.504   0.317
 1685SOL    HW2 6497   0.857   3.600   0.416
 1686SOL     OW 6498   0.234   2.560   1.939
 1686SOL    HW1 6499   0.174   2.539   2.011
 1686SOL    HW2 6500   0.248   2.477   1.894
 1687SOL     OW 6501   0.238   2.128   2.846
 1687SOL    HW1 6502   0.261   2.099   2.935
 1687SOL    HW2 6503   0.154   2.086   2.828
 1688SOL     OW 6504   8.006   2.247   2.469
 1688SOL    HW1 6505   7.916   2.238   2.499
 1688SOL    HW2 6506   8.010   2.196   2.388
 1689SOL     OW 6507   0.571   3.160   3.054
 1689SOL    HW1 6508   0.485   3.169   3.011
 1689SOL    HW2 6509   0.590   3.247   3.089
 1690SOL     OW 6510   1.579   3.374   2.573
 1690SOL    HW1 6511   1.535   3.356   2.656
 1690SOL    HW2 6512   1.507   3.380   2.509
 1691SOL     OW 6513   1.133   2.566   2.550
 1691SOL    HW1 6514   1.184   2.645   2.537
 1691SOL    HW2 6515   1.086   2.580   2.633
 1692SOL     OW 6516   1.793   2.448   2.081
 1692SOL    HW1 6517   1.758   2.445   1.992
 1692SOL    HW2 6518   1.747   2.378   2.127
 1693SOL     OW 6519   0.741   2.992   2.920
 1693SOL    HW1 6520   0.674   3.035   2.974
 1693SOL    HW2 6521   0.785   3.064   2.874
 1694SOL     OW 6522   0.869   2.621   3.684
 1694SOL    HW1 6523   0.873   2.681   3.758
 1694SOL    HW2 6524   0.889   2.676   3.608
 1695SOL     OW 6525   0.687   2.857   2.506
 1695SOL    HW1 6526   0.756   2.854   2.572
 1695SOL    HW2 6527   0.620   2.915   2.543
 1696SOL     OW 6528   0.709   3.010   3.679
 1696SOL    HW1 6529   0.758   3.084   3.715
 1696SOL    HW2 6530   0.630   3.049   3.641
 1697SOL     OW 6531   0.343   3.272   2.928
 1697SOL    HW1 6532   0.280   3.228   2.872
 1697SOL    HW2 6533   0.390   3.332   2.870
 1698SOL     OW 6534   1.461   3.370   3.227
 1698SOL    HW1 6535   1.519   3.446   3.233
 1698SOL    HW2 6536   1.399   3.381   3.299
 1699SOL     OW 6537   0.463   2.239   3.336
 1699SOL    HW1 6538   0.528   2.170   3.351
 1699SOL    HW2 6539   0.379   2.196   3.352
 1700SOL     OW 6540   1.604   2.300   2.612
 1700SOL    HW1 6541   1.540   2.326   2.546
 1700SOL    HW2 6542   1.607   2.374   2.673
 1701SOL     OW 6543   0.235   3.556   2.345
 1701SOL    HW1 6544   0.229   3.640   2.389
 1701SOL    HW2 6545   0.302   3.569   2.277
 1702SOL     OW 6546   1.137   3.204   3.556
 1702SOL    HW1 6547   1.187   3.194   3.637
 1702SOL    HW2 6548   1.086   3.123   3.549
 1703SOL     OW 6549   0.294   3.292   2.373
 1703SOL    HW1 6550   0.271   3.385   2.382
 1703SOL    HW2 6551   0.240   3.248   2.439
 1704SOL     OW 6552   0.277   2.945   2.761
 1704SOL    HW1 6553   0.277   2.852   2.784
 1704SOL    HW2 6554   0.199   2.980   2.804
 1705SOL     OW 6555   0.598   3.664   3.268
 1705SOL    HW1 6556   0.522   3.641   3.323
 1705SOL    HW2 6557   0.630   3.746   3.305
 1706SOL     OW 6558   0.572   2.854   2.007
 1706SOL    HW1 6559   0.624   2.896   1.938
 1706SOL    HW2 6560   0.613   2.883   2.088
 1707SOL     OW 6561   1.583   1.994   3.318
 1707SOL    HW1 6562   1.636   2.057   3.269
 1707SOL    HW2 6563   1.567   2.037   3.402
 1708SOL     OW 6564   0.137   2.490   2.410
 1708SOL    HW1 6565   0.097   2.409   2.442
 1708SOL    HW2 6566   0.122   2.553   2.480
 1709SOL     OW 6567   1.845   3.609   2.190
 1709SOL    HW1 6568   1.915   3.586   2.251
 1709SOL    HW2 6569   1.858   3.702   2.172
 1710SOL     OW 6570   0.019   3.445   2.000
 1710SOL    HW1 6571   0.001   3.352   1.989
 1710SOL    HW2 6572   0.006   3.461   2.093
 1711SOL     OW 6573   1.685   2.766   2.503
 1711SOL    HW1 6574   1.778   2.742   2.509
 1711SOL    HW2 6575   1.680   2.820   2.424
 1712SOL     OW 6576   1.655   2.967   2.295
 1712SOL    HW1 6577   1.742   2.965   2.254
 1712SOL    HW2 6578   1.665   3.026   2.369
 1713SOL     OW 6579   0.144   2.632   3.446
 1713SOL    HW1 6580   0.240   2.632   3.443
 1713SOL    HW2 6581   0.121   2.711   3.495
 1714SOL     OW 6582   0.617   3.255   2.598
 1714SOL    HW1 6583   0.573   3.171   2.604
 1714SOL    HW2 6584   0.604   3.283   2.508
 1715SOL     OW 6585   1.282   3.091   3.282
 1715SOL    HW1 6586   1.318   3.028   3.220
 1715SOL    HW2 6587   1.344   3.091   3.355
 1716SOL     OW 6588   0.825   1.868   2.380
 1716SOL    HW1 6589   0.867   1.951   2.353
 1716SOL    HW2 6590   0.732   1.888   2.381
 1717SOL     OW 6591   0.164   2.770   3.129
 1717SOL    HW1 6592   0.257   2.750   3.125
 1717SOL    HW2 6593   0.136   2.774   3.038
 1718SOL     OW 6594   1.531   2.869   2.064
 1718SOL    HW1 6595   1.464   2.810   2.098
 1718SOL    HW2 6596   1.577   2.901   2.142
 1719SOL     OW 6597   1.164   3.676   3.486
 1719SOL    HW1 6598   1.185   3.742   3.420
 1719SOL    HW2 6599   1.200   3.595   3.452
 1720SOL     OW 6600   0.362   2.132   3.699
 1720SOL    HW1 6601   0.402   2.206   3.744
 1720SOL    HW2 6602   0.268   2.146   3.709
 1721SOL     OW 6603   1.460   3.283   2.808
 1721SOL    HW1 6604   1.398   3.297   2.880
 1721SOL    HW2 6605   1.448   3.191   2.785
 1722SOL     OW 6606   1.645   3.628   2.436
 1722SOL    HW1 6607   1.630   3.584   2.352
 1722SOL    HW2 6608   1.640   3.558   2.501
 1723SOL     OW 6609   0.591   2.571   2.128
 1723SOL    HW1 6610   0.597   2.658   2.088
 1723SOL    HW2 6611   0.531   2.583   2.202
 1724SOL     OW 6612   1.280   2.238   2.801
 1724SOL    HW1 6613   1.193   2.197   2.808
 1724SOL    HW2 6614   1.336   2.183   2.857
 1725SOL     OW 6615   1.579   3.532   2.174
 1725SOL    HW1 6616   1.671   3.555   2.168
 1725SOL    HW2 6617   1.552   3.517   2.084
 1726SOL     OW 6618   1.385   2.331   3.538
 1726SOL    HW1 6619   1.396   2.379   3.620
 1726SOL    HW2 6620   1.445   2.257   3.545
 1727SOL     OW 6621   0.940   2.742   3.436
 1727SOL    HW1 6622   1.022   2.695   3.421
 1727SOL    HW2 6623   0.924   2.789   3.354
 1728SOL     OW 6624   0.987   2.264   3.084
 1728SOL    HW1 6625   0.893   2.278   3.077
 1728SOL    HW2 6626   1.011   2.219   3.002
 1729SOL     OW 6627   1.055   2.559   2.282
 1729SOL    HW1 6628   1.076   2.557   2.376
 1729SOL    HW2 6629   0.971   2.514   2.275
 1730SOL     OW 6630   0.096   2.654   2.629
 1730SOL    HW1 6631   0.174   2.664   2.684
 1730SOL    HW2 6632   0.049   2.736   2.639
 1731SOL     OW 6633   0.122   3.682   3.432
 1731SOL    HW1 6634   0.128   3.670   3.527
 1731SOL    HW2 6635   0.031   3.661   3.411
 1732SOL     OW 6636   0.901   2.211   2.059
 1732SOL    HW1 6637   0.940   2.276   2.000
 1732SOL    HW2 6638   0.915   2.127   2.014
 1733SOL     OW 6639   1.677   2.422   3.694
 1733SOL    HW1 6640   1.653   2.500   3.644
 1733SOL    HW2 6641   1.725   2.367   3.632
 1734SOL     OW 6642   1.382   3.001   2.392
 1734SOL    HW1 6643   1.466   2.995   2.347
 1734SOL    HW2 6644   1.333   3.067   2.344
 1735SOL     OW 6645   0.559   2.039   2.760
 1735SOL    HW1 6646   0.555   2.089   2.842
 1735SOL    HW2 6647   0.560   2.107   2.692
 1736SOL     OW 6648   0.994   3.306   2.326
 1736SOL    HW1 6649   0.969   3.384   2.276
 1736SOL    HW2 6650   0.973   3.328   2.417
 1737SOL     OW 6651   0.359   3.689   2.727
 1737SOL    HW1 6652   0.405   3.606   2.739
 1737SOL    HW2 6653   0.424   3.756   2.748
 1738SOL     OW 6654   1.795   2.903   2.746
 1738SOL    HW1 6655   1.743   2.913   2.667
 1738SOL    HW2 6656   1.732   2.913   2.818
 1739SOL     OW 6657   1.226   3.406   3.381
 1739SOL    HW1 6658   1.216   3.332   3.440
 1739SOL    HW2 6659   1.154   3.396   3.318
 1740SOL     OW 6660   0.305   2.808   2.099
 1740SOL    HW1 6661   0.392   2.835   2.069
 1740SOL    HW2 6662   0.284   2.731   2.046
 1741SOL     OW 6663   1.478   2.611   2.581
 1741SOL    HW1 6664   1.484   2.575   2.669
 1741SOL    HW2 6665   1.557   2.665   2.572
 1742SOL     OW 6666   0.464   3.127   3.601
 1742SOL    HW1 6667   0.441   3.133   3.508
 1742SOL    HW2 6668   0.381   3.116   3.646
 1743SOL     OW 6669   1.126   3.645   2.082
 1743SOL    HW1 6670   1.051   3.607   2.127
 1743SOL    HW2 6671   1.151   3.579   2.018
 1744SOL     OW 6672   0.202   2.145   3.350
 1744SOL    HW1 6673   0.143   2.220   3.350
 1744SOL    HW2 6674   0.168   2.088   3.419
 1745SOL     OW 6675   1.624   3.243   1.948
 1745SOL    HW1 6676   1.583   3.329   1.938
 1745SOL    HW2 6677   1.554   3.181   1.927
 1746SOL     OW 6678   0.456   3.607   2.174
 1746SOL    HW1 6679   0.503   3.657   2.241
 1746SOL    HW2 6680   0.524   3.565   2.122
 1747SOL     OW 6681   1.402   1.969   2.310
 1747SOL    HW1 6682   1.398   1.944   2.218
 1747SOL    HW2 6683   1.495   1.978   2.329
 1748SOL     OW 6684   0.239   3.646   3.091
 1748SOL    HW1 6685   0.290   3.573   3.126
 1748SOL    HW2 6686   0.210   3.616   3.004
 1749SOL     OW 6687   0.946   3.562   2.759
 1749SOL    HW1 6688   1.031   3.522   2.778
 1749SOL    HW2 6689   0.909   3.509   2.689
 1750SOL     OW 6690   0.411   2.556   2.340
 1750SOL    HW1 6691   0.427   2.463   2.354
 1750SOL    HW2 6692   0.317   2.567   2.356
 1751SOL     OW 6693   1.527   2.087   3.583
 1751SOL    HW1 6694   1.534   2.115   3.675
 1751SOL    HW2 6695   1.490   1.999   3.589
 1752SOL     OW 6696   0.651   1.974   1.966
 1752SOL    HW1 6697   0.709   1.900   1.985
 1752SOL    HW2 6698   0.597   1.944   1.893
 1753SOL     OW 6699   0.761   2.145   3.615
 1753SOL    HW1 6700   0.842   2.095   3.615
 1753SOL    HW2 6701   0.722   2.128   3.701
 1754SOL     OW 6702   0.872   3.376   3.057
 1754SOL    HW1 6703   0.857   3.340   2.970
 1754SOL    HW2 6704   0.947   3.327   3.091
 1755SOL     OW 6705   1.333   2.466   3.293
 1755SOL    HW1 6706   1.374   2.434   3.374
 1755SOL    HW2 6707   1.375   2.551   3.278
 1756SOL     OW 6708   0.821   3.238   2.812
 1756SOL    HW1 6709   0.908   3.233   2.772
 1756SOL    HW2 6710   0.762   3.255   2.738
 1757SOL     OW 6711   0.922   2.366   2.761
 1757SOL    HW1 6712   0.896   2.358   2.669
 1757SOL    HW2 6713   0.956   2.280   2.785
 1758SOL     OW 6714   0.559   1.926   2.356
 1758SOL    HW1 6715   0.477   1.925   2.405
 1758SOL    HW2 6716   0.551   2.001   2.297
 1759SOL     OW 6717   1.423   3.062   1.896
 1759SOL    HW1 6718   1.456   2.991   1.951
 1759SOL    HW2 6719   1.340   3.087   1.937
 1760SOL     OW 6720   0.283   1.912   2.035
 1760SOL    HW1 6721   0.338   1.979   1.995
 1760SOL    HW2 6722   0.344   1.857   2.084
 1761SOL     OW 6723   0.945   2.112   2.316
 1761SOL    HW1 6724   0.920   2.150   2.231
 1761SOL    HW2 6725   1.039   2.127   2.322
 1762SOL     OW 6726   1.069   2.470   3.348
 1762SOL    HW1 6727   1.083   2.415   3.424
 1762SOL    HW2 6728   1.156   2.483   3.311
 1763SOL     OW 6729   1.214   3.438   2.658
 1763SOL    HW1 6730   1.230   3.503   2.590
 1763SOL    HW2 6731   1.284   3.452   2.722
 1764SOL     OW 6732   0.474   3.016   2.586
 1764SOL    HW1 6733   0.411   2.996   2.655
 1764SOL    HW2 6734   0.427   2.999   2.504
 1765SOL     OW 6735   1.260   3.653   2.475
 1765SOL    HW1 6736   1.313   3.715   2.425
 1765SOL    HW2 6737   1.195   3.707   2.520
 1766SOL     OW 6738   1.026   2.390   1.889
 1766SOL    HW1 6739   0.983   2.473   1.871
 1766SOL    HW2 6740   1.091   2.411   1.957
 1767SOL     OW 6741   0.107   2.445   3.248
 1767SOL    HW1 6742   0.199   2.439   3.220
 1767SOL    HW2 6743   0.106   2.516   3.313
 1768SOL     OW 6744   0.564   2.111   3.038
 1768SOL    HW1 6745   0.605   2.025   3.047
 1768SOL    HW2 6746   0.473   2.098   3.065
 1769SOL     OW 6747   0.861   2.313   2.500
 1769SOL    HW1 6748   0.822   2.372   2.435
 1769SOL    HW2 6749   0.889   2.237   2.449
 1770SOL     OW 6750   1.012   1.926   2.615
 1770SOL    HW1 6751   0.958   1.919   2.536
 1770SOL    HW2 6752   0.991   1.847   2.665
 1771SOL     OW 6753   1.444   3.022   2.719
 1771SOL    HW1 6754   1.372   2.959   2.706
 1771SOL    HW2 6755   1.481   3.033   2.631
 1772SOL     OW 6756   1.467   2.474   2.825
 1772SOL    HW1 6757   1.410   2.397   2.830
 1772SOL    HW2 6758   1.526   2.465   2.899
 1773SOL     OW 6759   1.835   2.667   2.239
 1773SOL    HW1 6760   1.892   2.624   2.303
 1773SOL    HW2 6761   1.819   2.600   2.173
 1774SOL     OW 6762   0.490   3.281   2.005
 1774SOL    HW1 6763   0.410   3.253   2.048
 1774SOL    HW2 6764   0.493   3.231   1.924
 1775SOL     OW 6765   1.685   3.116   2.517
 1775SOL    HW1 6766   1.780   3.113   2.528
 1775SOL    HW2 6767   1.662   3.208   2.535
 1776SOL     OW 6768   1.392   2.437   1.931
 1776SOL    HW1 6769   1.334   2.413   2.003
 1776SOL    HW2 6770   1.480   2.417   1.963
 1777SOL     OW 6771   0.527   2.120   2.168
 1777SOL    HW1 6772   0.578   2.074   2.101
 1777SOL    HW2 6773   0.502   2.202   2.126
 1778SOL     OW 6774   1.741   3.111   3.422
 1778SOL    HW1 6775   1.826   3.074   3.401
 1778SOL    HW2 6776   1.760   3.201   3.451
 1779SOL     OW 6777   1.057   3.205   3.186
 1779SOL    HW1 6778   0.981   3.180   3.239
 1779SOL    HW2 6779   1.132   3.167   3.232
 1780SOL     OW 6780   1.601   3.489   3.514
 1780SOL    HW1 6781   1.602   3.532   3.429
 1780SOL    HW2 6782   1.686   3.443   3.518
 1781SOL     OW 6783   1.106   3.051   2.959
 1781SOL    HW1 6784   1.077   3.110   3.029
 1781SOL    HW2 6785   1.100   3.103   2.879
 1782SOL     OW 6786   1.611   2.954   2.939
 1782SOL    HW1 6787   1.604   3.018   3.010
 1782SOL    HW2 6788   1.541   2.979   2.877
 1783SOL     OW 6789   0.917   1.986   3.240
 1783SOL    HW1 6790   0.941   1.954   3.153
 1783SOL    HW2 6791   1.000   2.015   3.279
 1784SOL     OW 6792   0.977   2.978   3.577
 1784SOL    HW1 6793   0.890   3.002   3.609
 1784SOL    HW2 6794   0.964   2.897   3.528
 1785SOL     OW 6795   0.711   2.924   2.235
 1785SOL    HW1 6796   0.698   2.903   2.328
 1785SOL    HW2 6797   0.785   2.870   2.209
 1786SOL     OW 6798   0.427   2.684   3.115
 1786SOL    HW1 6799   0.490   2.702   3.185
 1786SOL    HW2 6800   0.402   2.592   3.128
 1787SOL     OW 6801   1.263   2.240   3.151
 1787SOL    HW1 6802   1.300   2.319   3.191
 1787SOL    HW2 6803   1.175   2.265   3.126
 1788SOL     OW 6804   0.047   3.454   3.191
 1788SOL    HW1 6805   0.096   3.535   3.176
 1788SOL    HW2 6806   0.087   3.416   3.269
 1789SOL     OW 6807   0.328   2.970   2.352
 1789SOL    HW1 6808   0.339   3.047   2.296
 1789SOL    HW2 6809   0.332   2.896   2.292
 1790SOL     OW 6810   0.550   2.391   2.727
 1790SOL    HW1 6811   0.563   2.451   2.654
 1790SOL    HW2 6812   0.617   2.416   2.790
 1791SOL     OW 6813   1.246   3.215   2.252
 1791SOL    HW1 6814   1.302   3.285   2.286
 1791SOL    HW2 6815   1.159   3.235   2.287
 1792SOL     OW 6816   1.292   3.325   3.022
 1792SOL    HW1 6817   1.358   3.340   3.090
 1792SOL    HW2 6818   1.228   3.267   3.064
 1793SOL     OW 6819   1.579   2.482   2.350
 1793SOL    HW1 6820   1.526   2.526   2.416
 1793SOL    HW2 6821   1.636   2.550   2.315
 1794SOL     OW 6822   0.349   3.393   3.173
 1794SOL    HW1 6823   0.333   3.345   3.092
 1794SOL    HW2 6824   0.444   3.403   3.177
 1795SOL     OW 6825   0.420   2.585   3.464
 1795SOL    HW1 6826   0.477   2.643   3.413
 1795SOL    HW2 6827   0.478   2.518   3.498
 1796SOL     OW 6828   1.597   2.638   3.554
 1796SOL    HW1 6829   1.514   2.686   3.551
 1796SOL    HW2 6830   1.652   2.682   3.488
 1797SOL     OW 6831   0.987   1.998   3.600
 1797SOL    HW1 6832   1.059   2.061   3.597
 1797SOL    HW2 6833   1.024   1.918   3.563
 1798SOL     OW 6834   0.498   1.915   3.601
 1798SOL    HW1 6835   0.429   1.852   3.579
 1798SOL    HW2 6836   0.450   1.995   3.624
 1799SOL     OW 6837   0.596   2.738   2.898
 1799SOL    HW1 6838   0.629   2.828   2.896
 1799SOL    HW2 6839   0.532   2.737   2.969
 1800SOL     OW 6840   1.336   2.717   2.875
 1800SOL    HW1 6841   1.259   2.701   2.820
 1800SOL    HW2 6842   1.389   2.638   2.865
 1801SOL     OW 6843   1.196   2.386   2.120
 1801SOL    HW1 6844   1.206   2.309   2.176
 1801SOL    HW2 6845   1.157   2.452   2.177
 1802SOL     OW 6846   0.307   2.047   3.109
 1802SOL    HW1 6847   0.266   2.082   3.188
 1802SOL    HW2 6848   0.284   1.954   3.109
 1803SOL     OW 6849   0.054   3.170   3.131
 1803SOL    HW1 6850   0.077   3.121   3.211
 1803SOL    HW2 6851   0.055   3.262   3.158
 1804SOL     OW 6852   0.718   2.491   2.921
 1804SOL    HW1 6853   0.797   2.482   2.868
 1804SOL    HW2 6854   0.689   2.581   2.906
 1805SOL     OW 6855   1.739   2.819   3.724
 1805SOL    HW1 6856   1.691   2.752   3.676
 1805SOL    HW2 6857   1.683   2.842   3.798
 1806SOL     OW 6858   0.315   1.930   2.477
 1806SOL    HW1 6859   0.286   2.019   2.499
 1806SOL    HW2 6860   0.322   1.885   2.561
 1807SOL     OW 6861   1.625   2.249   2.213
 1807SOL    HW1 6862   1.653   2.182   2.276
 1807SOL    HW2 6863   1.600   2.323   2.268
 1808SOL     OW 6864   1.022   2.614   2.810
 1808SOL    HW1 6865   1.018   2.624   2.906
 1808SOL    HW2 6866   0.995   2.524   2.794
 1809SOL     OW 6867   0.974   3.421   3.588
 1809SOL    HW1 6868   0.963   3.468   3.505
 1809SOL    HW2 6869   1.024   3.343   3.565
 1810SOL     OW 6870   1.845   3.363   3.463
 1810SOL    HW1 6871   1.871   3.396   3.377
 1810SOL    HW2 6872   1.922   3.377   3.519
 1811SOL     OW 6873   0.358   2.815   3.653
 1811SOL    HW1 6874   0.428   2.836   3.715
 1811SOL    HW2 6875   0.367   2.721   3.638
 1812SOL     OW 6876   1.527   2.130   1.984
 1812SOL    HW1 6877   1.466   2.064   2.017
 1812SOL    HW2 6878   1.562   2.173   2.062
 1813SOL     OW 6879   1.279   2.684   1.885
 1813SOL    HW1 6880   1.323   2.599   1.892
 1813SOL    HW2 6881   1.315   2.723   1.805
 1814SOL     OW 6882   1.075   3.205   2.724
 1814SOL    HW1 6883   1.083   3.135   2.659
 1814SOL    HW2 6884   1.129   3.276   2.691
 1815SOL     OW 6885   0.320   2.666   2.797
 1815SOL    HW1 6886   0.414   2.683   2.787
 1815SOL    HW2 6887   0.316   2.579   2.838
 1816SOL     OW 6888   0.334   2.379   2.884
 1816SOL    HW1 6889   0.298   2.292   2.864
 1816SOL    HW2 6890   0.410   2.387   2.826
 1817SOL     OW 6891   1.122   2.271   3.533
 1817SOL    HW1 6892   1.085   2.308   3.613
 1817SOL    HW2 6893   1.215   2.291   3.538
 1818SOL     OW 6894   1.158   2.069   3.342
 1818SOL    HW1 6895   1.148   2.138   3.408
 1818SOL    HW2 6896   1.210   2.109   3.273
 1819SOL     OW 6897   7.980   3.163   2.060
 1819SOL    HW1 6898   7.891   3.183   2.090
 1819SOL    HW2 6899   7.990   3.069   2.074
 1820SOL     OW 6900   0.104   3.605   2.799
 1820SOL    HW1 6901   0.110   3.531   2.739
 1820SOL    HW2 6902   0.181   3.658   2.780
 1821SOL     OW 6903   0.489   3.438   2.765
 1821SOL    HW1 6904   0.557   3.500   2.787
 1821SOL    HW2 6905   0.532   3.375   2.706
 1822SOL     OW 6906   0.970   2.624   3.089
 1822SOL    HW1 6907   1.048   2.614   3.144
 1822SOL    HW2 6908   0.928   2.704   3.121
 1823SOL     OW 6909   0.073   2.412   2.979
 1823SOL    HW1 6910   0.166   2.408   2.959
 1823SOL    HW2 6911   0.069   2.420   3.074
 1824SOL     OW 6912   0.192   2.387   3.559
 1824SOL    HW1 6913   0.276   2.375   3.514
 1824SOL    HW2 6914   0.158   2.470   3.525
 1825SOL     OW 6915   1.374   2.795   3.512
 1825SOL    HW1 6916   1.402   2.887   3.516
 1825SOL    HW2 6917   1.385   2.771   3.420
 1826SOL     OW 6918   0.816   2.429   2.233
 1826SOL    HW1 6919   0.824   2.356   2.172
 1826SOL    HW2 6920   0.742   2.480   2.200
 1827SOL     OW 6921   1.643   2.451   3.030
 1827SOL    HW1 6922   1.640   2.403   3.113
 1827SOL    HW2 6923   1.734   2.441   3.000
 1828SOL     OW 6924   0.288   3.395   3.583
 1828SOL    HW1 6925   0.251   3.469   3.632
 1828SOL    HW2 6926   0.280   3.321   3.643
 1829SOL     OW 6927   0.719   2.323   3.129
 1829SOL    HW1 6928   0.659   2.252   3.108
 1829SOL    HW2 6929   0.708   2.387   3.059
 1830SOL     OW 6930   0.915   3.536   3.338
 1830SOL    HW1 6931   0.887   3.503   3.252
 1830SOL    HW2 6932   0.920   3.631   3.326
 1831SOL     OW 6933   0.452   2.344   2.030
 1831SOL    HW1 6934   0.507   2.421   2.048
 1831SOL    HW2 6935   0.369   2.362   2.074
 1832SOL     OW 6936   0.157   2.979   3.317
 1832SOL    HW1 6937   0.131   2.937   3.399
 1832SOL    HW2 6938   0.155   2.908   3.252
 1833SOL     OW 6939   1.303   2.897   3.076
 1833SOL    HW1 6940   1.330   2.838   3.005
 1833SOL    HW2 6941   1.236   2.953   3.037
 1834SOL     OW 6942   1.320   2.718   2.159
 1834SOL    HW1 6943   1.246   2.689   2.213
 1834SOL    HW2 6944   1.290   2.705   2.069
 1835SOL     OW 6945   1.741   3.599   2.987
 1835SOL    HW1 6946   1.819   3.627   2.938
 1835SOL    HW2 6947   1.740   3.504   2.977
 1836SOL     OW 6948   1.239   3.590   2.946
 1836SOL    HW1 6949   1.325   3.621   2.918
 1836SOL    HW2 6950   1.255   3.501   2.978
 1837SOL     OW 6951   0.054   3.048   2.894
 1837SOL    HW1 6952   0.059   3.090   2.980
 1837SOL    HW2 6953  -0.015   3.097   2.848
 1838SOL     OW 6954   0.684   3.532   3.607
 1838SOL    HW1 6955   0.627   3.608   3.596
 1838SOL    HW2 6956   0.763   3.553   3.557
 1839SOL     OW 6957   1.719   2.026   2.358
 1839SOL    HW1 6958   1.791   2.009   2.296
 1839SOL    HW2 6959   1.704   1.941   2.401
 1840SOL     OW 6960   1.392   3.430   2.355
 1840SOL    HW1 6961   1.452   3.465   2.289
 1840SOL    HW2 6962   1.344   3.506   2.387
 1841SOL     OW 6963   0.170   3.607   3.704
 1841SOL    HW1 6964   0.106   3.560   3.757
 1841SOL    HW2 6965   0.215   3.664   3.766
 1842SOL     OW 6966   1.280   2.794   2.532
 1842SOL    HW1 6967   1.354   2.734   2.544
 1842SOL    HW2 6968   1.314   2.864   2.476
 1843SOL     OW 6969   0.799   3.128   3.288
 1843SOL    HW1 6970   0.774   3.173   3.369
 1843SOL    HW2 6971   0.736   3.158   3.223
 1844SOL     OW 6972   0.664   3.491   2.021
 1844SOL    HW1 6973   0.679   3.506   1.927
 1844SOL    HW2 6974   0.611   3.412   2.024
 1845SOL     OW 6975   1.612   3.596   3.244
 1845SOL    HW1 6976   1.665   3.601   3.164
 1845SOL    HW2 6977   1.600   3.687   3.271
 1846SOL     OW 6978   1.840   2.029   2.831
 1846SOL    HW1 6979   1.872   1.942   2.808
 1846SOL    HW2 6980   1.754   2.035   2.788
 1847SOL     OW 6981   0.259   2.179   2.569
 1847SOL    HW1 6982   0.171   2.211   2.547
 1847SOL    HW2 6983   0.259   2.171   2.664
 1848SOL     OW 6984   1.207   3.458   1.895
 1848SOL    HW1 6985   1.197   3.368   1.924
 1848SOL    HW2 6986   1.138   3.471   1.830
 1849SOL     OW 6987   0.859   2.872   3.202
 1849SOL    HW1 6988   0.863   2.897   3.110
 1849SOL    HW2 6989   0.841   2.953   3.249
 1850SOL     OW 6990   0.913   2.768   2.153
 1850SOL    HW1 6991   0.971   2.802   2.085
 1850SOL    HW2 6992   0.967   2.703   2.199
 1851SOL     OW 6993   1.486   3.494   1.909
 1851SOL    HW1 6994   1.392   3.483   1.893
 1851SOL    HW2 6995   1.524   3.500   1.821
 1852SOL     OW 6996   0.371   3.155   3.349
 1852SOL    HW1 6997   0.353   3.237   3.303
 1852SOL    HW2 6998   0.294   3.101   3.332
 1853SOL     OW 6999   1.592   3.142   3.137
 1853SOL    HW1 7000   1.671   3.135   3.191
 1853SOL    HW2 7001   1.543   3.214   3.176
 1854SOL     OW 7002   1.069   2.977   2.574
 1854SOL    HW1 7003   0.996   2.927   2.611
 1854SOL    HW2 7004   1.134   2.912   2.550
 1855SOL     OW 7005   1.027   2.105   2.836
 1855SOL    HW1 7006   1.024   2.063   2.750
 1855SOL    HW2 7007   1.023   2.032   2.898
 1856SOL     OW 7008   0.609   3.347   2.343
 1856SOL    HW1 7009   0.660   3.301   2.276
 1856SOL    HW2 7010   0.523   3.360   2.303
 1857SOL     OW 7011   1.730   2.261   3.246
 1857SOL    HW1 7012   1.804   2.321   3.249
 1857SOL    HW2 7013   1.758   2.192   3.186
 1858SOL     OW 7014   0.248   3.199   2.127
 1858SOL    HW1 7015   0.152   3.204   2.121
 1858SOL    HW2 7016   0.268   3.238   2.212
 1859SOL     OW 7017   0.095   2.866   3.574
 1859SOL    HW1 7018   0.057   2.951   3.594
 1859SOL    HW2 7019   0.180   2.866   3.618
 1860SOL     OW 7020   0.681   2.036   3.372
 1860SOL    HW1 7021   0.764   2.031   3.323
 1860SOL    HW2 7022   0.704   2.079   3.454
 1861SOL     OW 7023   0.109   2.221   1.882
 1861SOL    HW1 7024   0.038   2.262   1.932
 1861SOL    HW2 7025   0.118   2.276   1.804
 1862SOL     OW 7026   1.421   2.723   3.252
 1862SOL    HW1 7027   1.377   2.787   3.196
 1862SOL    HW2 7028   1.513   2.727   3.227
 1863SOL     OW 7029   0.088   2.103   2.225
 1863SOL    HW1 7030   0.040   2.082   2.145
 1863SOL    HW2 7031   0.173   2.059   2.215
 1864SOL     OW 7032   1.178   3.192   1.982
 1864SOL    HW1 7033   1.087   3.163   1.985
 1864SOL    HW2 7034   1.205   3.197   2.074
 1865SOL     OW 7035   0.604   2.739   3.316
 1865SOL    HW1 7036   0.584   2.830   3.337
 1865SOL    HW2 7037   0.699   2.739   3.301
 1866SOL     OW 7038   1.493   3.652   2.853
 1866SOL    HW1 7039   1.518   3.725   2.796
 1866SOL    HW2 7040   1.574   3.631   2.901
 1867SOL     OW 7041   0.772   2.414   3.522
 1867SOL    HW1 7042   0.793   2.482   3.586
 1867SOL    HW2 7043   0.757   2.336   3.574
 1868SOL     OW 7044   1.473   3.054   3.485
 1868SOL    HW1 7045   1.464   3.070   3.579
 1868SOL    HW2 7046   1.564   3.074   3.465
 1869SOL     OW 7047   0.384   3.601   3.424
 1869SOL    HW1 7048   0.295   3.632   3.406
 1869SOL    HW2 7049   0.371   3.515   3.464
 1870SOL     OW 7050   1.660   2.740   3.109
 1870SOL    HW1 7051   1.666   2.658   3.060
 1870SOL    HW2 7052   1.651   2.807   3.042
 1871SOL     OW 7053   1.215   2.179   2.317
 1871SOL    HW1 7054   1.278   2.108   2.313
 1871SOL    HW2 7055   1.241   2.231   2.393
 1872SOL     OW 7056   0.589   2.597   2.548
 1872SOL    HW1 7057   0.631   2.682   2.533
 1872SOL    HW2 7058   0.529   2.588   2.474
 1873SOL     OW 7059   1.760   2.218   3.520
 1873SOL    HW1 7060   1.749   2.240   3.427
 1873SOL    HW2 7061   1.681   2.169   3.541
 1874SOL     OW 7062   1.716   2.794   3.374
 1874SOL    HW1 7063   1.750   2.881   3.393
 1874SOL    HW2 7064   1.720   2.787   3.279
 1875SOL     OW 7065   0.862   3.223   1.911
 1875SOL    HW1 7066   0.828   3.246   1.997
 1875SOL    HW2 7067   0.877   3.308   1.868
 1876SOL     OW 7068   0.667   3.638   2.790
 1876SOL    HW1 7069   0.650   3.732   2.779
 1876SOL    HW2 7070   0.763   3.631   2.792
 1877SOL     OW 7071   0.872   2.836   2.712
 1877SOL    HW1 7072   0.921   2.762   2.747
 1877SOL    HW2 7073   0.835   2.878   2.790
 1878SOL     OW 7074   1.067   2.843   1.946
 1878SOL    HW1 7075   1.052   2.901   1.872
 1878SOL    HW2 7076   1.144   2.791   1.921
 1879SOL     OW 7077   1.843   3.407   2.696
 1879SOL    HW1 7078   1.760   3.402   2.649
 1879SOL    HW2 7079   1.826   3.365   2.780
 1880SOL     OW 7080   0.216   3.157   3.717
 1880SOL    HW1 7081   0.123   3.146   3.700
 1880SOL    HW2 7082   0.223   3.162   3.813
 1881SOL     OW 7083   0.134   3.122   2.517
 1881SOL    HW1 7084   0.060   3.074   2.554
 1881SOL    HW2 7085   0.196   3.053   2.491
 1882SOL     OW 7086   0.683   3.269   3.493
 1882SOL    HW1 7087   0.600   3.236   3.528
 1882SOL    HW2 7088   0.690   3.358   3.529
 1883SOL     OW 7089   1.791   2.043   3.100
 1883SOL    HW1 7090   1.838   1.963   3.123
 1883SOL    HW2 7091   1.806   2.053   3.006
 1884SOL     OW 7092   0.441   2.294   2.388
 1884SOL    HW1 7093   0.469   2.222   2.331
 1884SOL    HW2 7094   0.385   2.252   2.454
 1885SOL     OW 7095   1.713   3.332   2.934
 1885SOL    HW1 7096   1.624   3.311   2.905
 1885SOL    HW2 7097   1.729   3.272   3.006
 1886SOL     OW 7098   0.362   2.422   3.157
 1886SOL    HW1 7099   0.409   2.359   3.211
 1886SOL    HW2 7100   0.371   2.389   3.068
 1887SOL     OW 7101   0.838   3.445   2.535
 1887SOL    HW1 7102   0.816   3.518   2.477
 1887SOL    HW2 7103   0.760   3.389   2.534
 1888SOL     OW 7104   1.432   2.099   2.981
 1888SOL    HW1 7105   1.478   2.029   3.028
 1888SOL    HW2 7106   1.383   2.145   3.049
 1889SOL     OW 7107   1.008   1.873   2.996
 1889SOL    HW1 7108   0.957   1.810   2.945
 1889SOL    HW2 7109   1.096   1.836   2.998
 1890SOL     OW 7110   0.777   3.195   2.183
 1890SOL    HW1 7111   0.755   3.103   2.196
 1890SOL    HW2 7112   0.857   3.208   2.235
 1891SOL     OW 7113   0.621   3.417   3.149
 1891SOL    HW1 7114   0.618   3.503   3.191
 1891SOL    HW2 7115   0.710   3.410   3.114
 1892SOL     OW 7116   1.365   1.909   2.042
 1892SOL    HW1 7117   1.402   1.836   1.993
 1892SOL    HW2 7118   1.274   1.884   2.058
 1893SOL     OW 7119   1.285   2.324   2.537
 1893SOL    HW1 7120   1.239   2.409   2.541
 1893SOL    HW2 7121   1.288   2.295   2.628
 1894SOL     OW 7122   1.579   2.051   2.746
 1894SOL    HW1 7123   1.527   2.081   2.821
 1894SOL    HW2 7124   1.584   2.128   2.688
 1895SOL     OW 7125   0.042   2.897   2.136
 1895SOL    HW1 7126   0.135   2.879   2.120
 1895SOL    HW2 7127   0.035   2.906   2.231
 1896SOL     OW 7128   0.892   3.528   2.194
 1896SOL    HW1 7129   0.813   3.513   2.142
 1896SOL    HW2 7130   0.867   3.597   2.255
 1897SOL     OW 7131   0.239   2.565   3.799
 1897SOL    HW1 7132   0.178   2.545   3.870
 1897SOL    HW2 7133   0.230   2.491   3.738
 1898SOL     OW 7134   0.237   2.131   4.711
 1898SOL    HW1 7135   0.264   2.103   4.799
 1898SOL    HW2 7136   0.152   2.090   4.697
 1899SOL     OW 7137   8.005   2.255   4.331
 1899SOL    HW1 7138   7.917   2.244   4.367
 1899SOL    HW2 7139   8.006   2.198   4.254
 1900SOL     OW 7140   0.570   3.163   4.917
 1900SOL    HW1 7141   0.485   3.172   4.874
 1900SOL    HW2 7142   0.591   3.251   4.948
 1901SOL     OW 7143   1.567   3.369   4.417
 1901SOL    HW1 7144   1.519   3.350   4.498
 1901SOL    HW2 7145   1.499   3.373   4.350
 1902SOL     OW 7146   1.127   2.570   4.414
 1902SOL    HW1 7147   1.181   2.648   4.403
 1902SOL    HW2 7148   1.084   2.582   4.499
 1903SOL     OW 7149   1.786   2.451   3.940
 1903SOL    HW1 7150   1.749   2.447   3.853
 1903SOL    HW2 7151   1.746   2.379   3.988
 1904SOL     OW 7152   0.728   2.993   4.768
 1904SOL    HW1 7153   0.668   3.033   4.830
 1904SOL    HW2 7154   0.774   3.066   4.728
 1905SOL     OW 7155   0.867   2.619   5.543
 1905SOL    HW1 7156   0.884   2.684   5.611
 1905SOL    HW2 7157   0.893   2.663   5.462
 1906SOL     OW 7158   0.687   2.856   4.369
 1906SOL    HW1 7159   0.757   2.852   4.435
 1906SOL    HW2 7160   0.621   2.914   4.407
 1907SOL     OW 7161   0.703   3.008   5.545
 1907SOL    HW1 7162   0.755   3.080   5.578
 1907SOL    HW2 7163   0.628   3.049   5.502
 1908SOL     OW 7164   0.341   3.275   4.790
 1908SOL    HW1 7165   0.284   3.226   4.731
 1908SOL    HW2 7166   0.389   3.334   4.732
 1909SOL     OW 7167   1.459   3.367   5.091
 1909SOL    HW1 7168   1.518   3.442   5.095
 1909SOL    HW2 7169   1.401   3.378   5.166
 1910SOL     OW 7170   0.486   2.256   5.204
 1910SOL    HW1 7171   0.554   2.188   5.204
 1910SOL    HW2 7172   0.406   2.209   5.227
 1911SOL     OW 7173   1.607   2.300   4.474
 1911SOL    HW1 7174   1.550   2.335   4.405
 1911SOL    HW2 7175   1.613   2.371   4.537
 1912SOL     OW 7176   0.236   3.557   4.207
 1912SOL    HW1 7177   0.236   3.641   4.253
 1912SOL    HW2 7178   0.302   3.568   4.138
 1913SOL     OW 7179   1.139   3.205   5.420
 1913SOL    HW1 7180   1.193   3.192   5.498
 1913SOL    HW2 7181   1.089   3.124   5.413
 1914SOL     OW 7182   0.288   3.291   4.233
 1914SOL    HW1 7183   0.269   3.384   4.244
 1914SOL    HW2 7184   0.237   3.248   4.301
 1915SOL     OW 7185   0.275   2.943   4.619
 1915SOL    HW1 7186   0.278   2.851   4.644
 1915SOL    HW2 7187   0.198   2.978   4.665
 1916SOL     OW 7188   0.591   3.670   5.123
 1916SOL    HW1 7189   0.519   3.644   5.181
 1916SOL    HW2 7190   0.627   3.749   5.164
 1917SOL     OW 7191   0.570   2.856   3.868
 1917SOL    HW1 7192   0.623   2.898   3.799
 1917SOL    HW2 7193   0.611   2.883   3.950
 1918SOL     OW 7194   1.589   1.993   5.183
 1918SOL    HW1 7195   1.636   2.062   5.136
 1918SOL    HW2 7196   1.568   2.032   5.268
 1919SOL     OW 7197   0.138   2.494   4.270
 1919SOL    HW1 7198   0.098   2.412   4.300
 1919SOL    HW2 7199   0.125   2.555   4.342
 1920SOL     OW 7200   1.840   3.618   4.083
 1920SOL    HW1 7201   1.921   3.591   4.126
 1920SOL    HW2 7202   1.860   3.704   4.046
 1921SOL     OW 7203   0.017   3.446   3.864
 1921SOL    HW1 7204  -0.001   3.353   3.852
 1921SOL    HW2 7205   0.005   3.461   3.958
 1922SOL     OW 7206   1.688   2.766   4.371
 1922SOL    HW1 7207   1.780   2.741   4.383
 1922SOL    HW2 7208   1.687   2.815   4.289
 1923SOL     OW 7209   1.652   2.967   4.155
 1923SOL    HW1 7210   1.739   2.964   4.114
 1923SOL    HW2 7211   1.664   3.023   4.232
 1924SOL     OW 7212   0.124   2.622   5.345
 1924SOL    HW1 7213   0.161   2.596   5.430
 1924SOL    HW2 7214   0.120   2.717   5.349
 1925SOL     OW 7215   0.614   3.256   4.460
 1925SOL    HW1 7216   0.572   3.170   4.466
 1925SOL    HW2 7217   0.602   3.282   4.369
 1926SOL     OW 7218   1.283   3.094   5.142
 1926SOL    HW1 7219   1.315   3.028   5.081
 1926SOL    HW2 7220   1.344   3.093   5.215
 1927SOL     OW 7221   0.823   1.869   4.235
 1927SOL    HW1 7222   0.864   1.953   4.215
 1927SOL    HW2 7223   0.730   1.888   4.242
 1928SOL     OW 7224   0.166   2.771   4.993
 1928SOL    HW1 7225   0.260   2.752   4.992
 1928SOL    HW2 7226   0.140   2.769   4.901
 1929SOL     OW 7227   1.527   2.869   3.926
 1929SOL    HW1 7228   1.462   2.809   3.963
 1929SOL    HW2 7229   1.576   2.901   4.002
 1930SOL     OW 7230   1.160   3.674   5.346
 1930SOL    HW1 7231   1.184   3.739   5.281
 1930SOL    HW2 7232   1.192   3.591   5.311
 1931SOL     OW 7233   0.357   2.133   5.549
 1931SOL    HW1 7234   0.403   2.201   5.599
 1931SOL    HW2 7235   0.265   2.157   5.555
 1932SOL     OW 7236   1.413   3.297   4.635
 1932SOL    HW1 7237   1.378   3.308   4.724
 1932SOL    HW2 7238   1.424   3.203   4.625
 1933SOL     OW 7239   1.674   3.617   4.353
 1933SOL    HW1 7240   1.698   3.606   4.261
 1933SOL    HW2 7241   1.639   3.532   4.379
 1934SOL     OW 7242   0.590   2.567   3.987
 1934SOL    HW1 7243   0.601   2.656   3.953
 1934SOL    HW2 7244   0.530   2.578   4.061
 1935SOL     OW 7245   1.280   2.235   4.660
 1935SOL    HW1 7246   1.192   2.198   4.671
 1935SOL    HW2 7247   1.336   2.182   4.717
 1936SOL     OW 7248   1.574   3.535   4.035
 1936SOL    HW1 7249   1.666   3.558   4.039
 1936SOL    HW2 7250   1.557   3.517   3.942
 1937SOL     OW 7251   0.782   2.470   5.166
 1937SOL    HW1 7252   0.791   2.427   5.251
 1937SOL    HW2 7253   0.763   2.399   5.104
 1938SOL     OW 7254   1.389   2.333   5.401
 1938SOL    HW1 7255   1.397   2.380   5.483
 1938SOL    HW2 7256   1.448   2.258   5.410
 1939SOL     OW 7257   0.943   2.741   5.309
 1939SOL    HW1 7258   1.004   2.679   5.269
 1939SOL    HW2 7259   0.896   2.779   5.235
 1940SOL     OW 7260   0.995   2.270   4.950
 1940SOL    HW1 7261   0.902   2.279   4.969
 1940SOL    HW2 7262   0.998   2.227   4.864
 1941SOL     OW 7263   1.053   2.559   4.146
 1941SOL    HW1 7264   1.075   2.559   4.239
 1941SOL    HW2 7265   0.970   2.512   4.142
 1942SOL     OW 7266   0.099   2.651   4.494
 1942SOL    HW1 7267   0.178   2.662   4.547
 1942SOL    HW2 7268   0.050   2.733   4.506
 1943SOL     OW 7269   0.122   3.676   5.288
 1943SOL    HW1 7270   0.127   3.668   5.383
 1943SOL    HW2 7271   0.032   3.652   5.267
 1944SOL     OW 7272   0.899   2.211   3.916
 1944SOL    HW1 7273   0.938   2.277   3.858
 1944SOL    HW2 7274   0.945   2.130   3.894
 1945SOL     OW 7275   1.680   2.425   5.558
 1945SOL    HW1 7276   1.656   2.502   5.507
 1945SOL    HW2 7277   1.723   2.367   5.495
 1946SOL     OW 7278   1.381   2.997   4.248
 1946SOL    HW1 7279   1.468   2.992   4.208
 1946SOL    HW2 7280   1.336   3.067   4.200
 1947SOL     OW 7281   0.555   2.035   4.623
 1947SOL    HW1 7282   0.560   2.061   4.715
 1947SOL    HW2 7283   0.558   2.118   4.575
 1948SOL     OW 7284   0.992   3.304   4.188
 1948SOL    HW1 7285   0.968   3.383   4.140
 1948SOL    HW2 7286   0.977   3.326   4.280
 1949SOL     OW 7287   0.359   3.689   4.590
 1949SOL    HW1 7288   0.406   3.606   4.602
 1949SOL    HW2 7289   0.424   3.756   4.610
 1950SOL     OW 7290   1.796   2.905   4.618
 1950SOL    HW1 7291   1.747   2.915   4.536
 1950SOL    HW2 7292   1.730   2.915   4.687
 1951SOL     OW 7293   1.219   3.406   5.242
 1951SOL    HW1 7294   1.212   3.333   5.304
 1951SOL    HW2 7295   1.166   3.380   5.167
 1952SOL     OW 7296   0.306   2.811   3.964
 1952SOL    HW1 7297   0.394   2.837   3.934
 1952SOL    HW2 7298   0.287   2.731   3.914
 1953SOL     OW 7299   1.478   2.612   4.443
 1953SOL    HW1 7300   1.482   2.576   4.532
 1953SOL    HW2 7301   1.557   2.666   4.435
 1954SOL     OW 7302   0.458   3.117   5.461
 1954SOL    HW1 7303   0.436   3.130   5.369
 1954SOL    HW2 7304   0.374   3.120   5.507
 1955SOL     OW 7305   1.122   3.644   3.944
 1955SOL    HW1 7306   1.048   3.603   3.990
 1955SOL    HW2 7307   1.150   3.579   3.880
 1956SOL     OW 7308   0.198   2.134   5.215
 1956SOL    HW1 7309   0.116   2.183   5.208
 1956SOL    HW2 7310   0.175   2.055   5.265
 1957SOL     OW 7311   1.615   3.241   3.819
 1957SOL    HW1 7312   1.580   3.328   3.801
 1957SOL    HW2 7313   1.546   3.181   3.788
 1958SOL     OW 7314   0.456   3.606   4.036
 1958SOL    HW1 7315   0.504   3.658   4.101
 1958SOL    HW2 7316   0.525   3.567   3.982
 1959SOL     OW 7317   1.404   1.972   4.173
 1959SOL    HW1 7318   1.406   1.946   4.081
 1959SOL    HW2 7319   1.497   1.984   4.196
 1960SOL     OW 7320   0.237   3.645   4.952
 1960SOL    HW1 7321   0.292   3.575   4.988
 1960SOL    HW2 7322   0.216   3.616   4.863
 1961SOL     OW 7323   0.944   3.562   4.619
 1961SOL    HW1 7324   1.029   3.521   4.636
 1961SOL    HW2 7325   0.906   3.510   4.548
 1962SOL     OW 7326   0.409   2.557   4.197
 1962SOL    HW1 7327   0.424   2.464   4.213
 1962SOL    HW2 7328   0.316   2.571   4.216
 1963SOL     OW 7329   1.523   2.086   5.445
 1963SOL    HW1 7330   1.533   2.109   5.537
 1963SOL    HW2 7331   1.466   2.010   5.445
 1964SOL     OW 7332   0.641   1.980   3.829
 1964SOL    HW1 7333   0.701   1.909   3.850
 1964SOL    HW2 7334   0.595   1.950   3.750
 1965SOL     OW 7335   0.758   2.147   5.481
 1965SOL    HW1 7336   0.842   2.102   5.475
 1965SOL    HW2 7337   0.717   2.113   5.560
 1966SOL     OW 7338   0.873   3.379   4.921
 1966SOL    HW1 7339   0.858   3.341   4.834
 1966SOL    HW2 7340   0.946   3.328   4.957
 1967SOL     OW 7341   1.341   2.457   5.158
 1967SOL    HW1 7342   1.374   2.424   5.242
 1967SOL    HW2 7343   1.384   2.542   5.147
 1968SOL     OW 7344   0.816   3.242   4.675
 1968SOL    HW1 7345   0.903   3.233   4.635
 1968SOL    HW2 7346   0.758   3.258   4.601
 1969SOL     OW 7347   0.925   2.369   4.627
 1969SOL    HW1 7348   0.900   2.360   4.535
 1969SOL    HW2 7349   0.960   2.283   4.651
 1970SOL     OW 7350   0.554   1.926   4.219
 1970SOL    HW1 7351   0.476   1.927   4.275
 1970SOL    HW2 7352   0.544   2.003   4.163
 1971SOL     OW 7353   1.417   3.057   3.756
 1971SOL    HW1 7354   1.454   2.990   3.812
 1971SOL    HW2 7355   1.339   3.087   3.802
 1972SOL     OW 7356   0.288   1.914   3.899
 1972SOL    HW1 7357   0.344   1.989   3.880
 1972SOL    HW2 7358   0.343   1.855   3.950
 1973SOL     OW 7359   0.941   2.113   4.180
 1973SOL    HW1 7360   0.916   2.159   4.100
 1973SOL    HW2 7361   1.036   2.127   4.187
 1974SOL     OW 7362   1.086   2.547   5.177
 1974SOL    HW1 7363   1.041   2.463   5.179
 1974SOL    HW2 7364   1.179   2.525   5.174
 1975SOL     OW 7365   1.200   3.433   4.515
 1975SOL    HW1 7366   1.228   3.501   4.455
 1975SOL    HW2 7367   1.281   3.401   4.556
 1976SOL     OW 7368   0.474   3.016   4.447
 1976SOL    HW1 7369   0.412   2.995   4.516
 1976SOL    HW2 7370   0.427   2.998   4.366
 1977SOL     OW 7371   1.265   3.654   4.341
 1977SOL    HW1 7372   1.317   3.715   4.289
 1977SOL    HW2 7373   1.199   3.708   4.385
 1978SOL     OW 7374   1.029   2.395   3.756
 1978SOL    HW1 7375   0.988   2.481   3.746
 1978SOL    HW2 7376   1.093   2.407   3.826
 1979SOL     OW 7377   0.111   2.466   5.111
 1979SOL    HW1 7378   0.203   2.451   5.090
 1979SOL    HW2 7379   0.113   2.530   5.183
 1980SOL     OW 7380   0.566   2.078   4.897
 1980SOL    HW1 7381   0.608   2.006   4.944
 1980SOL    HW2 7382   0.474   2.075   4.924
 1981SOL     OW 7383   0.859   2.314   4.367
 1981SOL    HW1 7384   0.820   2.372   4.301
 1981SOL    HW2 7385   0.888   2.237   4.317
 1982SOL     OW 7386   1.018   1.921   4.475
 1982SOL    HW1 7387   0.961   1.912   4.399
 1982SOL    HW2 7388   0.996   1.846   4.530
 1983SOL     OW 7389   1.447   3.028   4.583
 1983SOL    HW1 7390   1.383   2.957   4.570
 1983SOL    HW2 7391   1.494   3.033   4.500
 1984SOL     OW 7392   1.466   2.476   4.689
 1984SOL    HW1 7393   1.410   2.399   4.695
 1984SOL    HW2 7394   1.526   2.468   4.763
 1985SOL     OW 7395   1.826   2.668   4.103
 1985SOL    HW1 7396   1.885   2.627   4.166
 1985SOL    HW2 7397   1.814   2.602   4.034
 1986SOL     OW 7398   0.490   3.281   3.867
 1986SOL    HW1 7399   0.409   3.252   3.911
 1986SOL    HW2 7400   0.491   3.231   3.785
 1987SOL     OW 7401   1.678   3.109   4.385
 1987SOL    HW1 7402   1.773   3.103   4.393
 1987SOL    HW2 7403   1.658   3.202   4.393
 1988SOL     OW 7404   1.393   2.440   3.788
 1988SOL    HW1 7405   1.344   2.413   3.867
 1988SOL    HW2 7406   1.485   2.424   3.810
 1989SOL     OW 7407   0.515   2.120   4.031
 1989SOL    HW1 7408   0.570   2.076   3.966
 1989SOL    HW2 7409   0.494   2.204   3.991
 1990SOL     OW 7410   1.741   3.114   5.282
 1990SOL    HW1 7411   1.826   3.075   5.261
 1990SOL    HW2 7412   1.762   3.202   5.312
 1991SOL     OW 7413   1.053   3.209   5.054
 1991SOL    HW1 7414   0.977   3.178   5.104
 1991SOL    HW2 7415   1.128   3.167   5.096
 1992SOL     OW 7416   1.600   3.488   5.376
 1992SOL    HW1 7417   1.599   3.532   5.291
 1992SOL    HW2 7418   1.684   3.443   5.379
 1993SOL     OW 7419   1.124   3.066   4.824
 1993SOL    HW1 7420   1.076   3.116   4.890
 1993SOL    HW2 7421   1.104   3.110   4.741
 1994SOL     OW 7422   1.605   2.951   4.805
 1994SOL    HW1 7423   1.597   3.011   4.879
 1994SOL    HW2 7424   1.537   2.980   4.743
 1995SOL     OW 7425   0.918   1.955   5.112
 1995SOL    HW1 7426   0.942   1.935   5.021
 1995SOL    HW2 7427   0.997   1.994   5.150
 1996SOL     OW 7428   0.982   2.979   5.441
 1996SOL    HW1 7429   0.890   2.996   5.464
 1996SOL    HW2 7430   0.978   2.899   5.389
 1997SOL     OW 7431   0.709   2.920   4.098
 1997SOL    HW1 7432   0.698   2.902   4.191
 1997SOL    HW2 7433   0.783   2.865   4.071
 1998SOL     OW 7434   0.430   2.689   4.984
 1998SOL    HW1 7435   0.492   2.700   5.057
 1998SOL    HW2 7436   0.407   2.596   4.987
 1999SOL     OW 7437   1.264   2.238   5.011
 1999SOL    HW1 7438   1.298   2.316   5.054
 1999SOL    HW2 7439   1.174   2.262   4.988
 2000SOL     OW 7440   0.047   3.457   5.052
 2000SOL    HW1 7441   0.103   3.532   5.033
 2000SOL    HW2 7442   0.084   3.419   5.132
 2001SOL     OW 7443   0.327   2.971   4.214
 2001SOL    HW1 7444   0.340   3.049   4.161
 2001SOL    HW2 7445   0.331   2.898   4.152
 2002SOL     OW 7446   0.545   2.390   4.583
 2002SOL    HW1 7447   0.559   2.449   4.509
 2002SOL    HW2 7448   0.612   2.414   4.647
 2003SOL     OW 7449   1.246   3.215   4.112
 2003SOL    HW1 7450   1.302   3.286   4.143
 2003SOL    HW2 7451   1.160   3.235   4.149
 2004SOL     OW 7452   1.297   3.319   4.882
 2004SOL    HW1 7453   1.358   3.333   4.954
 2004SOL    HW2 7454   1.247   3.242   4.907
 2005SOL     OW 7455   1.581   2.481   4.213
 2005SOL    HW1 7456   1.529   2.530   4.278
 2005SOL    HW2 7457   1.643   2.546   4.179
 2006SOL     OW 7458   0.350   3.394   5.035
 2006SOL    HW1 7459   0.334   3.346   4.954
 2006SOL    HW2 7460   0.445   3.404   5.039
 2007SOL     OW 7461   1.601   2.641   5.419
 2007SOL    HW1 7462   1.517   2.687   5.414
 2007SOL    HW2 7463   1.654   2.683   5.351
 2008SOL     OW 7464   0.990   2.005   5.471
 2008SOL    HW1 7465   1.051   2.077   5.455
 2008SOL    HW2 7466   1.038   1.926   5.447
 2009SOL     OW 7467   0.500   1.903   5.474
 2009SOL    HW1 7468   0.454   1.849   5.410
 2009SOL    HW2 7469   0.446   1.981   5.484
 2010SOL     OW 7470   0.588   2.741   4.756
 2010SOL    HW1 7471   0.631   2.827   4.753
 2010SOL    HW2 7472   0.536   2.743   4.836
 2011SOL     OW 7473   1.338   2.722   4.733
 2011SOL    HW1 7474   1.252   2.698   4.697
 2011SOL    HW2 7475   1.390   2.643   4.726
 2012SOL     OW 7476   1.191   2.382   3.982
 2012SOL    HW1 7477   1.208   2.307   4.040
 2012SOL    HW2 7478   1.157   2.450   4.041
 2013SOL     OW 7479   0.306   2.054   4.972
 2013SOL    HW1 7480   0.269   2.087   5.055
 2013SOL    HW2 7481   0.287   1.960   4.974
 2014SOL     OW 7482   0.049   3.173   4.990
 2014SOL    HW1 7483   0.075   3.121   5.066
 2014SOL    HW2 7484   0.054   3.264   5.020
 2015SOL     OW 7485   0.714   2.488   4.774
 2015SOL    HW1 7486   0.795   2.475   4.725
 2015SOL    HW2 7487   0.691   2.580   4.759
 2016SOL     OW 7488   1.742   2.818   5.589
 2016SOL    HW1 7489   1.695   2.753   5.537
 2016SOL    HW2 7490   1.682   2.840   5.660
 2017SOL     OW 7491   0.305   1.928   4.341
 2017SOL    HW1 7492   0.282   2.018   4.363
 2017SOL    HW2 7493   0.317   1.885   4.425
 2018SOL     OW 7494   1.619   2.248   4.074
 2018SOL    HW1 7495   1.649   2.181   4.136
 2018SOL    HW2 7496   1.598   2.324   4.130
 2019SOL     OW 7497   1.027   2.619   4.679
 2019SOL    HW1 7498   1.017   2.637   4.772
 2019SOL    HW2 7499   1.002   2.528   4.669
 2020SOL     OW 7500   0.971   3.417   5.451
 2020SOL    HW1 7501   0.961   3.466   5.369
 2020SOL    HW2 7502   1.024   3.341   5.427
 2021SOL     OW 7503   1.844   3.365   5.327
 2021SOL    HW1 7504   1.873   3.395   5.241
 2021SOL    HW2 7505   1.920   3.377   5.383
 2022SOL     OW 7506   0.384   2.809   5.497
 2022SOL    HW1 7507   0.430   2.805   5.581
 2022SOL    HW2 7508   0.442   2.861   5.441
 2023SOL     OW 7509   1.517   2.137   3.845
 2023SOL    HW1 7510   1.463   2.066   3.880
 2023SOL    HW2 7511   1.556   2.177   3.922
 2024SOL     OW 7512   1.273   2.682   3.741
 2024SOL    HW1 7513   1.323   2.601   3.751
 2024SOL    HW2 7514   1.313   2.725   3.665
 2025SOL     OW 7515   1.065   3.199   4.583
 2025SOL    HW1 7516   1.076   3.129   4.519
 2025SOL    HW2 7517   1.117   3.271   4.548
 2026SOL     OW 7518   0.322   2.667   4.663
 2026SOL    HW1 7519   0.415   2.690   4.664
 2026SOL    HW2 7520   0.318   2.578   4.698
 2027SOL     OW 7521   0.333   2.382   4.747
 2027SOL    HW1 7522   0.297   2.295   4.729
 2027SOL    HW2 7523   0.408   2.389   4.687
 2028SOL     OW 7524   1.133   2.237   5.410
 2028SOL    HW1 7525   1.091   2.290   5.478
 2028SOL    HW2 7526   1.221   2.272   5.404
 2029SOL     OW 7527   1.157   2.060   5.197
 2029SOL    HW1 7528   1.149   2.123   5.269
 2029SOL    HW2 7529   1.206   2.108   5.129
 2030SOL     OW 7530   7.979   3.163   3.921
 2030SOL    HW1 7531   7.890   3.182   3.951
 2030SOL    HW2 7532   7.989   3.069   3.937
 2031SOL     OW 7533   0.102   3.605   4.658
 2031SOL    HW1 7534   0.113   3.528   4.603
 2031SOL    HW2 7535   0.179   3.659   4.639
 2032SOL     OW 7536   0.489   3.438   4.627
 2032SOL    HW1 7537   0.557   3.500   4.651
 2032SOL    HW2 7538   0.532   3.376   4.569
 2033SOL     OW 7539   0.964   2.645   4.946
 2033SOL    HW1 7540   1.034   2.635   5.010
 2033SOL    HW2 7541   0.889   2.601   4.984
 2034SOL     OW 7542   0.072   2.413   4.846
 2034SOL    HW1 7543   0.165   2.406   4.824
 2034SOL    HW2 7544   0.071   2.429   4.940
 2035SOL     OW 7545   0.291   2.389   5.370
 2035SOL    HW1 7546   0.270   2.302   5.404
 2035SOL    HW2 7547   0.207   2.429   5.351
 2036SOL     OW 7548   1.377   2.796   5.378
 2036SOL    HW1 7549   1.404   2.888   5.376
 2036SOL    HW2 7550   1.381   2.768   5.286
 2037SOL     OW 7551   0.814   2.424   4.094
 2037SOL    HW1 7552   0.821   2.354   4.029
 2037SOL    HW2 7553   0.741   2.478   4.063
 2038SOL     OW 7554   1.645   2.453   4.892
 2038SOL    HW1 7555   1.640   2.404   4.975
 2038SOL    HW2 7556   1.736   2.441   4.863
 2039SOL     OW 7557   0.288   3.394   5.445
 2039SOL    HW1 7558   0.251   3.469   5.493
 2039SOL    HW2 7559   0.281   3.321   5.506
 2040SOL     OW 7560   0.717   2.299   4.969
 2040SOL    HW1 7561   0.663   2.225   4.942
 2040SOL    HW2 7562   0.706   2.364   4.899
 2041SOL     OW 7563   0.899   3.543   5.208
 2041SOL    HW1 7564   0.889   3.503   5.122
 2041SOL    HW2 7565   0.911   3.636   5.191
 2042SOL     OW 7566   0.450   2.343   3.885
 2042SOL    HW1 7567   0.505   2.419   3.906
 2042SOL    HW2 7568   0.366   2.362   3.927
 2043SOL     OW 7569   0.155   2.986   5.169
 2043SOL    HW1 7570   0.132   2.947   5.254
 2043SOL    HW2 7571   0.156   2.912   5.108
 2044SOL     OW 7572   1.307   2.897   4.940
 2044SOL    HW1 7573   1.334   2.839   4.869
 2044SOL    HW2 7574   1.242   2.955   4.900
 2045SOL     OW 7575   1.317   2.715   4.019
 2045SOL    HW1 7576   1.245   2.688   4.076
 2045SOL    HW2 7577   1.283   2.701   3.930
 2046SOL     OW 7578   1.743   3.609   4.813
 2046SOL    HW1 7579   1.835   3.617   4.839
 2046SOL    HW2 7580   1.724   3.515   4.823
 2047SOL     OW 7581   1.226   3.587   4.850
 2047SOL    HW1 7582   1.312   3.626   4.866
 2047SOL    HW2 7583   1.241   3.493   4.856
 2048SOL     OW 7584   0.055   3.046   4.756
 2048SOL    HW1 7585   0.058   3.090   4.841
 2048SOL    HW2 7586  -0.011   3.094   4.706
 2049SOL     OW 7587   0.687   3.530   5.469
 2049SOL    HW1 7588   0.633   3.608   5.452
 2049SOL    HW2 7589   0.766   3.545   5.417
 2050SOL     OW 7590   1.711   2.022   4.214
 2050SOL    HW1 7591   1.786   2.007   4.157
 2050SOL    HW2 7592   1.700   1.940   4.261
 2051SOL     OW 7593   1.389   3.432   4.210
 2051SOL    HW1 7594   1.452   3.466   4.148
 2051SOL    HW2 7595   1.343   3.509   4.243
 2052SOL     OW 7596   0.169   3.606   5.566
 2052SOL    HW1 7597   0.106   3.559   5.620
 2052SOL    HW2 7598   0.218   3.660   5.628
 2053SOL     OW 7599   1.279   2.793   4.391
 2053SOL    HW1 7600   1.353   2.735   4.406
 2053SOL    HW2 7601   1.315   2.863   4.335
 2054SOL     OW 7602   0.798   3.133   5.147
 2054SOL    HW1 7603   0.770   3.177   5.227
 2054SOL    HW2 7604   0.733   3.159   5.081
 2055SOL     OW 7605   0.664   3.490   3.882
 2055SOL    HW1 7606   0.680   3.505   3.789
 2055SOL    HW2 7607   0.610   3.411   3.885
 2056SOL     OW 7608   1.604   3.597   5.108
 2056SOL    HW1 7609   1.670   3.602   5.039
 2056SOL    HW2 7610   1.590   3.688   5.134
 2057SOL     OW 7611   1.839   2.029   4.692
 2057SOL    HW1 7612   1.873   1.942   4.669
 2057SOL    HW2 7613   1.754   2.034   4.649
 2058SOL     OW 7614   0.257   2.179   4.433
 2058SOL    HW1 7615   0.171   2.214   4.414
 2058SOL    HW2 7616   0.260   2.171   4.528
 2059SOL     OW 7617   1.205   3.461   3.757
 2059SOL    HW1 7618   1.197   3.369   3.783
 2059SOL    HW2 7619   1.137   3.473   3.690
 2060SOL     OW 7620   0.806   2.860   5.104
 2060SOL    HW1 7621   0.854   2.851   5.022
 2060SOL    HW2 7622   0.805   2.955   5.121
 2061SOL     OW 7623   0.906   2.758   4.010
 2061SOL    HW1 7624   0.964   2.794   3.943
 2061SOL    HW2 7625   0.961   2.700   4.061
 2062SOL     OW 7626   1.487   3.492   3.767
 2062SOL    HW1 7627   1.393   3.484   3.749
 2062SOL    HW2 7628   1.527   3.498   3.680
 2063SOL     OW 7629   0.366   3.161   5.213
 2063SOL    HW1 7630   0.354   3.241   5.163
 2063SOL    HW2 7631   0.291   3.106   5.189
 2064SOL     OW 7632   1.584   3.131   5.010
 2064SOL    HW1 7633   1.662   3.124   5.064
 2064SOL    HW2 7634   1.537   3.206   5.045
 2065SOL     OW 7635   1.065   2.973   4.431
 2065SOL    HW1 7636   0.996   2.921   4.472
 2065SOL    HW2 7637   1.135   2.910   4.412
 2066SOL     OW 7638   1.025   2.107   4.695
 2066SOL    HW1 7639   1.025   2.062   4.611
 2066SOL    HW2 7640   1.022   2.037   4.760
 2067SOL     OW 7641   0.609   3.346   4.204
 2067SOL    HW1 7642   0.661   3.300   4.139
 2067SOL    HW2 7643   0.528   3.368   4.159
 2068SOL     OW 7644   1.732   2.258   5.111
 2068SOL    HW1 7645   1.805   2.319   5.113
 2068SOL    HW2 7646   1.758   2.190   5.049
 2069SOL     OW 7647   0.247   3.199   3.987
 2069SOL    HW1 7648   0.151   3.203   3.981
 2069SOL    HW2 7649   0.267   3.237   4.073
 2070SOL     OW 7650   0.107   2.881   5.423
 2070SOL    HW1 7651   0.066   2.962   5.452
 2070SOL    HW2 7652   0.189   2.877   5.472
 2071SOL     OW 7653   0.684   2.060   5.224
 2071SOL    HW1 7654   0.767   2.034   5.184
 2071SOL    HW2 7655   0.707   2.085   5.313
 2072SOL     OW 7656   0.100   2.210   3.737
 2072SOL    HW1 7657   0.035   2.252   3.794
 2072SOL    HW2 7658   0.120   2.276   3.671
 2073SOL     OW 7659   1.421   2.719   5.118
 2073SOL    HW1 7660   1.374   2.782   5.063
 2073SOL    HW2 7661   1.512   2.725   5.089
 2074SOL     OW 7662   0.088   2.101   4.091
 2074SOL    HW1 7663   0.042   2.083   4.009
 2074SOL    HW2 7664   0.170   2.052   4.083
 2075SOL     OW 7665   1.177   3.194   3.845
 2075SOL    HW1 7666   1.085   3.170   3.851
 2075SOL    HW2 7667   1.207   3.200   3.935
 2076SOL     OW 7668   0.608   2.668   5.196
 2076SOL    HW1 7669   0.648   2.755   5.187
 2076SOL    HW2 7670   0.680   2.607   5.179
 2077SOL     OW 7671   0.697   2.422   5.435
 2077SOL    HW1 7672   0.752   2.483   5.484
 2077SOL    HW2 7673   0.724   2.335   5.465
 2078SOL     OW 7674   1.473   3.056   5.346
 2078SOL    HW1 7675   1.466   3.070   5.441
 2078SOL    HW2 7676   1.564   3.074   5.326
 2079SOL     OW 7677   0.384   3.601   5.286
 2079SOL    HW1 7678   0.295   3.630   5.266
 2079SOL    HW2 7679   0.373   3.514   5.324
 2080SOL     OW 7680   1.659   2.736   4.974
 2080SOL    HW1 7681   1.665   2.654   4.926
 2080SOL    HW2 7682   1.649   2.803   4.906
 2081SOL     OW 7683   1.212   2.176   4.176
 2081SOL    HW1 7684   1.278   2.107   4.175
 2081SOL    HW2 7685   1.234   2.229   4.253
 2082SOL     OW 7686   0.592   2.593   4.402
 2082SOL    HW1 7687   0.634   2.679   4.393
 2082SOL    HW2 7688   0.530   2.589   4.329
 2083SOL     OW 7689   1.758   2.218   5.386
 2083SOL    HW1 7690   1.750   2.239   5.293
 2083SOL    HW2 7691   1.679   2.167   5.405
 2084SOL     OW 7692   1.722   2.792   5.236
 2084SOL    HW1 7693   1.759   2.879   5.251
 2084SOL    HW2 7694   1.720   2.782   5.141
 2085SOL     OW 7695   0.860   3.219   3.770
 2085SOL    HW1 7696   0.828   3.246   3.856
 2085SOL    HW2 7697   0.879   3.301   3.725
 2086SOL     OW 7698   0.667   3.639   4.654
 2086SOL    HW1 7699   0.652   3.732   4.640
 2086SOL    HW2 7700   0.762   3.629   4.653
 2087SOL     OW 7701   0.872   2.833   4.575
 2087SOL    HW1 7702   0.924   2.762   4.613
 2087SOL    HW2 7703   0.834   2.877   4.651
 2088SOL     OW 7704   1.057   2.833   3.801
 2088SOL    HW1 7705   1.050   2.900   3.733
 2088SOL    HW2 7706   1.138   2.786   3.780
 2089SOL     OW 7707   1.846   3.415   4.576
 2089SOL    HW1 7708   1.821   3.369   4.497
 2089SOL    HW2 7709   1.861   3.345   4.641
 2090SOL     OW 7710   0.215   3.157   5.580
 2090SOL    HW1 7711   0.121   3.149   5.562
 2090SOL    HW2 7712   0.221   3.162   5.675
 2091SOL     OW 7713   0.133   3.122   4.382
 2091SOL    HW1 7714   0.058   3.075   4.418
 2091SOL    HW2 7715   0.197   3.054   4.359
 2092SOL     OW 7716   0.677   3.268   5.352
 2092SOL    HW1 7717   0.594   3.237   5.387
 2092SOL    HW2 7718   0.688   3.355   5.391
 2093SOL     OW 7719   1.792   2.044   4.961
 2093SOL    HW1 7720   1.839   1.964   4.984
 2093SOL    HW2 7721   1.807   2.053   4.866
 2094SOL     OW 7722   0.434   2.296   4.249
 2094SOL    HW1 7723   0.465   2.222   4.197
 2094SOL    HW2 7724   0.383   2.256   4.320
 2095SOL     OW 7725   1.699   3.347   4.845
 2095SOL    HW1 7726   1.626   3.287   4.826
 2095SOL    HW2 7727   1.760   3.294   4.896
 2096SOL     OW 7728   0.370   2.424   5.018
 2096SOL    HW1 7729   0.416   2.353   5.063
 2096SOL    HW2 7730   0.369   2.398   4.926
 2097SOL     OW 7731   0.835   3.446   4.396
 2097SOL    HW1 7732   0.815   3.518   4.336
 2097SOL    HW2 7733   0.758   3.390   4.393
 2098SOL     OW 7734   1.432   2.099   4.843
 2098SOL    HW1 7735   1.480   2.033   4.893
 2098SOL    HW2 7736   1.380   2.146   4.908
 2099SOL     OW 7737   1.009   1.877   4.856
 2099SOL    HW1 7738   0.956   1.811   4.812
 2099SOL    HW2 7739   1.098   1.840   4.856
 2100SOL     OW 7740   0.778   3.193   4.046
 2100SOL    HW1 7741   0.757   3.101   4.061
 2100SOL    HW2 7742   0.857   3.208   4.098
 2101SOL     OW 7743   0.621   3.421   5.009
 2101SOL    HW1 7744   0.618   3.508   5.049
 2101SOL    HW2 7745   0.711   3.412   4.977
 2102SOL     OW 7746   1.368   1.907   3.903
 2102SOL    HW1 7747   1.411   1.827   3.872
 2102SOL    HW2 7748   1.276   1.882   3.916
 2103SOL     OW 7749   1.270   2.323   4.396
 2103SOL    HW1 7750   1.230   2.409   4.404
 2103SOL    HW2 7751   1.282   2.293   4.486
 2104SOL     OW 7752   1.577   2.050   4.607
 2104SOL    HW1 7753   1.527   2.080   4.683
 2104SOL    HW2 7754   1.583   2.127   4.550
 2105SOL     OW 7755   0.042   2.896   3.999
 2105SOL    HW1 7756   0.135   2.880   3.985
 2105SOL    HW2 7757   0.034   2.907   4.094
 2106SOL     OW 7758   0.890   3.526   4.058
 2106SOL    HW1 7759   0.812   3.513   4.004
 2106SOL    HW2 7760   0.866   3.597   4.117
 2107SOL     OW 7761   0.203   2.538   5.622
 2107SOL    HW1 7762   0.157   2.534   5.705
 2107SOL    HW2 7763   0.272   2.472   5.629
 2108SOL     OW 7764   0.238   2.131   6.571
 2108SOL    HW1 7765   0.263   2.103   6.659
 2108SOL    HW2 7766   0.152   2.090   6.557
 2109SOL     OW 7767   8.006   2.256   6.190
 2109SOL    HW1 7768   7.918   2.244   6.227
 2109SOL    HW2 7769   8.008   2.199   6.114
 2110SOL     OW 7770   0.570   3.163   6.779
 2110SOL    HW1 7771   0.481   3.167   6.745
 2110SOL    HW2 7772   0.590   3.253   6.806
 2111SOL     OW 7773   1.582   3.371   6.292
 2111SOL    HW1 7774   1.535   3.355   6.374
 2111SOL    HW2 7775   1.512   3.379   6.227
 2112SOL     OW 7776   1.129   2.570   6.277
 2112SOL    HW1 7777   1.182   2.649   6.266
 2112SOL    HW2 7778   1.085   2.582   6.361
 2113SOL     OW 7779   1.779   2.453   5.807
 2113SOL    HW1 7780   1.746   2.450   5.717
 2113SOL    HW2 7781   1.741   2.376   5.849
 2114SOL     OW 7782   0.731   2.993   6.632
 2114SOL    HW1 7783   0.671   3.034   6.694
 2114SOL    HW2 7784   0.777   3.066   6.591
 2115SOL     OW 7785   0.879   2.617   7.409
 2115SOL    HW1 7786   0.881   2.687   7.475
 2115SOL    HW2 7787   0.900   2.661   7.326
 2116SOL     OW 7788   0.687   2.855   6.232
 2116SOL    HW1 7789   0.757   2.850   6.298
 2116SOL    HW2 7790   0.622   2.914   6.270
 2117SOL     OW 7791   0.710   3.012   7.411
 2117SOL    HW1 7792   0.758   3.088   7.442
 2117SOL    HW2 7793   0.633   3.048   7.367
 2118SOL     OW 7794   0.330   3.285   6.654
 2118SOL    HW1 7795   0.281   3.224   6.600
 2118SOL    HW2 7796   0.384   3.335   6.593
 2119SOL     OW 7797   1.460   3.367   6.953
 2119SOL    HW1 7798   1.518   3.443   6.953
 2119SOL    HW2 7799   1.405   3.379   7.031
 2120SOL     OW 7800   0.450   2.246   7.070
 2120SOL    HW1 7801   0.530   2.195   7.076
 2120SOL    HW2 7802   0.380   2.182   7.082
 2121SOL     OW 7803   1.605   2.300   6.333
 2121SOL    HW1 7804   1.550   2.330   6.260
 2121SOL    HW2 7805   1.608   2.375   6.393
 2122SOL     OW 7806   0.229   3.570   6.063
 2122SOL    HW1 7807   0.247   3.648   6.116
 2122SOL    HW2 7808   0.297   3.571   5.996
 2123SOL     OW 7809   1.137   3.203   7.282
 2123SOL    HW1 7810   1.192   3.189   7.359
 2123SOL    HW2 7811   1.086   3.123   7.273
 2124SOL     OW 7812   0.283   3.298   6.093
 2124SOL    HW1 7813   0.269   3.389   6.117
 2124SOL    HW2 7814   0.236   3.248   6.160
 2125SOL     OW 7815   0.282   2.944   6.481
 2125SOL    HW1 7816   0.282   2.852   6.507
 2125SOL    HW2 7817   0.206   2.982   6.525
 2126SOL     OW 7818   0.588   3.671   6.985
 2126SOL    HW1 7819   0.517   3.646   7.045
 2126SOL    HW2 7820   0.626   3.749   7.025
 2127SOL     OW 7821   0.568   2.855   5.736
 2127SOL    HW1 7822   0.619   2.897   5.666
 2127SOL    HW2 7823   0.611   2.882   5.817
 2128SOL     OW 7824   1.592   1.989   7.046
 2128SOL    HW1 7825   1.638   2.057   6.997
 2128SOL    HW2 7826   1.572   2.030   7.130
 2129SOL     OW 7827   0.137   2.496   6.131
 2129SOL    HW1 7828   0.098   2.414   6.160
 2129SOL    HW2 7829   0.123   2.556   6.204
 2130SOL     OW 7830   1.845   3.613   5.928
 2130SOL    HW1 7831   1.921   3.588   5.980
 2130SOL    HW2 7832   1.863   3.704   5.901
 2131SOL     OW 7833   0.016   3.449   5.730
 2131SOL    HW1 7834  -0.004   3.356   5.716
 2131SOL    HW2 7835   0.003   3.463   5.824
 2132SOL     OW 7836   1.680   2.762   6.217
 2132SOL    HW1 7837   1.773   2.738   6.219
 2132SOL    HW2 7838   1.672   2.819   6.141
 2133SOL     OW 7839   1.653   2.968   6.020
 2133SOL    HW1 7840   1.739   2.966   5.979
 2133SOL    HW2 7841   1.665   3.026   6.096
 2134SOL     OW 7842   0.152   2.625   7.176
 2134SOL    HW1 7843   0.248   2.627   7.173
 2134SOL    HW2 7844   0.129   2.705   7.223
 2135SOL     OW 7845   0.615   3.258   6.321
 2135SOL    HW1 7846   0.574   3.171   6.327
 2135SOL    HW2 7847   0.603   3.283   6.229
 2136SOL     OW 7848   1.282   3.094   7.007
 2136SOL    HW1 7849   1.310   3.027   6.945
 2136SOL    HW2 7850   1.347   3.091   7.077
 2137SOL     OW 7851   0.824   1.866   6.101
 2137SOL    HW1 7852   0.866   1.949   6.077
 2137SOL    HW2 7853   0.731   1.887   6.104
 2138SOL     OW 7854   0.173   2.778   6.849
 2138SOL    HW1 7855   0.266   2.755   6.852
 2138SOL    HW2 7856   0.148   2.764   6.757
 2139SOL     OW 7857   1.527   2.870   5.789
 2139SOL    HW1 7858   1.462   2.811   5.826
 2139SOL    HW2 7859   1.576   2.902   5.865
 2140SOL     OW 7860   1.161   3.674   7.215
 2140SOL    HW1 7861   1.182   3.740   7.149
 2140SOL    HW2 7862   1.191   3.591   7.177
 2141SOL     OW 7863   0.358   2.116   7.430
 2141SOL    HW1 7864   0.405   2.194   7.459
 2141SOL    HW2 7865   0.266   2.139   7.440
 2142SOL     OW 7866   1.458   3.286   6.526
 2142SOL    HW1 7867   1.398   3.301   6.600
 2142SOL    HW2 7868   1.447   3.194   6.504
 2143SOL     OW 7869   1.640   3.627   6.164
 2143SOL    HW1 7870   1.649   3.587   6.078
 2143SOL    HW2 7871   1.639   3.553   6.225
 2144SOL     OW 7872   0.587   2.564   5.848
 2144SOL    HW1 7873   0.611   2.652   5.818
 2144SOL    HW2 7874   0.532   2.579   5.924
 2145SOL     OW 7875   1.280   2.238   6.523
 2145SOL    HW1 7876   1.192   2.202   6.531
 2145SOL    HW2 7877   1.334   2.184   6.580
 2146SOL     OW 7878   1.581   3.529   5.894
 2146SOL    HW1 7879   1.673   3.555   5.891
 2146SOL    HW2 7880   1.558   3.513   5.802
 2147SOL     OW 7881   0.784   2.481   7.028
 2147SOL    HW1 7882   0.761   2.452   7.116
 2147SOL    HW2 7883   0.757   2.409   6.971
 2148SOL     OW 7884   1.388   2.336   7.263
 2148SOL    HW1 7885   1.395   2.383   7.346
 2148SOL    HW2 7886   1.448   2.261   7.272
 2149SOL     OW 7887   0.947   2.744   7.173
 2149SOL    HW1 7888   1.004   2.678   7.133
 2149SOL    HW2 7889   0.901   2.784   7.099
 2150SOL     OW 7890   0.996   2.268   6.814
 2150SOL    HW1 7891   0.904   2.282   6.838
 2150SOL    HW2 7892   0.992   2.230   6.726
 2151SOL     OW 7893   1.055   2.560   6.009
 2151SOL    HW1 7894   1.077   2.560   6.102
 2151SOL    HW2 7895   0.972   2.512   6.004
 2152SOL     OW 7896   0.101   2.650   6.358
 2152SOL    HW1 7897   0.181   2.658   6.410
 2152SOL    HW2 7898   0.049   2.727   6.381
 2153SOL     OW 7899   0.118   3.672   7.151
 2153SOL    HW1 7900   0.119   3.663   7.246
 2153SOL    HW2 7901   0.028   3.650   7.126
 2154SOL     OW 7902   0.899   2.212   5.781
 2154SOL    HW1 7903   0.940   2.277   5.724
 2154SOL    HW2 7904   0.923   2.128   5.743
 2155SOL     OW 7905   1.685   2.426   7.420
 2155SOL    HW1 7906   1.659   2.503   7.369
 2155SOL    HW2 7907   1.725   2.368   7.356
 2156SOL     OW 7908   1.381   2.998   6.110
 2156SOL    HW1 7909   1.467   2.992   6.069
 2156SOL    HW2 7910   1.336   3.067   6.062
 2157SOL     OW 7911   0.555   2.035   6.487
 2157SOL    HW1 7912   0.558   2.063   6.579
 2157SOL    HW2 7913   0.559   2.117   6.437
 2158SOL     OW 7914   0.995   3.303   6.051
 2158SOL    HW1 7915   0.970   3.382   6.004
 2158SOL    HW2 7916   0.982   3.325   6.144
 2159SOL     OW 7917   0.359   3.683   6.460
 2159SOL    HW1 7918   0.409   3.602   6.467
 2159SOL    HW2 7919   0.422   3.752   6.478
 2160SOL     OW 7920   1.789   2.882   6.471
 2160SOL    HW1 7921   1.747   2.914   6.391
 2160SOL    HW2 7922   1.726   2.902   6.540
 2161SOL     OW 7923   1.217   3.407   7.108
 2161SOL    HW1 7924   1.208   3.330   7.164
 2161SOL    HW2 7925   1.176   3.382   7.025
 2162SOL     OW 7926   0.309   2.816   5.832
 2162SOL    HW1 7927   0.397   2.838   5.801
 2162SOL    HW2 7928   0.293   2.728   5.797
 2163SOL     OW 7929   1.474   2.614   6.306
 2163SOL    HW1 7930   1.483   2.577   6.394
 2163SOL    HW2 7931   1.553   2.666   6.294
 2164SOL     OW 7932   0.463   3.132   7.332
 2164SOL    HW1 7933   0.441   3.135   7.239
 2164SOL    HW2 7934   0.379   3.116   7.375
 2165SOL     OW 7935   1.119   3.646   5.803
 2165SOL    HW1 7936   1.050   3.602   5.851
 2165SOL    HW2 7937   1.149   3.582   5.739
 2166SOL     OW 7938   0.190   2.124   7.085
 2166SOL    HW1 7939   0.169   2.200   7.140
 2166SOL    HW2 7940   0.161   2.049   7.137
 2167SOL     OW 7941   1.617   3.242   5.684
 2167SOL    HW1 7942   1.583   3.329   5.663
 2167SOL    HW2 7943   1.550   3.181   5.652
 2168SOL     OW 7944   0.456   3.605   5.898
 2168SOL    HW1 7945   0.505   3.654   5.964
 2168SOL    HW2 7946   0.523   3.564   5.843
 2169SOL     OW 7947   1.401   1.969   6.035
 2169SOL    HW1 7948   1.398   1.944   5.943
 2169SOL    HW2 7949   1.494   1.980   6.054
 2170SOL     OW 7950   0.259   3.642   6.826
 2170SOL    HW1 7951   0.300   3.573   6.878
 2170SOL    HW2 7952   0.279   3.619   6.735
 2171SOL     OW 7953   0.945   3.560   6.485
 2171SOL    HW1 7954   1.032   3.523   6.500
 2171SOL    HW2 7955   0.909   3.509   6.413
 2172SOL     OW 7956   0.406   2.559   6.057
 2172SOL    HW1 7957   0.422   2.466   6.071
 2172SOL    HW2 7958   0.314   2.572   6.081
 2173SOL     OW 7959   1.523   2.089   7.305
 2173SOL    HW1 7960   1.534   2.109   7.398
 2173SOL    HW2 7961   1.458   2.019   7.302
 2174SOL     OW 7962   0.650   1.978   5.687
 2174SOL    HW1 7963   0.708   1.906   5.709
 2174SOL    HW2 7964   0.598   1.946   5.614
 2175SOL     OW 7965   0.759   2.141   7.341
 2175SOL    HW1 7966   0.843   2.095   7.339
 2175SOL    HW2 7967   0.717   2.111   7.421
 2176SOL     OW 7968   0.872   3.379   6.784
 2176SOL    HW1 7969   0.859   3.342   6.696
 2176SOL    HW2 7970   0.946   3.329   6.819
 2177SOL     OW 7971   1.336   2.454   7.019
 2177SOL    HW1 7972   1.369   2.424   7.103
 2177SOL    HW2 7973   1.377   2.540   7.007
 2178SOL     OW 7974   0.819   3.242   6.536
 2178SOL    HW1 7975   0.907   3.235   6.497
 2178SOL    HW2 7976   0.761   3.257   6.461
 2179SOL     OW 7977   0.926   2.368   6.485
 2179SOL    HW1 7978   0.901   2.359   6.394
 2179SOL    HW2 7979   0.960   2.282   6.510
 2180SOL     OW 7980   0.556   1.926   6.078
 2180SOL    HW1 7981   0.477   1.927   6.131
 2180SOL    HW2 7982   0.547   2.002   6.019
 2181SOL     OW 7983   1.421   3.059   5.617
 2181SOL    HW1 7984   1.457   2.990   5.673
 2181SOL    HW2 7985   1.342   3.088   5.663
 2182SOL     OW 7986   0.286   1.908   5.759
 2182SOL    HW1 7987   0.347   1.975   5.730
 2182SOL    HW2 7988   0.339   1.848   5.810
 2183SOL     OW 7989   0.944   2.110   6.040
 2183SOL    HW1 7990   0.920   2.151   5.956
 2183SOL    HW2 7991   1.038   2.125   6.048
 2184SOL     OW 7992   1.082   2.549   7.041
 2184SOL    HW1 7993   1.025   2.471   7.042
 2184SOL    HW2 7994   1.171   2.513   7.035
 2185SOL     OW 7995   1.210   3.442   6.382
 2185SOL    HW1 7996   1.230   3.504   6.312
 2185SOL    HW2 7997   1.285   3.448   6.441
 2186SOL     OW 7998   0.477   3.019   6.308
 2186SOL    HW1 7999   0.416   2.995   6.378
 2186SOL    HW2 8000   0.430   3.000   6.227
 2187SOL     OW 8001   1.265   3.655   6.198
 2187SOL    HW1 8002   1.320   3.711   6.144
 2187SOL    HW2 8003   1.212   3.715   6.251
 2188SOL     OW 8004   1.028   2.391   5.616
 2188SOL    HW1 8005   0.992   2.478   5.599
 2188SOL    HW2 8006   1.095   2.406   5.683
 2189SOL     OW 8007   0.097   2.465   6.963
 2189SOL    HW1 8008   0.188   2.444   6.940
 2189SOL    HW2 8009   0.105   2.524   7.038
 2190SOL     OW 8010   0.560   2.085   6.760
 2190SOL    HW1 8011   0.604   2.016   6.809
 2190SOL    HW2 8012   0.468   2.080   6.788
 2191SOL     OW 8013   0.861   2.313   6.225
 2191SOL    HW1 8014   0.826   2.372   6.157
 2191SOL    HW2 8015   0.890   2.236   6.176
 2192SOL     OW 8016   1.017   1.920   6.335
 2192SOL    HW1 8017   0.960   1.912   6.258
 2192SOL    HW2 8018   0.995   1.845   6.389
 2193SOL     OW 8019   1.450   3.024   6.441
 2193SOL    HW1 8020   1.382   2.961   6.416
 2193SOL    HW2 8021   1.502   3.036   6.361
 2194SOL     OW 8022   1.466   2.475   6.550
 2194SOL    HW1 8023   1.408   2.398   6.553
 2194SOL    HW2 8024   1.523   2.466   6.626
 2195SOL     OW 8025   1.833   2.669   5.964
 2195SOL    HW1 8026   1.892   2.624   6.025
 2195SOL    HW2 8027   1.815   2.603   5.897
 2196SOL     OW 8028   0.487   3.283   5.732
 2196SOL    HW1 8029   0.407   3.252   5.774
 2196SOL    HW2 8030   0.499   3.225   5.657
 2197SOL     OW 8031   1.678   3.107   6.256
 2197SOL    HW1 8032   1.774   3.101   6.258
 2197SOL    HW2 8033   1.661   3.201   6.262
 2198SOL     OW 8034   1.393   2.440   5.652
 2198SOL    HW1 8035   1.343   2.412   5.728
 2198SOL    HW2 8036   1.485   2.422   5.675
 2199SOL     OW 8037   0.523   2.120   5.887
 2199SOL    HW1 8038   0.578   2.076   5.823
 2199SOL    HW2 8039   0.502   2.204   5.846
 2200SOL     OW 8040   1.747   3.106   7.156
 2200SOL    HW1 8041   1.833   3.068   7.137
 2200SOL    HW2 8042   1.765   3.198   7.174
 2201SOL     OW 8043   1.054   3.212   6.916
 2201SOL    HW1 8044   0.978   3.182   6.966
 2201SOL    HW2 8045   1.128   3.168   6.958
 2202SOL     OW 8046   1.604   3.488   7.236
 2202SOL    HW1 8047   1.602   3.533   7.151
 2202SOL    HW2 8048   1.688   3.444   7.238
 2203SOL     OW 8049   1.127   3.070   6.686
 2203SOL    HW1 8050   1.078   3.120   6.752
 2203SOL    HW2 8051   1.108   3.113   6.603
 2204SOL     OW 8052   1.609   2.953   6.663
 2204SOL    HW1 8053   1.601   3.017   6.733
 2204SOL    HW2 8054   1.540   2.976   6.600
 2205SOL     OW 8055   0.919   1.951   6.975
 2205SOL    HW1 8056   0.941   1.933   6.883
 2205SOL    HW2 8057   0.998   1.991   7.011
 2206SOL     OW 8058   0.980   2.978   7.309
 2206SOL    HW1 8059   0.888   2.992   7.332
 2206SOL    HW2 8060   0.979   2.899   7.254
 2207SOL     OW 8061   0.710   2.921   5.963
 2207SOL    HW1 8062   0.699   2.902   6.056
 2207SOL    HW2 8063   0.784   2.867   5.935
 2208SOL     OW 8064   0.430   2.683   6.843
 2208SOL    HW1 8065   0.497   2.698   6.910
 2208SOL    HW2 8066   0.403   2.592   6.855
 2209SOL     OW 8067   1.262   2.233   6.875
 2209SOL    HW1 8068   1.295   2.313   6.917
 2209SOL    HW2 8069   1.172   2.255   6.851
 2210SOL     OW 8070   0.047   3.457   6.909
 2210SOL    HW1 8071   0.100   3.535   6.896
 2210SOL    HW2 8072   0.083   3.417   6.989
 2211SOL     OW 8073   0.330   2.973   6.076
 2211SOL    HW1 8074   0.344   3.048   6.020
 2211SOL    HW2 8075   0.333   2.897   6.017
 2212SOL     OW 8076   0.548   2.386   6.441
 2212SOL    HW1 8077   0.562   2.447   6.369
 2212SOL    HW2 8078   0.613   2.411   6.507
 2213SOL     OW 8079   1.249   3.215   5.976
 2213SOL    HW1 8080   1.306   3.285   6.008
 2213SOL    HW2 8081   1.162   3.236   6.012
 2214SOL     OW 8082   1.296   3.325   6.743
 2214SOL    HW1 8083   1.357   3.339   6.815
 2214SOL    HW2 8084   1.246   3.247   6.767
 2215SOL     OW 8085   1.579   2.476   6.078
 2215SOL    HW1 8086   1.527   2.529   6.138
 2215SOL    HW2 8087   1.640   2.539   6.037
 2216SOL     OW 8088   0.352   3.389   6.906
 2216SOL    HW1 8089   0.330   3.348   6.823
 2216SOL    HW2 8090   0.447   3.398   6.905
 2217SOL     OW 8091   0.433   2.591   7.199
 2217SOL    HW1 8092   0.487   2.642   7.139
 2217SOL    HW2 8093   0.491   2.522   7.231
 2218SOL     OW 8094   1.606   2.643   7.279
 2218SOL    HW1 8095   1.521   2.687   7.273
 2218SOL    HW2 8096   1.659   2.685   7.211
 2219SOL     OW 8097   0.994   2.001   7.344
 2219SOL    HW1 8098   1.052   2.075   7.324
 2219SOL    HW2 8099   1.044   1.924   7.316
 2220SOL     OW 8100   0.499   1.895   7.341
 2220SOL    HW1 8101   0.452   1.845   7.274
 2220SOL    HW2 8102   0.446   1.973   7.355
 2221SOL     OW 8103   0.587   2.740   6.618
 2221SOL    HW1 8104   0.629   2.826   6.620
 2221SOL    HW2 8105   0.535   2.737   6.699
 2222SOL     OW 8106   1.338   2.718   6.606
 2222SOL    HW1 8107   1.256   2.702   6.558
 2222SOL    HW2 8108   1.389   2.638   6.592
 2223SOL     OW 8109   1.194   2.383   5.845
 2223SOL    HW1 8110   1.207   2.307   5.901
 2223SOL    HW2 8111   1.158   2.450   5.903
 2224SOL     OW 8112   0.297   2.051   6.835
 2224SOL    HW1 8113   0.257   2.083   6.916
 2224SOL    HW2 8114   0.281   1.957   6.836
 2225SOL     OW 8115   0.044   3.168   6.853
 2225SOL    HW1 8116   0.069   3.114   6.927
 2225SOL    HW2 8117   0.049   3.258   6.886
 2226SOL     OW 8118   0.714   2.487   6.633
 2226SOL    HW1 8119   0.795   2.475   6.584
 2226SOL    HW2 8120   0.690   2.579   6.619
 2227SOL     OW 8121   1.742   2.816   7.455
 2227SOL    HW1 8122   1.696   2.753   7.400
 2227SOL    HW2 8123   1.679   2.838   7.523
 2228SOL     OW 8124   0.309   1.931   6.201
 2228SOL    HW1 8125   0.285   2.021   6.225
 2228SOL    HW2 8126   0.320   1.886   6.285
 2229SOL     OW 8127   1.618   2.243   5.939
 2229SOL    HW1 8128   1.652   2.178   6.000
 2229SOL    HW2 8129   1.597   2.319   5.993
 2230SOL     OW 8130   1.024   2.619   6.540
 2230SOL    HW1 8131   1.015   2.636   6.634
 2230SOL    HW2 8132   1.000   2.527   6.529
 2231SOL     OW 8133   0.969   3.417   7.309
 2231SOL    HW1 8134   0.958   3.466   7.228
 2231SOL    HW2 8135   1.025   3.343   7.285
 2232SOL     OW 8136   1.846   3.363   7.182
 2232SOL    HW1 8137   1.872   3.399   7.098
 2232SOL    HW2 8138   1.921   3.378   7.239
 2233SOL     OW 8139   0.363   2.810   7.373
 2233SOL    HW1 8140   0.434   2.825   7.436
 2233SOL    HW2 8141   0.388   2.729   7.328
 2234SOL     OW 8142   1.518   2.133   5.708
 2234SOL    HW1 8143   1.461   2.064   5.742
 2234SOL    HW2 8144   1.556   2.173   5.785
 2235SOL     OW 8145   1.277   2.684   5.608
 2235SOL    HW1 8146   1.324   2.601   5.614
 2235SOL    HW2 8147   1.313   2.727   5.530
 2236SOL     OW 8148   1.071   3.206   6.446
 2236SOL    HW1 8149   1.080   3.135   6.383
 2236SOL    HW2 8150   1.127   3.276   6.413
 2237SOL     OW 8151   0.321   2.666   6.529
 2237SOL    HW1 8152   0.413   2.690   6.532
 2237SOL    HW2 8153   0.317   2.577   6.563
 2238SOL     OW 8154   0.334   2.382   6.603
 2238SOL    HW1 8155   0.298   2.295   6.587
 2238SOL    HW2 8156   0.409   2.388   6.544
 2239SOL     OW 8157   1.134   2.232   7.276
 2239SOL    HW1 8158   1.089   2.287   7.340
 2239SOL    HW2 8159   1.221   2.271   7.268
 2240SOL     OW 8160   1.159   2.056   7.062
 2240SOL    HW1 8161   1.149   2.119   7.133
 2240SOL    HW2 8162   1.204   2.104   6.993
 2241SOL     OW 8163   7.976   3.165   5.789
 2241SOL    HW1 8164   7.886   3.182   5.815
 2241SOL    HW2 8165   7.988   3.071   5.801
 2242SOL     OW 8166   0.092   3.619   6.466
 2242SOL    HW1 8167   0.091   3.536   6.514
 2242SOL    HW2 8168   0.184   3.645   6.465
 2243SOL     OW 8169   0.490   3.437   6.489
 2243SOL    HW1 8170   0.560   3.497   6.513
 2243SOL    HW2 8171   0.532   3.374   6.431
 2244SOL     OW 8172   0.963   2.643   6.807
 2244SOL    HW1 8173   1.031   2.632   6.873
 2244SOL    HW2 8174   0.885   2.603   6.845
 2245SOL     OW 8175   0.073   2.413   6.699
 2245SOL    HW1 8176   0.167   2.409   6.681
 2245SOL    HW2 8177   0.067   2.428   6.793
 2246SOL     OW 8178   0.201   2.365   7.258
 2246SOL    HW1 8179   0.291   2.366   7.227
 2246SOL    HW2 8180   0.167   2.452   7.236
 2247SOL     OW 8181   1.379   2.795   7.240
 2247SOL    HW1 8182   1.406   2.887   7.236
 2247SOL    HW2 8183   1.379   2.766   7.149
 2248SOL     OW 8184   0.816   2.425   5.958
 2248SOL    HW1 8185   0.830   2.353   5.896
 2248SOL    HW2 8186   0.743   2.474   5.922
 2249SOL     OW 8187   1.638   2.456   6.760
 2249SOL    HW1 8188   1.634   2.406   6.842
 2249SOL    HW2 8189   1.727   2.441   6.728
 2250SOL     OW 8190   0.290   3.399   7.311
 2250SOL    HW1 8191   0.253   3.470   7.364
 2250SOL    HW2 8192   0.282   3.321   7.366
 2251SOL     OW 8193   0.717   2.303   6.833
 2251SOL    HW1 8194   0.660   2.231   6.808
 2251SOL    HW2 8195   0.707   2.367   6.763
 2252SOL     OW 8196   0.895   3.546   7.073
 2252SOL    HW1 8197   0.890   3.502   6.988
 2252SOL    HW2 8198   0.907   3.639   7.050
 2253SOL     OW 8199   0.443   2.348   5.741
 2253SOL    HW1 8200   0.502   2.418   5.768
 2253SOL    HW2 8201   0.365   2.360   5.796
 2254SOL     OW 8202   0.153   2.982   7.036
 2254SOL    HW1 8203   0.133   2.937   7.118
 2254SOL    HW2 8204   0.159   2.913   6.971
 2255SOL     OW 8205   1.307   2.899   6.805
 2255SOL    HW1 8206   1.332   2.838   6.736
 2255SOL    HW2 8207   1.244   2.958   6.763
 2256SOL     OW 8208   1.316   2.717   5.883
 2256SOL    HW1 8209   1.242   2.684   5.935
 2256SOL    HW2 8210   1.290   2.703   5.792
 2257SOL     OW 8211   1.739   3.593   6.710
 2257SOL    HW1 8212   1.816   3.628   6.665
 2257SOL    HW2 8213   1.744   3.498   6.695
 2258SOL     OW 8214   1.240   3.592   6.676
 2258SOL    HW1 8215   1.325   3.624   6.645
 2258SOL    HW2 8216   1.256   3.502   6.703
 2259SOL     OW 8217   0.067   3.052   6.612
 2259SOL    HW1 8218   0.063   3.096   6.698
 2259SOL    HW2 8219  -0.009   3.085   6.565
 2260SOL     OW 8220   0.689   3.534   7.343
 2260SOL    HW1 8221   0.633   3.607   7.319
 2260SOL    HW2 8222   0.767   3.543   7.288
 2261SOL     OW 8223   1.723   2.026   6.082
 2261SOL    HW1 8224   1.793   2.009   6.019
 2261SOL    HW2 8225   1.708   1.941   6.124
 2262SOL     OW 8226   1.395   3.429   6.076
 2262SOL    HW1 8227   1.458   3.462   6.012
 2262SOL    HW2 8228   1.351   3.508   6.108
 2263SOL     OW 8229   0.164   3.606   7.442
 2263SOL    HW1 8230   0.107   3.542   7.485
 2263SOL    HW2 8231   0.147   3.688   7.489
 2264SOL     OW 8232   1.279   2.798   6.258
 2264SOL    HW1 8233   1.352   2.737   6.271
 2264SOL    HW2 8234   1.313   2.865   6.199
 2265SOL     OW 8235   0.799   3.141   7.008
 2265SOL    HW1 8236   0.771   3.183   7.089
 2265SOL    HW2 8237   0.730   3.160   6.945
 2266SOL     OW 8238   0.662   3.492   5.744
 2266SOL    HW1 8239   0.682   3.506   5.651
 2266SOL    HW2 8240   0.610   3.412   5.746
 2267SOL     OW 8241   1.610   3.591   6.965
 2267SOL    HW1 8242   1.666   3.596   6.887
 2267SOL    HW2 8243   1.596   3.682   6.990
 2268SOL     OW 8244   1.840   2.029   6.555
 2268SOL    HW1 8245   1.872   1.942   6.530
 2268SOL    HW2 8246   1.755   2.036   6.511
 2269SOL     OW 8247   0.259   2.181   6.294
 2269SOL    HW1 8248   0.172   2.216   6.275
 2269SOL    HW2 8249   0.261   2.172   6.389
 2270SOL     OW 8250   1.204   3.460   5.619
 2270SOL    HW1 8251   1.198   3.368   5.645
 2270SOL    HW2 8252   1.137   3.471   5.552
 2271SOL     OW 8253   0.826   2.871   6.963
 2271SOL    HW1 8254   0.872   2.863   6.880
 2271SOL    HW2 8255   0.821   2.966   6.979
 2272SOL     OW 8256   0.907   2.761   5.877
 2272SOL    HW1 8257   0.963   2.793   5.806
 2272SOL    HW2 8258   0.963   2.701   5.926
 2273SOL     OW 8259   1.486   3.493   5.628
 2273SOL    HW1 8260   1.392   3.484   5.610
 2273SOL    HW2 8261   1.526   3.498   5.542
 2274SOL     OW 8262   0.366   3.160   7.082
 2274SOL    HW1 8263   0.351   3.239   7.030
 2274SOL    HW2 8264   0.293   3.103   7.058
 2275SOL     OW 8265   1.596   3.146   6.855
 2275SOL    HW1 8266   1.682   3.145   6.898
 2275SOL    HW2 8267   1.547   3.214   6.901
 2276SOL     OW 8268   1.065   2.977   6.298
 2276SOL    HW1 8269   0.995   2.924   6.337
 2276SOL    HW2 8270   1.134   2.915   6.277
 2277SOL     OW 8271   1.026   2.107   6.554
 2277SOL    HW1 8272   1.025   2.062   6.470
 2277SOL    HW2 8273   1.022   2.038   6.619
 2278SOL     OW 8274   0.608   3.347   6.065
 2278SOL    HW1 8275   0.664   3.299   6.004
 2278SOL    HW2 8276   0.529   3.365   6.014
 2279SOL     OW 8277   1.744   2.261   6.973
 2279SOL    HW1 8278   1.818   2.321   6.969
 2279SOL    HW2 8279   1.767   2.191   6.912
 2280SOL     OW 8280   0.245   3.199   5.850
 2280SOL    HW1 8281   0.150   3.199   5.845
 2280SOL    HW2 8282   0.265   3.238   5.935
 2281SOL     OW 8283   0.101   2.864   7.298
 2281SOL    HW1 8284   0.068   2.951   7.322
 2281SOL    HW2 8285   0.187   2.859   7.340
 2282SOL     OW 8286   0.680   2.058   7.085
 2282SOL    HW1 8287   0.764   2.035   7.045
 2282SOL    HW2 8288   0.702   2.089   7.172
 2283SOL     OW 8289   0.108   2.241   5.572
 2283SOL    HW1 8290   0.057   2.175   5.619
 2283SOL    HW2 8291   0.069   2.324   5.598
 2284SOL     OW 8292   1.421   2.717   6.980
 2284SOL    HW1 8293   1.372   2.779   6.926
 2284SOL    HW2 8294   1.511   2.723   6.947
 2285SOL     OW 8295   0.095   2.102   5.954
 2285SOL    HW1 8296   0.052   2.081   5.871
 2285SOL    HW2 8297   0.178   2.053   5.951
 2286SOL     OW 8298   1.183   3.192   5.709
 2286SOL    HW1 8299   1.094   3.158   5.716
 2286SOL    HW2 8300   1.213   3.200   5.800
 2287SOL     OW 8301   0.623   2.699   7.029
 2287SOL    HW1 8302   0.681   2.774   7.014
 2287SOL    HW2 8303   0.682   2.623   7.031
 2288SOL     OW 8304   1.493   3.653   6.578
 2288SOL    HW1 8305   1.518   3.724   6.518
 2288SOL    HW2 8306   1.574   3.632   6.624
 2289SOL     OW 8307   0.707   2.423   7.284
 2289SOL    HW1 8308   0.759   2.480   7.341
 2289SOL    HW2 8309   0.728   2.334   7.315
 2290SOL     OW 8310   1.476   3.054   7.207
 2290SOL    HW1 8311   1.468   3.068   7.301
 2290SOL    HW2 8312   1.567   3.073   7.187
 2291SOL     OW 8313   0.383   3.607   7.154
 2291SOL    HW1 8314   0.294   3.634   7.133
 2291SOL    HW2 8315   0.374   3.519   7.191
 2292SOL     OW 8316   1.659   2.740   6.836
 2292SOL    HW1 8317   1.659   2.657   6.788
 2292SOL    HW2 8318   1.648   2.807   6.768
 2293SOL     OW 8319   1.213   2.177   6.040
 2293SOL    HW1 8320   1.278   2.107   6.037
 2293SOL    HW2 8321   1.237   2.230   6.116
 2294SOL     OW 8322   0.589   2.593   6.264
 2294SOL    HW1 8323   0.632   2.678   6.256
 2294SOL    HW2 8324   0.527   2.590   6.191
 2295SOL     OW 8325   1.759   2.220   7.246
 2295SOL    HW1 8326   1.752   2.241   7.153
 2295SOL    HW2 8327   1.680   2.169   7.265
 2296SOL     OW 8328   1.729   2.792   7.095
 2296SOL    HW1 8329   1.747   2.885   7.108
 2296SOL    HW2 8330   1.718   2.782   7.001
 2297SOL     OW 8331   0.848   3.222   5.628
 2297SOL    HW1 8332   0.827   3.253   5.716
 2297SOL    HW2 8333   0.878   3.299   5.582
 2298SOL     OW 8334   0.667   3.639   6.519
 2298SOL    HW1 8335   0.656   3.732   6.501
 2298SOL    HW2 8336   0.762   3.626   6.519
 2299SOL     OW 8337   0.871   2.833   6.438
 2299SOL    HW1 8338   0.923   2.761   6.474
 2299SOL    HW2 8339   0.832   2.876   6.514
 2300SOL     OW 8340   1.053   2.827   5.661
 2300SOL    HW1 8341   1.045   2.893   5.592
 2300SOL    HW2 8342   1.135   2.782   5.643
 2301SOL     OW 8343   1.844   3.405   6.420
 2301SOL    HW1 8344   1.766   3.401   6.365
 2301SOL    HW2 8345   1.816   3.370   6.505
 2302SOL     OW 8346   0.209   3.163   7.442
 2302SOL    HW1 8347   0.119   3.148   7.414
 2302SOL    HW2 8348   0.205   3.157   7.538
 2303SOL     OW 8349   0.138   3.125   6.241
 2303SOL    HW1 8350   0.061   3.081   6.278
 2303SOL    HW2 8351   0.198   3.054   6.220
 2304SOL     OW 8352   0.680   3.271   7.218
 2304SOL    HW1 8353   0.599   3.235   7.253
 2304SOL    HW2 8354   0.687   3.358   7.259
 2305SOL     OW 8355   1.795   2.041   6.824
 2305SOL    HW1 8356   1.824   1.951   6.839
 2305SOL    HW2 8357   1.809   2.055   6.730
 2306SOL     OW 8358   0.428   2.296   6.101
 2306SOL    HW1 8359   0.470   2.222   6.058
 2306SOL    HW2 8360   0.382   2.258   6.176
 2307SOL     OW 8361   1.711   3.324   6.649
 2307SOL    HW1 8362   1.622   3.313   6.616
 2307SOL    HW2 8363   1.716   3.268   6.726
 2308SOL     OW 8364   0.354   2.423   6.883
 2308SOL    HW1 8365   0.399   2.363   6.942
 2308SOL    HW2 8366   0.372   2.387   6.795
 2309SOL     OW 8367   0.835   3.447   6.261
 2309SOL    HW1 8368   0.817   3.516   6.196
 2309SOL    HW2 8369   0.759   3.390   6.257
 2310SOL     OW 8370   1.428   2.097   6.704
 2310SOL    HW1 8371   1.465   2.022   6.751
 2310SOL    HW2 8372   1.377   2.144   6.770
 2311SOL     OW 8373   1.009   1.876   6.716
 2311SOL    HW1 8374   0.956   1.812   6.669
 2311SOL    HW2 8375   1.097   1.839   6.718
 2312SOL     OW 8376   0.778   3.193   5.913
 2312SOL    HW1 8377   0.758   3.100   5.925
 2312SOL    HW2 8378   0.859   3.207   5.961
 2313SOL     OW 8379   0.620   3.422   6.869
 2313SOL    HW1 8380   0.618   3.509   6.909
 2313SOL    HW2 8381   0.710   3.412   6.838
 2314SOL     OW 8382   1.364   1.908   5.768
 2314SOL    HW1 8383   1.403   1.834   5.721
 2314SOL    HW2 8384   1.273   1.881   5.782
 2315SOL     OW 8385   1.276   2.324   6.259
 2315SOL    HW1 8386   1.235   2.411   6.265
 2315SOL    HW2 8387   1.285   2.295   6.349
 2316SOL     OW 8388   1.579   2.052   6.470
 2316SOL    HW1 8389   1.527   2.083   6.545
 2316SOL    HW2 8390   1.583   2.128   6.412
 2317SOL     OW 8391   0.045   2.900   5.859
 2317SOL    HW1 8392   0.139   2.883   5.850
 2317SOL    HW2 8393   0.032   2.907   5.954
 2318SOL     OW 8394   0.889   3.523   5.923
 2318SOL    HW1 8395   0.812   3.512   5.867
 2318SOL    HW2 8396   0.867   3.596   5.980
 2319SOL     OW 8397   0.241   2.560   7.530
 2319SOL    HW1 8398   0.198   2.518   7.604
 2319SOL    HW2 8399   0.241   2.493   7.462
 2320SOL     OW 8400   0.237   2.130   8.432
 2320SOL    HW1 8401   0.260   2.102   8.521
 2320SOL    HW2 8402   0.154   2.085   8.414
 2321SOL     OW 8403   8.006   2.246   8.055
 2321SOL    HW1 8404   7.915   2.235   8.083
 2321SOL    HW2 8405   8.013   2.195   7.974
 2322SOL     OW 8406   0.574   3.164   8.644
 2322SOL    HW1 8407   0.487   3.168   8.604
 2322SOL    HW2 8408   0.591   3.254   8.673
 2323SOL     OW 8409   1.586   3.375   8.154
 2323SOL    HW1 8410   1.538   3.352   8.234
 2323SOL    HW2 8411   1.518   3.378   8.086
 2324SOL     OW 8412   1.132   2.568   8.139
 2324SOL    HW1 8413   1.183   2.648   8.127
 2324SOL    HW2 8414   1.086   2.581   8.222
 2325SOL     OW 8415   1.773   2.456   7.672
 2325SOL    HW1 8416   1.744   2.453   7.580
 2325SOL    HW2 8417   1.740   2.375   7.710
 2326SOL     OW 8418   0.733   2.994   8.498
 2326SOL    HW1 8419   0.672   3.035   8.558
 2326SOL    HW2 8420   0.779   3.067   8.457
 2327SOL     OW 8421   0.877   2.617   9.270
 2327SOL    HW1 8422   0.876   2.686   9.336
 2327SOL    HW2 8423   0.898   2.661   9.188
 2328SOL     OW 8424   0.686   2.858   8.093
 2328SOL    HW1 8425   0.755   2.852   8.160
 2328SOL    HW2 8426   0.621   2.916   8.132
 2329SOL     OW 8427   0.712   3.012   9.273
 2329SOL    HW1 8428   0.762   3.088   9.304
 2329SOL    HW2 8429   0.636   3.050   9.229
 2330SOL     OW 8430   0.341   3.272   8.517
 2330SOL    HW1 8431   0.280   3.222   8.462
 2330SOL    HW2 8432   0.386   3.330   8.455
 2331SOL     OW 8433   1.460   3.366   8.815
 2331SOL    HW1 8434   1.519   3.442   8.819
 2331SOL    HW2 8435   1.396   3.381   8.885
 2332SOL     OW 8436   0.450   2.246   8.934
 2332SOL    HW1 8437   0.530   2.194   8.938
 2332SOL    HW2 8438   0.379   2.183   8.942
 2333SOL     OW 8439   1.604   2.299   8.194
 2333SOL    HW1 8440   1.549   2.326   8.120
 2333SOL    HW2 8441   1.612   2.377   8.248
 2334SOL     OW 8442   0.289   3.586   7.882
 2334SOL    HW1 8443   0.286   3.656   7.948
 2334SOL    HW2 8444   0.201   3.583   7.846
 2335SOL     OW 8445   1.138   3.204   9.143
 2335SOL    HW1 8446   1.187   3.192   9.225
 2335SOL    HW2 8447   1.086   3.124   9.135
 2336SOL     OW 8448   0.315   3.304   7.969
 2336SOL    HW1 8449   0.279   3.393   7.971
 2336SOL    HW2 8450   0.256   3.252   8.023
 2337SOL     OW 8451   0.281   2.947   8.345
 2337SOL    HW1 8452   0.282   2.854   8.368
 2337SOL    HW2 8453   0.203   2.981   8.388
 2338SOL     OW 8454   0.597   3.667   8.856
 2338SOL    HW1 8455   0.522   3.643   8.909
 2338SOL    HW2 8456   0.627   3.750   8.893
 2339SOL     OW 8457   0.571   2.852   7.594
 2339SOL    HW1 8458   0.623   2.894   7.525
 2339SOL    HW2 8459   0.612   2.880   7.675
 2340SOL     OW 8460   1.597   1.983   8.914
 2340SOL    HW1 8461   1.638   2.052   8.862
 2340SOL    HW2 8462   1.572   2.025   8.996
 2341SOL     OW 8463   0.136   2.490   7.996
 2341SOL    HW1 8464   0.097   2.409   8.028
 2341SOL    HW2 8465   0.122   2.553   8.067
 2342SOL     OW 8466   1.845   3.619   7.806
 2342SOL    HW1 8467   1.926   3.594   7.850
 2342SOL    HW2 8468   1.866   3.704   7.766
 2343SOL     OW 8469   0.018   3.435   7.593
 2343SOL    HW1 8470  -0.002   3.342   7.580
 2343SOL    HW2 8471   0.017   3.447   7.688
 2344SOL     OW 8472   1.691   2.774   8.097
 2344SOL    HW1 8473   1.779   2.737   8.088
 2344SOL    HW2 8474   1.677   2.824   8.016
 2345SOL     OW 8475   1.652   2.965   7.883
 2345SOL    HW1 8476   1.737   2.961   7.840
 2345SOL    HW2 8477   1.665   3.024   7.957
 2346SOL     OW 8478   0.153   2.622   9.036
 2346SOL    HW1 8479   0.248   2.628   9.033
 2346SOL    HW2 8480   0.126   2.701   9.083
 2347SOL     OW 8481   0.620   3.263   8.174
 2347SOL    HW1 8482   0.581   3.176   8.187
 2347SOL    HW2 8483   0.592   3.288   8.086
 2348SOL     OW 8484   1.280   3.095   8.868
 2348SOL    HW1 8485   1.309   3.027   8.806
 2348SOL    HW2 8486   1.344   3.092   8.939
 2349SOL     OW 8487   0.826   1.865   7.969
 2349SOL    HW1 8488   0.867   1.947   7.940
 2349SOL    HW2 8489   0.732   1.885   7.969
 2350SOL     OW 8490   0.167   2.771   8.714
 2350SOL    HW1 8491   0.260   2.750   8.714
 2350SOL    HW2 8492   0.143   2.774   8.621
 2351SOL     OW 8493   1.527   2.869   7.651
 2351SOL    HW1 8494   1.461   2.810   7.687
 2351SOL    HW2 8495   1.576   2.900   7.727
 2352SOL     OW 8496   1.169   3.676   9.076
 2352SOL    HW1 8497   1.185   3.740   9.006
 2352SOL    HW2 8498   1.195   3.592   9.038
 2353SOL     OW 8499   0.356   2.114   9.295
 2353SOL    HW1 8500   0.404   2.194   9.319
 2353SOL    HW2 8501   0.264   2.138   9.303
 2354SOL     OW 8502   1.450   3.286   8.381
 2354SOL    HW1 8503   1.398   3.296   8.461
 2354SOL    HW2 8504   1.445   3.192   8.360
 2355SOL     OW 8505   1.640   3.634   8.026
 2355SOL    HW1 8506   1.673   3.599   7.943
 2355SOL    HW2 8507   1.642   3.559   8.085
 2356SOL     OW 8508   0.591   2.571   7.715
 2356SOL    HW1 8509   0.596   2.656   7.672
 2356SOL    HW2 8510   0.530   2.584   7.787
 2357SOL     OW 8511   1.280   2.240   8.386
 2357SOL    HW1 8512   1.192   2.203   8.393
 2357SOL    HW2 8513   1.334   2.184   8.443
 2358SOL     OW 8514   1.587   3.523   7.749
 2358SOL    HW1 8515   1.679   3.548   7.747
 2358SOL    HW2 8516   1.564   3.510   7.657
 2359SOL     OW 8517   0.788   2.479   8.891
 2359SOL    HW1 8518   0.761   2.452   8.979
 2359SOL    HW2 8519   0.758   2.409   8.834
 2360SOL     OW 8520   1.387   2.337   9.124
 2360SOL    HW1 8521   1.394   2.384   9.208
 2360SOL    HW2 8522   1.449   2.264   9.132
 2361SOL     OW 8523   0.946   2.744   9.036
 2361SOL    HW1 8524   1.003   2.679   8.995
 2361SOL    HW2 8525   0.900   2.785   8.963
 2362SOL     OW 8526   0.995   2.265   8.676
 2362SOL    HW1 8527   0.903   2.281   8.699
 2362SOL    HW2 8528   0.992   2.233   8.586
 2363SOL     OW 8529   1.055   2.560   7.870
 2363SOL    HW1 8530   1.076   2.557   7.963
 2363SOL    HW2 8531   0.972   2.515   7.862
 2364SOL     OW 8532   0.100   2.652   8.218
 2364SOL    HW1 8533   0.179   2.662   8.271
 2364SOL    HW2 8534   0.051   2.734   8.231
 2365SOL     OW 8535   0.123   3.677   9.012
 2365SOL    HW1 8536   0.128   3.669   9.108
 2365SOL    HW2 8537   0.032   3.656   8.991
 2366SOL     OW 8538   0.902   2.210   7.644
 2366SOL    HW1 8539   0.941   2.277   7.588
 2366SOL    HW2 8540   0.919   2.128   7.599
 2367SOL     OW 8541   1.688   2.428   9.282
 2367SOL    HW1 8542   1.661   2.505   9.231
 2367SOL    HW2 8543   1.725   2.368   9.218
 2368SOL     OW 8544   1.383   2.999   7.977
 2368SOL    HW1 8545   1.468   2.989   7.932
 2368SOL    HW2 8546   1.335   3.061   7.922
 2369SOL     OW 8547   0.557   2.033   8.347
 2369SOL    HW1 8548   0.558   2.067   8.437
 2369SOL    HW2 8549   0.557   2.112   8.292
 2370SOL     OW 8550   1.001   3.311   7.918
 2370SOL    HW1 8551   0.969   3.385   7.867
 2370SOL    HW2 8552   0.972   3.329   8.008
 2371SOL     OW 8553   0.361   3.686   8.316
 2371SOL    HW1 8554   0.406   3.603   8.330
 2371SOL    HW2 8555   0.426   3.753   8.338
 2372SOL     OW 8556   1.799   2.904   8.344
 2372SOL    HW1 8557   1.755   2.904   8.259
 2372SOL    HW2 8558   1.728   2.910   8.408
 2373SOL     OW 8559   1.222   3.406   8.965
 2373SOL    HW1 8560   1.213   3.332   9.026
 2373SOL    HW2 8561   1.165   3.383   8.892
 2374SOL     OW 8562   0.306   2.800   7.683
 2374SOL    HW1 8563   0.393   2.825   7.652
 2374SOL    HW2 8564   0.283   2.723   7.630
 2375SOL     OW 8565   1.480   2.618   8.169
 2375SOL    HW1 8566   1.485   2.579   8.256
 2375SOL    HW2 8567   1.560   2.671   8.161
 2376SOL     OW 8568   0.465   3.129   9.189
 2376SOL    HW1 8569   0.443   3.134   9.096
 2376SOL    HW2 8570   0.381   3.116   9.233
 2377SOL     OW 8571   1.135   3.621   7.698
 2377SOL    HW1 8572   1.050   3.587   7.727
 2377SOL    HW2 8573   1.157   3.566   7.623
 2378SOL     OW 8574   0.190   2.128   8.945
 2378SOL    HW1 8575   0.168   2.207   8.996
 2378SOL    HW2 8576   0.159   2.055   8.999
 2379SOL     OW 8577   1.611   3.244   7.557
 2379SOL    HW1 8578   1.584   3.329   7.523
 2379SOL    HW2 8579   1.549   3.182   7.518
 2380SOL     OW 8580   1.401   1.966   7.898
 2380SOL    HW1 8581   1.394   1.944   7.805
 2380SOL    HW2 8582   1.494   1.981   7.913
 2381SOL     OW 8583   0.234   3.648   8.673
 2381SOL    HW1 8584   0.284   3.573   8.704
 2381SOL    HW2 8585   0.199   3.621   8.589
 2382SOL     OW 8586   0.956   3.576   8.328
 2382SOL    HW1 8587   1.034   3.528   8.356
 2382SOL    HW2 8588   0.915   3.520   8.263
 2383SOL     OW 8589   0.409   2.558   7.927
 2383SOL    HW1 8590   0.427   2.465   7.939
 2383SOL    HW2 8591   0.314   2.566   7.941
 2384SOL     OW 8592   1.521   2.089   9.167
 2384SOL    HW1 8593   1.533   2.107   9.261
 2384SOL    HW2 8594   1.448   2.027   9.164
 2385SOL     OW 8595   0.651   1.973   7.553
 2385SOL    HW1 8596   0.714   1.902   7.566
 2385SOL    HW2 8597   0.597   1.943   7.480
 2386SOL     OW 8598   0.760   2.141   9.204
 2386SOL    HW1 8599   0.843   2.094   9.202
 2386SOL    HW2 8600   0.717   2.113   9.284
 2387SOL     OW 8601   0.877   3.388   8.643
 2387SOL    HW1 8602   0.858   3.346   8.560
 2387SOL    HW2 8603   0.946   3.334   8.683
 2388SOL     OW 8604   1.335   2.453   8.879
 2388SOL    HW1 8605   1.367   2.424   8.964
 2388SOL    HW2 8606   1.374   2.540   8.867
 2389SOL     OW 8607   0.818   3.247   8.402
 2389SOL    HW1 8608   0.904   3.234   8.363
 2389SOL    HW2 8609   0.759   3.257   8.327
 2390SOL     OW 8610   0.926   2.369   8.345
 2390SOL    HW1 8611   0.901   2.361   8.253
 2390SOL    HW2 8612   0.960   2.283   8.369
 2391SOL     OW 8613   0.560   1.924   7.941
 2391SOL    HW1 8614   0.479   1.924   7.992
 2391SOL    HW2 8615   0.553   2.000   7.883
 2392SOL     OW 8616   1.423   3.059   7.478
 2392SOL    HW1 8617   1.458   2.988   7.532
 2392SOL    HW2 8618   1.342   3.085   7.521
 2393SOL     OW 8619   0.283   1.912   7.622
 2393SOL    HW1 8620   0.337   1.978   7.578
 2393SOL    HW2 8621   0.346   1.858   7.669
 2394SOL     OW 8622   0.945   2.109   7.901
 2394SOL    HW1 8623   0.920   2.147   7.817
 2394SOL    HW2 8624   1.039   2.125   7.908
 2395SOL     OW 8625   1.081   2.550   8.902
 2395SOL    HW1 8626   1.021   2.475   8.901
 2395SOL    HW2 8627   1.168   2.512   8.895
 2396SOL     OW 8628   1.221   3.420   8.251
 2396SOL    HW1 8629   1.268   3.439   8.169
 2396SOL    HW2 8630   1.290   3.409   8.316
 2397SOL     OW 8631   0.476   3.025   8.169
 2397SOL    HW1 8632   0.414   3.001   8.238
 2397SOL    HW2 8633   0.431   3.005   8.087
 2398SOL     OW 8634   1.025   2.391   7.477
 2398SOL    HW1 8635   0.984   2.475   7.456
 2398SOL    HW2 8636   1.093   2.413   7.541
 2399SOL     OW 8637   0.096   2.450   8.832
 2399SOL    HW1 8638   0.186   2.434   8.806
 2399SOL    HW2 8639   0.102   2.515   8.902
 2400SOL     OW 8640   0.559   2.089   8.621
 2400SOL    HW1 8641   0.602   2.016   8.665
 2400SOL    HW2 8642   0.467   2.082   8.648
 2401SOL     OW 8643   0.863   2.315   8.084
 2401SOL    HW1 8644   0.825   2.373   8.018
 2401SOL    HW2 8645   0.891   2.237   8.035
 2402SOL     OW 8646   1.017   1.922   8.197
 2402SOL    HW1 8647   0.960   1.919   8.121
 2402SOL    HW2 8648   0.993   1.846   8.249
 2403SOL     OW 8649   1.448   3.022   8.302
 2403SOL    HW1 8650   1.381   2.957   8.282
 2403SOL    HW2 8651   1.499   3.030   8.221
 2404SOL     OW 8652   1.466   2.478   8.412
 2404SOL    HW1 8653   1.410   2.401   8.413
 2404SOL    HW2 8654   1.525   2.467   8.487
 2405SOL     OW 8655   1.827   2.669   7.832
 2405SOL    HW1 8656   1.888   2.625   7.891
 2405SOL    HW2 8657   1.809   2.606   7.763
 2406SOL     OW 8658   0.477   3.287   7.591
 2406SOL    HW1 8659   0.401   3.248   7.634
 2406SOL    HW2 8660   0.488   3.235   7.511
 2407SOL     OW 8661   1.681   3.111   8.113
 2407SOL    HW1 8662   1.776   3.100   8.117
 2407SOL    HW2 8663   1.668   3.205   8.117
 2408SOL     OW 8664   1.393   2.441   7.515
 2408SOL    HW1 8665   1.340   2.413   7.589
 2408SOL    HW2 8666   1.483   2.420   7.540
 2409SOL     OW 8667   0.529   2.119   7.755
 2409SOL    HW1 8668   0.580   2.072   7.689
 2409SOL    HW2 8669   0.505   2.201   7.713
 2410SOL     OW 8670   1.746   3.108   9.018
 2410SOL    HW1 8671   1.831   3.073   8.992
 2410SOL    HW2 8672   1.764   3.199   9.040
 2411SOL     OW 8673   1.051   3.216   8.781
 2411SOL    HW1 8674   0.974   3.184   8.829
 2411SOL    HW2 8675   1.125   3.171   8.821
 2412SOL     OW 8676   1.606   3.492   9.105
 2412SOL    HW1 8677   1.598   3.529   9.017
 2412SOL    HW2 8678   1.688   3.443   9.103
 2413SOL     OW 8679   1.134   3.076   8.552
 2413SOL    HW1 8680   1.078   3.121   8.616
 2413SOL    HW2 8681   1.107   3.112   8.467
 2414SOL     OW 8682   1.602   2.945   8.528
 2414SOL    HW1 8683   1.593   3.009   8.598
 2414SOL    HW2 8684   1.535   2.970   8.464
 2415SOL     OW 8685   0.921   1.949   8.838
 2415SOL    HW1 8686   0.941   1.932   8.746
 2415SOL    HW2 8687   1.000   1.990   8.872
 2416SOL     OW 8688   0.982   2.977   9.171
 2416SOL    HW1 8689   0.891   2.994   9.195
 2416SOL    HW2 8690   0.979   2.898   9.118
 2417SOL     OW 8691   0.709   2.924   7.823
 2417SOL    HW1 8692   0.697   2.901   7.915
 2417SOL    HW2 8693   0.785   2.873   7.795
 2418SOL     OW 8694   0.427   2.683   8.705
 2418SOL    HW1 8695   0.494   2.697   8.771
 2418SOL    HW2 8696   0.400   2.592   8.716
 2419SOL     OW 8697   1.260   2.231   8.738
 2419SOL    HW1 8698   1.293   2.311   8.778
 2419SOL    HW2 8699   1.170   2.252   8.713
 2420SOL     OW 8700   0.045   3.455   8.776
 2420SOL    HW1 8701   0.095   3.535   8.762
 2420SOL    HW2 8702   0.084   3.416   8.855
 2421SOL     OW 8703   0.333   2.970   7.933
 2421SOL    HW1 8704   0.330   3.034   7.862
 2421SOL    HW2 8705   0.341   2.885   7.890
 2422SOL     OW 8706   0.547   2.388   8.309
 2422SOL    HW1 8707   0.560   2.448   8.235
 2422SOL    HW2 8708   0.615   2.413   8.372
 2423SOL     OW 8709   1.246   3.209   7.838
 2423SOL    HW1 8710   1.305   3.279   7.866
 2423SOL    HW2 8711   1.161   3.233   7.874
 2424SOL     OW 8712   1.297   3.325   8.602
 2424SOL    HW1 8713   1.356   3.336   8.676
 2424SOL    HW2 8714   1.246   3.247   8.623
 2425SOL     OW 8715   1.581   2.473   7.942
 2425SOL    HW1 8716   1.529   2.529   7.999
 2425SOL    HW2 8717   1.639   2.534   7.895
 2426SOL     OW 8718   0.348   3.399   8.758
 2426SOL    HW1 8719   0.332   3.348   8.678
 2426SOL    HW2 8720   0.443   3.407   8.762
 2427SOL     OW 8721   0.433   2.592   9.062
 2427SOL    HW1 8722   0.487   2.643   9.000
 2427SOL    HW2 8723   0.492   2.523   9.092
 2428SOL     OW 8724   1.609   2.645   9.141
 2428SOL    HW1 8725   1.524   2.688   9.133
 2428SOL    HW2 8726   1.662   2.685   9.072
 2429SOL     OW 8727   0.996   2.001   9.211
 2429SOL    HW1 8728   1.052   2.076   9.189
 2429SOL    HW2 8729   1.045   1.924   9.182
 2430SOL     OW 8730   0.497   1.893   9.205
 2430SOL    HW1 8731   0.450   1.845   9.136
 2430SOL    HW2 8732   0.444   1.972   9.219
 2431SOL     OW 8733   0.591   2.738   8.483
 2431SOL    HW1 8734   0.629   2.826   8.485
 2431SOL    HW2 8735   0.534   2.736   8.560
 2432SOL     OW 8736   1.336   2.719   8.465
 2432SOL    HW1 8737   1.254   2.703   8.418
 2432SOL    HW2 8738   1.388   2.640   8.452
 2433SOL     OW 8739   1.198   2.385   7.708
 2433SOL    HW1 8740   1.208   2.307   7.763
 2433SOL    HW2 8741   1.158   2.450   7.765
 2434SOL     OW 8742   0.298   2.049   8.697
 2434SOL    HW1 8743   0.256   2.082   8.776
 2434SOL    HW2 8744   0.279   1.956   8.696
 2435SOL     OW 8745   0.052   3.169   8.718
 2435SOL    HW1 8746   0.076   3.118   8.795
 2435SOL    HW2 8747   0.053   3.260   8.747
 2436SOL     OW 8748   0.718   2.489   8.499
 2436SOL    HW1 8749   0.796   2.478   8.444
 2436SOL    HW2 8750   0.691   2.579   8.483
 2437SOL     OW 8751   1.747   2.814   9.318
 2437SOL    HW1 8752   1.701   2.752   9.261
 2437SOL    HW2 8753   1.681   2.838   9.384
 2438SOL     OW 8754   0.316   1.930   8.064
 2438SOL    HW1 8755   0.288   2.019   8.085
 2438SOL    HW2 8756   0.323   1.886   8.149
 2439SOL     OW 8757   1.617   2.240   7.803
 2439SOL    HW1 8758   1.654   2.176   7.864
 2439SOL    HW2 8759   1.597   2.316   7.857
 2440SOL     OW 8760   1.024   2.620   8.401
 2440SOL    HW1 8761   1.016   2.636   8.495
 2440SOL    HW2 8762   1.000   2.528   8.390
 2441SOL     OW 8763   0.976   3.422   9.175
 2441SOL    HW1 8764   0.961   3.469   9.093
 2441SOL    HW2 8765   1.025   3.344   9.149
 2442SOL     OW 8766   1.846   3.368   9.045
 2442SOL    HW1 8767   1.873   3.391   8.956
 2442SOL    HW2 8768   1.925   3.379   9.098
 2443SOL     OW 8769   0.361   2.809   9.236
 2443SOL    HW1 8770   0.433   2.827   9.296
 2443SOL    HW2 8771   0.387   2.729   9.191
 2444SOL     OW 8772   1.519   2.130   7.570
 2444SOL    HW1 8773   1.459   2.064   7.603
 2444SOL    HW2 8774   1.556   2.171   7.648
 2445SOL     OW 8775   1.281   2.688   7.472
 2445SOL    HW1 8776   1.325   2.603   7.477
 2445SOL    HW2 8777   1.315   2.728   7.392
 2446SOL     OW 8778   1.064   3.198   8.310
 2446SOL    HW1 8779   1.073   3.126   8.247
 2446SOL    HW2 8780   1.122   3.267   8.276
 2447SOL     OW 8781   0.321   2.668   8.387
 2447SOL    HW1 8782   0.415   2.688   8.385
 2447SOL    HW2 8783   0.316   2.580   8.423
 2448SOL     OW 8784   0.332   2.381   8.467
 2448SOL    HW1 8785   0.296   2.294   8.449
 2448SOL    HW2 8786   0.408   2.389   8.409
 2449SOL     OW 8787   1.134   2.231   9.140
 2449SOL    HW1 8788   1.088   2.287   9.202
 2449SOL    HW2 8789   1.220   2.272   9.130
 2450SOL     OW 8790   1.161   2.055   8.927
 2450SOL    HW1 8791   1.149   2.119   8.997
 2450SOL    HW2 8792   1.204   2.103   8.856
 2451SOL     OW 8793   7.979   3.161   7.650
 2451SOL    HW1 8794   7.888   3.174   7.677
 2451SOL    HW2 8795   7.994   3.067   7.662
 2452SOL     OW 8796   0.114   3.607   8.409
 2452SOL    HW1 8797   0.109   3.530   8.352
 2452SOL    HW2 8798   0.189   3.656   8.377
 2453SOL     OW 8799   0.491   3.437   8.351
 2453SOL    HW1 8800   0.560   3.499   8.375
 2453SOL    HW2 8801   0.533   3.375   8.292
 2454SOL     OW 8802   0.964   2.645   8.667
 2454SOL    HW1 8803   1.029   2.634   8.737
 2454SOL    HW2 8804   0.885   2.604   8.702
 2455SOL     OW 8805   0.073   2.417   8.563
 2455SOL    HW1 8806   0.166   2.411   8.542
 2455SOL    HW2 8807   0.070   2.426   8.658
 2456SOL     OW 8808   0.203   2.367   9.126
 2456SOL    HW1 8809   0.293   2.366   9.093
 2456SOL    HW2 8810   0.170   2.453   9.101
 2457SOL     OW 8811   1.381   2.795   9.102
 2457SOL    HW1 8812   1.406   2.887   9.097
 2457SOL    HW2 8813   1.379   2.765   9.011
 2458SOL     OW 8814   0.816   2.429   7.819
 2458SOL    HW1 8815   0.826   2.356   7.758
 2458SOL    HW2 8816   0.742   2.479   7.785
 2459SOL     OW 8817   1.642   2.454   8.621
 2459SOL    HW1 8818   1.635   2.402   8.701
 2459SOL    HW2 8819   1.732   2.440   8.591
 2460SOL     OW 8820   0.292   3.394   9.169
 2460SOL    HW1 8821   0.253   3.467   9.218
 2460SOL    HW2 8822   0.282   3.319   9.227
 2461SOL     OW 8823   0.717   2.304   8.696
 2461SOL    HW1 8824   0.660   2.232   8.670
 2461SOL    HW2 8825   0.709   2.369   8.626
 2462SOL     OW 8826   0.904   3.543   8.932
 2462SOL    HW1 8827   0.889   3.501   8.848
 2462SOL    HW2 8828   0.909   3.637   8.912
 2463SOL     OW 8829   0.456   2.342   7.618
 2463SOL    HW1 8830   0.510   2.419   7.635
 2463SOL    HW2 8831   0.371   2.363   7.658
 2464SOL     OW 8832   0.158   2.980   8.901
 2464SOL    HW1 8833   0.135   2.935   8.983
 2464SOL    HW2 8834   0.160   2.910   8.836
 2465SOL     OW 8835   1.307   2.898   8.667
 2465SOL    HW1 8836   1.331   2.837   8.598
 2465SOL    HW2 8837   1.245   2.959   8.626
 2466SOL     OW 8838   1.314   2.717   7.747
 2466SOL    HW1 8839   1.240   2.682   7.796
 2466SOL    HW2 8840   1.291   2.705   7.655
 2467SOL     OW 8841   1.771   3.602   8.600
 2467SOL    HW1 8842   1.837   3.625   8.535
 2467SOL    HW2 8843   1.747   3.511   8.579
 2468SOL     OW 8844   1.240   3.594   8.538
 2468SOL    HW1 8845   1.324   3.623   8.503
 2468SOL    HW2 8846   1.254   3.504   8.566
 2469SOL     OW 8847   0.059   3.051   8.477
 2469SOL    HW1 8848   0.060   3.093   8.563
 2469SOL    HW2 8849  -0.013   3.094   8.431
 2470SOL     OW 8850   0.686   3.535   9.194
 2470SOL    HW1 8851   0.626   3.609   9.179
 2470SOL    HW2 8852   0.759   3.552   9.135
 2471SOL     OW 8853   1.728   2.025   7.946
 2471SOL    HW1 8854   1.796   2.010   7.881
 2471SOL    HW2 8855   1.713   1.940   7.986
 2472SOL     OW 8856   1.395   3.433   7.925
 2472SOL    HW1 8857   1.474   3.444   7.871
 2472SOL    HW2 8858   1.338   3.506   7.900
 2473SOL     OW 8859   0.173   3.605   9.289
 2473SOL    HW1 8860   0.108   3.558   9.341
 2473SOL    HW2 8861   0.216   3.663   9.352
 2474SOL     OW 8862   1.280   2.797   8.122
 2474SOL    HW1 8863   1.353   2.736   8.134
 2474SOL    HW2 8864   1.314   2.864   8.063
 2475SOL     OW 8865   0.796   3.141   8.868
 2475SOL    HW1 8866   0.769   3.184   8.949
 2475SOL    HW2 8867   0.722   3.156   8.808
 2476SOL     OW 8868   0.653   3.491   7.614
 2476SOL    HW1 8869   0.675   3.511   7.523
 2476SOL    HW2 8870   0.603   3.410   7.611
 2477SOL     OW 8871   1.616   3.591   8.837
 2477SOL    HW1 8872   1.672   3.594   8.759
 2477SOL    HW2 8873   1.599   3.683   8.858
 2478SOL     OW 8874   1.839   2.028   8.419
 2478SOL    HW1 8875   1.872   1.943   8.390
 2478SOL    HW2 8876   1.755   2.038   8.374
 2479SOL     OW 8877   0.260   2.179   8.154
 2479SOL    HW1 8878   0.173   2.211   8.133
 2479SOL    HW2 8879   0.260   2.172   8.250
 2480SOL     OW 8880   1.200   3.463   7.487
 2480SOL    HW1 8881   1.195   3.369   7.504
 2480SOL    HW2 8882   1.141   3.477   7.413
 2481SOL     OW 8883   0.825   2.871   8.826
 2481SOL    HW1 8884   0.869   2.863   8.741
 2481SOL    HW2 8885   0.819   2.966   8.841
 2482SOL     OW 8886   0.916   2.774   7.744
 2482SOL    HW1 8887   0.973   2.805   7.673
 2482SOL    HW2 8888   0.968   2.706   7.788
 2483SOL     OW 8889   1.486   3.501   7.486
 2483SOL    HW1 8890   1.394   3.487   7.465
 2483SOL    HW2 8891   1.530   3.504   7.401
 2484SOL     OW 8892   0.369   3.161   8.938
 2484SOL    HW1 8893   0.349   3.241   8.890
 2484SOL    HW2 8894   0.296   3.102   8.918
 2485SOL     OW 8895   1.589   3.136   8.723
 2485SOL    HW1 8896   1.676   3.138   8.762
 2485SOL    HW2 8897   1.542   3.208   8.765
 2486SOL     OW 8898   1.065   2.975   8.161
 2486SOL    HW1 8899   0.994   2.921   8.196
 2486SOL    HW2 8900   1.133   2.912   8.137
 2487SOL     OW 8901   1.027   2.108   8.415
 2487SOL    HW1 8902   1.025   2.063   8.331
 2487SOL    HW2 8903   1.021   2.039   8.480
 2488SOL     OW 8904   0.568   3.391   7.891
 2488SOL    HW1 8905   0.627   3.326   7.853
 2488SOL    HW2 8906   0.487   3.343   7.907
 2489SOL     OW 8907   1.734   2.252   8.837
 2489SOL    HW1 8908   1.807   2.314   8.836
 2489SOL    HW2 8909   1.759   2.185   8.775
 2490SOL     OW 8910   0.248   3.194   7.727
 2490SOL    HW1 8911   0.152   3.198   7.720
 2490SOL    HW2 8912   0.268   3.239   7.810
 2491SOL     OW 8913   0.099   2.862   9.160
 2491SOL    HW1 8914   0.066   2.949   9.182
 2491SOL    HW2 8915   0.185   2.858   9.202
 2492SOL     OW 8916   0.679   2.055   8.948
 2492SOL    HW1 8917   0.764   2.035   8.907
 2492SOL    HW2 8918   0.702   2.089   9.034
 2493SOL     OW 8919   0.106   2.219   7.471
 2493SOL    HW1 8920   0.036   2.261   7.521
 2493SOL    HW2 8921   0.119   2.276   7.395
 2494SOL     OW 8922   1.419   2.716   8.843
 2494SOL    HW1 8923   1.370   2.778   8.789
 2494SOL    HW2 8924   1.508   2.720   8.808
 2495SOL     OW 8925   0.088   2.104   7.812
 2495SOL    HW1 8926   0.040   2.084   7.732
 2495SOL    HW2 8927   0.173   2.060   7.800
 2496SOL     OW 8928   1.183   3.190   7.568
 2496SOL    HW1 8929   1.096   3.150   7.570
 2496SOL    HW2 8930   1.210   3.193   7.660
 2497SOL     OW 8931   0.623   2.696   8.889
 2497SOL    HW1 8932   0.680   2.772   8.875
 2497SOL    HW2 8933   0.683   2.622   8.891
 2498SOL     OW 8934   1.487   3.657   8.427
 2498SOL    HW1 8935   1.519   3.731   8.376
 2498SOL    HW2 8936   1.566   3.618   8.465
 2499SOL     OW 8937   0.706   2.423   9.146
 2499SOL    HW1 8938   0.757   2.482   9.202
 2499SOL    HW2 8939   0.728   2.335   9.177
 2500SOL     OW 8940   1.475   3.054   9.071
 2500SOL    HW1 8941   1.467   3.071   9.165
 2500SOL    HW2 8942   1.566   3.074   9.051
 2501SOL     OW 8943   0.385   3.602   9.012
 2501SOL    HW1 8944   0.297   3.631   8.990
 2501SOL    HW2 8945   0.373   3.516   9.051
 2502SOL     OW 8946   1.656   2.736   8.703
 2502SOL    HW1 8947   1.661   2.653   8.655
 2502SOL    HW2 8948   1.645   2.802   8.635
 2503SOL     OW 8949   1.213   2.177   7.904
 2503SOL    HW1 8950   1.278   2.106   7.900
 2503SOL    HW2 8951   1.239   2.230   7.979
 2504SOL     OW 8952   0.589   2.597   8.132
 2504SOL    HW1 8953   0.632   2.681   8.117
 2504SOL    HW2 8954   0.528   2.588   8.059
 2505SOL     OW 8955   1.757   2.217   9.111
 2505SOL    HW1 8956   1.751   2.238   9.018
 2505SOL    HW2 8957   1.678   2.168   9.130
 2506SOL     OW 8958   1.742   2.791   8.960
 2506SOL    HW1 8959   1.748   2.886   8.970
 2506SOL    HW2 8960   1.727   2.778   8.866
 2507SOL     OW 8961   0.851   3.233   7.492
 2507SOL    HW1 8962   0.828   3.283   7.570
 2507SOL    HW2 8963   0.883   3.299   7.429
 2508SOL     OW 8964   0.671   3.639   8.374
 2508SOL    HW1 8965   0.650   3.732   8.363
 2508SOL    HW2 8966   0.767   3.636   8.370
 2509SOL     OW 8967   0.870   2.834   8.301
 2509SOL    HW1 8968   0.921   2.761   8.335
 2509SOL    HW2 8969   0.830   2.874   8.378
 2510SOL     OW 8970   1.067   2.845   7.533
 2510SOL    HW1 8971   1.050   2.899   7.456
 2510SOL    HW2 8972   1.145   2.794   7.510
 2511SOL     OW 8973   1.860   3.407   8.290
 2511SOL    HW1 8974   1.779   3.389   8.241
 2511SOL    HW2 8975   1.875   3.327   8.341
 2512SOL     OW 8976   0.215   3.159   9.303
 2512SOL    HW1 8977   0.122   3.146   9.284
 2512SOL    HW2 8978   0.219   3.161   9.399
 2513SOL     OW 8979   0.144   3.128   8.091
 2513SOL    HW1 8980   0.067   3.086   8.129
 2513SOL    HW2 8981   0.200   3.056   8.065
 2514SOL     OW 8982   0.684   3.271   9.083
 2514SOL    HW1 8983   0.601   3.235   9.114
 2514SOL    HW2 8984   0.687   3.359   9.119
 2515SOL     OW 8985   1.794   2.037   8.687
 2515SOL    HW1 8986   1.823   1.947   8.700
 2515SOL    HW2 8987   1.809   2.054   8.594
 2516SOL     OW 8988   0.440   2.295   7.972
 2516SOL    HW1 8989   0.472   2.224   7.917
 2516SOL    HW2 8990   0.387   2.253   8.039
 2517SOL     OW 8991   1.685   3.353   8.544
 2517SOL    HW1 8992   1.613   3.319   8.491
 2517SOL    HW2 8993   1.713   3.278   8.598
 2518SOL     OW 8994   0.352   2.422   8.745
 2518SOL    HW1 8995   0.400   2.362   8.803
 2518SOL    HW2 8996   0.369   2.388   8.657
 2519SOL     OW 8997   0.835   3.437   8.123
 2519SOL    HW1 8998   0.801   3.498   8.057
 2519SOL    HW2 8999   0.763   3.377   8.140
 2520SOL     OW 9000   1.427   2.096   8.567
 2520SOL    HW1 9001   1.469   2.025   8.616
 2520SOL    HW2 9002   1.374   2.143   8.632
 2521SOL     OW 9003   1.008   1.876   8.577
 2521SOL    HW1 9004   0.956   1.813   8.527
 2521SOL    HW2 9005   1.096   1.839   8.578
 2522SOL     OW 9006   0.753   3.202   7.808
 2522SOL    HW1 9007   0.736   3.109   7.800
 2522SOL    HW2 9008   0.844   3.208   7.835
 2523SOL     OW 9009   0.622   3.422   8.734
 2523SOL    HW1 9010   0.619   3.508   8.776
 2523SOL    HW2 9011   0.712   3.416   8.700
 2524SOL     OW 9012   1.361   1.909   7.632
 2524SOL    HW1 9013   1.398   1.840   7.576
 2524SOL    HW2 9014   1.271   1.881   7.647
 2525SOL     OW 9015   1.281   2.325   8.122
 2525SOL    HW1 9016   1.237   2.410   8.126
 2525SOL    HW2 9017   1.287   2.297   8.213
 2526SOL     OW 9018   1.578   2.053   8.332
 2526SOL    HW1 9019   1.526   2.084   8.406
 2526SOL    HW2 9020   1.582   2.128   8.273
 2527SOL     OW 9021   0.052   2.902   7.717
 2527SOL    HW1 9022   0.143   2.874   7.706
 2527SOL    HW2 9023   0.036   2.897   7.811
 2528SOL     OW 9024   0.885   3.525   7.787
 2528SOL    HW1 9025   0.809   3.511   7.731
 2528SOL    HW2 9026   0.862   3.600   7.841
 2529SOL     OW 9027   0.243   2.560   9.393
 2529SOL    HW1 9028   0.198   2.517   9.466
 2529SOL    HW2 9029   0.240   2.496   9.322
 2530SOL     OW 9030   0.237   2.129  10.295
 2530SOL    HW1 9031   0.261   2.103  10.383
 2530SOL    HW2 9032   0.154   2.084  10.277
 2531SOL     OW 9033   8.005   2.242   9.920
 2531SOL    HW1 9034   7.913   2.234   9.944
 2531SOL    HW2 9035   8.013   2.194   9.838
 2532SOL     OW 9036   0.573   3.163  10.506
 2532SOL    HW1 9037   0.488   3.168  10.461
 2532SOL    HW2 9038   0.590   3.253  10.536
 2533SOL     OW 9039   1.583   3.376  10.014
 2533SOL    HW1 9040   1.535   3.353  10.094
 2533SOL    HW2 9041   1.515   3.382   9.947
 2534SOL     OW 9042   1.134   2.565  10.002
 2534SOL    HW1 9043   1.183   2.646   9.989
 2534SOL    HW2 9044   1.086   2.580  10.084
 2535SOL     OW 9045   1.773   2.458   9.535
 2535SOL    HW1 9046   1.745   2.456   9.444
 2535SOL    HW2 9047   1.739   2.376   9.572
 2536SOL     OW 9048   0.737   2.995  10.362
 2536SOL    HW1 9049   0.675   3.036  10.422
 2536SOL    HW2 9050   0.778   3.069  10.316
 2537SOL     OW 9051   0.877   2.616  11.131
 2537SOL    HW1 9052   0.871   2.686  11.196
 2537SOL    HW2 9053   0.898   2.661  11.050
 2538SOL     OW 9054   0.687   2.856   9.956
 2538SOL    HW1 9055   0.755   2.854  10.023
 2538SOL    HW2 9056   0.620   2.915   9.992
 2539SOL     OW 9057   0.714   3.013  11.137
 2539SOL    HW1 9058   0.764   3.089  11.167
 2539SOL    HW2 9059   0.639   3.051  11.092
 2540SOL     OW 9060   0.343   3.273  10.375
 2540SOL    HW1 9061   0.286   3.223  10.316
 2540SOL    HW2 9062   0.390   3.333  10.317
 2541SOL     OW 9063   1.459   3.363  10.679
 2541SOL    HW1 9064   1.514   3.441  10.684
 2541SOL    HW2 9065   1.389   3.378  10.743
 2542SOL     OW 9066   0.450   2.246  10.797
 2542SOL    HW1 9067   0.531   2.195  10.800
 2542SOL    HW2 9068   0.380   2.182  10.804
 2543SOL     OW 9069   1.602   2.299  10.056
 2543SOL    HW1 9070   1.543   2.321   9.984
 2543SOL    HW2 9071   1.605   2.378  10.110
 2544SOL     OW 9072   0.229   3.556   9.790
 2544SOL    HW1 9073   0.213   3.641   9.831
 2544SOL    HW2 9074   0.298   3.573   9.725
 2545SOL     OW 9075   1.138   3.204  11.005
 2545SOL    HW1 9076   1.182   3.193  11.089
 2545SOL    HW2 9077   1.087   3.124  10.994
 2546SOL     OW 9078   0.292   3.294   9.823
 2546SOL    HW1 9079   0.269   3.387   9.830
 2546SOL    HW2 9080   0.240   3.251   9.890
 2547SOL     OW 9081   0.281   2.945  10.214
 2547SOL    HW1 9082   0.281   2.852  10.235
 2547SOL    HW2 9083   0.201   2.979  10.255
 2548SOL     OW 9084   0.603   3.663  10.727
 2548SOL    HW1 9085   0.525   3.641  10.777
 2548SOL    HW2 9086   0.628   3.750  10.758
 2549SOL     OW 9087   0.572   2.853   9.455
 2549SOL    HW1 9088   0.623   2.896   9.386
 2549SOL    HW2 9089   0.613   2.882   9.537
 2550SOL     OW 9090   1.594   1.989  10.773
 2550SOL    HW1 9091   1.632   2.063  10.725
 2550SOL    HW2 9092   1.570   2.026  10.858
 2551SOL     OW 9093   0.136   2.487   9.859
 2551SOL    HW1 9094   0.097   2.407   9.893
 2551SOL    HW2 9095   0.121   2.552   9.928
 2552SOL     OW 9096   1.847   3.615   9.648
 2552SOL    HW1 9097   1.924   3.591   9.700
 2552SOL    HW2 9098   1.866   3.704   9.618
 2553SOL     OW 9099   0.019   3.445   9.450
 2553SOL    HW1 9100   0.001   3.352   9.441
 2553SOL    HW2 9101   0.002   3.463   9.543
 2554SOL     OW 9102   1.691   2.779   9.955
 2554SOL    HW1 9103   1.773   2.736   9.930
 2554SOL    HW2 9104   1.668   2.834   9.880
 2555SOL     OW 9105   1.650   2.966   9.744
 2555SOL    HW1 9106   1.736   2.962   9.702
 2555SOL    HW2 9107   1.661   3.028   9.816
 2556SOL     OW 9108   0.153   2.621  10.898
 2556SOL    HW1 9109   0.248   2.629  10.894
 2556SOL    HW2 9110   0.124   2.700  10.944
 2557SOL     OW 9111   0.613   3.255  10.051
 2557SOL    HW1 9112   0.570   3.169  10.054
 2557SOL    HW2 9113   0.602   3.284   9.960
 2558SOL     OW 9114   1.279   3.092  10.733
 2558SOL    HW1 9115   1.307   3.026  10.670
 2558SOL    HW2 9116   1.344   3.088  10.803
 2559SOL     OW 9117   0.825   1.865   9.830
 2559SOL    HW1 9118   0.867   1.947   9.802
 2559SOL    HW2 9119   0.732   1.885   9.830
 2560SOL     OW 9120   0.165   2.771  10.578
 2560SOL    HW1 9121   0.259   2.749  10.577
 2560SOL    HW2 9122   0.140   2.776  10.486
 2561SOL     OW 9123   1.529   2.867   9.512
 2561SOL    HW1 9124   1.462   2.808   9.546
 2561SOL    HW2 9125   1.574   2.900   9.590
 2562SOL     OW 9126   1.178   3.677  10.941
 2562SOL    HW1 9127   1.184   3.741  10.870
 2562SOL    HW2 9128   1.198   3.593  10.899
 2563SOL     OW 9129   0.355   2.114  11.154
 2563SOL    HW1 9130   0.403   2.193  11.180
 2563SOL    HW2 9131   0.263   2.138  11.164
 2564SOL     OW 9132   1.464   3.287  10.247
 2564SOL    HW1 9133   1.401   3.301  10.318
 2564SOL    HW2 9134   1.453   3.194  10.224
 2565SOL     OW 9135   1.645   3.631   9.886
 2565SOL    HW1 9136   1.639   3.596   9.798
 2565SOL    HW2 9137   1.638   3.554   9.943
 2566SOL     OW 9138   0.593   2.574   9.578
 2566SOL    HW1 9139   0.596   2.659   9.534
 2566SOL    HW2 9140   0.531   2.587   9.650
 2567SOL     OW 9141   1.281   2.241  10.249
 2567SOL    HW1 9142   1.193   2.205  10.254
 2567SOL    HW2 9143   1.334   2.185  10.305
 2568SOL     OW 9144   1.581   3.535   9.622
 2568SOL    HW1 9145   1.674   3.557   9.614
 2568SOL    HW2 9146   1.553   3.519   9.532
 2569SOL     OW 9147   0.790   2.478  10.754
 2569SOL    HW1 9148   0.762   2.451  10.841
 2569SOL    HW2 9149   0.760   2.408  10.696
 2570SOL     OW 9150   1.389   2.338  10.986
 2570SOL    HW1 9151   1.395   2.383  11.070
 2570SOL    HW2 9152   1.447   2.262  10.995
 2571SOL     OW 9153   0.946   2.745  10.897
 2571SOL    HW1 9154   1.002   2.679  10.856
 2571SOL    HW2 9155   0.900   2.786  10.824
 2572SOL     OW 9156   0.995   2.266  10.538
 2572SOL    HW1 9157   0.904   2.281  10.561
 2572SOL    HW2 9158   0.992   2.234  10.448
 2573SOL     OW 9159   1.056   2.558   9.732
 2573SOL    HW1 9160   1.075   2.555   9.826
 2573SOL    HW2 9161   0.971   2.514   9.723
 2574SOL     OW 9162   0.097   2.656  10.077
 2574SOL    HW1 9163   0.174   2.667  10.132
 2574SOL    HW2 9164   0.053   2.741  10.078
 2575SOL     OW 9165   0.126   3.690  10.875
 2575SOL    HW1 9166   0.126   3.679  10.971
 2575SOL    HW2 9167   0.039   3.661  10.848
 2576SOL     OW 9168   0.904   2.209   9.505
 2576SOL    HW1 9169   0.941   2.277   9.450
 2576SOL    HW2 9170   0.923   2.127   9.459
 2577SOL     OW 9171   1.692   2.431  11.145
 2577SOL    HW1 9172   1.665   2.506  11.093
 2577SOL    HW2 9173   1.724   2.368  11.080
 2578SOL     OW 9174   1.381   3.001   9.841
 2578SOL    HW1 9175   1.463   2.992   9.792
 2578SOL    HW2 9176   1.331   3.066   9.792
 2579SOL     OW 9177   0.557   2.034  10.209
 2579SOL    HW1 9178   0.558   2.068  10.298
 2579SOL    HW2 9179   0.557   2.111  10.153
 2580SOL     OW 9180   0.997   3.309   9.776
 2580SOL    HW1 9181   0.969   3.384   9.724
 2580SOL    HW2 9182   0.972   3.332   9.866
 2581SOL     OW 9183   0.366   3.689  10.174
 2581SOL    HW1 9184   0.411   3.606  10.185
 2581SOL    HW2 9185   0.432   3.756  10.191
 2582SOL     OW 9186   1.800   2.902  10.199
 2582SOL    HW1 9187   1.756   2.896  10.115
 2582SOL    HW2 9188   1.729   2.909  10.263
 2583SOL     OW 9189   1.222   3.405  10.825
 2583SOL    HW1 9190   1.212   3.330  10.885
 2583SOL    HW2 9191   1.161   3.387  10.754
 2584SOL     OW 9192   0.306   2.803   9.546
 2584SOL    HW1 9193   0.392   2.830   9.514
 2584SOL    HW2 9194   0.284   2.726   9.493
 2585SOL     OW 9195   1.483   2.618  10.029
 2585SOL    HW1 9196   1.486   2.580  10.117
 2585SOL    HW2 9197   1.562   2.672  10.023
 2586SOL     OW 9198   0.465   3.130  11.052
 2586SOL    HW1 9199   0.443   3.135  10.960
 2586SOL    HW2 9200   0.382   3.116  11.097
 2587SOL     OW 9201   1.126   3.638   9.537
 2587SOL    HW1 9202   1.048   3.600   9.577
 2587SOL    HW2 9203   1.151   3.576   9.469
 2588SOL     OW 9204   0.187   2.131  10.807
 2588SOL    HW1 9205   0.169   2.215  10.850
 2588SOL    HW2 9206   0.159   2.065  10.870
 2589SOL     OW 9207   1.620   3.246   9.414
 2589SOL    HW1 9208   1.585   3.332   9.389
 2589SOL    HW2 9209   1.555   3.184   9.381
 2590SOL     OW 9210   0.456   3.609   9.622
 2590SOL    HW1 9211   0.505   3.658   9.687
 2590SOL    HW2 9212   0.523   3.566   9.568
 2591SOL     OW 9213   1.400   1.967   9.760
 2591SOL    HW1 9214   1.393   1.944   9.667
 2591SOL    HW2 9215   1.494   1.980   9.774
 2592SOL     OW 9216   0.231   3.645  10.533
 2592SOL    HW1 9217   0.286   3.571  10.558
 2592SOL    HW2 9218   0.201   3.624  10.445
 2593SOL     OW 9219   0.947   3.560  10.203
 2593SOL    HW1 9220   1.033   3.519  10.212
 2593SOL    HW2 9221   0.904   3.511  10.132
 2594SOL     OW 9222   0.410   2.556   9.790
 2594SOL    HW1 9223   0.428   2.463   9.802
 2594SOL    HW2 9224   0.316   2.565   9.802
 2595SOL     OW 9225   1.520   2.089  11.030
 2595SOL    HW1 9226   1.531   2.107  11.123
 2595SOL    HW2 9227   1.450   2.023  11.027
 2596SOL     OW 9228   0.650   1.972   9.416
 2596SOL    HW1 9229   0.716   1.903   9.426
 2596SOL    HW2 9230   0.595   1.943   9.343
 2597SOL     OW 9231   0.760   2.142  11.066
 2597SOL    HW1 9232   0.844   2.094  11.064
 2597SOL    HW2 9233   0.717   2.110  11.145
 2598SOL     OW 9234   0.873   3.384  10.507
 2598SOL    HW1 9235   0.858   3.348  10.420
 2598SOL    HW2 9236   0.945   3.332  10.543
 2599SOL     OW 9237   1.334   2.452  10.741
 2599SOL    HW1 9238   1.367   2.423  10.826
 2599SOL    HW2 9239   1.373   2.539  10.729
 2600SOL     OW 9240   0.819   3.244  10.260
 2600SOL    HW1 9241   0.905   3.237  10.219
 2600SOL    HW2 9242   0.758   3.258  10.187
 2601SOL     OW 9243   0.927   2.369  10.207
 2601SOL    HW1 9244   0.902   2.362  10.116
 2601SOL    HW2 9245   0.960   2.282  10.230
 2602SOL     OW 9246   0.559   1.924   9.803
 2602SOL    HW1 9247   0.478   1.924   9.854
 2602SOL    HW2 9248   0.552   2.000   9.746
 2603SOL     OW 9249   1.426   3.064   9.344
 2603SOL    HW1 9250   1.457   2.991   9.397
 2603SOL    HW2 9251   1.342   3.088   9.383
 2604SOL     OW 9252   0.283   1.913   9.485
 2604SOL    HW1 9253   0.335   1.979   9.439
 2604SOL    HW2 9254   0.348   1.859   9.531
 2605SOL     OW 9255   0.944   2.109   9.763
 2605SOL    HW1 9256   0.919   2.146   9.679
 2605SOL    HW2 9257   1.038   2.126   9.770
 2606SOL     OW 9258   1.080   2.550  10.765
 2606SOL    HW1 9259   1.018   2.477  10.764
 2606SOL    HW2 9260   1.166   2.508  10.757
 2607SOL     OW 9261   1.208   3.446  10.111
 2607SOL    HW1 9262   1.224   3.506  10.038
 2607SOL    HW2 9263   1.287   3.452  10.164
 2608SOL     OW 9264   0.474   3.016  10.033
 2608SOL    HW1 9265   0.411   2.995  10.102
 2608SOL    HW2 9266   0.426   3.000   9.952
 2609SOL     OW 9267   1.260   3.654   9.925
 2609SOL    HW1 9268   1.313   3.712   9.870
 2609SOL    HW2 9269   1.193   3.711   9.963
 2610SOL     OW 9270   1.024   2.392   9.339
 2610SOL    HW1 9271   0.981   2.475   9.317
 2610SOL    HW2 9272   1.092   2.416   9.401
 2611SOL     OW 9273   0.096   2.446  10.696
 2611SOL    HW1 9274   0.187   2.432  10.668
 2611SOL    HW2 9275   0.101   2.513  10.764
 2612SOL     OW 9276   0.559   2.089  10.483
 2612SOL    HW1 9277   0.602   2.015  10.526
 2612SOL    HW2 9278   0.468   2.083  10.510
 2613SOL     OW 9279   0.863   2.315   9.947
 2613SOL    HW1 9280   0.823   2.373   9.882
 2613SOL    HW2 9281   0.890   2.238   9.896
 2614SOL     OW 9282   1.018   1.921  10.058
 2614SOL    HW1 9283   0.960   1.919   9.982
 2614SOL    HW2 9284   0.994   1.845  10.110
 2615SOL     OW 9285   1.450   3.024  10.163
 2615SOL    HW1 9286   1.375   2.967  10.142
 2615SOL    HW2 9287   1.496   3.034  10.080
 2616SOL     OW 9288   1.466   2.477  10.272
 2616SOL    HW1 9289   1.408   2.401  10.274
 2616SOL    HW2 9290   1.523   2.466  10.348
 2617SOL     OW 9291   1.832   2.668   9.699
 2617SOL    HW1 9292   1.894   2.621   9.754
 2617SOL    HW2 9293   1.811   2.607   9.628
 2618SOL     OW 9294   0.490   3.281   9.452
 2618SOL    HW1 9295   0.410   3.251   9.495
 2618SOL    HW2 9296   0.493   3.233   9.369
 2619SOL     OW 9297   1.680   3.115   9.970
 2619SOL    HW1 9298   1.775   3.109   9.977
 2619SOL    HW2 9299   1.661   3.208   9.976
 2620SOL     OW 9300   1.392   2.440   9.377
 2620SOL    HW1 9301   1.338   2.414   9.451
 2620SOL    HW2 9302   1.482   2.420   9.405
 2621SOL     OW 9303   0.529   2.119   9.618
 2621SOL    HW1 9304   0.578   2.072   9.551
 2621SOL    HW2 9305   0.505   2.202   9.576
 2622SOL     OW 9306   1.747   3.104  10.875
 2622SOL    HW1 9307   1.833   3.070  10.853
 2622SOL    HW2 9308   1.762   3.195  10.900
 2623SOL     OW 9309   1.051   3.218  10.646
 2623SOL    HW1 9310   0.975   3.184  10.693
 2623SOL    HW2 9311   1.125   3.172  10.685
 2624SOL     OW 9312   1.610   3.492  10.974
 2624SOL    HW1 9313   1.598   3.528  10.886
 2624SOL    HW2 9314   1.691   3.441  10.968
 2625SOL     OW 9315   1.141   3.084  10.413
 2625SOL    HW1 9316   1.078   3.122  10.475
 2625SOL    HW2 9317   1.114   3.117  10.328
 2626SOL     OW 9318   1.607   2.947  10.387
 2626SOL    HW1 9319   1.598   3.014  10.456
 2626SOL    HW2 9320   1.540   2.970  10.323
 2627SOL     OW 9321   0.920   1.950  10.699
 2627SOL    HW1 9322   0.940   1.933  10.607
 2627SOL    HW2 9323   0.999   1.990  10.734
 2628SOL     OW 9324   0.983   2.976  11.034
 2628SOL    HW1 9325   0.892   2.993  11.058
 2628SOL    HW2 9326   0.980   2.898  10.979
 2629SOL     OW 9327   0.710   2.923   9.685
 2629SOL    HW1 9328   0.698   2.901   9.777
 2629SOL    HW2 9329   0.786   2.870   9.657
 2630SOL     OW 9330   0.425   2.684  10.567
 2630SOL    HW1 9331   0.494   2.697  10.632
 2630SOL    HW2 9332   0.399   2.592  10.579
 2631SOL     OW 9333   1.260   2.230  10.599
 2631SOL    HW1 9334   1.293   2.311  10.640
 2631SOL    HW2 9335   1.170   2.251  10.574
 2632SOL     OW 9336   0.045   3.455  10.637
 2632SOL    HW1 9337   0.102   3.528  10.611
 2632SOL    HW2 9338   0.086   3.420  10.716
 2633SOL     OW 9339   0.324   2.972   9.799
 2633SOL    HW1 9340   0.336   3.046   9.740
 2633SOL    HW2 9341   0.331   2.894   9.743
 2634SOL     OW 9342   0.547   2.389  10.173
 2634SOL    HW1 9343   0.559   2.448  10.099
 2634SOL    HW2 9344   0.615   2.415  10.235
 2635SOL     OW 9345   1.246   3.213   9.703
 2635SOL    HW1 9346   1.303   3.283   9.733
 2635SOL    HW2 9347   1.159   3.237   9.736
 2636SOL     OW 9348   1.297   3.325  10.459
 2636SOL    HW1 9349   1.352   3.329  10.537
 2636SOL    HW2 9350   1.247   3.245  10.470
 2637SOL     OW 9351   1.579   2.473   9.802
 2637SOL    HW1 9352   1.527   2.527   9.862
 2637SOL    HW2 9353   1.630   2.536   9.751
 2638SOL     OW 9354   0.348   3.395  10.618
 2638SOL    HW1 9355   0.333   3.346  10.537
 2638SOL    HW2 9356   0.443   3.406  10.622
 2639SOL     OW 9357   0.434   2.593  10.924
 2639SOL    HW1 9358   0.487   2.643  10.862
 2639SOL    HW2 9359   0.492   2.523  10.954
 2640SOL     OW 9360   1.615   2.647  11.001
 2640SOL    HW1 9361   1.529   2.688  10.992
 2640SOL    HW2 9362   1.667   2.686  10.931
 2641SOL     OW 9363   0.996   2.001  11.071
 2641SOL    HW1 9364   1.053   2.075  11.049
 2641SOL    HW2 9365   1.045   1.924  11.043
 2642SOL     OW 9366   0.499   1.895  11.066
 2642SOL    HW1 9367   0.453   1.847  10.998
 2642SOL    HW2 9368   0.445   1.973  11.081
 2643SOL     OW 9369   0.593   2.737  10.347
 2643SOL    HW1 9370   0.628   2.826  10.345
 2643SOL    HW2 9371   0.532   2.737  10.421
 2644SOL     OW 9372   1.336   2.717  10.332
 2644SOL    HW1 9373   1.256   2.705  10.282
 2644SOL    HW2 9374   1.387   2.638  10.315
 2645SOL     OW 9375   1.200   2.385   9.571
 2645SOL    HW1 9376   1.208   2.307   9.626
 2645SOL    HW2 9377   1.159   2.451   9.627
 2646SOL     OW 9378   0.298   2.052  10.560
 2646SOL    HW1 9379   0.255   2.084  10.639
 2646SOL    HW2 9380   0.278   1.958  10.558
 2647SOL     OW 9381   0.048   3.169  10.581
 2647SOL    HW1 9382   0.075   3.119  10.659
 2647SOL    HW2 9383   0.053   3.261  10.609
 2648SOL     OW 9384   0.720   2.490  10.362
 2648SOL    HW1 9385   0.797   2.479  10.306
 2648SOL    HW2 9386   0.691   2.580  10.347
 2649SOL     OW 9387   1.747   2.819  11.177
 2649SOL    HW1 9388   1.705   2.753  11.122
 2649SOL    HW2 9389   1.681   2.839  11.244
 2650SOL     OW 9390   0.316   1.928   9.927
 2650SOL    HW1 9391   0.288   2.017   9.947
 2650SOL    HW2 9392   0.323   1.885  10.012
 2651SOL     OW 9393   1.620   2.239   9.665
 2651SOL    HW1 9394   1.655   2.176   9.727
 2651SOL    HW2 9395   1.597   2.316   9.718
 2652SOL     OW 9396   1.026   2.619  10.263
 2652SOL    HW1 9397   1.016   2.635  10.357
 2652SOL    HW2 9398   1.000   2.528  10.251
 2653SOL     OW 9399   0.979   3.424  11.035
 2653SOL    HW1 9400   0.961   3.470  10.953
 2653SOL    HW2 9401   1.026   3.345  11.009
 2654SOL     OW 9402   1.847   3.363  10.910
 2654SOL    HW1 9403   1.871   3.388  10.821
 2654SOL    HW2 9404   1.928   3.374  10.960
 2655SOL     OW 9405   0.361   2.809  11.097
 2655SOL    HW1 9406   0.434   2.826  11.158
 2655SOL    HW2 9407   0.387   2.729  11.051
 2656SOL     OW 9408   1.522   2.128   9.432
 2656SOL    HW1 9409   1.460   2.064   9.467
 2656SOL    HW2 9410   1.559   2.170   9.510
 2657SOL     OW 9411   1.283   2.688   9.334
 2657SOL    HW1 9412   1.326   2.603   9.338
 2657SOL    HW2 9413   1.316   2.728   9.254
 2658SOL     OW 9414   1.072   3.207  10.172
 2658SOL    HW1 9415   1.079   3.135  10.109
 2658SOL    HW2 9416   1.125   3.277  10.135
 2659SOL     OW 9417   0.320   2.667  10.248
 2659SOL    HW1 9418   0.413   2.685  10.240
 2659SOL    HW2 9419   0.315   2.579  10.284
 2660SOL     OW 9420   0.332   2.381  10.330
 2660SOL    HW1 9421   0.296   2.294  10.311
 2660SOL    HW2 9422   0.408   2.389  10.273
 2661SOL     OW 9423   1.135   2.231  11.001
 2661SOL    HW1 9424   1.088   2.287  11.063
 2661SOL    HW2 9425   1.220   2.273  10.991
 2662SOL     OW 9426   1.160   2.054  10.788
 2662SOL    HW1 9427   1.148   2.118  10.858
 2662SOL    HW2 9428   1.203   2.103  10.718
 2663SOL     OW 9429   7.981   3.165   9.514
 2663SOL    HW1 9430   7.891   3.181   9.540
 2663SOL    HW2 9431   7.993   3.071   9.524
 2664SOL     OW 9432   0.127   3.608  10.273
 2664SOL    HW1 9433   0.106   3.542  10.207
 2664SOL    HW2 9434   0.203   3.654  10.238
 2665SOL     OW 9435   0.492   3.440  10.216
 2665SOL    HW1 9436   0.562   3.500  10.240
 2665SOL    HW2 9437   0.533   3.377  10.157
 2666SOL     OW 9438   0.966   2.644  10.529
 2666SOL    HW1 9439   1.029   2.632  10.600
 2666SOL    HW2 9440   0.885   2.604  10.561
 2667SOL     OW 9441   0.073   2.416  10.426
 2667SOL    HW1 9442   0.166   2.411  10.404
 2667SOL    HW2 9443   0.071   2.423  10.521
 2668SOL     OW 9444   0.205   2.368  10.988
 2668SOL    HW1 9445   0.295   2.367  10.956
 2668SOL    HW2 9446   0.172   2.454  10.962
 2669SOL     OW 9447   1.384   2.792  10.964
 2669SOL    HW1 9448   1.406   2.885  10.959
 2669SOL    HW2 9449   1.378   2.763  10.873
 2670SOL     OW 9450   0.816   2.429   9.681
 2670SOL    HW1 9451   0.823   2.357   9.619
 2670SOL    HW2 9452   0.743   2.482   9.648
 2671SOL     OW 9453   1.639   2.457  10.485
 2671SOL    HW1 9454   1.631   2.401  10.562
 2671SOL    HW2 9455   1.728   2.442  10.453
 2672SOL     OW 9456   0.293   3.395  11.032
 2672SOL    HW1 9457   0.253   3.468  11.081
 2672SOL    HW2 9458   0.281   3.319  11.089
 2673SOL     OW 9459   0.717   2.304  10.559
 2673SOL    HW1 9460   0.660   2.232  10.532
 2673SOL    HW2 9461   0.709   2.369  10.489
 2674SOL     OW 9462   0.909   3.542  10.790
 2674SOL    HW1 9463   0.892   3.497  10.707
 2674SOL    HW2 9464   0.907   3.635  10.768
 2675SOL     OW 9465   0.459   2.343   9.483
 2675SOL    HW1 9466   0.511   2.422   9.498
 2675SOL    HW2 9467   0.373   2.364   9.521
 2676SOL     OW 9468   0.157   2.981  10.764
 2676SOL    HW1 9469   0.135   2.936  10.846
 2676SOL    HW2 9470   0.159   2.912  10.698
 2677SOL     OW 9471   1.309   2.901  10.530
 2677SOL    HW1 9472   1.330   2.838  10.461
 2677SOL    HW2 9473   1.250   2.963  10.488
 2678SOL     OW 9474   1.318   2.714   9.609
 2678SOL    HW1 9475   1.241   2.684   9.658
 2678SOL    HW2 9476   1.294   2.705   9.517
 2679SOL     OW 9477   1.790   3.594  10.479
 2679SOL    HW1 9478   1.849   3.620  10.408
 2679SOL    HW2 9479   1.755   3.509  10.450
 2680SOL     OW 9480   1.242   3.597  10.417
 2680SOL    HW1 9481   1.323   3.624  10.375
 2680SOL    HW2 9482   1.253   3.503  10.434
 2681SOL     OW 9483   0.055   3.048  10.342
 2681SOL    HW1 9484   0.056   3.091  10.427
 2681SOL    HW2 9485  -0.008   3.099  10.291
 2682SOL     OW 9486   0.685   3.536  11.054
 2682SOL    HW1 9487   0.622   3.608  11.040
 2682SOL    HW2 9488   0.755   3.553  10.991
 2683SOL     OW 9489   1.730   2.026   9.811
 2683SOL    HW1 9490   1.797   2.010   9.744
 2683SOL    HW2 9491   1.713   1.940   9.849
 2684SOL     OW 9492   1.398   3.429   9.805
 2684SOL    HW1 9493   1.456   3.462   9.736
 2684SOL    HW2 9494   1.347   3.505   9.831
 2685SOL     OW 9495   0.172   3.604  11.153
 2685SOL    HW1 9496   0.106   3.557  11.205
 2685SOL    HW2 9497   0.214   3.662  11.216
 2686SOL     OW 9498   1.280   2.795   9.982
 2686SOL    HW1 9499   1.354   2.735   9.992
 2686SOL    HW2 9500   1.313   2.864   9.924
 2687SOL     OW 9501   0.797   3.141  10.733
 2687SOL    HW1 9502   0.769   3.184  10.814
 2687SOL    HW2 9503   0.727   3.160  10.670
 2688SOL     OW 9504   0.664   3.490   9.468
 2688SOL    HW1 9505   0.680   3.506   9.375
 2688SOL    HW2 9506   0.610   3.412   9.471
 2689SOL     OW 9507   1.617   3.588  10.705
 2689SOL    HW1 9508   1.674   3.590  10.629
 2689SOL    HW2 9509   1.601   3.681  10.726
 2690SOL     OW 9510   1.841   2.028  10.278
 2690SOL    HW1 9511   1.872   1.942  10.251
 2690SOL    HW2 9512   1.756   2.038  10.236
 2691SOL     OW 9513   0.260   2.177  10.016
 2691SOL    HW1 9514   0.173   2.209   9.994
 2691SOL    HW2 9515   0.260   2.171  10.112
 2692SOL     OW 9516   1.206   3.460   9.345
 2692SOL    HW1 9517   1.198   3.367   9.368
 2692SOL    HW2 9518   1.141   3.473   9.276
 2693SOL     OW 9519   0.824   2.872  10.687
 2693SOL    HW1 9520   0.862   2.865  10.600
 2693SOL    HW2 9521   0.817   2.966  10.703
 2694SOL     OW 9522   0.917   2.771   9.607
 2694SOL    HW1 9523   0.973   2.803   9.536
 2694SOL    HW2 9524   0.970   2.704   9.650
 2695SOL     OW 9525   1.487   3.498   9.356
 2695SOL    HW1 9526   1.394   3.485   9.338
 2695SOL    HW2 9527   1.528   3.503   9.269
 2696SOL     OW 9528   0.368   3.163  10.802
 2696SOL    HW1 9529   0.352   3.241  10.749
 2696SOL    HW2 9530   0.296   3.104  10.781
 2697SOL     OW 9531   1.596   3.143  10.581
 2697SOL    HW1 9532   1.676   3.138  10.633
 2697SOL    HW2 9533   1.543   3.210  10.624
 2698SOL     OW 9534   1.069   2.977  10.029
 2698SOL    HW1 9535   0.995   2.926  10.062
 2698SOL    HW2 9536   1.133   2.912  10.000
 2699SOL     OW 9537   1.028   2.108  10.277
 2699SOL    HW1 9538   1.027   2.062  10.192
 2699SOL    HW2 9539   1.022   2.038  10.342
 2700SOL     OW 9540   0.610   3.352   9.797
 2700SOL    HW1 9541   0.662   3.303   9.733
 2700SOL    HW2 9542   0.526   3.366   9.755
 2701SOL     OW 9543   1.735   2.249  10.697
 2701SOL    HW1 9544   1.807   2.313  10.695
 2701SOL    HW2 9545   1.762   2.181  10.635
 2702SOL     OW 9546   0.250   3.196   9.578
 2702SOL    HW1 9547   0.155   3.200   9.571
 2702SOL    HW2 9548   0.270   3.237   9.662
 2703SOL     OW 9549   0.099   2.862  11.022
 2703SOL    HW1 9550   0.067   2.949  11.045
 2703SOL    HW2 9551   0.186   2.857  11.063
 2704SOL     OW 9552   0.680   2.057  10.810
 2704SOL    HW1 9553   0.764   2.036  10.769
 2704SOL    HW2 9554   0.703   2.089  10.897
 2705SOL     OW 9555   0.104   2.216   9.333
 2705SOL    HW1 9556   0.035   2.259   9.384
 2705SOL    HW2 9557   0.120   2.275   9.260
 2706SOL     OW 9558   1.420   2.717  10.704
 2706SOL    HW1 9559   1.368   2.777  10.651
 2706SOL    HW2 9560   1.508   2.720  10.667
 2707SOL     OW 9561   0.086   2.103   9.676
 2707SOL    HW1 9562   0.035   2.085   9.596
 2707SOL    HW2 9563   0.170   2.061   9.661
 2708SOL     OW 9564   1.180   3.191   9.430
 2708SOL    HW1 9565   1.088   3.165   9.430
 2708SOL    HW2 9566   1.204   3.194   9.522
 2709SOL     OW 9567   0.624   2.695  10.751
 2709SOL    HW1 9568   0.680   2.771  10.735
 2709SOL    HW2 9569   0.685   2.621  10.753
 2710SOL     OW 9570   1.483   3.659  10.297
 2710SOL    HW1 9571   1.506   3.728  10.235
 2710SOL    HW2 9572   1.566   3.614  10.316
 2711SOL     OW 9573   0.706   2.422  11.008
 2711SOL    HW1 9574   0.758   2.480  11.064
 2711SOL    HW2 9575   0.727   2.333  11.039
 2712SOL     OW 9576   1.476   3.051  10.935
 2712SOL    HW1 9577   1.468   3.071  11.029
 2712SOL    HW2 9578   1.567   3.072  10.914
 2713SOL     OW 9579   0.385   3.603  10.876
 2713SOL    HW1 9580   0.297   3.634  10.854
 2713SOL    HW2 9581   0.371   3.516  10.913
 2714SOL     OW 9582   1.658   2.738  10.566
 2714SOL    HW1 9583   1.658   2.654  10.520
 2714SOL    HW2 9584   1.646   2.803  10.498
 2715SOL     OW 9585   1.213   2.177   9.768
 2715SOL    HW1 9586   1.277   2.106   9.764
 2715SOL    HW2 9587   1.240   2.230   9.842
 2716SOL     OW 9588   0.589   2.597   9.996
 2716SOL    HW1 9589   0.632   2.681   9.981
 2716SOL    HW2 9590   0.529   2.587   9.922
 2717SOL     OW 9591   1.754   2.222  10.972
 2717SOL    HW1 9592   1.747   2.240  10.878
 2717SOL    HW2 9593   1.677   2.169  10.991
 2718SOL     OW 9594   1.756   2.792  10.820
 2718SOL    HW1 9595   1.743   2.886  10.832
 2718SOL    HW2 9596   1.734   2.776  10.728
 2719SOL     OW 9597   0.865   3.226   9.359
 2719SOL    HW1 9598   0.826   3.262   9.439
 2719SOL    HW2 9599   0.884   3.303   9.305
 2720SOL     OW 9600   0.671   3.640  10.250
 2720SOL    HW1 9601   0.654   3.732  10.228
 2720SOL    HW2 9602   0.766   3.630  10.240
 2721SOL     OW 9603   0.871   2.836  10.164
 2721SOL    HW1 9604   0.921   2.762  10.199
 2721SOL    HW2 9605   0.831   2.877  10.241
 2722SOL     OW 9606   1.067   2.841   9.396
 2722SOL    HW1 9607   1.050   2.899   9.322
 2722SOL    HW2 9608   1.145   2.792   9.370
 2723SOL     OW 9609   1.847   3.415  10.148
 2723SOL    HW1 9610   1.768   3.403  10.095
 2723SOL    HW2 9611   1.850   3.338  10.204
 2724SOL     OW 9612   0.214   3.161  11.166
 2724SOL    HW1 9613   0.122   3.147  11.145
 2724SOL    HW2 9614   0.217   3.161  11.262
 2725SOL     OW 9615   0.137   3.122   9.970
 2725SOL    HW1 9616   0.062   3.071  10.003
 2725SOL    HW2 9617   0.196   3.056   9.934
 2726SOL     OW 9618   0.687   3.270  10.950
 2726SOL    HW1 9619   0.602   3.235  10.976
 2726SOL    HW2 9620   0.687   3.360  10.982
 2727SOL     OW 9621   1.804   2.036  10.548
 2727SOL    HW1 9622   1.817   1.941  10.557
 2727SOL    HW2 9623   1.817   2.053  10.454
 2728SOL     OW 9624   0.444   2.294   9.838
 2728SOL    HW1 9625   0.472   2.224   9.779
 2728SOL    HW2 9626   0.388   2.251   9.902
 2729SOL     OW 9627   1.684   3.355  10.405
 2729SOL    HW1 9628   1.612   3.335  10.345
 2729SOL    HW2 9629   1.688   3.279  10.464
 2730SOL     OW 9630   0.352   2.422  10.607
 2730SOL    HW1 9631   0.401   2.362  10.664
 2730SOL    HW2 9632   0.368   2.389  10.519
 2731SOL     OW 9633   0.834   3.450   9.980
 2731SOL    HW1 9634   0.820   3.523   9.919
 2731SOL    HW2 9635   0.757   3.394   9.968
 2732SOL     OW 9636   1.426   2.095  10.428
 2732SOL    HW1 9637   1.452   2.014  10.472
 2732SOL    HW2 9638   1.375   2.142  10.494
 2733SOL     OW 9639   1.008   1.875  10.439
 2733SOL    HW1 9640   0.957   1.813  10.388
 2733SOL    HW2 9641   1.096   1.837  10.442
 2734SOL     OW 9642   0.772   3.196   9.641
 2734SOL    HW1 9643   0.750   3.103   9.646
 2734SOL    HW2 9644   0.858   3.202   9.684
 2735SOL     OW 9645   0.621   3.420  10.600
 2735SOL    HW1 9646   0.620   3.506  10.643
 2735SOL    HW2 9647   0.709   3.414  10.563
 2736SOL     OW 9648   1.358   1.912   9.494
 2736SOL    HW1 9649   1.392   1.847   9.432
 2736SOL    HW2 9650   1.268   1.883   9.512
 2737SOL     OW 9651   1.286   2.326   9.984
 2737SOL    HW1 9652   1.239   2.409   9.987
 2737SOL    HW2 9653   1.289   2.297  10.075
 2738SOL     OW 9654   1.580   2.054  10.196
 2738SOL    HW1 9655   1.528   2.084  10.270
 2738SOL    HW2 9656   1.583   2.129  10.136
 2739SOL     OW 9657   0.048   2.901   9.579
 2739SOL    HW1 9658   0.140   2.878   9.564
 2739SOL    HW2 9659   0.039   2.900   9.674
 2740SOL     OW 9660   0.888   3.527   9.645
 2740SOL    HW1 9661   0.811   3.512   9.590
 2740SOL    HW2 9662   0.863   3.599   9.702
 2741SOL     OW 9663   0.244   2.560  11.257
 2741SOL    HW1 9664   0.200   2.515  11.329
 2741SOL    HW2 9665   0.241   2.498  11.184
 2742SOL     OW 9666   0.238   2.136  12.151
 2742SOL    HW1 9667   0.279   2.107  12.232
 2742SOL    HW2 9668   0.150   2.097  12.153
 2743SOL     OW 9669   8.002   2.248  11.780
 2743SOL    HW1 9670   7.911   2.236  11.806
 2743SOL    HW2 9671   8.010   2.197  11.699
 2744SOL     OW 9672   0.546   3.110  12.340
 2744SOL    HW1 9673   0.472   3.152  12.297
 2744SOL    HW2 9674   0.559   3.160  12.421
 2745SOL     OW 9675   1.584   3.378  11.882
 2745SOL    HW1 9676   1.538   3.354  11.963
 2745SOL    HW2 9677   1.514   3.383  11.816
 2746SOL     OW 9678   1.134   2.563  11.865
 2746SOL    HW1 9679   1.181   2.646  11.854
 2746SOL    HW2 9680   1.084   2.573  11.945
 2747SOL     OW 9681   1.781   2.456  11.397
 2747SOL    HW1 9682   1.751   2.454  11.306
 2747SOL    HW2 9683   1.742   2.378  11.436
 2748SOL     OW 9684   0.762   2.995  12.234
 2748SOL    HW1 9685   0.681   3.025  12.274
 2748SOL    HW2 9686   0.794   3.069  12.183
 2749SOL     OW 9687   0.689   2.856  11.818
 2749SOL    HW1 9688   0.756   2.852  11.887
 2749SOL    HW2 9689   0.621   2.914  11.854
 2750SOL     OW 9690   0.347   3.270  12.228
 2750SOL    HW1 9691   0.283   3.222  12.175
 2750SOL    HW2 9692   0.389   3.329  12.166
 2751SOL     OW 9693   1.601   2.298  11.919
 2751SOL    HW1 9694   1.537   2.316  11.851
 2751SOL    HW2 9695   1.595   2.373  11.979
 2752SOL     OW 9696   0.227   3.554  11.650
 2752SOL    HW1 9697   0.207   3.639  11.689
 2752SOL    HW2 9698   0.295   3.573  11.585
 2753SOL     OW 9699   0.298   3.295  11.687
 2753SOL    HW1 9700   0.271   3.387  11.692
 2753SOL    HW2 9701   0.242   3.250  11.750
 2754SOL     OW 9702   0.281   2.946  12.070
 2754SOL    HW1 9703   0.282   2.853  12.091
 2754SOL    HW2 9704   0.202   2.980  12.113
 2755SOL     OW 9705   0.572   2.853  11.317
 2755SOL    HW1 9706   0.623   2.896  11.249
 2755SOL    HW2 9707   0.612   2.881  11.399
 2756SOL     OW 9708   0.136   2.489  11.721
 2756SOL    HW1 9709   0.096   2.408  11.751
 2756SOL    HW2 9710   0.123   2.551  11.792
 2757SOL     OW 9711   1.844   3.614  11.501
 2757SOL    HW1 9712   1.917   3.592  11.558
 2757SOL    HW2 9713   1.859   3.705  11.476
 2758SOL     OW 9714   0.016   3.445  11.314
 2758SOL    HW1 9715   0.001   3.351  11.305
 2758SOL    HW2 9716  -0.002   3.463  11.407
 2759SOL     OW 9717   1.694   2.784  11.823
 2759SOL    HW1 9718   1.773   2.737  11.798
 2759SOL    HW2 9719   1.670   2.834  11.745
 2760SOL     OW 9720   1.651   2.963  11.605
 2760SOL    HW1 9721   1.737   2.961  11.563
 2760SOL    HW2 9722   1.660   3.027  11.675
 2761SOL     OW 9723   0.154   2.591   0.286
 2761SOL    HW1 9724   0.149   2.560   0.377
 2761SOL    HW2 9725   0.216   2.663   0.290
 2762SOL     OW 9726   0.611   3.259  11.903
 2762SOL    HW1 9727   0.568   3.174  11.908
 2762SOL    HW2 9728   0.597   3.288  11.812
 2763SOL     OW 9729   0.825   1.867  11.692
 2763SOL    HW1 9730   0.866   1.950  11.664
 2763SOL    HW2 9731   0.731   1.886  11.692
 2764SOL     OW 9732   0.189   2.783  12.449
 2764SOL    HW1 9733   0.279   2.758  12.428
 2764SOL    HW2 9734   0.144   2.786  12.364
 2765SOL     OW 9735   1.530   2.866  11.373
 2765SOL    HW1 9736   1.462   2.807  11.406
 2765SOL    HW2 9737   1.574   2.897  11.452
 2766SOL     OW 9738   1.470   3.276  12.115
 2766SOL    HW1 9739   1.407   3.288  12.186
 2766SOL    HW2 9740   1.455   3.186  12.085
 2767SOL     OW 9741   1.647   3.631  11.746
 2767SOL    HW1 9742   1.631   3.594  11.659
 2767SOL    HW2 9743   1.639   3.557  11.806
 2768SOL     OW 9744   0.592   2.574  11.440
 2768SOL    HW1 9745   0.594   2.659  11.396
 2768SOL    HW2 9746   0.531   2.586  11.512
 2769SOL     OW 9747   1.286   2.239  12.108
 2769SOL    HW1 9748   1.197   2.202  12.111
 2769SOL    HW2 9749   1.336   2.183  12.167
 2770SOL     OW 9750   1.578   3.536  11.486
 2770SOL    HW1 9751   1.670   3.558  11.476
 2770SOL    HW2 9752   1.547   3.521  11.397
 2771SOL     OW 9753   0.983   2.207  12.385
 2771SOL    HW1 9754   0.928   2.265  12.437
 2771SOL    HW2 9755   0.937   2.200  12.301
 2772SOL     OW 9756   1.056   2.558  11.594
 2772SOL    HW1 9757   1.075   2.553  11.688
 2772SOL    HW2 9758   0.972   2.514  11.585
 2773SOL     OW 9759   0.098   2.648  11.944
 2773SOL    HW1 9760   0.176   2.661  11.997
 2773SOL    HW2 9761   0.048   2.729  11.954
 2774SOL     OW 9762   0.073   3.628   0.259
 2774SOL    HW1 9763   0.116   3.612   0.343
 2774SOL    HW2 9764   0.003   3.690   0.279
 2775SOL     OW 9765   0.903   2.210  11.367
 2775SOL    HW1 9766   0.942   2.276  11.310
 2775SOL    HW2 9767   0.917   2.127  11.320
 2776SOL     OW 9768   1.382   3.003  11.707
 2776SOL    HW1 9769   1.462   2.991  11.655
 2776SOL    HW2 9770   1.330   3.066  11.657
 2777SOL     OW 9771   0.558   2.043  12.064
 2777SOL    HW1 9772   0.563   2.092  12.146
 2777SOL    HW2 9773   0.553   2.110  11.996
 2778SOL     OW 9774   0.998   3.312  11.640
 2778SOL    HW1 9775   0.968   3.385  11.586
 2778SOL    HW2 9776   0.968   3.333  11.728
 2779SOL     OW 9777   0.359   3.689  12.037
 2779SOL    HW1 9778   0.405   3.605  12.048
 2779SOL    HW2 9779   0.425   3.755  12.056
 2780SOL     OW 9780   1.802   2.919  12.054
 2780SOL    HW1 9781   1.754   2.896  11.974
 2780SOL    HW2 9782   1.735   2.921  12.122
 2781SOL     OW 9783   0.305   2.802  11.406
 2781SOL    HW1 9784   0.391   2.830  11.375
 2781SOL    HW2 9785   0.283   2.725  11.354
 2782SOL     OW 9786   1.482   2.619  11.888
 2782SOL    HW1 9787   1.482   2.576  11.974
 2782SOL    HW2 9788   1.562   2.672  11.888
 2783SOL     OW 9789   1.129   3.636  11.403
 2783SOL    HW1 9790   1.049   3.600  11.441
 2783SOL    HW2 9791   1.153   3.574  11.334
 2784SOL     OW 9792   1.630   3.248  11.276
 2784SOL    HW1 9793   1.592   3.333  11.253
 2784SOL    HW2 9794   1.565   3.184  11.248
 2785SOL     OW 9795   0.456   3.610  11.483
 2785SOL    HW1 9796   0.506   3.658  11.549
 2785SOL    HW2 9797   0.522   3.567  11.429
 2786SOL     OW 9798   1.399   1.968  11.621
 2786SOL    HW1 9799   1.393   1.944  11.529
 2786SOL    HW2 9800   1.493   1.974  11.638
 2787SOL     OW 9801   0.236   3.647  12.384
 2787SOL    HW1 9802   0.252   3.564  12.430
 2787SOL    HW2 9803   0.185   3.622  12.307
 2788SOL     OW 9804   0.950   3.555  12.066
 2788SOL    HW1 9805   1.034   3.509  12.069
 2788SOL    HW2 9806   0.900   3.509  11.999
 2789SOL     OW 9807   0.411   2.557  11.652
 2789SOL    HW1 9808   0.428   2.463  11.664
 2789SOL    HW2 9809   0.316   2.565  11.666
 2790SOL     OW 9810   0.653   1.972  11.276
 2790SOL    HW1 9811   0.716   1.901  11.289
 2790SOL    HW2 9812   0.597   1.943  11.204
 2791SOL     OW 9813   0.811   3.223  12.100
 2791SOL    HW1 9814   0.898   3.233  12.063
 2791SOL    HW2 9815   0.751   3.243  12.028
 2792SOL     OW 9816   0.933   2.370  12.065
 2792SOL    HW1 9817   0.904   2.362  11.974
 2792SOL    HW2 9818   0.969   2.284  12.086
 2793SOL     OW 9819   0.559   1.924  11.666
 2793SOL    HW1 9820   0.477   1.924  11.715
 2793SOL    HW2 9821   0.551   2.000  11.608
 2794SOL     OW 9822   1.432   3.068  11.209
 2794SOL    HW1 9823   1.459   2.992  11.261
 2794SOL    HW2 9824   1.345   3.090  11.243
 2795SOL     OW 9825   0.282   1.909  11.343
 2795SOL    HW1 9826   0.334   1.976  11.299
 2795SOL    HW2 9827   0.346   1.856  11.390
 2796SOL     OW 9828   0.945   2.110  11.624
 2796SOL    HW1 9829   0.920   2.147  11.540
 2796SOL    HW2 9830   1.039   2.126  11.632
 2797SOL     OW 9831   1.213   3.450  11.974
 2797SOL    HW1 9832   1.225   3.509  11.900
 2797SOL    HW2 9833   1.297   3.454  12.021
 2798SOL     OW 9834   0.475   3.018  11.892
 2798SOL    HW1 9835   0.413   2.996  11.961
 2798SOL    HW2 9836   0.428   3.000  11.810
 2799SOL     OW 9837   1.257   3.654  11.786
 2799SOL    HW1 9838   1.308   3.714  11.732
 2799SOL    HW2 9839   1.186   3.707  11.821
 2800SOL     OW 9840   1.024   2.392  11.200
 2800SOL    HW1 9841   0.981   2.475  11.178
 2800SOL    HW2 9842   1.092   2.416  11.264
 2801SOL     OW 9843   0.577   2.073  12.351
 2801SOL    HW1 9844   0.593   1.982  12.325
 2801SOL    HW2 9845   0.483   2.076  12.372
 2802SOL     OW 9846   0.864   2.318  11.805
 2802SOL    HW1 9847   0.823   2.374  11.740
 2802SOL    HW2 9848   0.890   2.239  11.757
 2803SOL     OW 9849   1.021   1.908  11.912
 2803SOL    HW1 9850   0.960   1.906  11.837
 2803SOL    HW2 9851   0.996   1.833  11.965
 2804SOL     OW 9852   1.439   3.018  12.022
 2804SOL    HW1 9853   1.369   2.954  12.010
 2804SOL    HW2 9854   1.476   3.029  11.935
 2805SOL     OW 9855   1.462   2.475  12.128
 2805SOL    HW1 9856   1.405   2.398  12.132
 2805SOL    HW2 9857   1.523   2.464  12.201
 2806SOL     OW 9858   1.833   2.668  11.562
 2806SOL    HW1 9859   1.895   2.621  11.618
 2806SOL    HW2 9860   1.813   2.606  11.491
 2807SOL     OW 9861   0.491   3.281  11.314
 2807SOL    HW1 9862   0.411   3.251  11.357
 2807SOL    HW2 9863   0.492   3.234  11.231
 2808SOL     OW 9864   1.682   3.123  11.820
 2808SOL    HW1 9865   1.777   3.119  11.831
 2808SOL    HW2 9866   1.659   3.215  11.835
 2809SOL     OW 9867   1.393   2.438  11.240
 2809SOL    HW1 9868   1.336   2.412  11.313
 2809SOL    HW2 9869   1.480   2.413  11.269
 2810SOL     OW 9870   0.529   2.118  11.479
 2810SOL    HW1 9871   0.579   2.071  11.412
 2810SOL    HW2 9872   0.505   2.201  11.437
 2811SOL     OW 9873   1.104   3.109  12.281
 2811SOL    HW1 9874   1.020   3.121  12.325
 2811SOL    HW2 9875   1.087   3.134  12.190
 2812SOL     OW 9876   1.601   2.954  12.244
 2812SOL    HW1 9877   1.564   2.988  12.325
 2812SOL    HW2 9878   1.536   2.973  12.177
 2813SOL     OW 9879   0.710   2.923  11.547
 2813SOL    HW1 9880   0.698   2.901  11.639
 2813SOL    HW2 9881   0.786   2.871  11.519
 2814SOL     OW 9882   0.443   2.677  12.447
 2814SOL    HW1 9883   0.495   2.704  12.522
 2814SOL    HW2 9884   0.397   2.599  12.477
 2815SOL     OW 9885   1.248   2.223  12.431
 2815SOL    HW1 9886   1.275   2.308  12.464
 2815SOL    HW2 9887   1.155   2.233  12.411
 2816SOL     OW 9888   0.328   2.970  11.658
 2816SOL    HW1 9889   0.335   3.043  11.597
 2816SOL    HW2 9890   0.333   2.892  11.604
 2817SOL     OW 9891   0.552   2.381  12.032
 2817SOL    HW1 9892   0.566   2.442  11.959
 2817SOL    HW2 9893   0.614   2.409  12.099
 2818SOL     OW 9894   1.245   3.212  11.566
 2818SOL    HW1 9895   1.302   3.283  11.597
 2818SOL    HW2 9896   1.158   3.237  11.597
 2819SOL     OW 9897   1.297   3.299  12.329
 2819SOL    HW1 9898   1.336   3.268  12.410
 2819SOL    HW2 9899   1.226   3.236  12.311
 2820SOL     OW 9900   1.576   2.475  11.661
 2820SOL    HW1 9901   1.525   2.525  11.725
 2820SOL    HW2 9902   1.623   2.542  11.611
 2821SOL     OW 9903   0.363   3.406  12.462
 2821SOL    HW1 9904   0.342   3.349  12.388
 2821SOL    HW2 9905   0.433   3.462  12.429
 2822SOL     OW 9906   0.581   2.732  12.213
 2822SOL    HW1 9907   0.607   2.824  12.215
 2822SOL    HW2 9908   0.534   2.719  12.295
 2823SOL     OW 9909   1.324   2.717  12.177
 2823SOL    HW1 9910   1.240   2.692  12.138
 2823SOL    HW2 9911   1.379   2.639  12.167
 2824SOL     OW 9912   1.200   2.385  11.433
 2824SOL    HW1 9913   1.208   2.308  11.488
 2824SOL    HW2 9914   1.158   2.451  11.489
 2825SOL     OW 9915   0.313   2.053  12.400
 2825SOL    HW1 9916   0.260   2.105  12.460
 2825SOL    HW2 9917   0.282   1.963  12.413
 2826SOL     OW 9918   0.071   3.200  12.428
 2826SOL    HW1 9919   0.049   3.153  12.509
 2826SOL    HW2 9920   0.077   3.292  12.455
 2827SOL     OW 9921   0.717   2.489  12.221
 2827SOL    HW1 9922   0.795   2.481  12.165
 2827SOL    HW2 9923   0.686   2.578  12.206
 2828SOL     OW 9924   0.313   1.930  11.786
 2828SOL    HW1 9925   0.285   2.019  11.807
 2828SOL    HW2 9926   0.318   1.885  11.871
 2829SOL     OW 9927   1.625   2.243  11.526
 2829SOL    HW1 9928   1.656   2.177  11.588
 2829SOL    HW2 9929   1.599   2.317  11.580
 2830SOL     OW 9930   1.028   2.616  12.137
 2830SOL    HW1 9931   1.020   2.625  12.232
 2830SOL    HW2 9932   1.002   2.526  12.119
 2831SOL     OW 9933   1.522   2.131  11.295
 2831SOL    HW1 9934   1.461   2.065  11.328
 2831SOL    HW2 9935   1.560   2.171  11.373
 2832SOL     OW 9936   1.285   2.687  11.197
 2832SOL    HW1 9937   1.327   2.601  11.201
 2832SOL    HW2 9938   1.318   2.726  11.116
 2833SOL     OW 9939   1.073   3.211  12.027
 2833SOL    HW1 9940   1.080   3.137  11.967
 2833SOL    HW2 9941   1.128   3.279  11.989
 2834SOL     OW 9942   0.320   2.671  12.113
 2834SOL    HW1 9943   0.413   2.690  12.119
 2834SOL    HW2 9944   0.313   2.578  12.135
 2835SOL     OW 9945   0.317   2.396  12.161
 2835SOL    HW1 9946   0.287   2.305  12.156
 2835SOL    HW2 9947   0.401   2.395  12.115
 2836SOL     OW 9948   1.178   2.079   0.154
 2836SOL    HW1 9949   1.148   2.145   0.216
 2836SOL    HW2 9950   1.200   2.128   0.075
 2837SOL     OW 9951   7.983   3.165  11.377
 2837SOL    HW1 9952   7.891   3.181  11.402
 2837SOL    HW2 9953   7.994   3.070  11.388
 2838SOL     OW 9954   0.113   3.604  12.126
 2838SOL    HW1 9955   0.104   3.537  12.058
 2838SOL    HW2 9956   0.191   3.654  12.099
 2839SOL     OW 9957   0.495   3.445  12.075
 2839SOL    HW1 9958   0.566   3.504  12.100
 2839SOL    HW2 9959   0.537   3.383  12.015
 2840SOL     OW 9960   0.973   2.646  12.411
 2840SOL    HW1 9961   1.015   2.718  12.458
 2840SOL    HW2 9962   0.880   2.658  12.427
 2841SOL     OW 9963   0.095   2.440  12.307
 2841SOL    HW1 9964   0.179   2.427  12.264
 2841SOL    HW2 9965   0.110   2.511  12.370
 2842SOL     OW 9966   0.816   2.431  11.541
 2842SOL    HW1 9967   0.823   2.358  11.480
 2842SOL    HW2 9968   0.742   2.482  11.508
 2843SOL     OW 9969   1.650   2.461  12.326
 2843SOL    HW1 9970   1.649   2.412  12.408
 2843SOL    HW2 9971   1.740   2.455  12.295
 2844SOL     OW 9972   0.725   2.306  12.426
 2844SOL    HW1 9973   0.663   2.238  12.401
 2844SOL    HW2 9974   0.712   2.375  12.362
 2845SOL     OW 9975   0.891   3.515   0.031
 2845SOL    HW1 9976   0.895   3.577  -0.042
 2845SOL    HW2 9977   0.920   3.565   0.107
 2846SOL     OW 9978   0.458   2.343  11.345
 2846SOL    HW1 9979   0.511   2.422  11.361
 2846SOL    HW2 9980   0.373   2.363  11.384
 2847SOL     OW 9981   1.281   2.906  12.368
 2847SOL    HW1 9982   1.302   2.844  12.298
 2847SOL    HW2 9983   1.229   2.974  12.325
 2848SOL     OW 9984   1.318   2.717  11.472
 2848SOL    HW1 9985   1.243   2.683  11.521
 2848SOL    HW2 9986   1.293   2.705  11.380
 2849SOL     OW 9987   1.745   3.615  12.313
 2849SOL    HW1 9988   1.818   3.626  12.253
 2849SOL    HW2 9989   1.725   3.521  12.309
 2850SOL     OW 9990   1.252   3.575  12.286
 2850SOL    HW1 9991   1.328   3.610  12.240
 2850SOL    HW2 9992   1.267   3.481  12.288
 2851SOL     OW 9993   0.060   3.051  12.203
 2851SOL    HW1 9994   0.068   3.103  12.283
 2851SOL    HW2 9995  -0.010   3.093  12.153
 2852SOL     OW 9996   1.729   2.027  11.673
 2852SOL    HW1 9997   1.795   2.010  11.607
 2852SOL    HW2 9998   1.711   1.941  11.712
 2853SOL     OW 9999   1.398   3.429  11.671
 2853SOL    HW110000   1.453   3.461  11.600
 2853SOL    HW210001   1.344   3.505  11.695
 2854SOL     OW10002   1.279   2.796  11.846
 2854SOL    HW110003   1.352   2.734  11.855
 2854SOL    HW210004   1.312   2.864  11.788
 2855SOL     OW10005   0.666   3.491  11.329
 2855SOL    HW110006   0.681   3.506  11.235
 2855SOL    HW210007   0.611   3.412  11.331
 2856SOL     OW10008   1.728   3.654   0.092
 2856SOL    HW110009   1.734   3.628   0.000
 2856SOL    HW210010   1.678   3.736   0.090
 2857SOL     OW10011   1.843   2.031  12.145
 2857SOL    HW110012   1.874   1.944  12.120
 2857SOL    HW210013   1.757   2.039  12.104
 2858SOL     OW10014   0.259   2.179  11.876
 2858SOL    HW110015   0.171   2.213  11.854
 2858SOL    HW210016   0.259   2.171  11.971
 2859SOL     OW10017   1.208   3.460  11.207
 2859SOL    HW110018   1.197   3.368  11.230
 2859SOL    HW210019   1.144   3.476  11.138
 2860SOL     OW10020   0.789   2.877  12.487
 2860SOL    HW110021   0.791   2.920  12.402
 2860SOL    HW210022   0.869   2.907  12.531
 2861SOL     OW10023   0.919   2.774  11.470
 2861SOL    HW110024   0.975   2.805  11.399
 2861SOL    HW210025   0.970   2.705  11.512
 2862SOL     OW10026   1.487   3.499  11.221
 2862SOL    HW110027   1.394   3.484  11.203
 2862SOL    HW210028   1.528   3.503  11.134
 2863SOL     OW10029   1.068   2.977  11.893
 2863SOL    HW110030   0.994   2.926  11.925
 2863SOL    HW210031   1.132   2.912  11.863
 2864SOL     OW10032   1.034   2.105  12.113
 2864SOL    HW110033   1.031   2.048  12.036
 2864SOL    HW210034   1.031   2.045  12.188
 2865SOL     OW10035   0.609   3.358  11.651
 2865SOL    HW110036   0.660   3.307  11.588
 2865SOL    HW210037   0.522   3.364  11.611
 2866SOL     OW10038   1.765   2.299   0.036
 2866SOL    HW110039   1.858   2.300   0.058
 2866SOL    HW210040   1.748   2.210   0.006
 2867SOL     OW10041   0.252   3.195  11.442
 2867SOL    HW110042   0.156   3.199  11.436
 2867SOL    HW210043   0.272   3.237  11.526
 2868SOL     OW10044   0.103   2.216  11.192
 2868SOL    HW110045   0.035   2.259  11.244
 2868SOL    HW210046   0.120   2.276  11.120
 2869SOL     OW10047   0.087   2.105  11.536
 2869SOL    HW110048   0.038   2.086  11.456
 2869SOL    HW210049   0.170   2.059  11.524
 2870SOL     OW10050   1.178   3.191  11.290
 2870SOL    HW110051   1.085   3.169  11.287
 2870SOL    HW210052   1.200   3.191  11.383
 2871SOL     OW10053   1.490   3.647  12.162
 2871SOL    HW110054   1.506   3.716  12.098
 2871SOL    HW210055   1.575   3.632  12.203
 2872SOL     OW10056   1.677   2.732  12.405
 2872SOL    HW110057   1.657   2.646  12.366
 2872SOL    HW210058   1.653   2.795  12.337
 2873SOL     OW10059   1.214   2.179  11.630
 2873SOL    HW110060   1.277   2.107  11.625
 2873SOL    HW210061   1.244   2.231  11.704
 2874SOL     OW10062   0.592   2.594  11.858
 2874SOL    HW110063   0.634   2.679  11.843
 2874SOL    HW210064   0.530   2.585  11.786
 2875SOL     OW10065   1.827   2.749   0.126
 2875SOL    HW110066   1.801   2.831   0.170
 2875SOL    HW210067   1.766   2.741   0.053
 2876SOL     OW10068   0.874   3.227  11.223
 2876SOL    HW110069   0.828   3.262  11.300
 2876SOL    HW210070   0.887   3.303  11.166
 2877SOL     OW10071   0.669   3.653  12.124
 2877SOL    HW110072   0.650   3.741  12.091
 2877SOL    HW210073   0.763   3.642  12.109
 2878SOL     OW10074   0.873   2.833  12.029
 2878SOL    HW110075   0.921   2.758  12.065
 2878SOL    HW210076   0.836   2.877  12.105
 2879SOL     OW10077   1.071   2.844  11.260
 2879SOL    HW110078   1.052   2.900  11.185
 2879SOL    HW210079   1.147   2.793  11.233
 2880SOL     OW10080   1.852   3.410  12.023
 2880SOL    HW110081   1.771   3.396  11.974
 2880SOL    HW210082   1.874   3.323  12.058
 2881SOL     OW10083   0.135   3.125  11.827
 2881SOL    HW110084   0.059   3.079  11.863
 2881SOL    HW210085   0.194   3.054  11.799
 2882SOL     OW10086   1.804   2.039  12.419
 2882SOL    HW110087   1.833   1.948  12.426
 2882SOL    HW210088   1.812   2.060  12.326
 2883SOL     OW10089   0.444   2.294  11.698
 2883SOL    HW110090   0.471   2.223  11.640
 2883SOL    HW210091   0.387   2.252  11.763
 2884SOL     OW10092   1.674   3.358  12.303
 2884SOL    HW110093   1.622   3.315  12.235
 2884SOL    HW210094   1.719   3.287  12.348
 2885SOL     OW10095   0.829   3.452  11.845
 2885SOL    HW110096   0.813   3.519  11.780
 2885SOL    HW210097   0.754   3.392  11.838
 2886SOL     OW10098   1.443   2.100  12.293
 2886SOL    HW110099   1.507   2.063  12.354
 2886SOL    HW210100   1.376   2.138  12.349
 2887SOL     OW10101   1.000   1.835  12.309
 2887SOL    HW110102   0.966   1.791  12.231
 2887SOL    HW210103   1.093   1.812  12.311
 2888SOL     OW10104   0.772   3.195  11.502
 2888SOL    HW110105   0.748   3.103  11.507
 2888SOL    HW210106   0.858   3.200  11.544
 2889SOL     OW10107   1.360   1.911  11.354
 2889SOL    HW110108   1.396   1.844  11.296
 2889SOL    HW210109   1.270   1.883  11.372
 2890SOL     OW10110   1.293   2.327  11.846
 2890SOL    HW110111   1.243   2.408  11.849
 2890SOL    HW210112   1.292   2.295  11.936
 2891SOL     OW10113   1.584   2.051  12.058
 2891SOL    HW110114   1.529   2.077  12.132
 2891SOL    HW210115   1.584   2.127  12.000
 2892SOL     OW10116   0.048   2.900  11.443
 2892SOL    HW110117   0.139   2.877  11.426
 2892SOL    HW210118   0.040   2.899  11.538
 2893SOL     OW10119   0.888   3.528  11.508
 2893SOL    HW110120   0.812   3.512  11.452
 2893SOL    HW210121   0.861   3.601  11.564
 2894SOL     OW10122   0.265   4.345   0.058
 2894SOL    HW110123   0.221   4.381   0.135
 2894SOL    HW210124   0.224   4.260   0.045
 2895SOL     OW10125   0.236   3.992   0.987
 2895SOL    HW110126   0.263   3.965   1.075
 2895SOL    HW210127   0.152   3.949   0.973
 2896SOL     OW10128   8.010   4.124   0.598
 2896SOL    HW110129   7.926   4.107   0.640
 2896SOL    HW210130   8.015   4.057   0.529
 2897SOL     OW10131   0.574   5.026   1.194
 2897SOL    HW110132   0.486   5.030   1.157
 2897SOL    HW210133   0.591   5.115   1.225
 2898SOL     OW10134   1.576   5.244   0.717
 2898SOL    HW110135   1.534   5.218   0.798
 2898SOL    HW210136   1.505   5.242   0.652
 2899SOL     OW10137   1.133   4.424   0.692
 2899SOL    HW110138   1.181   4.507   0.682
 2899SOL    HW210139   1.086   4.434   0.775
 2900SOL     OW10140   1.737   4.338   0.262
 2900SOL    HW110141   1.731   4.329   0.167
 2900SOL    HW210142   1.703   4.255   0.296
 2901SOL     OW10143   0.734   4.857   1.047
 2901SOL    HW110144   0.673   4.896   1.109
 2901SOL    HW210145   0.779   4.931   1.007
 2902SOL     OW10146   0.878   4.477   1.826
 2902SOL    HW110147   0.877   4.544   1.895
 2902SOL    HW210148   0.899   4.526   1.746
 2903SOL     OW10149   0.688   4.717   0.646
 2903SOL    HW110150   0.755   4.711   0.714
 2903SOL    HW210151   0.621   4.775   0.683
 2904SOL     OW10152   0.711   4.872   1.820
 2904SOL    HW110153   0.759   4.948   1.853
 2904SOL    HW210154   0.633   4.908   1.779
 2905SOL     OW10155   0.338   5.133   1.070
 2905SOL    HW110156   0.275   5.084   1.017
 2905SOL    HW210157   0.383   5.190   1.007
 2906SOL     OW10158   1.458   5.231   1.364
 2906SOL    HW110159   1.514   5.308   1.376
 2906SOL    HW210160   1.390   5.240   1.431
 2907SOL     OW10161   0.453   4.105   1.477
 2907SOL    HW110162   0.533   4.054   1.487
 2907SOL    HW210163   0.383   4.043   1.497
 2908SOL     OW10164   1.602   4.164   0.755
 2908SOL    HW110165   1.544   4.190   0.683
 2908SOL    HW210166   1.586   4.227   0.824
 2909SOL     OW10167   0.229   5.429   0.481
 2909SOL    HW110168   0.233   5.508   0.535
 2909SOL    HW210169   0.307   5.434   0.425
 2910SOL     OW10170   1.137   5.068   1.696
 2910SOL    HW110171   1.181   5.060   1.780
 2910SOL    HW210172   1.085   4.989   1.688
 2911SOL     OW10173   0.295   5.167   0.523
 2911SOL    HW110174   0.263   5.258   0.530
 2911SOL    HW210175   0.240   5.118   0.584
 2912SOL     OW10176   0.280   4.804   0.888
 2912SOL    HW110177   0.281   4.713   0.917
 2912SOL    HW210178   0.208   4.845   0.936
 2913SOL     OW10179   0.602   5.527   1.411
 2913SOL    HW110180   0.526   5.501   1.463
 2913SOL    HW210181   0.629   5.611   1.447
 2914SOL     OW10182   0.579   4.692   0.163
 2914SOL    HW110183   0.642   4.710   0.092
 2914SOL    HW210184   0.616   4.737   0.239
 2915SOL     OW10185   1.594   3.857   1.460
 2915SOL    HW110186   1.627   3.936   1.418
 2915SOL    HW210187   1.570   3.884   1.549
 2916SOL     OW10188   0.127   4.374   0.545
 2916SOL    HW110189   0.098   4.286   0.567
 2916SOL    HW210190   0.115   4.424   0.626
 2917SOL     OW10191   1.858   5.462   0.310
 2917SOL    HW110192   1.925   5.437   0.374
 2917SOL    HW210193   1.872   5.556   0.296
 2918SOL     OW10194   0.032   5.280   0.098
 2918SOL    HW110195   0.027   5.206   0.158
 2918SOL    HW210196   0.056   5.354   0.153
 2919SOL     OW10197   1.681   4.656   0.653
 2919SOL    HW110198   1.757   4.610   0.617
 2919SOL    HW210199   1.654   4.715   0.582
 2920SOL     OW10200   1.648   4.839   0.433
 2920SOL    HW110201   1.734   4.838   0.390
 2920SOL    HW210202   1.658   4.901   0.504
 2921SOL     OW10203   0.150   4.490   1.592
 2921SOL    HW110204   0.245   4.486   1.592
 2921SOL    HW210205   0.129   4.570   1.639
 2922SOL     OW10206   0.622   5.118   0.735
 2922SOL    HW110207   0.578   5.033   0.744
 2922SOL    HW210208   0.607   5.144   0.644
 2923SOL     OW10209   1.283   4.958   1.416
 2923SOL    HW110210   1.314   4.889   1.358
 2923SOL    HW210211   1.340   4.953   1.492
 2924SOL     OW10212   0.826   3.736   0.528
 2924SOL    HW110213   0.864   3.819   0.500
 2924SOL    HW210214   0.732   3.752   0.528
 2925SOL     OW10215   0.177   4.644   1.262
 2925SOL    HW110216   0.270   4.621   1.266
 2925SOL    HW210217   0.150   4.619   1.174
 2926SOL     OW10218   1.497   4.737   0.227
 2926SOL    HW110219   1.433   4.679   0.267
 2926SOL    HW210220   1.552   4.766   0.299
 2927SOL     OW10221   1.177   5.543   1.627
 2927SOL    HW110222   1.186   5.603   1.554
 2927SOL    HW210223   1.200   5.457   1.591
 2928SOL     OW10224   0.362   3.982   1.838
 2928SOL    HW110225   0.409   4.057   1.874
 2928SOL    HW210226   0.269   4.004   1.849
 2929SOL     OW10227   1.467   5.141   0.946
 2929SOL    HW110228   1.403   5.158   1.015
 2929SOL    HW210229   1.452   5.050   0.921
 2930SOL     OW10230   1.647   5.491   0.585
 2930SOL    HW110231   1.627   5.451   0.500
 2930SOL    HW210232   1.637   5.419   0.647
 2931SOL     OW10233   0.593   4.438   0.280
 2931SOL    HW110234   0.599   4.527   0.243
 2931SOL    HW210235   0.528   4.445   0.349
 2932SOL     OW10236   1.281   4.096   0.935
 2932SOL    HW110237   1.192   4.062   0.944
 2932SOL    HW210238   1.333   4.041   0.994
 2933SOL     OW10239   1.590   5.407   0.326
 2933SOL    HW110240   1.685   5.409   0.320
 2933SOL    HW210241   1.560   5.434   0.239
 2934SOL     OW10242   0.789   4.342   1.444
 2934SOL    HW110243   0.764   4.315   1.532
 2934SOL    HW210244   0.760   4.270   1.387
 2935SOL     OW10245   1.392   4.196   1.679
 2935SOL    HW110246   1.397   4.242   1.763
 2935SOL    HW210247   1.448   4.119   1.690
 2936SOL     OW10248   0.948   4.607   1.590
 2936SOL    HW110249   1.004   4.542   1.549
 2936SOL    HW210250   0.899   4.646   1.517
 2937SOL     OW10251   0.998   4.131   1.226
 2937SOL    HW110252   0.909   4.147   1.255
 2937SOL    HW210253   0.989   4.086   1.142
 2938SOL     OW10254   1.056   4.429   0.425
 2938SOL    HW110255   1.073   4.423   0.519
 2938SOL    HW210256   0.971   4.386   0.414
 2939SOL     OW10257   0.097   4.512   0.778
 2939SOL    HW110258   0.178   4.519   0.829
 2939SOL    HW210259   0.045   4.588   0.805
 2940SOL     OW10260   0.125   5.537   1.565
 2940SOL    HW110261   0.132   5.528   1.660
 2940SOL    HW210262   0.033   5.521   1.546
 2941SOL     OW10263   0.889   4.083   0.220
 2941SOL    HW110264   0.922   4.152   0.162
 2941SOL    HW210265   0.876   4.008   0.162
 2942SOL     OW10266   1.693   4.285   1.832
 2942SOL    HW110267   1.664   4.362   1.783
 2942SOL    HW210268   1.728   4.226   1.765
 2943SOL     OW10269   1.383   4.866   0.538
 2943SOL    HW110270   1.465   4.863   0.488
 2943SOL    HW210271   1.328   4.928   0.489
 2944SOL     OW10272   0.557   3.896   0.905
 2944SOL    HW110273   0.559   3.925   0.996
 2944SOL    HW210274   0.555   3.977   0.853
 2945SOL     OW10275   0.992   5.162   0.472
 2945SOL    HW110276   0.956   5.240   0.429
 2945SOL    HW210277   0.971   5.175   0.565
 2946SOL     OW10278   0.358   5.549   0.873
 2946SOL    HW110279   0.403   5.464   0.883
 2946SOL    HW210280   0.425   5.613   0.895
 2947SOL     OW10281   1.803   4.770   0.880
 2947SOL    HW110282   1.750   4.751   0.803
 2947SOL    HW210283   1.739   4.780   0.951
 2948SOL     OW10284   1.225   5.268   1.515
 2948SOL    HW110285   1.215   5.196   1.578
 2948SOL    HW210286   1.152   5.258   1.455
 2949SOL     OW10287   0.301   4.680   0.221
 2949SOL    HW110288   0.394   4.697   0.206
 2949SOL    HW210289   0.262   4.674   0.134
 2950SOL     OW10290   1.480   4.479   0.721
 2950SOL    HW110291   1.480   4.438   0.807
 2950SOL    HW210292   1.556   4.538   0.722
 2951SOL     OW10293   0.468   4.991   1.738
 2951SOL    HW110294   0.444   4.996   1.646
 2951SOL    HW210295   0.385   4.978   1.784
 2952SOL     OW10296   1.083   5.497   0.224
 2952SOL    HW110297   1.038   5.458   0.298
 2952SOL    HW210298   1.168   5.453   0.222
 2953SOL     OW10299   0.193   3.984   1.501
 2953SOL    HW110300   0.176   4.061   1.555
 2953SOL    HW210301   0.162   3.911   1.553
 2954SOL     OW10302   1.648   5.141   0.101
 2954SOL    HW110303   1.582   5.204   0.073
 2954SOL    HW210304   1.602   5.057   0.104
 2955SOL     OW10305   0.450   5.466   0.324
 2955SOL    HW110306   0.500   5.522   0.384
 2955SOL    HW210307   0.517   5.424   0.270
 2956SOL     OW10308   1.405   3.823   0.446
 2956SOL    HW110309   1.400   3.791   0.356
 2956SOL    HW210310   1.498   3.840   0.461
 2957SOL     OW10311   0.242   5.510   1.229
 2957SOL    HW110312   0.289   5.436   1.266
 2957SOL    HW210313   0.209   5.478   1.145
 2958SOL     OW10314   0.940   5.427   0.896
 2958SOL    HW110315   1.015   5.378   0.928
 2958SOL    HW210316   0.904   5.373   0.825
 2959SOL     OW10317   0.401   4.417   0.477
 2959SOL    HW110318   0.422   4.325   0.486
 2959SOL    HW210319   0.310   4.424   0.507
 2960SOL     OW10320   1.524   3.946   1.721
 2960SOL    HW110321   1.537   3.968   1.813
 2960SOL    HW210322   1.458   3.876   1.723
 2961SOL     OW10323   0.639   3.848   0.119
 2961SOL    HW110324   0.732   3.823   0.118
 2961SOL    HW210325   0.624   3.886   0.033
 2962SOL     OW10326   0.759   4.004   1.755
 2962SOL    HW110327   0.842   3.957   1.752
 2962SOL    HW210328   0.716   3.971   1.834
 2963SOL     OW10329   0.878   5.249   1.193
 2963SOL    HW110330   0.857   5.206   1.110
 2963SOL    HW210331   0.944   5.193   1.234
 2964SOL     OW10332   1.337   4.314   1.436
 2964SOL    HW110333   1.369   4.282   1.521
 2964SOL    HW210334   1.376   4.401   1.427
 2965SOL     OW10335   0.821   5.107   0.953
 2965SOL    HW110336   0.907   5.098   0.910
 2965SOL    HW210337   0.759   5.118   0.881
 2966SOL     OW10338   0.931   4.235   0.897
 2966SOL    HW110339   0.904   4.225   0.806
 2966SOL    HW210340   0.960   4.147   0.923
 2967SOL     OW10341   0.558   3.785   0.500
 2967SOL    HW110342   0.479   3.785   0.554
 2967SOL    HW210343   0.549   3.862   0.444
 2968SOL     OW10344   1.457   4.952   0.066
 2968SOL    HW110345   1.471   4.870   0.114
 2968SOL    HW210346   1.364   4.973   0.081
 2969SOL     OW10347   0.293   3.829   0.207
 2969SOL    HW110348   0.375   3.877   0.215
 2969SOL    HW210349   0.317   3.738   0.227
 2970SOL     OW10350   0.946   3.975   0.464
 2970SOL    HW110351   0.919   4.012   0.380
 2970SOL    HW210352   1.041   3.988   0.466
 2971SOL     OW10353   1.082   4.413   1.451
 2971SOL    HW110354   1.020   4.341   1.462
 2971SOL    HW210355   1.168   4.372   1.450
 2972SOL     OW10356   1.221   5.292   0.791
 2972SOL    HW110357   1.233   5.362   0.726
 2972SOL    HW210358   1.284   5.313   0.860
 2973SOL     OW10359   0.479   4.882   0.720
 2973SOL    HW110360   0.416   4.857   0.788
 2973SOL    HW210361   0.433   4.867   0.638
 2974SOL     OW10362   1.257   5.513   0.612
 2974SOL    HW110363   1.309   5.579   0.566
 2974SOL    HW210364   1.187   5.562   0.655
 2975SOL     OW10365   1.014   4.289   0.091
 2975SOL    HW110366   1.016   4.358   0.025
 2975SOL    HW210367   1.094   4.301   0.141
 2976SOL     OW10368   0.097   4.339   1.372
 2976SOL    HW110369   0.186   4.313   1.352
 2976SOL    HW210370   0.105   4.394   1.450
 2977SOL     OW10371   0.560   3.949   1.177
 2977SOL    HW110372   0.602   3.880   1.228
 2977SOL    HW210373   0.468   3.945   1.205
 2978SOL     OW10374   0.866   4.183   0.638
 2978SOL    HW110375   0.827   4.239   0.572
 2978SOL    HW210376   0.889   4.102   0.591
 2979SOL     OW10377   1.025   3.774   0.739
 2979SOL    HW110378   0.960   3.770   0.669
 2979SOL    HW210379   0.999   3.704   0.799
 2980SOL     OW10380   1.437   4.881   0.860
 2980SOL    HW110381   1.370   4.813   0.868
 2980SOL    HW210382   1.456   4.886   0.767
 2981SOL     OW10383   1.467   4.332   0.959
 2981SOL    HW110384   1.404   4.260   0.970
 2981SOL    HW210385   1.523   4.327   1.036
 2982SOL     OW10386   1.829   4.546   0.419
 2982SOL    HW110387   1.881   4.488   0.475
 2982SOL    HW210388   1.787   4.488   0.355
 2983SOL     OW10389   0.488   5.125   0.164
 2983SOL    HW110390   0.424   5.072   0.213
 2983SOL    HW210391   0.435   5.172   0.100
 2984SOL     OW10392   1.683   4.995   0.644
 2984SOL    HW110393   1.777   4.987   0.662
 2984SOL    HW210394   1.660   5.083   0.672
 2985SOL     OW10395   1.394   4.277   0.082
 2985SOL    HW110396   1.343   4.272   0.162
 2985SOL    HW210397   1.452   4.201   0.085
 2986SOL     OW10398   0.520   3.983   0.318
 2986SOL    HW110399   0.574   3.936   0.254
 2986SOL    HW210400   0.502   4.067   0.276
 2987SOL     OW10401   1.743   4.968   1.548
 2987SOL    HW110402   1.830   4.930   1.543
 2987SOL    HW210403   1.757   5.056   1.582
 2988SOL     OW10404   1.050   5.073   1.326
 2988SOL    HW110405   0.974   5.044   1.376
 2988SOL    HW210406   1.125   5.034   1.371
 2989SOL     OW10407   1.605   5.356   1.659
 2989SOL    HW110408   1.600   5.390   1.570
 2989SOL    HW210409   1.685   5.303   1.660
 2990SOL     OW10410   1.135   4.935   1.099
 2990SOL    HW110411   1.080   4.976   1.165
 2990SOL    HW210412   1.108   4.975   1.016
 2991SOL     OW10413   1.620   4.820   1.076
 2991SOL    HW110414   1.614   4.882   1.149
 2991SOL    HW210415   1.546   4.842   1.020
 2992SOL     OW10416   0.920   3.814   1.389
 2992SOL    HW110417   0.943   3.797   1.298
 2992SOL    HW210418   0.999   3.854   1.427
 2993SOL     OW10419   0.982   4.843   1.719
 2993SOL    HW110420   0.891   4.858   1.747
 2993SOL    HW210421   0.978   4.761   1.669
 2994SOL     OW10422   0.717   4.788   0.380
 2994SOL    HW110423   0.704   4.765   0.472
 2994SOL    HW210424   0.795   4.739   0.354
 2995SOL     OW10425   0.432   4.543   1.255
 2995SOL    HW110426   0.497   4.557   1.323
 2995SOL    HW210427   0.402   4.453   1.268
 2996SOL     OW10428   1.265   4.100   1.282
 2996SOL    HW110429   1.295   4.177   1.330
 2996SOL    HW210430   1.173   4.120   1.261
 2997SOL     OW10431   0.045   5.320   1.331
 2997SOL    HW110432   0.096   5.400   1.322
 2997SOL    HW210433   0.079   5.278   1.410
 2998SOL     OW10434   0.335   4.829   0.489
 2998SOL    HW110435   0.320   4.899   0.426
 2998SOL    HW210436   0.348   4.751   0.436
 2999SOL     OW10437   0.546   4.248   0.856
 2999SOL    HW110438   0.560   4.307   0.782
 2999SOL    HW210439   0.612   4.273   0.920
 3000SOL     OW10440   1.242   5.074   0.397
 3000SOL    HW110441   1.298   5.144   0.432
 3000SOL    HW210442   1.156   5.094   0.432
 3001SOL     OW10443   1.295   5.188   1.152
 3001SOL    HW110444   1.352   5.198   1.228
 3001SOL    HW210445   1.238   5.115   1.174
 3002SOL     OW10446   1.553   4.328   0.501
 3002SOL    HW110447   1.512   4.380   0.570
 3002SOL    HW210448   1.586   4.392   0.439
 3003SOL     OW10449   0.349   5.261   1.310
 3003SOL    HW110450   0.332   5.210   1.231
 3003SOL    HW210451   0.444   5.268   1.315
 3004SOL     OW10452   0.430   4.449   1.614
 3004SOL    HW110453   0.484   4.501   1.554
 3004SOL    HW210454   0.490   4.382   1.647
 3005SOL     OW10455   1.612   4.503   1.692
 3005SOL    HW110456   1.526   4.545   1.688
 3005SOL    HW210457   1.663   4.547   1.624
 3006SOL     OW10458   0.994   3.864   1.751
 3006SOL    HW110459   1.053   3.937   1.734
 3006SOL    HW210460   1.044   3.786   1.728
 3007SOL     OW10461   0.501   3.758   1.752
 3007SOL    HW110462   0.453   3.708   1.687
 3007SOL    HW210463   0.448   3.836   1.767
 3008SOL     OW10464   0.588   4.601   1.032
 3008SOL    HW110465   0.626   4.688   1.036
 3008SOL    HW210466   0.535   4.594   1.112
 3009SOL     OW10467   1.334   4.582   1.008
 3009SOL    HW110468   1.245   4.558   0.983
 3009SOL    HW210469   1.384   4.500   1.000
 3010SOL     OW10470   1.216   4.255   0.286
 3010SOL    HW110471   1.227   4.179   0.343
 3010SOL    HW210472   1.165   4.317   0.338
 3011SOL     OW10473   0.295   3.915   1.249
 3011SOL    HW110474   0.259   3.946   1.332
 3011SOL    HW210475   0.282   3.821   1.250
 3012SOL     OW10476   0.047   5.032   1.267
 3012SOL    HW110477   0.071   4.977   1.342
 3012SOL    HW210478   0.051   5.121   1.301
 3013SOL     OW10479   0.715   4.349   1.046
 3013SOL    HW110480   0.795   4.339   0.995
 3013SOL    HW210481   0.689   4.440   1.032
 3014SOL     OW10482   1.741   4.687   1.861
 3014SOL    HW110483   1.698   4.615   1.814
 3014SOL    HW210484   1.683   4.706   1.934
 3015SOL     OW10485   0.315   3.791   0.627
 3015SOL    HW110486   0.288   3.881   0.644
 3015SOL    HW210487   0.323   3.751   0.713
 3016SOL     OW10488   1.614   4.101   0.364
 3016SOL    HW110489   1.643   4.033   0.426
 3016SOL    HW210490   1.580   4.171   0.420
 3017SOL     OW10491   1.033   4.481   0.958
 3017SOL    HW110492   1.018   4.498   1.051
 3017SOL    HW210493   1.005   4.391   0.945
 3018SOL     OW10494   0.979   5.291   1.725
 3018SOL    HW110495   0.965   5.333   1.640
 3018SOL    HW210496   1.021   5.208   1.704
 3019SOL     OW10497   1.844   5.223   1.603
 3019SOL    HW110498   1.872   5.251   1.516
 3019SOL    HW210499   1.922   5.234   1.658
 3020SOL     OW10500   0.364   4.673   1.790
 3020SOL    HW110501   0.435   4.688   1.852
 3020SOL    HW210502   0.384   4.588   1.751
 3021SOL     OW10503   1.508   4.004   0.127
 3021SOL    HW110504   1.457   3.927   0.150
 3021SOL    HW210505   1.548   4.032   0.209
 3022SOL     OW10506   1.305   4.539   0.046
 3022SOL    HW110507   1.342   4.451   0.044
 3022SOL    HW210508   1.373   4.594   0.007
 3023SOL     OW10509   1.070   5.067   0.857
 3023SOL    HW110510   1.079   4.994   0.795
 3023SOL    HW210511   1.129   5.135   0.823
 3024SOL     OW10512   0.320   4.526   0.942
 3024SOL    HW110513   0.413   4.549   0.945
 3024SOL    HW210514   0.316   4.437   0.978
 3025SOL     OW10515   0.332   4.243   1.015
 3025SOL    HW110516   0.296   4.156   1.001
 3025SOL    HW210517   0.408   4.249   0.957
 3026SOL     OW10518   1.136   4.096   1.686
 3026SOL    HW110519   1.089   4.148   1.751
 3026SOL    HW210520   1.223   4.134   1.682
 3027SOL     OW10521   1.161   3.921   1.471
 3027SOL    HW110522   1.150   3.982   1.544
 3027SOL    HW210523   1.206   3.972   1.404
 3028SOL     OW10524   7.998   5.024   0.207
 3028SOL    HW110525   7.910   5.047   0.238
 3028SOL    HW210526   8.008   4.932   0.231
 3029SOL     OW10527   0.100   5.471   0.938
 3029SOL    HW110528   0.111   5.389   0.890
 3029SOL    HW210529   0.180   5.521   0.918
 3030SOL     OW10530   0.486   5.297   0.902
 3030SOL    HW110531   0.555   5.359   0.926
 3030SOL    HW210532   0.529   5.235   0.844
 3031SOL     OW10533   0.963   4.507   1.221
 3031SOL    HW110534   1.027   4.491   1.291
 3031SOL    HW210535   0.881   4.470   1.253
 3032SOL     OW10536   0.070   4.272   1.112
 3032SOL    HW110537   0.164   4.267   1.096
 3032SOL    HW210538   0.064   4.293   1.206
 3033SOL     OW10539   0.195   4.222   1.656
 3033SOL    HW110540   0.288   4.230   1.637
 3033SOL    HW210541   0.162   4.312   1.649
 3034SOL     OW10542   1.383   4.652   1.655
 3034SOL    HW110543   1.405   4.745   1.652
 3034SOL    HW210544   1.381   4.625   1.563
 3035SOL     OW10545   0.817   4.303   0.381
 3035SOL    HW110546   0.826   4.227   0.323
 3035SOL    HW210547   0.741   4.350   0.346
 3036SOL     OW10548   1.641   4.323   1.169
 3036SOL    HW110549   1.633   4.270   1.248
 3036SOL    HW210550   1.731   4.309   1.139
 3037SOL     OW10551   0.290   5.257   1.721
 3037SOL    HW110552   0.252   5.329   1.771
 3037SOL    HW210553   0.282   5.181   1.778
 3038SOL     OW10554   0.721   4.166   1.247
 3038SOL    HW110555   0.661   4.094   1.226
 3038SOL    HW210556   0.708   4.229   1.177
 3039SOL     OW10557   0.922   5.400   1.472
 3039SOL    HW110558   0.892   5.361   1.390
 3039SOL    HW210559   0.916   5.495   1.457
 3040SOL     OW10560   0.473   4.210   0.186
 3040SOL    HW110561   0.529   4.283   0.213
 3040SOL    HW210562   0.404   4.251   0.134
 3041SOL     OW10563   0.153   4.846   1.451
 3041SOL    HW110564   0.133   4.801   1.533
 3041SOL    HW210565   0.160   4.776   1.386
 3042SOL     OW10566   1.317   4.763   1.212
 3042SOL    HW110567   1.335   4.701   1.142
 3042SOL    HW210568   1.252   4.823   1.175
 3043SOL     OW10569   1.300   4.573   0.324
 3043SOL    HW110570   1.226   4.534   0.371
 3043SOL    HW210571   1.289   4.545   0.234
 3044SOL     OW10572   1.771   5.460   1.152
 3044SOL    HW110573   1.836   5.483   1.085
 3044SOL    HW210574   1.750   5.369   1.133
 3045SOL     OW10575   1.237   5.454   1.088
 3045SOL    HW110576   1.323   5.482   1.056
 3045SOL    HW210577   1.250   5.364   1.118
 3046SOL     OW10578   0.073   4.918   1.026
 3046SOL    HW110579   0.069   4.959   1.113
 3046SOL    HW210580  -0.004   4.951   0.980
 3047SOL     OW10581   0.683   5.396   1.747
 3047SOL    HW110582   0.625   5.471   1.734
 3047SOL    HW210583   0.761   5.416   1.695
 3048SOL     OW10584   0.910   3.814   0.096
 3048SOL    HW110585   0.954   3.840   0.015
 3048SOL    HW210586   0.980   3.790   0.156
 3049SOL     OW10587   1.714   3.880   0.502
 3049SOL    HW110588   1.786   3.870   0.440
 3049SOL    HW210589   1.704   3.793   0.541
 3050SOL     OW10590   1.392   5.292   0.493
 3050SOL    HW110591   1.455   5.328   0.431
 3050SOL    HW210592   1.345   5.368   0.527
 3051SOL     OW10593   0.170   5.469   1.841
 3051SOL    HW110594   0.106   5.421   1.893
 3051SOL    HW210595   0.215   5.526   1.904
 3052SOL     OW10596   1.276   4.654   0.668
 3052SOL    HW110597   1.350   4.596   0.683
 3052SOL    HW210598   1.312   4.725   0.613
 3053SOL     OW10599   0.795   5.004   1.418
 3053SOL    HW110600   0.770   5.047   1.500
 3053SOL    HW210601   0.720   5.016   1.360
 3054SOL     OW10602   0.661   5.333   0.191
 3054SOL    HW110603   0.712   5.337   0.111
 3054SOL    HW210604   0.611   5.252   0.183
 3055SOL     OW10605   1.617   5.456   1.391
 3055SOL    HW110606   1.670   5.459   1.312
 3055SOL    HW210607   1.603   5.547   1.415
 3056SOL     OW10608   1.844   3.891   0.960
 3056SOL    HW110609   1.871   3.802   0.940
 3056SOL    HW210610   1.754   3.898   0.926
 3057SOL     OW10611   0.258   4.043   0.711
 3057SOL    HW110612   0.172   4.080   0.689
 3057SOL    HW210613   0.256   4.033   0.806
 3058SOL     OW10614   1.202   5.309   0.024
 3058SOL    HW110615   1.199   5.220   0.059
 3058SOL    HW210616   1.111   5.336   0.020
 3059SOL     OW10617   0.825   4.734   1.379
 3059SOL    HW110618   0.869   4.727   1.295
 3059SOL    HW210619   0.818   4.828   1.396
 3060SOL     OW10620   0.933   4.651   0.292
 3060SOL    HW110621   0.992   4.669   0.219
 3060SOL    HW210622   0.974   4.579   0.340
 3061SOL     OW10623   1.469   5.303  12.477
 3061SOL    HW110624   1.379   5.319  12.505
 3061SOL    HW210625   1.515   5.385  12.498
 3062SOL     OW10626   0.368   5.022   1.488
 3062SOL    HW110627   0.347   5.104   1.443
 3062SOL    HW210628   0.294   4.965   1.470
 3063SOL     OW10629   1.606   5.009   1.282
 3063SOL    HW110630   1.661   4.989   1.358
 3063SOL    HW210631   1.546   5.077   1.314
 3064SOL     OW10632   1.067   4.837   0.712
 3064SOL    HW110633   0.995   4.788   0.751
 3064SOL    HW210634   1.133   4.771   0.690
 3065SOL     OW10635   1.028   3.967   0.962
 3065SOL    HW110636   1.026   3.921   0.878
 3065SOL    HW210637   1.022   3.898   1.028
 3066SOL     OW10638   0.605   5.203   0.479
 3066SOL    HW110639   0.643   5.161   0.402
 3066SOL    HW210640   0.514   5.220   0.454
 3067SOL     OW10641   1.727   4.121   1.377
 3067SOL    HW110642   1.801   4.182   1.381
 3067SOL    HW210643   1.757   4.051   1.319
 3068SOL     OW10644   0.269   5.023   0.299
 3068SOL    HW110645   0.181   5.036   0.264
 3068SOL    HW210646   0.274   5.083   0.374
 3069SOL     OW10647   0.103   4.729   1.710
 3069SOL    HW110648   0.066   4.814   1.734
 3069SOL    HW210649   0.188   4.727   1.755
 3070SOL     OW10650   0.680   3.920   1.498
 3070SOL    HW110651   0.765   3.897   1.461
 3070SOL    HW210652   0.701   3.950   1.587
 3071SOL     OW10653   0.129   4.115   0.017
 3071SOL    HW110654   0.052   4.110   0.073
 3071SOL    HW210655   0.094   4.111  -0.072
 3072SOL     OW10656   1.421   4.579   1.393
 3072SOL    HW110657   1.373   4.641   1.338
 3072SOL    HW210658   1.511   4.584   1.360
 3073SOL     OW10659   0.074   3.953   0.357
 3073SOL    HW110660   0.037   4.006   0.288
 3073SOL    HW210661   0.154   3.917   0.319
 3074SOL     OW10662   1.191   5.050   0.123
 3074SOL    HW110663   1.096   5.048   0.113
 3074SOL    HW210664   1.205   5.049   0.218
 3075SOL     OW10665   0.623   4.557   1.443
 3075SOL    HW110666   0.680   4.633   1.431
 3075SOL    HW210667   0.683   4.483   1.447
 3076SOL     OW10668   1.489   5.516   0.989
 3076SOL    HW110669   1.515   5.587   0.931
 3076SOL    HW210670   1.570   5.486   1.029
 3077SOL     OW10671   0.709   4.284   1.698
 3077SOL    HW110672   0.759   4.341   1.757
 3077SOL    HW210673   0.727   4.196   1.730
 3078SOL     OW10674   1.470   4.915   1.625
 3078SOL    HW110675   1.459   4.930   1.719
 3078SOL    HW210676   1.563   4.935   1.608
 3079SOL     OW10677   0.387   5.462   1.563
 3079SOL    HW110678   0.299   5.491   1.543
 3079SOL    HW210679   0.375   5.376   1.604
 3080SOL     OW10680   1.660   4.602   1.251
 3080SOL    HW110681   1.659   4.518   1.206
 3080SOL    HW210682   1.651   4.667   1.181
 3081SOL     OW10683   1.222   4.037   0.454
 3081SOL    HW110684   1.281   3.962   0.453
 3081SOL    HW210685   1.246   4.085   0.534
 3082SOL     OW10686   0.589   4.455   0.678
 3082SOL    HW110687   0.630   4.541   0.666
 3082SOL    HW210688   0.526   4.448   0.606
 3083SOL     OW10689   1.755   4.085   1.650
 3083SOL    HW110690   1.739   4.104   1.557
 3083SOL    HW210691   1.681   4.030   1.675
 3084SOL     OW10692   1.736   4.658   1.509
 3084SOL    HW110693   1.734   4.753   1.521
 3084SOL    HW210694   1.722   4.645   1.415
 3085SOL     OW10695   0.924   5.090   0.061
 3085SOL    HW110696   0.866   5.071   0.135
 3085SOL    HW210697   0.906   5.182   0.039
 3086SOL     OW10698   0.664   5.500   0.929
 3086SOL    HW110699   0.648   5.593   0.917
 3086SOL    HW210700   0.760   5.492   0.928
 3087SOL     OW10701   0.873   4.698   0.854
 3087SOL    HW110702   0.923   4.625   0.891
 3087SOL    HW210703   0.830   4.738   0.929
 3088SOL     OW10704   1.090   4.709   0.060
 3088SOL    HW110705   1.127   4.796   0.042
 3088SOL    HW210706   1.166   4.651   0.060
 3089SOL     OW10707   1.843   5.272   0.837
 3089SOL    HW110708   1.758   5.264   0.794
 3089SOL    HW210709   1.837   5.214   0.913
 3090SOL     OW10710   0.217   5.022   1.855
 3090SOL    HW110711   0.125   5.009   1.835
 3090SOL    HW210712   0.222   5.025   1.950
 3091SOL     OW10713   0.134   4.989   0.655
 3091SOL    HW110714   0.058   4.945   0.692
 3091SOL    HW210715   0.199   4.919   0.644
 3092SOL     OW10716   0.682   5.137   1.629
 3092SOL    HW110717   0.604   5.095   1.665
 3092SOL    HW210718   0.684   5.223   1.671
 3093SOL     OW10719   1.804   3.910   1.231
 3093SOL    HW110720   1.820   3.818   1.251
 3093SOL    HW210721   1.820   3.917   1.137
 3094SOL     OW10722   0.432   4.157   0.524
 3094SOL    HW110723   0.463   4.086   0.468
 3094SOL    HW210724   0.382   4.114   0.594
 3095SOL     OW10725   1.700   5.205   1.087
 3095SOL    HW110726   1.619   5.184   1.041
 3095SOL    HW210727   1.706   5.138   1.156
 3096SOL     OW10728   0.353   4.284   1.296
 3096SOL    HW110729   0.397   4.224   1.356
 3096SOL    HW210730   0.369   4.247   1.209
 3097SOL     OW10731   0.834   5.298   0.680
 3097SOL    HW110732   0.805   5.361   0.614
 3097SOL    HW210733   0.761   5.238   0.690
 3098SOL     OW10734   1.430   3.957   1.119
 3098SOL    HW110735   1.458   3.880   1.168
 3098SOL    HW210736   1.379   4.008   1.182
 3099SOL     OW10737   1.010   3.742   1.130
 3099SOL    HW110738   0.953   3.677   1.090
 3099SOL    HW210739   1.097   3.701   1.129
 3100SOL     OW10740   0.795   5.044   0.303
 3100SOL    HW110741   0.760   4.959   0.327
 3100SOL    HW210742   0.862   5.062   0.368
 3101SOL     OW10743   0.623   5.284   1.284
 3101SOL    HW110744   0.620   5.369   1.328
 3101SOL    HW210745   0.712   5.277   1.250
 3102SOL     OW10746   1.371   3.763   0.179
 3102SOL    HW110747   1.366   3.700   0.107
 3102SOL    HW210748   1.283   3.799   0.184
 3103SOL     OW10749   1.286   4.185   0.674
 3103SOL    HW110750   1.237   4.267   0.678
 3103SOL    HW210751   1.287   4.152   0.764
 3104SOL     OW10752   1.581   3.912   0.888
 3104SOL    HW110753   1.528   3.938   0.964
 3104SOL    HW210754   1.581   3.990   0.832
 3105SOL     OW10755   0.038   4.772   0.293
 3105SOL    HW110756   0.128   4.748   0.272
 3105SOL    HW210757   0.033   4.765   0.389
 3106SOL     OW10758   0.874   5.383   0.363
 3106SOL    HW110759   0.794   5.364   0.315
 3106SOL    HW210760   0.854   5.460   0.416
 3107SOL     OW10761   0.230   4.419   1.934
 3107SOL    HW110762   0.170   4.400   2.007
 3107SOL    HW210763   0.255   4.332   1.902
 3108SOL     OW10764   0.237   3.992   2.848
 3108SOL    HW110765   0.265   3.966   2.935
 3108SOL    HW210766   0.152   3.949   2.836
 3109SOL     OW10767   8.006   4.113   2.467
 3109SOL    HW110768   7.917   4.100   2.500
 3109SOL    HW210769   8.011   4.058   2.389
 3110SOL     OW10770   0.573   5.027   3.056
 3110SOL    HW110771   0.485   5.033   3.017
 3110SOL    HW210772   0.592   5.115   3.087
 3111SOL     OW10773   1.580   5.240   2.574
 3111SOL    HW110774   1.536   5.216   2.656
 3111SOL    HW210775   1.510   5.241   2.509
 3112SOL     OW10776   1.130   4.427   2.553
 3112SOL    HW110777   1.180   4.507   2.542
 3112SOL    HW210778   1.085   4.438   2.637
 3113SOL     OW10779   1.794   4.312   2.080
 3113SOL    HW110780   1.758   4.307   1.992
 3113SOL    HW210781   1.748   4.243   2.128
 3114SOL     OW10782   0.730   4.855   2.907
 3114SOL    HW110783   0.670   4.896   2.970
 3114SOL    HW210784   0.777   4.929   2.868
 3115SOL     OW10785   0.878   4.481   3.687
 3115SOL    HW110786   0.889   4.548   3.754
 3115SOL    HW210787   0.899   4.525   3.605
 3116SOL     OW10788   0.688   4.720   2.507
 3116SOL    HW110789   0.757   4.714   2.573
 3116SOL    HW210790   0.622   4.777   2.546
 3117SOL     OW10791   0.709   4.871   3.681
 3117SOL    HW110792   0.757   4.947   3.713
 3117SOL    HW210793   0.631   4.908   3.639
 3118SOL     OW10794   0.340   5.137   2.929
 3118SOL    HW110795   0.282   5.087   2.872
 3118SOL    HW210796   0.388   5.195   2.870
 3119SOL     OW10797   1.459   5.231   3.226
 3119SOL    HW110798   1.517   5.307   3.235
 3119SOL    HW210799   1.395   5.241   3.297
 3120SOL     OW10800   0.451   4.106   3.343
 3120SOL    HW110801   0.535   4.061   3.350
 3120SOL    HW210802   0.386   4.037   3.361
 3121SOL     OW10803   1.601   4.161   2.614
 3121SOL    HW110804   1.530   4.184   2.553
 3121SOL    HW210805   1.599   4.230   2.680
 3122SOL     OW10806   0.233   5.419   2.344
 3122SOL    HW110807   0.230   5.503   2.390
 3122SOL    HW210808   0.300   5.431   2.276
 3123SOL     OW10809   1.138   5.068   3.558
 3123SOL    HW110810   1.187   5.057   3.639
 3123SOL    HW210811   1.086   4.988   3.550
 3124SOL     OW10812   0.296   5.156   2.372
 3124SOL    HW110813   0.272   5.248   2.382
 3124SOL    HW210814   0.243   5.109   2.436
 3125SOL     OW10815   0.276   4.805   2.750
 3125SOL    HW110816   0.282   4.714   2.780
 3125SOL    HW210817   0.202   4.841   2.799
 3126SOL     OW10818   0.595   5.533   3.265
 3126SOL    HW110819   0.522   5.505   3.321
 3126SOL    HW210820   0.627   5.613   3.305
 3127SOL     OW10821   0.571   4.717   2.008
 3127SOL    HW110822   0.624   4.757   1.939
 3127SOL    HW210823   0.612   4.745   2.089
 3128SOL     OW10824   1.582   3.857   3.317
 3128SOL    HW110825   1.636   3.923   3.272
 3128SOL    HW210826   1.569   3.893   3.405
 3129SOL     OW10827   0.135   4.355   2.408
 3129SOL    HW110828   0.097   4.273   2.439
 3129SOL    HW210829   0.123   4.417   2.481
 3130SOL     OW10830   1.843   5.472   2.188
 3130SOL    HW110831   1.913   5.449   2.249
 3130SOL    HW210832   1.857   5.565   2.170
 3131SOL     OW10833   0.017   5.309   2.001
 3131SOL    HW110834   0.000   5.215   1.989
 3131SOL    HW210835   0.005   5.323   2.095
 3132SOL     OW10836   1.691   4.637   2.514
 3132SOL    HW110837   1.780   4.602   2.515
 3132SOL    HW210838   1.684   4.683   2.431
 3133SOL     OW10839   1.656   4.826   2.291
 3133SOL    HW110840   1.743   4.822   2.251
 3133SOL    HW210841   1.666   4.889   2.363
 3134SOL     OW10842   0.123   4.487   3.454
 3134SOL    HW110843   0.219   4.481   3.457
 3134SOL    HW210844   0.102   4.565   3.505
 3135SOL     OW10845   0.620   5.120   2.597
 3135SOL    HW110846   0.577   5.034   2.604
 3135SOL    HW210847   0.606   5.146   2.506
 3136SOL     OW10848   1.284   4.958   3.278
 3136SOL    HW110849   1.315   4.889   3.220
 3136SOL    HW210850   1.343   4.954   3.354
 3137SOL     OW10851   0.825   3.728   2.377
 3137SOL    HW110852   0.866   3.811   2.354
 3137SOL    HW210853   0.731   3.747   2.381
 3138SOL     OW10854   0.168   4.638   3.132
 3138SOL    HW110855   0.261   4.612   3.130
 3138SOL    HW210856   0.140   4.630   3.040
 3139SOL     OW10857   1.531   4.731   2.063
 3139SOL    HW110858   1.463   4.673   2.096
 3139SOL    HW210859   1.577   4.761   2.141
 3140SOL     OW10860   1.168   5.539   3.486
 3140SOL    HW110861   1.185   5.600   3.415
 3140SOL    HW210862   1.195   5.454   3.452
 3141SOL     OW10863   0.363   3.978   3.697
 3141SOL    HW110864   0.411   4.055   3.727
 3141SOL    HW210865   0.271   4.001   3.709
 3142SOL     OW10866   1.461   5.144   2.803
 3142SOL    HW110867   1.401   5.159   2.876
 3142SOL    HW210868   1.449   5.052   2.780
 3143SOL     OW10869   1.643   5.494   2.436
 3143SOL    HW110870   1.628   5.450   2.352
 3143SOL    HW210871   1.640   5.423   2.501
 3144SOL     OW10872   0.589   4.430   2.126
 3144SOL    HW110873   0.598   4.518   2.089
 3144SOL    HW210874   0.530   4.442   2.201
 3145SOL     OW10875   1.280   4.097   2.798
 3145SOL    HW110876   1.192   4.062   2.809
 3145SOL    HW210877   1.335   4.044   2.856
 3146SOL     OW10878   1.577   5.398   2.174
 3146SOL    HW110879   1.670   5.419   2.168
 3146SOL    HW210880   1.550   5.381   2.084
 3147SOL     OW10881   0.780   4.346   3.304
 3147SOL    HW110882   0.760   4.318   3.393
 3147SOL    HW210883   0.755   4.272   3.249
 3148SOL     OW10884   1.389   4.194   3.539
 3148SOL    HW110885   1.397   4.242   3.622
 3148SOL    HW210886   1.448   4.120   3.548
 3149SOL     OW10887   0.947   4.606   3.450
 3149SOL    HW110888   1.005   4.541   3.410
 3149SOL    HW210889   0.898   4.643   3.377
 3150SOL     OW10890   0.996   4.134   3.089
 3150SOL    HW110891   0.905   4.147   3.116
 3150SOL    HW210892   0.990   4.090   3.004
 3151SOL     OW10893   1.054   4.423   2.284
 3151SOL    HW110894   1.075   4.420   2.377
 3151SOL    HW210895   0.970   4.377   2.277
 3152SOL     OW10896   0.101   4.518   2.629
 3152SOL    HW110897   0.179   4.527   2.684
 3152SOL    HW210898   0.058   4.604   2.633
 3153SOL     OW10899   0.125   5.536   3.426
 3153SOL    HW110900   0.132   5.528   3.522
 3153SOL    HW210901   0.032   5.521   3.408
 3154SOL     OW10902   0.900   4.073   2.058
 3154SOL    HW110903   0.940   4.136   1.999
 3154SOL    HW210904   0.916   3.988   2.017
 3155SOL     OW10905   1.679   4.285   3.697
 3155SOL    HW110906   1.655   4.363   3.645
 3155SOL    HW210907   1.723   4.228   3.634
 3156SOL     OW10908   1.387   4.865   2.399
 3156SOL    HW110909   1.469   4.856   2.352
 3156SOL    HW210910   1.336   4.928   2.348
 3157SOL     OW10911   0.554   3.896   2.765
 3157SOL    HW110912   0.558   3.923   2.857
 3157SOL    HW210913   0.557   3.978   2.715
 3158SOL     OW10914   0.994   5.168   2.326
 3158SOL    HW110915   0.970   5.247   2.278
 3158SOL    HW210916   0.974   5.188   2.417
 3159SOL     OW10917   0.358   5.549   2.726
 3159SOL    HW110918   0.403   5.465   2.738
 3159SOL    HW210919   0.423   5.615   2.749
 3160SOL     OW10920   1.798   4.779   2.742
 3160SOL    HW110921   1.744   4.761   2.665
 3160SOL    HW210922   1.736   4.785   2.815
 3161SOL     OW10923   1.223   5.268   3.379
 3161SOL    HW110924   1.214   5.197   3.442
 3161SOL    HW210925   1.161   5.244   3.309
 3162SOL     OW10926   0.303   4.670   2.097
 3162SOL    HW110927   0.391   4.696   2.069
 3162SOL    HW210928   0.283   4.592   2.046
 3163SOL     OW10929   1.480   4.475   2.580
 3163SOL    HW110930   1.482   4.436   2.667
 3163SOL    HW210931   1.559   4.530   2.577
 3164SOL     OW10932   0.464   4.989   3.601
 3164SOL    HW110933   0.441   4.995   3.509
 3164SOL    HW210934   0.380   4.981   3.647
 3165SOL     OW10935   1.127   5.508   2.081
 3165SOL    HW110936   1.052   5.470   2.128
 3165SOL    HW210937   1.151   5.441   2.018
 3166SOL     OW10938   0.190   3.977   3.359
 3166SOL    HW110939   0.178   4.051   3.418
 3166SOL    HW210940   0.159   3.901   3.409
 3167SOL     OW10941   1.625   5.107   1.948
 3167SOL    HW110942   1.582   5.192   1.938
 3167SOL    HW210943   1.556   5.044   1.928
 3168SOL     OW10944   0.454   5.472   2.173
 3168SOL    HW110945   0.502   5.519   2.241
 3168SOL    HW210946   0.522   5.426   2.123
 3169SOL     OW10947   1.402   3.833   2.311
 3169SOL    HW110948   1.401   3.807   2.219
 3169SOL    HW210949   1.495   3.840   2.332
 3170SOL     OW10950   0.244   5.511   3.092
 3170SOL    HW110951   0.292   5.438   3.132
 3170SOL    HW210952   0.213   5.476   3.008
 3171SOL     OW10953   0.943   5.426   2.758
 3171SOL    HW110954   1.024   5.381   2.783
 3171SOL    HW210955   0.907   5.372   2.687
 3172SOL     OW10956   0.408   4.421   2.337
 3172SOL    HW110957   0.424   4.328   2.351
 3172SOL    HW210958   0.315   4.432   2.355
 3173SOL     OW10959   1.525   3.949   3.582
 3173SOL    HW110960   1.534   3.973   3.675
 3173SOL    HW210961   1.472   3.870   3.583
 3174SOL     OW10962   0.651   3.838   1.965
 3174SOL    HW110963   0.707   3.763   1.988
 3174SOL    HW210964   0.598   3.806   1.892
 3175SOL     OW10965   0.758   4.004   3.617
 3175SOL    HW110966   0.842   3.958   3.613
 3175SOL    HW210967   0.720   3.977   3.701
 3176SOL     OW10968   0.876   5.247   3.058
 3176SOL    HW110969   0.858   5.206   2.973
 3176SOL    HW210970   0.945   5.193   3.097
 3177SOL     OW10971   1.337   4.316   3.297
 3177SOL    HW110972   1.370   4.283   3.381
 3177SOL    HW210973   1.379   4.402   3.288
 3178SOL     OW10974   0.820   5.106   2.814
 3178SOL    HW110975   0.906   5.097   2.774
 3178SOL    HW210976   0.760   5.118   2.741
 3179SOL     OW10977   0.928   4.233   2.760
 3179SOL    HW110978   0.902   4.222   2.669
 3179SOL    HW210979   0.960   4.147   2.787
 3180SOL     OW10980   0.557   3.786   2.355
 3180SOL    HW110981   0.478   3.787   2.408
 3180SOL    HW210982   0.548   3.863   2.297
 3181SOL     OW10983   1.425   4.925   1.897
 3181SOL    HW110984   1.458   4.853   1.951
 3181SOL    HW210985   1.342   4.949   1.938
 3182SOL     OW10986   0.284   3.772   2.035
 3182SOL    HW110987   0.341   3.841   2.000
 3182SOL    HW210988   0.343   3.715   2.085
 3183SOL     OW10989   0.945   3.972   2.316
 3183SOL    HW110990   0.921   4.012   2.232
 3183SOL    HW210991   1.039   3.988   2.324
 3184SOL     OW10992   1.083   4.412   3.314
 3184SOL    HW110993   1.028   4.334   3.324
 3184SOL    HW210994   1.172   4.378   3.312
 3185SOL     OW10995   1.215   5.296   2.657
 3185SOL    HW110996   1.233   5.363   2.591
 3185SOL    HW210997   1.288   5.303   2.718
 3186SOL     OW10998   0.475   4.882   2.583
 3186SOL    HW110999   0.413   4.858   2.651
 3186SOL    HW211000   0.430   4.863   2.501
 3187SOL     OW11001   1.261   5.515   2.475
 3187SOL    HW111002   1.311   5.578   2.424
 3187SOL    HW211003   1.194   5.567   2.519
 3188SOL     OW11004   1.027   4.251   1.889
 3188SOL    HW111005   0.985   4.334   1.872
 3188SOL    HW211006   1.091   4.270   1.958
 3189SOL     OW11007   0.090   4.332   3.237
 3189SOL    HW111008   0.181   4.308   3.216
 3189SOL    HW211009   0.097   4.385   3.316
 3190SOL     OW11010   0.559   3.947   3.038
 3190SOL    HW111011   0.604   3.880   3.090
 3190SOL    HW211012   0.468   3.942   3.066
 3191SOL     OW11013   0.863   4.177   2.500
 3191SOL    HW111014   0.824   4.234   2.434
 3191SOL    HW211015   0.890   4.099   2.451
 3192SOL     OW11016   1.018   3.781   2.609
 3192SOL    HW111017   0.960   3.773   2.534
 3192SOL    HW211018   0.996   3.707   2.666
 3193SOL     OW11019   1.435   4.882   2.721
 3193SOL    HW111020   1.374   4.808   2.730
 3193SOL    HW211021   1.454   4.885   2.627
 3194SOL     OW11022   1.467   4.336   2.824
 3194SOL    HW111023   1.408   4.262   2.833
 3194SOL    HW211024   1.526   4.329   2.899
 3195SOL     OW11025   1.831   4.530   2.242
 3195SOL    HW111026   1.889   4.487   2.305
 3195SOL    HW211027   1.816   4.463   2.175
 3196SOL     OW11028   0.490   5.144   2.007
 3196SOL    HW111029   0.409   5.115   2.049
 3196SOL    HW211030   0.495   5.093   1.926
 3197SOL     OW11031   1.691   4.989   2.499
 3197SOL    HW111032   1.785   4.984   2.519
 3197SOL    HW211033   1.666   5.077   2.527
 3198SOL     OW11034   1.392   4.299   1.932
 3198SOL    HW111035   1.333   4.275   2.004
 3198SOL    HW211036   1.479   4.276   1.964
 3199SOL     OW11037   0.526   3.982   2.167
 3199SOL    HW111038   0.579   3.937   2.101
 3199SOL    HW211039   0.501   4.064   2.125
 3200SOL     OW11040   1.743   4.975   3.413
 3200SOL    HW111041   1.829   4.935   3.405
 3200SOL    HW211042   1.759   5.063   3.448
 3201SOL     OW11043   1.053   5.075   3.190
 3201SOL    HW111044   0.977   5.044   3.240
 3201SOL    HW211045   1.128   5.032   3.233
 3202SOL     OW11046   1.601   5.357   3.519
 3202SOL    HW111047   1.598   5.392   3.430
 3202SOL    HW211048   1.682   5.306   3.522
 3203SOL     OW11049   1.130   4.932   2.961
 3203SOL    HW111050   1.079   4.978   3.028
 3203SOL    HW211051   1.106   4.975   2.879
 3204SOL     OW11052   1.616   4.819   2.939
 3204SOL    HW111053   1.611   4.879   3.013
 3204SOL    HW211054   1.542   4.843   2.883
 3205SOL     OW11055   0.921   3.813   3.250
 3205SOL    HW111056   0.944   3.796   3.159
 3205SOL    HW211057   0.999   3.853   3.288
 3206SOL     OW11058   0.980   4.843   3.580
 3206SOL    HW111059   0.889   4.857   3.606
 3206SOL    HW211060   0.978   4.762   3.529
 3207SOL     OW11061   0.711   4.786   2.236
 3207SOL    HW111062   0.699   4.766   2.329
 3207SOL    HW211063   0.785   4.732   2.209
 3208SOL     OW11064   0.425   4.540   3.116
 3208SOL    HW111065   0.491   4.556   3.184
 3208SOL    HW211066   0.398   4.450   3.130
 3209SOL     OW11067   1.263   4.099   3.147
 3209SOL    HW111068   1.296   4.176   3.193
 3209SOL    HW211069   1.172   4.121   3.126
 3210SOL     OW11070   0.047   5.318   3.191
 3210SOL    HW111071   0.094   5.402   3.183
 3210SOL    HW211072   0.085   5.277   3.268
 3211SOL     OW11073   0.329   4.831   2.350
 3211SOL    HW111074   0.341   4.906   2.291
 3211SOL    HW211075   0.334   4.754   2.293
 3212SOL     OW11076   0.546   4.248   2.718
 3212SOL    HW111077   0.561   4.309   2.645
 3212SOL    HW211078   0.611   4.273   2.783
 3213SOL     OW11079   1.247   5.077   2.251
 3213SOL    HW111080   1.303   5.146   2.287
 3213SOL    HW211081   1.160   5.096   2.287
 3214SOL     OW11082   1.295   5.188   3.016
 3214SOL    HW111083   1.355   5.200   3.089
 3214SOL    HW211084   1.242   5.113   3.041
 3215SOL     OW11085   1.576   4.347   2.346
 3215SOL    HW111086   1.526   4.387   2.417
 3215SOL    HW211087   1.633   4.417   2.315
 3216SOL     OW11088   0.349   5.257   3.175
 3216SOL    HW111089   0.333   5.209   3.093
 3216SOL    HW211090   0.444   5.266   3.179
 3217SOL     OW11091   0.415   4.455   3.472
 3217SOL    HW111092   0.470   4.505   3.412
 3217SOL    HW211093   0.473   4.386   3.505
 3218SOL     OW11094   1.604   4.503   3.557
 3218SOL    HW111095   1.518   4.547   3.553
 3218SOL    HW211096   1.655   4.546   3.488
 3219SOL     OW11097   0.993   3.864   3.615
 3219SOL    HW111098   1.051   3.937   3.597
 3219SOL    HW211099   1.042   3.786   3.587
 3220SOL     OW11100   0.504   3.755   3.614
 3220SOL    HW111101   0.456   3.705   3.547
 3220SOL    HW211102   0.452   3.834   3.628
 3221SOL     OW11103   0.586   4.602   2.894
 3221SOL    HW111104   0.628   4.688   2.899
 3221SOL    HW211105   0.535   4.596   2.975
 3222SOL     OW11106   1.337   4.586   2.867
 3222SOL    HW111107   1.249   4.559   2.842
 3222SOL    HW211108   1.389   4.506   2.862
 3223SOL     OW11109   1.194   4.249   2.120
 3223SOL    HW111110   1.206   4.172   2.176
 3223SOL    HW211111   1.155   4.314   2.178
 3224SOL     OW11112   0.295   3.914   3.110
 3224SOL    HW111113   0.258   3.945   3.193
 3224SOL    HW211114   0.281   3.819   3.112
 3225SOL     OW11115   0.050   5.029   3.130
 3225SOL    HW111116   0.073   4.977   3.208
 3225SOL    HW211117   0.053   5.120   3.160
 3226SOL     OW11118   0.714   4.348   2.909
 3226SOL    HW111119   0.795   4.336   2.859
 3226SOL    HW211120   0.691   4.440   2.895
 3227SOL     OW11121   1.738   4.688   3.722
 3227SOL    HW111122   1.695   4.617   3.675
 3227SOL    HW211123   1.681   4.705   3.797
 3228SOL     OW11124   0.311   3.792   2.478
 3228SOL    HW111125   0.286   3.881   2.501
 3228SOL    HW211126   0.320   3.747   2.563
 3229SOL     OW11127   1.626   4.113   2.212
 3229SOL    HW111128   1.652   4.045   2.274
 3229SOL    HW211129   1.600   4.187   2.267
 3230SOL     OW11130   1.028   4.481   2.819
 3230SOL    HW111131   1.016   4.498   2.913
 3230SOL    HW211132   1.002   4.390   2.808
 3231SOL     OW11133   0.975   5.286   3.589
 3231SOL    HW111134   0.962   5.331   3.505
 3231SOL    HW211135   1.022   5.206   3.566
 3232SOL     OW11136   1.843   5.231   3.466
 3232SOL    HW111137   1.874   5.255   3.378
 3232SOL    HW211138   1.920   5.239   3.522
 3233SOL     OW11139   0.345   4.660   3.660
 3233SOL    HW111140   0.425   4.686   3.704
 3233SOL    HW211141   0.371   4.585   3.606
 3234SOL     OW11142   1.526   3.996   1.984
 3234SOL    HW111143   1.467   3.928   2.017
 3234SOL    HW211144   1.562   4.037   2.062
 3235SOL     OW11145   1.277   4.545   1.884
 3235SOL    HW111146   1.322   4.460   1.893
 3235SOL    HW211147   1.314   4.583   1.805
 3236SOL     OW11148   1.069   5.066   2.720
 3236SOL    HW111149   1.079   4.994   2.657
 3236SOL    HW211150   1.126   5.135   2.686
 3237SOL     OW11151   0.320   4.531   2.803
 3237SOL    HW111152   0.413   4.552   2.808
 3237SOL    HW211153   0.314   4.442   2.839
 3238SOL     OW11154   0.330   4.245   2.876
 3238SOL    HW111155   0.296   4.157   2.861
 3238SOL    HW211156   0.406   4.252   2.819
 3239SOL     OW11157   1.134   4.095   3.551
 3239SOL    HW111158   1.090   4.150   3.616
 3239SOL    HW211159   1.222   4.132   3.545
 3240SOL     OW11160   1.159   3.921   3.336
 3240SOL    HW111161   1.150   3.983   3.408
 3240SOL    HW211162   1.207   3.969   3.269
 3241SOL     OW11163   7.979   5.025   2.060
 3241SOL    HW111164   7.890   5.045   2.089
 3241SOL    HW211165   7.990   4.931   2.076
 3242SOL     OW11166   0.098   5.468   2.794
 3242SOL    HW111167   0.115   5.385   2.749
 3242SOL    HW211168   0.176   5.521   2.775
 3243SOL     OW11169   0.487   5.299   2.763
 3243SOL    HW111170   0.556   5.361   2.788
 3243SOL    HW211171   0.531   5.236   2.706
 3244SOL     OW11172   0.962   4.507   3.084
 3244SOL    HW111173   1.029   4.492   3.151
 3244SOL    HW211174   0.882   4.469   3.121
 3245SOL     OW11175   0.071   4.277   2.973
 3245SOL    HW111176   0.165   4.270   2.954
 3245SOL    HW211177   0.067   4.294   3.067
 3246SOL     OW11178   0.195   4.211   3.514
 3246SOL    HW111179   0.285   4.223   3.483
 3246SOL    HW211180   0.173   4.295   3.556
 3247SOL     OW11181   1.377   4.656   3.516
 3247SOL    HW111182   1.404   4.748   3.513
 3247SOL    HW211183   1.380   4.627   3.425
 3248SOL     OW11184   0.816   4.290   2.232
 3248SOL    HW111185   0.826   4.217   2.171
 3248SOL    HW211186   0.741   4.340   2.198
 3249SOL     OW11187   1.645   4.321   3.031
 3249SOL    HW111188   1.639   4.269   3.111
 3249SOL    HW211189   1.735   4.309   3.001
 3250SOL     OW11190   0.288   5.257   3.581
 3250SOL    HW111191   0.251   5.330   3.631
 3250SOL    HW211192   0.283   5.182   3.641
 3251SOL     OW11193   0.717   4.166   3.110
 3251SOL    HW111194   0.659   4.093   3.085
 3251SOL    HW211195   0.706   4.230   3.040
 3252SOL     OW11196   0.907   5.404   3.343
 3252SOL    HW111197   0.889   5.363   3.258
 3252SOL    HW211198   0.911   5.497   3.323
 3253SOL     OW11199   0.448   4.206   2.027
 3253SOL    HW111200   0.504   4.281   2.047
 3253SOL    HW211201   0.367   4.223   2.074
 3254SOL     OW11202   0.151   4.843   3.318
 3254SOL    HW111203   0.128   4.798   3.399
 3254SOL    HW211204   0.158   4.772   3.253
 3255SOL     OW11205   1.314   4.763   3.075
 3255SOL    HW111206   1.336   4.702   3.005
 3255SOL    HW211207   1.248   4.821   3.037
 3256SOL     OW11208   1.318   4.586   2.159
 3256SOL    HW111209   1.250   4.551   2.217
 3256SOL    HW211210   1.286   4.567   2.070
 3257SOL     OW11211   1.766   5.463   3.008
 3257SOL    HW111212   1.834   5.485   2.945
 3257SOL    HW211213   1.747   5.371   2.993
 3258SOL     OW11214   1.238   5.455   2.953
 3258SOL    HW111215   1.323   5.483   2.920
 3258SOL    HW211216   1.251   5.364   2.981
 3259SOL     OW11217   0.064   4.914   2.889
 3259SOL    HW111218   0.066   4.953   2.976
 3259SOL    HW211219  -0.008   4.959   2.844
 3260SOL     OW11220   0.686   5.395   3.608
 3260SOL    HW111221   0.631   5.472   3.592
 3260SOL    HW211222   0.764   5.411   3.556
 3261SOL     OW11223   1.713   3.886   2.354
 3261SOL    HW111224   1.787   3.869   2.296
 3261SOL    HW211225   1.699   3.803   2.400
 3262SOL     OW11226   1.393   5.291   2.356
 3262SOL    HW111227   1.452   5.327   2.289
 3262SOL    HW211228   1.344   5.367   2.388
 3263SOL     OW11229   0.171   5.469   3.703
 3263SOL    HW111230   0.107   5.422   3.755
 3263SOL    HW211231   0.217   5.525   3.765
 3264SOL     OW11232   1.278   4.654   2.528
 3264SOL    HW111233   1.352   4.594   2.544
 3264SOL    HW211234   1.315   4.725   2.476
 3265SOL     OW11235   0.798   5.002   3.281
 3265SOL    HW111236   0.772   5.045   3.362
 3265SOL    HW211237   0.725   5.016   3.221
 3266SOL     OW11238   0.663   5.355   2.021
 3266SOL    HW111239   0.679   5.368   1.928
 3266SOL    HW211240   0.611   5.275   2.026
 3267SOL     OW11241   1.615   5.457   3.251
 3267SOL    HW111242   1.670   5.460   3.172
 3267SOL    HW211243   1.601   5.549   3.273
 3268SOL     OW11244   1.840   3.890   2.829
 3268SOL    HW111245   1.874   3.804   2.806
 3268SOL    HW211246   1.753   3.893   2.789
 3269SOL     OW11247   0.260   4.041   2.570
 3269SOL    HW111248   0.172   4.075   2.550
 3269SOL    HW211249   0.261   4.032   2.666
 3270SOL     OW11250   1.207   5.320   1.896
 3270SOL    HW111251   1.196   5.229   1.926
 3270SOL    HW211252   1.137   5.332   1.831
 3271SOL     OW11253   0.821   4.731   3.241
 3271SOL    HW111254   0.871   4.722   3.159
 3271SOL    HW211255   0.818   4.826   3.256
 3272SOL     OW11256   0.912   4.630   2.150
 3272SOL    HW111257   0.972   4.664   2.084
 3272SOL    HW211258   0.965   4.566   2.199
 3273SOL     OW11259   1.484   5.360   1.909
 3273SOL    HW111260   1.391   5.346   1.894
 3273SOL    HW211261   1.523   5.364   1.822
 3274SOL     OW11262   0.366   5.021   3.352
 3274SOL    HW111263   0.349   5.102   3.304
 3274SOL    HW211264   0.290   4.965   3.333
 3275SOL     OW11265   1.600   5.005   3.144
 3275SOL    HW111266   1.661   4.987   3.215
 3275SOL    HW211267   1.544   5.075   3.178
 3276SOL     OW11268   1.067   4.836   2.573
 3276SOL    HW111269   0.996   4.786   2.613
 3276SOL    HW211270   1.134   4.771   2.552
 3277SOL     OW11271   1.025   3.970   2.829
 3277SOL    HW111272   1.025   3.924   2.745
 3277SOL    HW211273   1.022   3.901   2.895
 3278SOL     OW11274   0.607   5.210   2.340
 3278SOL    HW111275   0.659   5.163   2.274
 3278SOL    HW211276   0.519   5.213   2.304
 3279SOL     OW11277   1.730   4.126   3.245
 3279SOL    HW111278   1.805   4.185   3.249
 3279SOL    HW211279   1.757   4.056   3.186
 3280SOL     OW11280   0.248   5.062   2.127
 3280SOL    HW111281   0.152   5.065   2.121
 3280SOL    HW211282   0.268   5.100   2.212
 3281SOL     OW11283   0.084   4.724   3.585
 3281SOL    HW111284   0.055   4.814   3.603
 3281SOL    HW211285   0.171   4.718   3.624
 3282SOL     OW11286   0.681   3.918   3.360
 3282SOL    HW111287   0.766   3.895   3.322
 3282SOL    HW211288   0.702   3.948   3.448
 3283SOL     OW11289   0.113   4.087   1.881
 3283SOL    HW111290   0.040   4.125   1.930
 3283SOL    HW211291   0.118   4.140   1.801
 3284SOL     OW11292   1.421   4.580   3.256
 3284SOL    HW111293   1.376   4.643   3.200
 3284SOL    HW211294   1.513   4.585   3.229
 3285SOL     OW11295   0.090   3.965   2.227
 3285SOL    HW111296   0.045   3.942   2.145
 3285SOL    HW211297   0.174   3.919   2.221
 3286SOL     OW11298   1.179   5.054   1.983
 3286SOL    HW111299   1.090   5.018   1.987
 3286SOL    HW211300   1.207   5.059   2.074
 3287SOL     OW11301   0.615   4.560   3.306
 3287SOL    HW111302   0.673   4.636   3.293
 3287SOL    HW211303   0.674   4.485   3.310
 3288SOL     OW11304   1.490   5.517   2.855
 3288SOL    HW111305   1.518   5.586   2.795
 3288SOL    HW211306   1.571   5.486   2.895
 3289SOL     OW11307   0.710   4.286   3.561
 3289SOL    HW111308   0.760   4.344   3.618
 3289SOL    HW211309   0.731   4.198   3.593
 3290SOL     OW11310   1.471   4.918   3.485
 3290SOL    HW111311   1.463   4.930   3.580
 3290SOL    HW211312   1.564   4.934   3.467
 3291SOL     OW11313   0.387   5.463   3.425
 3291SOL    HW111314   0.298   5.491   3.405
 3291SOL    HW211315   0.376   5.376   3.464
 3292SOL     OW11316   1.661   4.601   3.110
 3292SOL    HW111317   1.663   4.516   3.066
 3292SOL    HW211318   1.653   4.664   3.040
 3293SOL     OW11319   1.216   4.043   2.316
 3293SOL    HW111320   1.278   3.970   2.313
 3293SOL    HW211321   1.242   4.094   2.393
 3294SOL     OW11322   0.593   4.456   2.540
 3294SOL    HW111323   0.634   4.542   2.530
 3294SOL    HW211324   0.530   4.451   2.468
 3295SOL     OW11325   1.757   4.084   3.520
 3295SOL    HW111326   1.747   4.105   3.427
 3295SOL    HW211327   1.681   4.030   3.541
 3296SOL     OW11328   1.718   4.657   3.371
 3296SOL    HW111329   1.749   4.747   3.384
 3296SOL    HW211330   1.718   4.646   3.276
 3297SOL     OW11331   0.856   5.086   1.909
 3297SOL    HW111332   0.826   5.105   1.998
 3297SOL    HW211333   0.874   5.172   1.871
 3298SOL     OW11334   0.666   5.500   2.790
 3298SOL    HW111335   0.651   5.594   2.779
 3298SOL    HW211336   0.761   5.491   2.791
 3299SOL     OW11337   0.873   4.697   2.715
 3299SOL    HW111338   0.923   4.624   2.751
 3299SOL    HW211339   0.831   4.737   2.790
 3300SOL     OW11340   1.068   4.708   1.946
 3300SOL    HW111341   1.053   4.764   1.869
 3300SOL    HW211342   1.144   4.654   1.921
 3301SOL     OW11343   1.849   5.271   2.698
 3301SOL    HW111344   1.762   5.259   2.660
 3301SOL    HW211345   1.855   5.204   2.766
 3302SOL     OW11346   0.216   5.021   3.718
 3302SOL    HW111347   0.122   5.011   3.701
 3302SOL    HW211348   0.223   5.025   3.813
 3303SOL     OW11349   0.134   4.985   2.513
 3303SOL    HW111350   0.060   4.938   2.552
 3303SOL    HW211351   0.198   4.916   2.493
 3304SOL     OW11352   0.679   5.135   3.489
 3304SOL    HW111353   0.600   5.096   3.527
 3304SOL    HW211354   0.686   5.221   3.531
 3305SOL     OW11355   1.795   3.910   3.099
 3305SOL    HW111356   1.850   3.838   3.129
 3305SOL    HW211357   1.809   3.913   3.004
 3306SOL     OW11358   0.434   4.158   2.383
 3306SOL    HW111359   0.470   4.085   2.333
 3306SOL    HW211360   0.385   4.117   2.454
 3307SOL     OW11361   1.696   5.207   2.953
 3307SOL    HW111362   1.617   5.182   2.907
 3307SOL    HW211363   1.711   5.138   3.017
 3308SOL     OW11364   0.347   4.280   3.159
 3308SOL    HW111365   0.393   4.221   3.219
 3308SOL    HW211366   0.367   4.245   3.072
 3309SOL     OW11367   0.836   5.303   2.537
 3309SOL    HW111368   0.806   5.369   2.474
 3309SOL    HW211369   0.762   5.243   2.546
 3310SOL     OW11370   1.433   3.961   2.981
 3310SOL    HW111371   1.481   3.895   3.032
 3310SOL    HW211372   1.380   4.007   3.046
 3311SOL     OW11373   1.011   3.739   2.991
 3311SOL    HW111374   0.959   3.675   2.943
 3311SOL    HW211375   1.099   3.703   2.992
 3312SOL     OW11376   0.779   5.057   2.183
 3312SOL    HW111377   0.756   4.965   2.197
 3312SOL    HW211378   0.858   5.070   2.235
 3313SOL     OW11379   0.621   5.285   3.145
 3313SOL    HW111380   0.618   5.371   3.187
 3313SOL    HW211381   0.711   5.277   3.114
 3314SOL     OW11382   1.367   3.772   2.041
 3314SOL    HW111383   1.405   3.696   1.997
 3314SOL    HW211384   1.276   3.748   2.057
 3315SOL     OW11385   1.287   4.188   2.537
 3315SOL    HW111386   1.239   4.271   2.542
 3315SOL    HW211387   1.288   4.155   2.627
 3316SOL     OW11388   1.578   3.910   2.746
 3316SOL    HW111389   1.527   3.939   2.822
 3316SOL    HW211390   1.582   3.987   2.690
 3317SOL     OW11391   0.042   4.759   2.139
 3317SOL    HW111392   0.134   4.741   2.121
 3317SOL    HW211393   0.038   4.770   2.234
 3318SOL     OW11394   0.893   5.391   2.195
 3318SOL    HW111395   0.814   5.375   2.144
 3318SOL    HW211396   0.867   5.460   2.257
 3319SOL     OW11397   0.192   4.375   3.759
 3319SOL    HW111398   0.132   4.402   3.829
 3319SOL    HW211399   0.253   4.314   3.802
 3320SOL     OW11400   0.237   3.994   4.711
 3320SOL    HW111401   0.268   3.965   4.797
 3320SOL    HW211402   0.151   3.953   4.702
 3321SOL     OW11403   8.007   4.113   4.330
 3321SOL    HW111404   7.918   4.102   4.363
 3321SOL    HW211405   8.012   4.057   4.253
 3322SOL     OW11406   0.571   5.027   4.917
 3322SOL    HW111407   0.485   5.034   4.877
 3322SOL    HW211408   0.591   5.115   4.948
 3323SOL     OW11409   1.583   5.237   4.432
 3323SOL    HW111410   1.537   5.215   4.513
 3323SOL    HW211411   1.514   5.239   4.366
 3324SOL     OW11412   1.129   4.430   4.416
 3324SOL    HW111413   1.182   4.509   4.404
 3324SOL    HW211414   1.085   4.443   4.500
 3325SOL     OW11415   1.778   4.316   3.945
 3325SOL    HW111416   1.746   4.311   3.855
 3325SOL    HW211417   1.745   4.236   3.987
 3326SOL     OW11418   0.729   4.855   4.769
 3326SOL    HW111419   0.669   4.896   4.832
 3326SOL    HW211420   0.776   4.928   4.729
 3327SOL     OW11421   0.877   4.484   5.547
 3327SOL    HW111422   0.899   4.551   5.611
 3327SOL    HW211423   0.896   4.525   5.462
 3328SOL     OW11424   0.687   4.719   4.370
 3328SOL    HW111425   0.757   4.713   4.435
 3328SOL    HW211426   0.622   4.777   4.409
 3329SOL     OW11427   0.708   4.873   5.543
 3329SOL    HW111428   0.757   4.949   5.574
 3329SOL    HW211429   0.632   4.910   5.499
 3330SOL     OW11430   0.340   5.137   4.791
 3330SOL    HW111431   0.283   5.087   4.733
 3330SOL    HW211432   0.389   5.195   4.732
 3331SOL     OW11433   1.460   5.229   5.090
 3331SOL    HW111434   1.519   5.305   5.095
 3331SOL    HW211435   1.401   5.241   5.164
 3332SOL     OW11436   0.450   4.117   5.220
 3332SOL    HW111437   0.529   4.063   5.222
 3332SOL    HW211438   0.378   4.055   5.226
 3333SOL     OW11439   1.601   4.147   4.470
 3333SOL    HW111440   1.541   4.182   4.403
 3333SOL    HW211441   1.614   4.220   4.530
 3334SOL     OW11442   0.235   5.419   4.206
 3334SOL    HW111443   0.233   5.503   4.252
 3334SOL    HW211444   0.302   5.431   4.139
 3335SOL     OW11445   1.138   5.067   5.420
 3335SOL    HW111446   1.191   5.054   5.498
 3335SOL    HW211447   1.087   4.986   5.412
 3336SOL     OW11448   0.294   5.154   4.232
 3336SOL    HW111449   0.272   5.247   4.243
 3336SOL    HW211450   0.241   5.109   4.298
 3337SOL     OW11451   0.274   4.806   4.616
 3337SOL    HW111452   0.279   4.714   4.642
 3337SOL    HW211453   0.198   4.840   4.664
 3338SOL     OW11454   0.591   5.535   5.124
 3338SOL    HW111455   0.520   5.507   5.182
 3338SOL    HW211456   0.625   5.614   5.165
 3339SOL     OW11457   0.570   4.721   3.871
 3339SOL    HW111458   0.623   4.759   3.801
 3339SOL    HW211459   0.615   4.747   3.952
 3340SOL     OW11460   1.574   3.859   5.174
 3340SOL    HW111461   1.644   3.912   5.136
 3340SOL    HW211462   1.561   3.895   5.262
 3341SOL     OW11463   0.123   4.360   4.266
 3341SOL    HW111464   0.091   4.276   4.299
 3341SOL    HW211465   0.118   4.419   4.342
 3342SOL     OW11466   1.842   5.474   4.058
 3342SOL    HW111467   1.914   5.450   4.115
 3342SOL    HW211468   1.859   5.565   4.034
 3343SOL     OW11469   0.017   5.308   3.862
 3343SOL    HW111470   0.000   5.214   3.850
 3343SOL    HW211471   0.007   5.322   3.956
 3344SOL     OW11472   1.692   4.632   4.379
 3344SOL    HW111473   1.781   4.599   4.392
 3344SOL    HW211474   1.693   4.672   4.292
 3345SOL     OW11475   1.655   4.829   4.153
 3345SOL    HW111476   1.741   4.823   4.113
 3345SOL    HW211477   1.667   4.886   4.229
 3346SOL     OW11478   0.152   4.500   5.296
 3346SOL    HW111479   0.247   4.507   5.285
 3346SOL    HW211480   0.128   4.579   5.344
 3347SOL     OW11481   0.618   5.120   4.459
 3347SOL    HW111482   0.575   5.034   4.466
 3347SOL    HW211483   0.604   5.146   4.368
 3348SOL     OW11484   1.283   4.958   5.143
 3348SOL    HW111485   1.313   4.890   5.082
 3348SOL    HW211486   1.345   4.954   5.215
 3349SOL     OW11487   0.823   3.728   4.238
 3349SOL    HW111488   0.865   3.810   4.214
 3349SOL    HW211489   0.730   3.748   4.241
 3350SOL     OW11490   0.165   4.630   4.988
 3350SOL    HW111491   0.258   4.610   4.990
 3350SOL    HW211492   0.143   4.633   4.895
 3351SOL     OW11493   1.528   4.732   3.926
 3351SOL    HW111494   1.461   4.673   3.962
 3351SOL    HW211495   1.577   4.762   4.003
 3352SOL     OW11496   1.163   5.537   5.348
 3352SOL    HW111497   1.184   5.599   5.278
 3352SOL    HW211498   1.191   5.452   5.314
 3353SOL     OW11499   0.357   3.977   5.557
 3353SOL    HW111500   0.414   4.054   5.564
 3353SOL    HW211501   0.270   4.009   5.582
 3354SOL     OW11502   1.453   5.150   4.659
 3354SOL    HW111503   1.398   5.163   4.736
 3354SOL    HW211504   1.446   5.057   4.639
 3355SOL     OW11505   1.639   5.496   4.300
 3355SOL    HW111506   1.635   5.452   4.215
 3355SOL    HW211507   1.640   5.425   4.364
 3356SOL     OW11508   0.588   4.430   3.987
 3356SOL    HW111509   0.606   4.517   3.952
 3356SOL    HW211510   0.532   4.447   4.063
 3357SOL     OW11511   1.286   4.093   4.666
 3357SOL    HW111512   1.198   4.057   4.676
 3357SOL    HW211513   1.341   4.039   4.723
 3358SOL     OW11514   1.577   5.398   4.034
 3358SOL    HW111515   1.670   5.417   4.030
 3358SOL    HW211516   1.552   5.379   3.944
 3359SOL     OW11517   0.776   4.345   5.169
 3359SOL    HW111518   0.757   4.316   5.257
 3359SOL    HW211519   0.752   4.271   5.113
 3360SOL     OW11520   1.388   4.193   5.400
 3360SOL    HW111521   1.398   4.241   5.482
 3360SOL    HW211522   1.448   4.118   5.409
 3361SOL     OW11523   0.946   4.605   5.310
 3361SOL    HW111524   1.004   4.540   5.270
 3361SOL    HW211525   0.902   4.646   5.235
 3362SOL     OW11526   0.994   4.134   4.952
 3362SOL    HW111527   0.903   4.147   4.978
 3362SOL    HW211528   0.989   4.094   4.866
 3363SOL     OW11529   1.054   4.422   4.147
 3363SOL    HW111530   1.076   4.421   4.240
 3363SOL    HW211531   0.971   4.375   4.141
 3364SOL     OW11532   0.102   4.514   4.493
 3364SOL    HW111533   0.182   4.522   4.546
 3364SOL    HW211534   0.053   4.594   4.513
 3365SOL     OW11535   0.124   5.539   5.289
 3365SOL    HW111536   0.130   5.531   5.384
 3365SOL    HW211537   0.033   5.519   5.268
 3366SOL     OW11538   0.902   4.071   3.918
 3366SOL    HW111539   0.940   4.138   3.860
 3366SOL    HW211540   0.934   3.988   3.882
 3367SOL     OW11541   1.673   4.290   5.564
 3367SOL    HW111542   1.653   4.367   5.510
 3367SOL    HW211543   1.715   4.229   5.504
 3368SOL     OW11544   1.385   4.861   4.253
 3368SOL    HW111545   1.470   4.852   4.210
 3368SOL    HW211546   1.339   4.927   4.201
 3369SOL     OW11547   0.553   3.897   4.624
 3369SOL    HW111548   0.560   3.924   4.716
 3369SOL    HW211549   0.559   3.979   4.575
 3370SOL     OW11550   0.995   5.167   4.189
 3370SOL    HW111551   0.970   5.246   4.142
 3370SOL    HW211552   0.978   5.188   4.281
 3371SOL     OW11553   0.360   5.550   4.588
 3371SOL    HW111554   0.405   5.466   4.600
 3371SOL    HW211555   0.426   5.616   4.609
 3372SOL     OW11556   1.796   4.784   4.611
 3372SOL    HW111557   1.744   4.770   4.532
 3372SOL    HW211558   1.732   4.786   4.682
 3373SOL     OW11559   1.220   5.269   5.243
 3373SOL    HW111560   1.211   5.196   5.305
 3373SOL    HW211561   1.171   5.240   5.165
 3374SOL     OW11562   0.309   4.683   3.966
 3374SOL    HW111563   0.396   4.711   3.938
 3374SOL    HW211564   0.290   4.606   3.913
 3375SOL     OW11565   1.480   4.476   4.445
 3375SOL    HW111566   1.484   4.438   4.533
 3375SOL    HW211567   1.559   4.530   4.439
 3376SOL     OW11568   0.460   4.987   5.464
 3376SOL    HW111569   0.438   4.993   5.371
 3376SOL    HW211570   0.375   4.984   5.508
 3377SOL     OW11571   1.125   5.509   3.942
 3377SOL    HW111572   1.052   5.469   3.990
 3377SOL    HW211573   1.151   5.442   3.878
 3378SOL     OW11574   0.197   3.994   5.215
 3378SOL    HW111575   0.129   4.061   5.219
 3378SOL    HW211576   0.163   3.923   5.269
 3379SOL     OW11577   1.618   5.108   3.813
 3379SOL    HW111578   1.577   5.193   3.798
 3379SOL    HW211579   1.551   5.044   3.788
 3380SOL     OW11580   0.455   5.470   4.036
 3380SOL    HW111581   0.504   5.519   4.103
 3380SOL    HW211582   0.523   5.428   3.984
 3381SOL     OW11583   1.404   3.832   4.174
 3381SOL    HW111584   1.398   3.806   4.082
 3381SOL    HW211585   1.497   3.850   4.188
 3382SOL     OW11586   0.240   5.510   4.951
 3382SOL    HW111587   0.291   5.438   4.988
 3382SOL    HW211588   0.212   5.479   4.865
 3383SOL     OW11589   0.946   5.424   4.620
 3383SOL    HW111590   1.030   5.383   4.638
 3383SOL    HW211591   0.908   5.372   4.549
 3384SOL     OW11592   0.405   4.424   4.198
 3384SOL    HW111593   0.418   4.330   4.211
 3384SOL    HW211594   0.313   4.439   4.219
 3385SOL     OW11595   1.523   3.945   5.444
 3385SOL    HW111596   1.531   3.972   5.536
 3385SOL    HW211597   1.475   3.862   5.447
 3386SOL     OW11598   0.646   3.837   3.831
 3386SOL    HW111599   0.713   3.771   3.848
 3386SOL    HW211600   0.597   3.804   3.756
 3387SOL     OW11601   0.760   4.004   5.481
 3387SOL    HW111602   0.844   3.959   5.473
 3387SOL    HW211603   0.725   3.975   5.565
 3388SOL     OW11604   0.874   5.244   4.921
 3388SOL    HW111605   0.859   5.205   4.835
 3388SOL    HW211606   0.946   5.193   4.959
 3389SOL     OW11607   1.337   4.315   5.157
 3389SOL    HW111608   1.371   4.281   5.240
 3389SOL    HW211609   1.380   4.400   5.147
 3390SOL     OW11610   0.819   5.105   4.676
 3390SOL    HW111611   0.906   5.096   4.636
 3390SOL    HW211612   0.760   5.118   4.602
 3391SOL     OW11613   0.925   4.230   4.624
 3391SOL    HW111614   0.900   4.220   4.532
 3391SOL    HW211615   0.962   4.144   4.647
 3392SOL     OW11616   0.555   3.787   4.216
 3392SOL    HW111617   0.476   3.789   4.270
 3392SOL    HW211618   0.547   3.864   4.160
 3393SOL     OW11619   1.423   4.922   3.757
 3393SOL    HW111620   1.459   4.852   3.811
 3393SOL    HW211621   1.342   4.947   3.801
 3394SOL     OW11622   0.282   3.773   3.897
 3394SOL    HW111623   0.340   3.839   3.858
 3394SOL    HW211624   0.342   3.716   3.946
 3395SOL     OW11625   0.943   3.972   4.177
 3395SOL    HW111626   0.920   4.011   4.093
 3395SOL    HW211627   1.037   3.986   4.185
 3396SOL     OW11628   1.083   4.409   5.178
 3396SOL    HW111629   1.032   4.328   5.185
 3396SOL    HW211630   1.174   4.379   5.174
 3397SOL     OW11631   1.211   5.299   4.522
 3397SOL    HW111632   1.232   5.364   4.454
 3397SOL    HW211633   1.290   5.293   4.575
 3398SOL     OW11634   0.475   4.881   4.448
 3398SOL    HW111635   0.413   4.858   4.517
 3398SOL    HW211636   0.429   4.861   4.366
 3399SOL     OW11637   1.262   5.515   4.337
 3399SOL    HW111638   1.314   5.576   4.285
 3399SOL    HW211639   1.199   5.570   4.383
 3400SOL     OW11640   1.026   4.252   3.753
 3400SOL    HW111641   0.987   4.338   3.735
 3400SOL    HW211642   1.093   4.271   3.819
 3401SOL     OW11643   0.105   4.303   5.112
 3401SOL    HW111644   0.195   4.292   5.084
 3401SOL    HW211645   0.107   4.376   5.174
 3402SOL     OW11646   0.564   3.944   4.897
 3402SOL    HW111647   0.609   3.875   4.947
 3402SOL    HW211648   0.473   3.937   4.925
 3403SOL     OW11649   0.859   4.175   4.362
 3403SOL    HW111650   0.825   4.233   4.295
 3403SOL    HW211651   0.890   4.097   4.314
 3404SOL     OW11652   1.019   3.782   4.472
 3404SOL    HW111653   0.963   3.774   4.395
 3404SOL    HW211654   0.996   3.706   4.527
 3405SOL     OW11655   1.442   4.886   4.582
 3405SOL    HW111656   1.379   4.814   4.575
 3405SOL    HW211657   1.482   4.891   4.494
 3406SOL     OW11658   1.466   4.338   4.691
 3406SOL    HW111659   1.412   4.260   4.697
 3406SOL    HW211660   1.528   4.330   4.764
 3407SOL     OW11661   1.820   4.533   4.105
 3407SOL    HW111662   1.881   4.492   4.167
 3407SOL    HW211663   1.807   4.468   4.036
 3408SOL     OW11664   0.490   5.145   3.870
 3408SOL    HW111665   0.408   5.115   3.911
 3408SOL    HW211666   0.499   5.090   3.793
 3409SOL     OW11667   1.690   4.979   4.375
 3409SOL    HW111668   1.784   4.972   4.388
 3409SOL    HW211669   1.670   5.071   4.391
 3410SOL     OW11670   1.393   4.303   3.790
 3410SOL    HW111671   1.343   4.273   3.866
 3410SOL    HW211672   1.484   4.282   3.812
 3411SOL     OW11673   0.524   3.985   4.030
 3411SOL    HW111674   0.576   3.937   3.965
 3411SOL    HW211675   0.501   4.067   3.986
 3412SOL     OW11676   1.744   4.977   5.285
 3412SOL    HW111677   1.830   4.937   5.270
 3412SOL    HW211678   1.764   5.066   5.315
 3413SOL     OW11679   1.054   5.075   5.054
 3413SOL    HW111680   0.978   5.045   5.104
 3413SOL    HW211681   1.129   5.032   5.096
 3414SOL     OW11682   1.601   5.357   5.380
 3414SOL    HW111683   1.597   5.392   5.292
 3414SOL    HW211684   1.683   5.307   5.383
 3415SOL     OW11685   1.126   4.932   4.824
 3415SOL    HW111686   1.078   4.982   4.890
 3415SOL    HW211687   1.105   4.975   4.741
 3416SOL     OW11688   1.606   4.811   4.803
 3416SOL    HW111689   1.599   4.874   4.875
 3416SOL    HW211690   1.537   4.838   4.742
 3417SOL     OW11691   0.916   3.817   5.113
 3417SOL    HW111692   0.938   3.798   5.021
 3417SOL    HW211693   0.996   3.855   5.149
 3418SOL     OW11694   0.980   4.842   5.442
 3418SOL    HW111695   0.889   4.856   5.466
 3418SOL    HW211696   0.979   4.761   5.390
 3419SOL     OW11697   0.711   4.785   4.100
 3419SOL    HW111698   0.700   4.765   4.193
 3419SOL    HW211699   0.785   4.731   4.072
 3420SOL     OW11700   0.425   4.547   4.981
 3420SOL    HW111701   0.494   4.563   5.045
 3420SOL    HW211702   0.403   4.454   4.992
 3421SOL     OW11703   1.263   4.097   5.005
 3421SOL    HW111704   1.298   4.173   5.051
 3421SOL    HW211705   1.173   4.120   4.985
 3422SOL     OW11706   0.048   5.318   5.051
 3422SOL    HW111707   0.097   5.399   5.037
 3422SOL    HW211708   0.088   5.279   5.128
 3423SOL     OW11709   0.329   4.833   4.216
 3423SOL    HW111710   0.345   4.911   4.163
 3423SOL    HW211711   0.334   4.761   4.153
 3424SOL     OW11712   0.547   4.249   4.579
 3424SOL    HW111713   0.561   4.310   4.507
 3424SOL    HW211714   0.613   4.273   4.644
 3425SOL     OW11715   1.248   5.077   4.112
 3425SOL    HW111716   1.304   5.146   4.148
 3425SOL    HW211717   1.161   5.096   4.150
 3426SOL     OW11718   1.297   5.187   4.879
 3426SOL    HW111719   1.358   5.200   4.952
 3426SOL    HW211720   1.247   5.109   4.904
 3427SOL     OW11721   1.581   4.336   4.219
 3427SOL    HW111722   1.532   4.389   4.281
 3427SOL    HW211723   1.642   4.397   4.177
 3428SOL     OW11724   0.349   5.257   5.036
 3428SOL    HW111725   0.333   5.209   4.955
 3428SOL    HW211726   0.444   5.267   5.039
 3429SOL     OW11727   0.433   4.465   5.331
 3429SOL    HW111728   0.490   4.519   5.275
 3429SOL    HW211729   0.484   4.386   5.349
 3430SOL     OW11730   1.602   4.506   5.419
 3430SOL    HW111731   1.517   4.550   5.413
 3430SOL    HW211732   1.654   4.547   5.350
 3431SOL     OW11733   0.992   3.864   5.475
 3431SOL    HW111734   1.052   3.936   5.458
 3431SOL    HW211735   1.040   3.786   5.447
 3432SOL     OW11736   0.501   3.754   5.476
 3432SOL    HW111737   0.457   3.703   5.409
 3432SOL    HW211738   0.448   3.832   5.486
 3433SOL     OW11739   0.586   4.603   4.756
 3433SOL    HW111740   0.630   4.689   4.757
 3433SOL    HW211741   0.535   4.602   4.836
 3434SOL     OW11742   1.338   4.585   4.734
 3434SOL    HW111743   1.253   4.560   4.698
 3434SOL    HW211744   1.391   4.506   4.728
 3435SOL     OW11745   1.194   4.246   3.983
 3435SOL    HW111746   1.208   4.169   4.039
 3435SOL    HW211747   1.157   4.312   4.042
 3436SOL     OW11748   0.302   3.911   4.970
 3436SOL    HW111749   0.267   3.945   5.053
 3436SOL    HW211750   0.285   3.817   4.973
 3437SOL     OW11751   0.050   5.033   4.992
 3437SOL    HW111752   0.074   4.982   5.069
 3437SOL    HW211753   0.053   5.124   5.020
 3438SOL     OW11754   0.713   4.348   4.771
 3438SOL    HW111755   0.795   4.335   4.723
 3438SOL    HW211756   0.692   4.440   4.757
 3439SOL     OW11757   1.740   4.685   5.586
 3439SOL    HW111758   1.696   4.617   5.536
 3439SOL    HW211759   1.681   4.702   5.660
 3440SOL     OW11760   0.308   3.790   4.342
 3440SOL    HW111761   0.285   3.880   4.364
 3440SOL    HW211762   0.320   3.747   4.426
 3441SOL     OW11763   1.615   4.103   4.077
 3441SOL    HW111764   1.650   4.038   4.137
 3441SOL    HW211765   1.595   4.179   4.133
 3442SOL     OW11766   1.024   4.481   4.679
 3442SOL    HW111767   1.015   4.497   4.773
 3442SOL    HW211768   1.000   4.389   4.668
 3443SOL     OW11769   0.974   5.282   5.452
 3443SOL    HW111770   0.960   5.329   5.369
 3443SOL    HW211771   1.024   5.205   5.427
 3444SOL     OW11772   1.844   5.235   5.327
 3444SOL    HW111773   1.875   5.255   5.238
 3444SOL    HW211774   1.922   5.242   5.382
 3445SOL     OW11775   0.353   4.553   5.586
 3445SOL    HW111776   0.426   4.607   5.615
 3445SOL    HW211777   0.376   4.526   5.497
 3446SOL     OW11778   1.514   3.997   3.845
 3446SOL    HW111779   1.459   3.927   3.879
 3446SOL    HW211780   1.554   4.036   3.923
 3447SOL     OW11781   1.275   4.546   3.746
 3447SOL    HW111782   1.321   4.463   3.754
 3447SOL    HW211783   1.312   4.587   3.668
 3448SOL     OW11784   1.068   5.066   4.583
 3448SOL    HW111785   1.079   4.994   4.520
 3448SOL    HW211786   1.125   5.136   4.550
 3449SOL     OW11787   0.322   4.530   4.664
 3449SOL    HW111788   0.415   4.553   4.667
 3449SOL    HW211789   0.319   4.441   4.700
 3450SOL     OW11790   0.333   4.245   4.740
 3450SOL    HW111791   0.297   4.158   4.725
 3450SOL    HW211792   0.409   4.251   4.682
 3451SOL     OW11793   1.133   4.095   5.413
 3451SOL    HW111794   1.091   4.151   5.478
 3451SOL    HW211795   1.222   4.130   5.406
 3452SOL     OW11796   1.157   3.921   5.196
 3452SOL    HW111797   1.150   3.983   5.269
 3452SOL    HW211798   1.207   3.968   5.129
 3453SOL     OW11799   7.977   5.023   3.922
 3453SOL    HW111800   7.890   5.046   3.955
 3453SOL    HW211801   7.984   4.929   3.936
 3454SOL     OW11802   0.105   5.470   4.663
 3454SOL    HW111803   0.114   5.388   4.613
 3454SOL    HW211804   0.182   5.521   4.640
 3455SOL     OW11805   0.488   5.300   4.626
 3455SOL    HW111806   0.557   5.361   4.651
 3455SOL    HW211807   0.532   5.237   4.568
 3456SOL     OW11808   0.964   4.505   4.946
 3456SOL    HW111809   1.033   4.492   5.011
 3456SOL    HW211810   0.886   4.467   4.985
 3457SOL     OW11811   0.075   4.277   4.842
 3457SOL    HW111812   0.168   4.273   4.821
 3457SOL    HW211813   0.072   4.282   4.937
 3458SOL     OW11814   0.216   4.277   5.439
 3458SOL    HW111815   0.285   4.237   5.386
 3458SOL    HW211816   0.184   4.350   5.386
 3459SOL     OW11817   1.376   4.659   5.378
 3459SOL    HW111818   1.404   4.750   5.374
 3459SOL    HW211819   1.379   4.628   5.287
 3460SOL     OW11820   0.816   4.287   4.095
 3460SOL    HW111821   0.828   4.215   4.032
 3460SOL    HW211822   0.743   4.338   4.059
 3461SOL     OW11823   1.652   4.315   4.892
 3461SOL    HW111824   1.646   4.269   4.975
 3461SOL    HW211825   1.741   4.301   4.862
 3462SOL     OW11826   0.286   5.255   5.446
 3462SOL    HW111827   0.250   5.330   5.493
 3462SOL    HW211828   0.283   5.183   5.509
 3463SOL     OW11829   0.713   4.167   4.974
 3463SOL    HW111830   0.660   4.092   4.945
 3463SOL    HW211831   0.705   4.230   4.902
 3464SOL     OW11832   0.897   5.407   5.211
 3464SOL    HW111833   0.889   5.363   5.126
 3464SOL    HW211834   0.906   5.499   5.189
 3465SOL     OW11835   0.444   4.211   3.890
 3465SOL    HW111836   0.502   4.284   3.911
 3465SOL    HW211837   0.368   4.224   3.946
 3466SOL     OW11838   0.155   4.842   5.173
 3466SOL    HW111839   0.136   4.799   5.256
 3466SOL    HW211840   0.156   4.771   5.109
 3467SOL     OW11841   1.307   4.761   4.941
 3467SOL    HW111842   1.334   4.702   4.871
 3467SOL    HW211843   1.243   4.819   4.900
 3468SOL     OW11844   1.314   4.583   4.021
 3468SOL    HW111845   1.244   4.546   4.074
 3468SOL    HW211846   1.288   4.565   3.931
 3469SOL     OW11847   1.778   5.469   4.880
 3469SOL    HW111848   1.842   5.487   4.812
 3469SOL    HW211849   1.749   5.379   4.862
 3470SOL     OW11850   1.238   5.456   4.821
 3470SOL    HW111851   1.323   5.484   4.785
 3470SOL    HW211852   1.252   5.364   4.845
 3471SOL     OW11853   0.057   4.909   4.755
 3471SOL    HW111854   0.060   4.951   4.841
 3471SOL    HW211855  -0.012   4.956   4.708
 3472SOL     OW11856   0.687   5.395   5.469
 3472SOL    HW111857   0.632   5.471   5.452
 3472SOL    HW211858   0.763   5.408   5.413
 3473SOL     OW11859   1.719   3.885   4.216
 3473SOL    HW111860   1.792   3.876   4.155
 3473SOL    HW211861   1.722   3.806   4.269
 3474SOL     OW11862   1.394   5.291   4.217
 3474SOL    HW111863   1.454   5.326   4.151
 3474SOL    HW211864   1.347   5.368   4.249
 3475SOL     OW11865   0.171   5.469   5.565
 3475SOL    HW111866   0.107   5.421   5.617
 3475SOL    HW211867   0.217   5.525   5.627
 3476SOL     OW11868   1.280   4.656   4.394
 3476SOL    HW111869   1.353   4.597   4.409
 3476SOL    HW211870   1.315   4.725   4.337
 3477SOL     OW11871   0.799   5.003   5.144
 3477SOL    HW111872   0.771   5.045   5.226
 3477SOL    HW211873   0.729   5.021   5.082
 3478SOL     OW11874   0.663   5.356   3.883
 3478SOL    HW111875   0.681   5.369   3.790
 3478SOL    HW211876   0.611   5.276   3.887
 3479SOL     OW11877   1.615   5.456   5.114
 3479SOL    HW111878   1.673   5.459   5.038
 3479SOL    HW211879   1.599   5.548   5.134
 3480SOL     OW11880   1.840   3.897   4.691
 3480SOL    HW111881   1.914   3.841   4.665
 3480SOL    HW211882   1.844   3.970   4.630
 3481SOL     OW11883   0.260   4.040   4.434
 3481SOL    HW111884   0.172   4.075   4.415
 3481SOL    HW211885   0.261   4.031   4.529
 3482SOL     OW11886   1.204   5.320   3.758
 3482SOL    HW111887   1.196   5.229   3.787
 3482SOL    HW211888   1.135   5.331   3.692
 3483SOL     OW11889   0.828   4.735   5.099
 3483SOL    HW111890   0.878   4.727   5.017
 3483SOL    HW211891   0.824   4.829   5.115
 3484SOL     OW11892   0.911   4.627   4.015
 3484SOL    HW111893   0.968   4.661   3.946
 3484SOL    HW211894   0.965   4.565   4.063
 3485SOL     OW11895   1.482   5.364   3.769
 3485SOL    HW111896   1.389   5.348   3.752
 3485SOL    HW211897   1.522   5.367   3.683
 3486SOL     OW11898   0.366   5.022   5.214
 3486SOL    HW111899   0.352   5.103   5.165
 3486SOL    HW211900   0.291   4.966   5.190
 3487SOL     OW11901   1.590   4.998   5.003
 3487SOL    HW111902   1.667   4.989   5.059
 3487SOL    HW211903   1.541   5.071   5.040
 3488SOL     OW11904   1.066   4.838   4.435
 3488SOL    HW111905   0.996   4.785   4.474
 3488SOL    HW211906   1.135   4.775   4.414
 3489SOL     OW11907   1.027   3.969   4.691
 3489SOL    HW111908   1.028   3.923   4.607
 3489SOL    HW211909   1.020   3.900   4.756
 3490SOL     OW11910   0.608   5.209   4.203
 3490SOL    HW111911   0.662   5.162   4.139
 3490SOL    HW211912   0.524   5.220   4.160
 3491SOL     OW11913   1.730   4.127   5.111
 3491SOL    HW111914   1.807   4.184   5.116
 3491SOL    HW211915   1.757   4.056   5.052
 3492SOL     OW11916   0.245   5.062   3.987
 3492SOL    HW111917   0.150   5.066   3.982
 3492SOL    HW211918   0.267   5.099   4.072
 3493SOL     OW11919   0.106   4.730   5.434
 3493SOL    HW111920   0.056   4.811   5.446
 3493SOL    HW211921   0.172   4.732   5.503
 3494SOL     OW11922   0.678   3.920   5.225
 3494SOL    HW111923   0.762   3.897   5.184
 3494SOL    HW211924   0.702   3.950   5.313
 3495SOL     OW11925   0.114   4.079   3.741
 3495SOL    HW111926   0.042   4.120   3.791
 3495SOL    HW211927   0.126   4.136   3.665
 3496SOL     OW11928   1.419   4.580   5.119
 3496SOL    HW111929   1.373   4.642   5.063
 3496SOL    HW211930   1.510   4.584   5.089
 3497SOL     OW11931   0.094   3.962   4.092
 3497SOL    HW111932   0.049   3.941   4.010
 3497SOL    HW211933   0.178   3.917   4.086
 3498SOL     OW11934   1.180   5.054   3.846
 3498SOL    HW111935   1.093   5.015   3.852
 3498SOL    HW211936   1.210   5.061   3.937
 3499SOL     OW11937   0.624   4.567   5.162
 3499SOL    HW111938   0.683   4.640   5.147
 3499SOL    HW211939   0.680   4.490   5.166
 3500SOL     OW11940   1.487   5.520   4.718
 3500SOL    HW111941   1.519   5.586   4.656
 3500SOL    HW211942   1.567   5.477   4.750
 3501SOL     OW11943   0.707   4.287   5.428
 3501SOL    HW111944   0.760   4.347   5.481
 3501SOL    HW211945   0.735   4.199   5.457
 3502SOL     OW11946   1.473   4.919   5.347
 3502SOL    HW111947   1.467   4.931   5.442
 3502SOL    HW211948   1.566   4.935   5.327
 3503SOL     OW11949   0.386   5.462   5.289
 3503SOL    HW111950   0.297   5.491   5.269
 3503SOL    HW211951   0.375   5.375   5.327
 3504SOL     OW11952   1.657   4.597   4.974
 3504SOL    HW111953   1.665   4.514   4.927
 3504SOL    HW211954   1.648   4.663   4.905
 3505SOL     OW11955   1.212   4.039   4.179
 3505SOL    HW111956   1.278   3.969   4.176
 3505SOL    HW211957   1.236   4.090   4.256
 3506SOL     OW11958   0.589   4.456   4.403
 3506SOL    HW111959   0.633   4.541   4.394
 3506SOL    HW211960   0.529   4.453   4.329
 3507SOL     OW11961   1.750   4.091   5.391
 3507SOL    HW111962   1.748   4.108   5.297
 3507SOL    HW211963   1.678   4.030   5.406
 3508SOL     OW11964   1.721   4.656   5.234
 3508SOL    HW111965   1.758   4.744   5.245
 3508SOL    HW211966   1.718   4.643   5.139
 3509SOL     OW11967   0.847   5.088   3.768
 3509SOL    HW111968   0.825   5.112   3.857
 3509SOL    HW211969   0.876   5.170   3.727
 3510SOL     OW11970   0.668   5.500   4.655
 3510SOL    HW111971   0.653   5.594   4.641
 3510SOL    HW211972   0.763   5.490   4.654
 3511SOL     OW11973   0.872   4.695   4.576
 3511SOL    HW111974   0.923   4.623   4.612
 3511SOL    HW211975   0.832   4.737   4.652
 3512SOL     OW11976   1.060   4.700   3.804
 3512SOL    HW111977   1.049   4.760   3.730
 3512SOL    HW211978   1.139   4.651   3.783
 3513SOL     OW11979   1.860   5.265   4.568
 3513SOL    HW111980   1.776   5.247   4.528
 3513SOL    HW211981   1.881   5.186   4.619
 3514SOL     OW11982   0.213   5.010   5.582
 3514SOL    HW111983   0.119   5.005   5.567
 3514SOL    HW211984   0.223   5.022   5.676
 3515SOL     OW11985   0.134   4.986   4.377
 3515SOL    HW111986   0.060   4.939   4.415
 3515SOL    HW211987   0.198   4.917   4.358
 3516SOL     OW11988   0.677   5.133   5.352
 3516SOL    HW111989   0.595   5.097   5.388
 3516SOL    HW211990   0.685   5.219   5.393
 3517SOL     OW11991   1.798   3.906   4.969
 3517SOL    HW111992   1.883   3.876   5.000
 3517SOL    HW211993   1.804   3.899   4.874
 3518SOL     OW11994   0.425   4.160   4.241
 3518SOL    HW111995   0.470   4.089   4.196
 3518SOL    HW211996   0.382   4.118   4.316
 3519SOL     OW11997   1.682   5.223   4.829
 3519SOL    HW111998   1.613   5.187   4.773
 3519SOL    HW211999   1.715   5.147   4.878
 3520SOL     OW12000   0.358   4.284   5.021
 3520SOL    HW112001   0.407   4.227   5.080
 3520SOL    HW212002   0.377   4.249   4.934
 3521SOL     OW12003   0.835   5.305   4.400
 3521SOL    HW112004   0.809   5.371   4.335
 3521SOL    HW212005   0.760   5.246   4.405
 3522SOL     OW12006   1.439   3.949   4.850
 3522SOL    HW112007   1.507   3.912   4.906
 3522SOL    HW212008   1.381   3.996   4.910
 3523SOL     OW12009   0.999   3.739   4.853
 3523SOL    HW112010   0.948   3.676   4.803
 3523SOL    HW212011   1.085   3.699   4.863
 3524SOL     OW12012   0.779   5.057   4.047
 3524SOL    HW112013   0.758   4.964   4.060
 3524SOL    HW212014   0.859   5.070   4.098
 3525SOL     OW12015   0.621   5.285   5.008
 3525SOL    HW112016   0.618   5.372   5.048
 3525SOL    HW212017   0.711   5.276   4.977
 3526SOL     OW12018   1.363   3.771   3.907
 3526SOL    HW112019   1.405   3.696   3.866
 3526SOL    HW212020   1.273   3.744   3.920
 3527SOL     OW12021   1.276   4.183   4.401
 3527SOL    HW112022   1.234   4.268   4.409
 3527SOL    HW212023   1.286   4.153   4.492
 3528SOL     OW12024   1.563   3.885   4.589
 3528SOL    HW112025   1.520   3.910   4.671
 3528SOL    HW212026   1.570   3.967   4.540
 3529SOL     OW12027   0.040   4.752   4.012
 3529SOL    HW112028   0.134   4.746   3.994
 3529SOL    HW212029   0.034   4.777   4.104
 3530SOL     OW12030   0.892   5.390   4.059
 3530SOL    HW112031   0.814   5.376   4.006
 3530SOL    HW212032   0.867   5.461   4.119
 3531SOL     OW12033   0.243   3.996   6.581
 3531SOL    HW112034   0.281   3.966   6.663
 3531SOL    HW212035   0.150   3.973   6.586
 3532SOL     OW12036   8.013   4.115   6.186
 3532SOL    HW112037   7.923   4.104   6.218
 3532SOL    HW212038   8.018   4.058   6.110
 3533SOL     OW12039   0.572   5.026   6.780
 3533SOL    HW112040   0.486   5.033   6.739
 3533SOL    HW212041   0.591   5.115   6.810
 3534SOL     OW12042   1.584   5.238   6.291
 3534SOL    HW112043   1.537   5.216   6.371
 3534SOL    HW212044   1.516   5.240   6.223
 3535SOL     OW12045   1.125   4.437   6.278
 3535SOL    HW112046   1.180   4.515   6.268
 3535SOL    HW212047   1.082   4.449   6.363
 3536SOL     OW12048   1.766   4.319   5.815
 3536SOL    HW112049   1.737   4.315   5.724
 3536SOL    HW212050   1.739   4.235   5.852
 3537SOL     OW12051   0.730   4.855   6.632
 3537SOL    HW112052   0.670   4.896   6.694
 3537SOL    HW212053   0.776   4.928   6.591
 3538SOL     OW12054   0.875   4.484   7.407
 3538SOL    HW112055   0.883   4.553   7.472
 3538SOL    HW212056   0.898   4.526   7.324
 3539SOL     OW12057   0.686   4.717   6.232
 3539SOL    HW112058   0.756   4.712   6.297
 3539SOL    HW212059   0.621   4.776   6.272
 3540SOL     OW12060   0.710   4.873   7.411
 3540SOL    HW112061   0.760   4.948   7.441
 3540SOL    HW212062   0.634   4.910   7.366
 3541SOL     OW12063   0.340   5.137   6.652
 3541SOL    HW112064   0.283   5.086   6.595
 3541SOL    HW212065   0.388   5.195   6.593
 3542SOL     OW12066   1.461   5.226   6.953
 3542SOL    HW112067   1.520   5.302   6.955
 3542SOL    HW212068   1.402   5.239   7.028
 3543SOL     OW12069   0.450   4.108   7.074
 3543SOL    HW112070   0.532   4.058   7.080
 3543SOL    HW212071   0.381   4.043   7.084
 3544SOL     OW12072   1.608   4.160   6.329
 3544SOL    HW112073   1.568   4.202   6.252
 3544SOL    HW212074   1.633   4.232   6.386
 3545SOL     OW12075   0.236   5.415   6.068
 3545SOL    HW112076   0.222   5.500   6.110
 3545SOL    HW212077   0.303   5.432   6.002
 3546SOL     OW12078   1.137   5.066   7.281
 3546SOL    HW112079   1.192   5.051   7.358
 3546SOL    HW212080   1.086   4.985   7.273
 3547SOL     OW12081   0.292   5.150   6.095
 3547SOL    HW112082   0.273   5.244   6.104
 3547SOL    HW212083   0.238   5.109   6.163
 3548SOL     OW12084   0.276   4.807   6.483
 3548SOL    HW112085   0.278   4.714   6.506
 3548SOL    HW212086   0.198   4.841   6.528
 3549SOL     OW12087   0.592   5.535   6.988
 3549SOL    HW112088   0.520   5.507   7.044
 3549SOL    HW212089   0.624   5.616   7.028
 3550SOL     OW12090   0.577   4.717   5.732
 3550SOL    HW112091   0.624   4.758   5.659
 3550SOL    HW212092   0.623   4.746   5.810
 3551SOL     OW12093   1.576   3.853   7.030
 3551SOL    HW112094   1.647   3.887   6.976
 3551SOL    HW212095   1.577   3.908   7.108
 3552SOL     OW12096   0.126   4.363   6.135
 3552SOL    HW112097   0.093   4.279   6.167
 3552SOL    HW212098   0.118   4.422   6.210
 3553SOL     OW12099   1.842   5.476   5.923
 3553SOL    HW112100   1.916   5.451   5.979
 3553SOL    HW212101   1.861   5.565   5.896
 3554SOL     OW12102   0.018   5.307   5.724
 3554SOL    HW112103  -0.004   5.214   5.712
 3554SOL    HW212104   0.008   5.321   5.818
 3555SOL     OW12105   1.693   4.632   6.244
 3555SOL    HW112106   1.781   4.596   6.257
 3555SOL    HW212107   1.695   4.668   6.155
 3556SOL     OW12108   1.653   4.829   6.016
 3556SOL    HW112109   1.740   4.823   5.976
 3556SOL    HW212110   1.666   4.885   6.093
 3557SOL     OW12111   0.152   4.484   7.179
 3557SOL    HW112112   0.247   4.486   7.174
 3557SOL    HW212113   0.128   4.564   7.225
 3558SOL     OW12114   0.617   5.120   6.323
 3558SOL    HW112115   0.576   5.034   6.330
 3558SOL    HW212116   0.603   5.146   6.232
 3559SOL     OW12117   1.281   4.958   7.007
 3559SOL    HW112118   1.309   4.890   6.945
 3559SOL    HW212119   1.346   4.954   7.077
 3560SOL     OW12120   0.825   3.727   6.098
 3560SOL    HW112121   0.867   3.810   6.076
 3560SOL    HW212122   0.731   3.749   6.103
 3561SOL     OW12123   0.167   4.637   6.853
 3561SOL    HW112124   0.260   4.614   6.854
 3561SOL    HW212125   0.143   4.637   6.761
 3562SOL     OW12126   1.527   4.732   5.789
 3562SOL    HW112127   1.460   4.673   5.825
 3562SOL    HW212128   1.576   4.762   5.865
 3563SOL     OW12129   1.165   5.536   7.213
 3563SOL    HW112130   1.183   5.598   7.142
 3563SOL    HW212131   1.191   5.451   7.177
 3564SOL     OW12132   0.358   3.984   7.433
 3564SOL    HW112133   0.409   4.061   7.457
 3564SOL    HW212134   0.267   4.012   7.442
 3565SOL     OW12135   1.451   5.154   6.517
 3565SOL    HW112136   1.397   5.165   6.595
 3565SOL    HW212137   1.447   5.060   6.498
 3566SOL     OW12138   1.638   5.497   6.162
 3566SOL    HW112139   1.639   5.455   6.076
 3566SOL    HW212140   1.639   5.424   6.224
 3567SOL     OW12141   0.599   4.436   5.848
 3567SOL    HW112142   0.624   4.522   5.813
 3567SOL    HW212143   0.545   4.455   5.924
 3568SOL     OW12144   1.280   4.099   6.525
 3568SOL    HW112145   1.193   4.059   6.535
 3568SOL    HW212146   1.337   4.046   6.581
 3569SOL     OW12147   1.577   5.398   5.896
 3569SOL    HW112148   1.671   5.417   5.891
 3569SOL    HW212149   1.552   5.379   5.806
 3570SOL     OW12150   0.778   4.347   7.023
 3570SOL    HW112151   0.757   4.319   7.113
 3570SOL    HW212152   0.752   4.273   6.969
 3571SOL     OW12153   1.386   4.193   7.258
 3571SOL    HW112154   1.399   4.242   7.340
 3571SOL    HW212155   1.447   4.120   7.264
 3572SOL     OW12156   0.947   4.604   7.172
 3572SOL    HW112157   1.003   4.538   7.133
 3572SOL    HW212158   0.901   4.644   7.098
 3573SOL     OW12159   0.992   4.136   6.815
 3573SOL    HW112160   0.899   4.145   6.835
 3573SOL    HW212161   0.994   4.094   6.729
 3574SOL     OW12162   1.055   4.422   6.010
 3574SOL    HW112163   1.079   4.423   6.103
 3574SOL    HW212164   0.973   4.373   6.007
 3575SOL     OW12165   0.096   4.510   6.361
 3575SOL    HW112166   0.175   4.521   6.414
 3575SOL    HW212167   0.047   4.592   6.374
 3576SOL     OW12168   0.126   5.552   7.152
 3576SOL    HW112169   0.129   5.540   7.247
 3576SOL    HW212170   0.039   5.523   7.126
 3577SOL     OW12171   0.898   4.073   5.778
 3577SOL    HW112172   0.938   4.139   5.720
 3577SOL    HW212173   0.935   3.990   5.748
 3578SOL     OW12174   1.671   4.298   7.431
 3578SOL    HW112175   1.653   4.373   7.375
 3578SOL    HW212176   1.713   4.234   7.373
 3579SOL     OW12177   1.384   4.860   6.112
 3579SOL    HW112178   1.469   4.850   6.070
 3579SOL    HW212179   1.339   4.926   6.060
 3580SOL     OW12180   0.548   3.898   6.485
 3580SOL    HW112181   0.556   3.923   6.577
 3580SOL    HW212182   0.562   3.979   6.436
 3581SOL     OW12183   0.995   5.167   6.052
 3581SOL    HW112184   0.970   5.246   6.004
 3581SOL    HW212185   0.978   5.188   6.144
 3582SOL     OW12186   0.363   5.550   6.448
 3582SOL    HW112187   0.408   5.467   6.460
 3582SOL    HW212188   0.430   5.616   6.468
 3583SOL     OW12189   1.795   4.786   6.472
 3583SOL    HW112190   1.744   4.765   6.394
 3583SOL    HW212191   1.731   4.785   6.543
 3584SOL     OW12192   1.218   5.269   7.106
 3584SOL    HW112193   1.209   5.194   7.165
 3584SOL    HW212194   1.176   5.241   7.025
 3585SOL     OW12195   0.324   4.703   5.844
 3585SOL    HW112196   0.412   4.727   5.814
 3585SOL    HW212197   0.301   4.627   5.791
 3586SOL     OW12198   1.477   4.483   6.314
 3586SOL    HW112199   1.484   4.439   6.399
 3586SOL    HW212200   1.558   4.533   6.307
 3587SOL     OW12201   0.464   4.993   7.328
 3587SOL    HW112202   0.442   4.998   7.236
 3587SOL    HW212203   0.380   4.980   7.373
 3588SOL     OW12204   1.125   5.507   5.806
 3588SOL    HW112205   1.052   5.467   5.852
 3588SOL    HW212206   1.151   5.442   5.741
 3589SOL     OW12207   0.187   3.990   7.078
 3589SOL    HW112208   0.160   4.071   7.121
 3589SOL    HW212209   0.158   3.921   7.138
 3590SOL     OW12210   1.616   5.110   5.683
 3590SOL    HW112211   1.577   5.195   5.660
 3590SOL    HW212212   1.552   5.046   5.653
 3591SOL     OW12213   0.457   5.470   5.898
 3591SOL    HW112214   0.505   5.519   5.965
 3591SOL    HW212215   0.524   5.429   5.845
 3592SOL     OW12216   1.405   3.832   6.035
 3592SOL    HW112217   1.404   3.807   5.942
 3592SOL    HW212218   1.497   3.842   6.056
 3593SOL     OW12219   0.235   5.508   6.810
 3593SOL    HW112220   0.288   5.435   6.840
 3593SOL    HW212221   0.206   5.482   6.723
 3594SOL     OW12222   0.948   5.424   6.481
 3594SOL    HW112223   1.033   5.383   6.496
 3594SOL    HW212224   0.908   5.373   6.411
 3595SOL     OW12225   0.406   4.421   6.054
 3595SOL    HW112226   0.411   4.326   6.068
 3595SOL    HW212227   0.318   4.445   6.081
 3596SOL     OW12228   1.526   3.954   7.306
 3596SOL    HW112229   1.528   3.972   7.400
 3596SOL    HW212230   1.492   3.865   7.300
 3597SOL     OW12231   0.644   3.832   5.694
 3597SOL    HW112232   0.713   3.768   5.709
 3597SOL    HW212233   0.597   3.800   5.617
 3598SOL     OW12234   0.767   4.000   7.346
 3598SOL    HW112235   0.848   3.949   7.339
 3598SOL    HW212236   0.758   4.017   7.440
 3599SOL     OW12237   0.874   5.245   6.784
 3599SOL    HW112238   0.859   5.207   6.698
 3599SOL    HW212239   0.946   5.194   6.821
 3600SOL     OW12240   1.335   4.318   7.017
 3600SOL    HW112241   1.371   4.283   7.099
 3600SOL    HW212242   1.380   4.402   7.005
 3601SOL     OW12243   0.818   5.106   6.538
 3601SOL    HW112244   0.905   5.097   6.499
 3601SOL    HW212245   0.759   5.119   6.464
 3602SOL     OW12246   0.922   4.229   6.486
 3602SOL    HW112247   0.898   4.219   6.394
 3602SOL    HW212248   0.960   4.145   6.510
 3603SOL     OW12249   0.555   3.786   6.078
 3603SOL    HW112250   0.476   3.791   6.132
 3603SOL    HW212251   0.550   3.864   6.023
 3604SOL     OW12252   1.425   4.923   5.619
 3604SOL    HW112253   1.460   4.852   5.672
 3604SOL    HW212254   1.344   4.948   5.663
 3605SOL     OW12255   0.288   3.773   5.758
 3605SOL    HW112256   0.346   3.833   5.711
 3605SOL    HW212257   0.348   3.715   5.805
 3606SOL     OW12258   0.943   3.972   6.039
 3606SOL    HW112259   0.920   4.014   5.956
 3606SOL    HW212260   1.037   3.984   6.047
 3607SOL     OW12261   1.081   4.407   7.043
 3607SOL    HW112262   1.031   4.326   7.034
 3607SOL    HW212263   1.173   4.379   7.036
 3608SOL     OW12264   1.209   5.301   6.385
 3608SOL    HW112265   1.232   5.365   6.317
 3608SOL    HW212266   1.291   5.289   6.434
 3609SOL     OW12267   0.478   4.880   6.315
 3609SOL    HW112268   0.415   4.858   6.385
 3609SOL    HW212269   0.430   4.864   6.234
 3610SOL     OW12270   1.263   5.515   6.199
 3610SOL    HW112271   1.315   5.574   6.146
 3610SOL    HW212272   1.200   5.572   6.244
 3611SOL     OW12273   1.026   4.254   5.616
 3611SOL    HW112274   0.992   4.341   5.596
 3611SOL    HW212275   1.095   4.269   5.681
 3612SOL     OW12276   0.101   4.318   6.967
 3612SOL    HW112277   0.192   4.304   6.942
 3612SOL    HW212278   0.106   4.381   7.040
 3613SOL     OW12279   0.563   3.941   6.758
 3613SOL    HW112280   0.610   3.872   6.804
 3613SOL    HW212281   0.474   3.937   6.792
 3614SOL     OW12282   0.854   4.172   6.224
 3614SOL    HW112283   0.827   4.230   6.153
 3614SOL    HW212284   0.891   4.095   6.180
 3615SOL     OW12285   1.002   3.790   6.345
 3615SOL    HW112286   0.959   3.774   6.261
 3615SOL    HW212287   0.988   3.710   6.395
 3616SOL     OW12288   1.448   4.889   6.441
 3616SOL    HW112289   1.383   4.820   6.425
 3616SOL    HW212290   1.497   4.894   6.359
 3617SOL     OW12291   1.467   4.342   6.557
 3617SOL    HW112292   1.417   4.260   6.556
 3617SOL    HW212293   1.529   4.330   6.629
 3618SOL     OW12294   1.821   4.536   5.969
 3618SOL    HW112295   1.881   4.493   6.029
 3618SOL    HW212296   1.804   4.471   5.901
 3619SOL     OW12297   0.489   5.146   5.733
 3619SOL    HW112298   0.407   5.117   5.773
 3619SOL    HW212299   0.500   5.089   5.657
 3620SOL     OW12300   1.687   4.977   6.240
 3620SOL    HW112301   1.781   4.969   6.252
 3620SOL    HW212302   1.669   5.071   6.251
 3621SOL     OW12303   1.395   4.305   5.651
 3621SOL    HW112304   1.350   4.269   5.728
 3621SOL    HW212305   1.487   4.286   5.666
 3622SOL     OW12306   0.540   3.988   5.892
 3622SOL    HW112307   0.578   3.930   5.827
 3622SOL    HW212308   0.553   4.076   5.857
 3623SOL     OW12309   1.746   4.977   7.159
 3623SOL    HW112310   1.830   4.936   7.138
 3623SOL    HW212311   1.767   5.067   7.182
 3624SOL     OW12312   1.053   5.077   6.919
 3624SOL    HW112313   0.977   5.044   6.968
 3624SOL    HW212314   1.128   5.033   6.959
 3625SOL     OW12315   1.603   5.357   7.245
 3625SOL    HW112316   1.596   5.392   7.156
 3625SOL    HW212317   1.685   5.308   7.245
 3626SOL     OW12318   1.131   4.940   6.687
 3626SOL    HW112319   1.078   4.987   6.751
 3626SOL    HW212320   1.107   4.979   6.603
 3627SOL     OW12321   1.603   4.805   6.665
 3627SOL    HW112322   1.595   4.868   6.737
 3627SOL    HW212323   1.536   4.832   6.602
 3628SOL     OW12324   0.915   3.816   6.973
 3628SOL    HW112325   0.939   3.795   6.883
 3628SOL    HW212326   0.995   3.855   7.010
 3629SOL     OW12327   0.981   4.839   7.308
 3629SOL    HW112328   0.889   4.854   7.330
 3629SOL    HW212329   0.980   4.760   7.253
 3630SOL     OW12330   0.711   4.783   5.962
 3630SOL    HW112331   0.700   4.764   6.055
 3630SOL    HW212332   0.786   4.729   5.936
 3631SOL     OW12333   0.425   4.547   6.842
 3631SOL    HW112334   0.493   4.563   6.908
 3631SOL    HW212335   0.402   4.455   6.855
 3632SOL     OW12336   1.260   4.094   6.876
 3632SOL    HW112337   1.297   4.173   6.916
 3632SOL    HW212338   1.171   4.120   6.852
 3633SOL     OW12339   0.045   5.319   6.913
 3633SOL    HW112340   0.103   5.391   6.891
 3633SOL    HW212341   0.082   5.281   6.993
 3634SOL     OW12342   0.330   4.845   6.086
 3634SOL    HW112343   0.343   4.930   6.043
 3634SOL    HW212344   0.335   4.782   6.014
 3635SOL     OW12345   0.547   4.249   6.437
 3635SOL    HW112346   0.561   4.313   6.367
 3635SOL    HW212347   0.613   4.271   6.503
 3636SOL     OW12348   1.248   5.077   5.975
 3636SOL    HW112349   1.305   5.145   6.009
 3636SOL    HW212350   1.162   5.097   6.012
 3637SOL     OW12351   1.297   5.187   6.740
 3637SOL    HW112352   1.358   5.196   6.813
 3637SOL    HW212353   1.252   5.104   6.756
 3638SOL     OW12354   1.580   4.332   6.088
 3638SOL    HW112355   1.532   4.396   6.140
 3638SOL    HW212356   1.642   4.385   6.037
 3639SOL     OW12357   0.348   5.260   6.895
 3639SOL    HW112358   0.333   5.210   6.815
 3639SOL    HW212359   0.444   5.268   6.900
 3640SOL     OW12360   0.433   4.454   7.200
 3640SOL    HW112361   0.485   4.506   7.139
 3640SOL    HW212362   0.493   4.387   7.231
 3641SOL     OW12363   1.604   4.512   7.281
 3641SOL    HW112364   1.519   4.556   7.271
 3641SOL    HW212365   1.658   4.549   7.211
 3642SOL     OW12366   1.003   3.863   7.356
 3642SOL    HW112367   1.057   3.936   7.329
 3642SOL    HW212368   1.047   3.786   7.321
 3643SOL     OW12369   0.490   3.751   7.360
 3643SOL    HW112370   0.449   3.707   7.286
 3643SOL    HW212371   0.447   3.837   7.364
 3644SOL     OW12372   0.585   4.603   6.617
 3644SOL    HW112373   0.628   4.688   6.618
 3644SOL    HW212374   0.534   4.601   6.698
 3645SOL     OW12375   1.337   4.583   6.604
 3645SOL    HW112376   1.260   4.563   6.552
 3645SOL    HW212377   1.392   4.505   6.598
 3646SOL     OW12378   1.192   4.243   5.845
 3646SOL    HW112379   1.209   4.167   5.901
 3646SOL    HW212380   1.159   4.310   5.905
 3647SOL     OW12381   0.300   3.912   6.838
 3647SOL    HW112382   0.261   3.946   6.919
 3647SOL    HW212383   0.289   3.817   6.845
 3648SOL     OW12384   0.050   5.032   6.855
 3648SOL    HW112385   0.074   4.980   6.933
 3648SOL    HW212386   0.053   5.122   6.885
 3649SOL     OW12387   0.711   4.346   6.632
 3649SOL    HW112388   0.793   4.333   6.585
 3649SOL    HW212389   0.691   4.439   6.620
 3650SOL     OW12390   1.745   4.678   7.455
 3650SOL    HW112391   1.702   4.617   7.396
 3650SOL    HW212392   1.679   4.699   7.521
 3651SOL     OW12393   0.309   3.787   6.211
 3651SOL    HW112394   0.290   3.878   6.233
 3651SOL    HW212395   0.327   3.745   6.295
 3652SOL     OW12396   1.614   4.102   5.939
 3652SOL    HW112397   1.647   4.033   5.995
 3652SOL    HW212398   1.595   4.175   5.998
 3653SOL     OW12399   1.019   4.481   6.539
 3653SOL    HW112400   1.014   4.497   6.634
 3653SOL    HW212401   0.998   4.388   6.530
 3654SOL     OW12402   0.974   5.282   7.313
 3654SOL    HW112403   0.959   5.329   7.231
 3654SOL    HW212404   1.025   5.205   7.287
 3655SOL     OW12405   1.845   5.237   7.189
 3655SOL    HW112406   1.875   5.254   7.100
 3655SOL    HW212407   1.924   5.244   7.243
 3656SOL     OW12408   0.361   4.672   7.374
 3656SOL    HW112409   0.433   4.691   7.434
 3656SOL    HW212410   0.387   4.591   7.329
 3657SOL     OW12411   1.510   4.000   5.706
 3657SOL    HW112412   1.458   3.927   5.740
 3657SOL    HW212413   1.552   4.037   5.784
 3658SOL     OW12414   1.276   4.547   5.609
 3658SOL    HW112415   1.322   4.463   5.615
 3658SOL    HW212416   1.312   4.588   5.530
 3659SOL     OW12417   1.067   5.066   6.445
 3659SOL    HW112418   1.077   4.995   6.382
 3659SOL    HW212419   1.123   5.136   6.411
 3660SOL     OW12420   0.321   4.529   6.525
 3660SOL    HW112421   0.413   4.555   6.529
 3660SOL    HW212422   0.319   4.442   6.562
 3661SOL     OW12423   0.336   4.249   6.602
 3661SOL    HW112424   0.303   4.161   6.589
 3661SOL    HW212425   0.411   4.256   6.543
 3662SOL     OW12426   1.132   4.095   7.280
 3662SOL    HW112427   1.090   4.156   7.340
 3662SOL    HW212428   1.220   4.130   7.269
 3663SOL     OW12429   1.153   3.919   7.064
 3663SOL    HW112430   1.148   3.984   7.135
 3663SOL    HW212431   1.204   3.963   6.996
 3664SOL     OW12432   7.974   5.026   5.777
 3664SOL    HW112433   7.886   5.044   5.809
 3664SOL    HW212434   7.987   4.932   5.794
 3665SOL     OW12435   0.118   5.472   6.541
 3665SOL    HW112436   0.111   5.395   6.484
 3665SOL    HW212437   0.195   5.519   6.508
 3666SOL     OW12438   0.489   5.301   6.490
 3666SOL    HW112439   0.559   5.361   6.516
 3666SOL    HW212440   0.532   5.238   6.431
 3667SOL     OW12441   0.963   4.507   6.809
 3667SOL    HW112442   1.036   4.498   6.870
 3667SOL    HW212443   0.889   4.465   6.852
 3668SOL     OW12444   0.075   4.265   6.703
 3668SOL    HW112445   0.169   4.272   6.685
 3668SOL    HW212446   0.068   4.282   6.797
 3669SOL     OW12447   0.203   4.226   7.269
 3669SOL    HW112448   0.292   4.226   7.234
 3669SOL    HW212449   0.168   4.312   7.244
 3670SOL     OW12450   1.375   4.662   7.239
 3670SOL    HW112451   1.404   4.753   7.233
 3670SOL    HW212452   1.377   4.631   7.149
 3671SOL     OW12453   0.816   4.283   5.959
 3671SOL    HW112454   0.835   4.217   5.893
 3671SOL    HW212455   0.751   4.340   5.918
 3672SOL     OW12456   1.650   4.316   6.760
 3672SOL    HW112457   1.647   4.262   6.840
 3672SOL    HW212458   1.740   4.307   6.728
 3673SOL     OW12459   0.290   5.258   7.307
 3673SOL    HW112460   0.251   5.330   7.356
 3673SOL    HW212461   0.282   5.182   7.364
 3674SOL     OW12462   0.712   4.164   6.834
 3674SOL    HW112463   0.659   4.090   6.804
 3674SOL    HW212464   0.704   4.228   6.763
 3675SOL     OW12465   0.894   5.408   7.075
 3675SOL    HW112466   0.889   5.361   6.992
 3675SOL    HW212467   0.902   5.500   7.050
 3676SOL     OW12468   0.429   4.251   5.737
 3676SOL    HW112469   0.502   4.311   5.752
 3676SOL    HW212470   0.392   4.237   5.824
 3677SOL     OW12471   0.155   4.844   7.040
 3677SOL    HW112472   0.134   4.799   7.121
 3677SOL    HW212473   0.158   4.775   6.974
 3678SOL     OW12474   1.303   4.762   6.806
 3678SOL    HW112475   1.330   4.701   6.737
 3678SOL    HW212476   1.242   4.822   6.763
 3679SOL     OW12477   1.312   4.583   5.883
 3679SOL    HW112478   1.241   4.543   5.934
 3679SOL    HW212479   1.289   4.565   5.792
 3680SOL     OW12480   1.787   5.469   6.751
 3680SOL    HW112481   1.848   5.488   6.681
 3680SOL    HW212482   1.752   5.383   6.730
 3681SOL     OW12483   1.239   5.458   6.689
 3681SOL    HW112484   1.323   5.486   6.651
 3681SOL    HW212485   1.252   5.365   6.710
 3682SOL     OW12486   0.056   4.908   6.618
 3682SOL    HW112487   0.059   4.951   6.703
 3682SOL    HW212488  -0.014   4.953   6.571
 3683SOL     OW12489   0.689   5.397   7.332
 3683SOL    HW112490   0.631   5.471   7.312
 3683SOL    HW212491   0.763   5.408   7.272
 3684SOL     OW12492   1.709   3.882   6.074
 3684SOL    HW112493   1.786   3.868   6.020
 3684SOL    HW212494   1.699   3.800   6.123
 3685SOL     OW12495   1.395   5.290   6.078
 3685SOL    HW112496   1.455   5.324   6.012
 3685SOL    HW212497   1.348   5.368   6.110
 3686SOL     OW12498   0.170   5.468   7.428
 3686SOL    HW112499   0.105   5.420   7.480
 3686SOL    HW212500   0.215   5.523   7.491
 3687SOL     OW12501   1.279   4.662   6.261
 3687SOL    HW112502   1.352   4.601   6.276
 3687SOL    HW212503   1.315   4.727   6.201
 3688SOL     OW12504   0.798   5.002   7.007
 3688SOL    HW112505   0.770   5.045   7.088
 3688SOL    HW212506   0.728   5.020   6.945
 3689SOL     OW12507   0.664   5.356   5.744
 3689SOL    HW112508   0.682   5.368   5.651
 3689SOL    HW212509   0.611   5.276   5.748
 3690SOL     OW12510   1.614   5.454   6.978
 3690SOL    HW112511   1.675   5.456   6.904
 3690SOL    HW212512   1.597   5.546   6.997
 3691SOL     OW12513   1.830   3.888   6.566
 3691SOL    HW112514   1.872   3.806   6.539
 3691SOL    HW212515   1.749   3.891   6.515
 3692SOL     OW12516   0.260   4.037   6.300
 3692SOL    HW112517   0.175   4.075   6.282
 3692SOL    HW212518   0.264   4.031   6.396
 3693SOL     OW12519   1.204   5.321   5.620
 3693SOL    HW112520   1.197   5.229   5.647
 3693SOL    HW212521   1.136   5.331   5.553
 3694SOL     OW12522   0.826   4.733   6.963
 3694SOL    HW112523   0.873   4.723   6.881
 3694SOL    HW212524   0.822   4.828   6.977
 3695SOL     OW12525   0.909   4.623   5.879
 3695SOL    HW112526   0.964   4.656   5.808
 3695SOL    HW212527   0.966   4.563   5.927
 3696SOL     OW12528   1.482   5.366   5.630
 3696SOL    HW112529   1.389   5.350   5.612
 3696SOL    HW212530   1.523   5.368   5.544
 3697SOL     OW12531   0.366   5.024   7.079
 3697SOL    HW112532   0.350   5.103   7.026
 3697SOL    HW212533   0.294   4.966   7.057
 3698SOL     OW12534   1.588   4.993   6.862
 3698SOL    HW112535   1.677   4.997   6.898
 3698SOL    HW212536   1.543   5.068   6.902
 3699SOL     OW12537   1.064   4.839   6.298
 3699SOL    HW112538   0.995   4.784   6.336
 3699SOL    HW212539   1.134   4.777   6.277
 3700SOL     OW12540   1.022   3.971   6.560
 3700SOL    HW112541   1.019   3.926   6.476
 3700SOL    HW212542   1.022   3.901   6.625
 3701SOL     OW12543   0.608   5.210   6.067
 3701SOL    HW112544   0.663   5.162   6.004
 3701SOL    HW212545   0.526   5.225   6.020
 3702SOL     OW12546   1.734   4.131   6.975
 3702SOL    HW112547   1.815   4.183   6.977
 3702SOL    HW212548   1.754   4.057   6.919
 3703SOL     OW12549   0.242   5.067   5.847
 3703SOL    HW112550   0.147   5.072   5.842
 3703SOL    HW212551   0.264   5.103   5.933
 3704SOL     OW12552   0.099   4.725   7.299
 3704SOL    HW112553   0.066   4.812   7.321
 3704SOL    HW212554   0.185   4.721   7.340
 3705SOL     OW12555   0.677   3.917   7.091
 3705SOL    HW112556   0.761   3.898   7.048
 3705SOL    HW212557   0.702   3.947   7.179
 3706SOL     OW12558   0.117   4.099   5.628
 3706SOL    HW112559   0.036   4.113   5.676
 3706SOL    HW212560   0.096   4.123   5.538
 3707SOL     OW12561   1.419   4.582   6.982
 3707SOL    HW112562   1.371   4.644   6.926
 3707SOL    HW212563   1.508   4.583   6.948
 3708SOL     OW12564   0.106   3.941   5.956
 3708SOL    HW112565   0.055   3.931   5.876
 3708SOL    HW212566   0.193   3.906   5.934
 3709SOL     OW12567   1.182   5.054   5.708
 3709SOL    HW112568   1.094   5.017   5.714
 3709SOL    HW212569   1.211   5.060   5.799
 3710SOL     OW12570   0.619   4.565   7.028
 3710SOL    HW112571   0.677   4.639   7.013
 3710SOL    HW212572   0.678   4.489   7.028
 3711SOL     OW12573   1.485   5.522   6.582
 3711SOL    HW112574   1.518   5.586   6.518
 3711SOL    HW212575   1.562   5.470   6.605
 3712SOL     OW12576   0.704   4.294   7.284
 3712SOL    HW112577   0.756   4.356   7.336
 3712SOL    HW212578   0.733   4.208   7.313
 3713SOL     OW12579   1.475   4.920   7.209
 3713SOL    HW112580   1.470   4.933   7.304
 3713SOL    HW212581   1.567   4.936   7.187
 3714SOL     OW12582   0.386   5.465   7.152
 3714SOL    HW112583   0.298   5.495   7.130
 3714SOL    HW212584   0.374   5.378   7.189
 3715SOL     OW12585   1.655   4.594   6.841
 3715SOL    HW112586   1.666   4.510   6.797
 3715SOL    HW212587   1.647   4.658   6.770
 3716SOL     OW12588   1.212   4.035   6.039
 3716SOL    HW112589   1.279   3.968   6.036
 3716SOL    HW212590   1.233   4.087   6.116
 3717SOL     OW12591   0.586   4.456   6.261
 3717SOL    HW112592   0.631   4.540   6.256
 3717SOL    HW212593   0.528   4.455   6.186
 3718SOL     OW12594   1.752   4.100   7.259
 3718SOL    HW112595   1.760   4.114   7.164
 3718SOL    HW212596   1.680   4.037   7.268
 3719SOL     OW12597   1.734   4.656   7.097
 3719SOL    HW112598   1.759   4.748   7.101
 3719SOL    HW212599   1.723   4.638   7.004
 3720SOL     OW12600   0.848   5.089   5.628
 3720SOL    HW112601   0.827   5.120   5.717
 3720SOL    HW212602   0.879   5.167   5.582
 3721SOL     OW12603   0.670   5.500   6.521
 3721SOL    HW112604   0.655   5.593   6.503
 3721SOL    HW212605   0.765   5.489   6.517
 3722SOL     OW12606   0.870   4.695   6.437
 3722SOL    HW112607   0.921   4.622   6.473
 3722SOL    HW212608   0.832   4.737   6.514
 3723SOL     OW12609   1.053   4.692   5.663
 3723SOL    HW112610   1.045   4.756   5.592
 3723SOL    HW212611   1.135   4.646   5.645
 3724SOL     OW12612   1.860   5.266   6.434
 3724SOL    HW112613   1.781   5.246   6.385
 3724SOL    HW212614   1.880   5.186   6.482
 3725SOL     OW12615   0.213   5.023   7.442
 3725SOL    HW112616   0.121   5.008   7.422
 3725SOL    HW212617   0.217   5.023   7.537
 3726SOL     OW12618   0.133   4.987   6.246
 3726SOL    HW112619   0.059   4.938   6.280
 3726SOL    HW212620   0.197   4.919   6.222
 3727SOL     OW12621   0.682   5.132   7.219
 3727SOL    HW112622   0.600   5.096   7.252
 3727SOL    HW212623   0.687   5.220   7.257
 3728SOL     OW12624   1.785   3.901   6.838
 3728SOL    HW112625   1.865   3.858   6.868
 3728SOL    HW212626   1.794   3.907   6.743
 3729SOL     OW12627   0.399   4.149   6.083
 3729SOL    HW112628   0.463   4.084   6.053
 3729SOL    HW212629   0.370   4.115   6.168
 3730SOL     OW12630   1.678   5.230   6.694
 3730SOL    HW112631   1.614   5.192   6.634
 3730SOL    HW212632   1.721   5.155   6.734
 3731SOL     OW12633   0.357   4.284   6.884
 3731SOL    HW112634   0.404   4.226   6.944
 3731SOL    HW212635   0.379   4.251   6.797
 3732SOL     OW12636   0.834   5.308   6.262
 3732SOL    HW112637   0.811   5.373   6.195
 3732SOL    HW212638   0.759   5.248   6.263
 3733SOL     OW12639   1.433   3.961   6.705
 3733SOL    HW112640   1.486   3.897   6.752
 3733SOL    HW212641   1.381   4.004   6.774
 3734SOL     OW12642   1.009   3.735   6.718
 3734SOL    HW112643   0.960   3.672   6.665
 3734SOL    HW212644   1.098   3.702   6.720
 3735SOL     OW12645   0.777   5.056   5.913
 3735SOL    HW112646   0.758   4.963   5.924
 3735SOL    HW212647   0.859   5.069   5.961
 3736SOL     OW12648   0.621   5.285   6.872
 3736SOL    HW112649   0.619   5.372   6.912
 3736SOL    HW212650   0.711   5.276   6.840
 3737SOL     OW12651   1.366   3.769   5.767
 3737SOL    HW112652   1.407   3.693   5.727
 3737SOL    HW212653   1.274   3.743   5.780
 3738SOL     OW12654   1.259   4.183   6.259
 3738SOL    HW112655   1.226   4.272   6.270
 3738SOL    HW212656   1.280   4.155   6.348
 3739SOL     OW12657   1.573   3.911   6.464
 3739SOL    HW112658   1.525   3.943   6.541
 3739SOL    HW212659   1.579   3.988   6.407
 3740SOL     OW12660   0.052   4.767   5.860
 3740SOL    HW112661   0.147   4.764   5.869
 3740SOL    HW212662   0.020   4.777   5.950
 3741SOL     OW12663   0.891   5.389   5.923
 3741SOL    HW112664   0.814   5.376   5.868
 3741SOL    HW212665   0.867   5.461   5.981
 3742SOL     OW12666   0.241   4.425   7.532
 3742SOL    HW112667   0.181   4.395   7.601
 3742SOL    HW212668   0.241   4.354   7.468
 3743SOL     OW12669   0.239   3.992   8.431
 3743SOL    HW112670   0.261   3.964   8.520
 3743SOL    HW212671   0.154   3.951   8.413
 3744SOL     OW12672   8.002   4.114   8.055
 3744SOL    HW112673   7.913   4.105   8.089
 3744SOL    HW212674   8.005   4.054   7.980
 3745SOL     OW12675   0.574   5.026   8.647
 3745SOL    HW112676   0.488   5.027   8.605
 3745SOL    HW212677   0.589   5.117   8.673
 3746SOL     OW12678   1.585   5.239   8.151
 3746SOL    HW112679   1.538   5.215   8.230
 3746SOL    HW212680   1.518   5.241   8.082
 3747SOL     OW12681   1.129   4.432   8.140
 3747SOL    HW112682   1.182   4.511   8.127
 3747SOL    HW212683   1.084   4.447   8.224
 3748SOL     OW12684   1.747   4.316   7.689
 3748SOL    HW112685   1.719   4.322   7.598
 3748SOL    HW212686   1.798   4.236   7.694
 3749SOL     OW12687   0.735   4.858   8.497
 3749SOL    HW112688   0.675   4.898   8.560
 3749SOL    HW212689   0.777   4.932   8.453
 3750SOL     OW12690   0.880   4.478   9.272
 3750SOL    HW112691   0.875   4.550   9.336
 3750SOL    HW212692   0.901   4.522   9.189
 3751SOL     OW12693   0.686   4.717   8.094
 3751SOL    HW112694   0.755   4.714   8.160
 3751SOL    HW212695   0.620   4.776   8.131
 3752SOL     OW12696   0.712   4.872   9.273
 3752SOL    HW112697   0.761   4.949   9.303
 3752SOL    HW212698   0.635   4.909   9.229
 3753SOL     OW12699   0.339   5.138   8.515
 3753SOL    HW112700   0.286   5.081   8.459
 3753SOL    HW212701   0.386   5.195   8.454
 3754SOL     OW12702   1.459   5.223   8.816
 3754SOL    HW112703   1.516   5.299   8.819
 3754SOL    HW212704   1.396   5.237   8.886
 3755SOL     OW12705   0.449   4.109   8.934
 3755SOL    HW112706   0.529   4.056   8.939
 3755SOL    HW212707   0.378   4.046   8.944
 3756SOL     OW12708   1.610   4.163   8.187
 3756SOL    HW112709   1.585   4.208   8.106
 3756SOL    HW212710   1.641   4.233   8.244
 3757SOL     OW12711   0.226   5.423   7.926
 3757SOL    HW112712   0.223   5.507   7.971
 3757SOL    HW212713   0.295   5.435   7.860
 3758SOL     OW12714   1.136   5.068   9.145
 3758SOL    HW112715   1.185   5.054   9.227
 3758SOL    HW212716   1.086   4.987   9.133
 3759SOL     OW12717   0.295   5.160   7.960
 3759SOL    HW112718   0.269   5.252   7.971
 3759SOL    HW212719   0.242   5.113   8.025
 3760SOL     OW12720   0.284   4.808   8.353
 3760SOL    HW112721   0.283   4.715   8.372
 3760SOL    HW212722   0.204   4.842   8.393
 3761SOL     OW12723   0.593   5.539   8.853
 3761SOL    HW112724   0.521   5.508   8.908
 3761SOL    HW212725   0.622   5.621   8.893
 3762SOL     OW12726   0.572   4.715   7.594
 3762SOL    HW112727   0.623   4.757   7.525
 3762SOL    HW212728   0.613   4.744   7.675
 3763SOL     OW12729   1.584   3.853   8.903
 3763SOL    HW112730   1.641   3.912   8.853
 3763SOL    HW212731   1.570   3.899   8.986
 3764SOL     OW12732   0.139   4.352   7.997
 3764SOL    HW112733   0.096   4.272   8.027
 3764SOL    HW212734   0.124   4.416   8.067
 3765SOL     OW12735   1.841   5.478   7.787
 3765SOL    HW112736   1.917   5.453   7.840
 3765SOL    HW212737   1.862   5.566   7.755
 3766SOL     OW12738   0.016   5.310   7.590
 3766SOL    HW112739  -0.001   5.217   7.578
 3766SOL    HW212740  -0.001   5.325   7.683
 3767SOL     OW12741   1.693   4.636   8.103
 3767SOL    HW112742   1.778   4.593   8.099
 3767SOL    HW212743   1.683   4.678   8.017
 3768SOL     OW12744   1.653   4.826   7.882
 3768SOL    HW112745   1.739   4.821   7.839
 3768SOL    HW212746   1.666   4.885   7.956
 3769SOL     OW12747   0.153   4.487   9.035
 3769SOL    HW112748   0.249   4.491   9.033
 3769SOL    HW212749   0.127   4.566   9.082
 3770SOL     OW12750   0.613   5.119   8.188
 3770SOL    HW112751   0.571   5.033   8.192
 3770SOL    HW212752   0.600   5.147   8.098
 3771SOL     OW12753   1.279   4.957   8.872
 3771SOL    HW112754   1.306   4.890   8.809
 3771SOL    HW212755   1.345   4.953   8.941
 3772SOL     OW12756   0.823   3.737   7.955
 3772SOL    HW112757   0.859   3.822   7.930
 3772SOL    HW212758   0.728   3.751   7.958
 3773SOL     OW12759   0.171   4.642   8.714
 3773SOL    HW112760   0.263   4.616   8.712
 3773SOL    HW212761   0.143   4.638   8.622
 3774SOL     OW12762   1.527   4.730   7.651
 3774SOL    HW112763   1.462   4.669   7.686
 3774SOL    HW212764   1.576   4.760   7.727
 3775SOL     OW12765   1.171   5.536   9.075
 3775SOL    HW112766   1.185   5.596   9.001
 3775SOL    HW212767   1.192   5.450   9.040
 3776SOL     OW12768   0.358   3.978   9.294
 3776SOL    HW112769   0.405   4.056   9.320
 3776SOL    HW212770   0.265   4.001   9.304
 3777SOL     OW12771   1.455   5.155   8.379
 3777SOL    HW112772   1.398   5.165   8.455
 3777SOL    HW212773   1.450   5.061   8.358
 3778SOL     OW12774   1.640   5.497   8.024
 3778SOL    HW112775   1.639   5.459   7.936
 3778SOL    HW212776   1.638   5.421   8.083
 3779SOL     OW12777   0.593   4.435   7.716
 3779SOL    HW112778   0.597   4.520   7.672
 3779SOL    HW212779   0.531   4.449   7.788
 3780SOL     OW12780   1.276   4.070   8.376
 3780SOL    HW112781   1.188   4.050   8.407
 3780SOL    HW212782   1.335   4.029   8.440
 3781SOL     OW12783   1.577   5.399   7.759
 3781SOL    HW112784   1.670   5.417   7.752
 3781SOL    HW212785   1.549   5.381   7.669
 3782SOL     OW12786   0.783   4.342   8.891
 3782SOL    HW112787   0.760   4.313   8.979
 3782SOL    HW212788   0.756   4.270   8.834
 3783SOL     OW12789   1.388   4.197   9.124
 3783SOL    HW112790   1.397   4.243   9.207
 3783SOL    HW212791   1.446   4.121   9.132
 3784SOL     OW12792   0.948   4.605   9.036
 3784SOL    HW112793   1.004   4.539   8.996
 3784SOL    HW212794   0.900   4.644   8.963
 3785SOL     OW12795   0.994   4.133   8.677
 3785SOL    HW112796   0.903   4.146   8.701
 3785SOL    HW212797   0.990   4.088   8.592
 3786SOL     OW12798   1.053   4.420   7.871
 3786SOL    HW112799   1.072   4.421   7.965
 3786SOL    HW212800   0.969   4.376   7.863
 3787SOL     OW12801   0.098   4.515   8.217
 3787SOL    HW112802   0.176   4.525   8.272
 3787SOL    HW212803   0.051   4.597   8.227
 3788SOL     OW12804   0.130   5.554   9.011
 3788SOL    HW112805   0.132   5.539   9.106
 3788SOL    HW212806   0.043   5.525   8.985
 3789SOL     OW12807   0.909   4.051   7.619
 3789SOL    HW112808   0.942   4.129   7.575
 3789SOL    HW212809   0.958   3.979   7.581
 3790SOL     OW12810   1.685   4.294   9.286
 3790SOL    HW112811   1.662   4.370   9.232
 3790SOL    HW212812   1.724   4.232   9.224
 3791SOL     OW12813   1.383   4.861   7.975
 3791SOL    HW112814   1.467   4.850   7.931
 3791SOL    HW212815   1.336   4.926   7.923
 3792SOL     OW12816   0.559   3.896   8.350
 3792SOL    HW112817   0.561   3.924   8.442
 3792SOL    HW212818   0.554   3.978   8.300
 3793SOL     OW12819   0.999   5.170   7.915
 3793SOL    HW112820   0.969   5.246   7.864
 3793SOL    HW212821   0.977   5.192   8.006
 3794SOL     OW12822   0.365   5.548   8.310
 3794SOL    HW112823   0.409   5.463   8.322
 3794SOL    HW212824   0.435   5.612   8.320
 3795SOL     OW12825   1.799   4.783   8.336
 3795SOL    HW112826   1.753   4.763   8.255
 3795SOL    HW212827   1.731   4.781   8.403
 3796SOL     OW12828   1.218   5.268   8.967
 3796SOL    HW112829   1.209   5.194   9.027
 3796SOL    HW212830   1.172   5.240   8.887
 3797SOL     OW12831   0.308   4.665   7.685
 3797SOL    HW112832   0.394   4.692   7.654
 3797SOL    HW212833   0.286   4.588   7.632
 3798SOL     OW12834   1.477   4.486   8.179
 3798SOL    HW112835   1.488   4.441   8.262
 3798SOL    HW212836   1.559   4.535   8.168
 3799SOL     OW12837   0.466   4.994   9.190
 3799SOL    HW112838   0.442   5.000   9.098
 3799SOL    HW212839   0.383   4.977   9.235
 3800SOL     OW12840   1.126   5.502   7.673
 3800SOL    HW112841   1.050   5.462   7.716
 3800SOL    HW212842   1.151   5.440   7.606
 3801SOL     OW12843   0.193   3.986   8.946
 3801SOL    HW112844   0.160   4.061   8.995
 3801SOL    HW212845   0.163   3.910   8.995
 3802SOL     OW12846   1.615   5.113   7.555
 3802SOL    HW112847   1.581   5.197   7.522
 3802SOL    HW212848   1.555   5.047   7.521
 3803SOL     OW12849   0.455   5.472   7.760
 3803SOL    HW112850   0.507   5.519   7.826
 3803SOL    HW212851   0.520   5.427   7.706
 3804SOL     OW12852   1.412   3.796   7.911
 3804SOL    HW112853   1.401   3.785   7.817
 3804SOL    HW212854   1.506   3.786   7.926
 3805SOL     OW12855   0.247   5.523   8.671
 3805SOL    HW112856   0.293   5.444   8.699
 3805SOL    HW212857   0.209   5.500   8.587
 3806SOL     OW12858   0.947   5.422   8.341
 3806SOL    HW112859   1.033   5.381   8.350
 3806SOL    HW212860   0.905   5.373   8.270
 3807SOL     OW12861   0.410   4.419   7.927
 3807SOL    HW112862   0.428   4.326   7.941
 3807SOL    HW212863   0.316   4.428   7.943
 3808SOL     OW12864   1.524   3.952   9.168
 3808SOL    HW112865   1.530   3.973   9.261
 3808SOL    HW212866   1.471   3.872   9.164
 3809SOL     OW12867   0.645   3.809   7.584
 3809SOL    HW112868   0.735   3.791   7.558
 3809SOL    HW212869   0.593   3.787   7.507
 3810SOL     OW12870   0.760   4.004   9.204
 3810SOL    HW112871   0.843   3.956   9.200
 3810SOL    HW212872   0.716   3.968   9.282
 3811SOL     OW12873   0.874   5.249   8.648
 3811SOL    HW112874   0.859   5.212   8.561
 3811SOL    HW212875   0.945   5.196   8.685
 3812SOL     OW12876   1.335   4.315   8.880
 3812SOL    HW112877   1.369   4.283   8.964
 3812SOL    HW212878   1.377   4.401   8.869
 3813SOL     OW12879   0.816   5.111   8.400
 3813SOL    HW112880   0.902   5.101   8.360
 3813SOL    HW212881   0.756   5.120   8.326
 3814SOL     OW12882   0.927   4.235   8.348
 3814SOL    HW112883   0.903   4.222   8.256
 3814SOL    HW212884   0.956   4.149   8.378
 3815SOL     OW12885   0.547   3.769   7.923
 3815SOL    HW112886   0.475   3.774   7.985
 3815SOL    HW212887   0.543   3.851   7.874
 3816SOL     OW12888   1.428   4.926   7.482
 3816SOL    HW112889   1.461   4.853   7.534
 3816SOL    HW212890   1.345   4.949   7.522
 3817SOL     OW12891   0.359   3.749   7.626
 3817SOL    HW112892   0.363   3.843   7.609
 3817SOL    HW212893   0.355   3.710   7.538
 3818SOL     OW12894   0.946   3.978   7.891
 3818SOL    HW112895   0.920   4.008   7.804
 3818SOL    HW212896   1.041   3.992   7.894
 3819SOL     OW12897   1.081   4.410   8.903
 3819SOL    HW112898   1.024   4.333   8.904
 3819SOL    HW212899   1.169   4.374   8.896
 3820SOL     OW12900   1.206   5.307   8.250
 3820SOL    HW112901   1.228   5.368   8.179
 3820SOL    HW212902   1.289   5.293   8.296
 3821SOL     OW12903   0.475   4.880   8.171
 3821SOL    HW112904   0.413   4.857   8.241
 3821SOL    HW212905   0.427   4.863   8.090
 3822SOL     OW12906   1.263   5.515   8.062
 3822SOL    HW112907   1.316   5.572   8.006
 3822SOL    HW212908   1.197   5.573   8.100
 3823SOL     OW12909   1.018   4.257   7.479
 3823SOL    HW112910   0.980   4.342   7.456
 3823SOL    HW212911   1.091   4.279   7.538
 3824SOL     OW12912   0.099   4.322   8.827
 3824SOL    HW112913   0.190   4.303   8.803
 3824SOL    HW212914   0.106   4.383   8.900
 3825SOL     OW12915   0.561   3.946   8.624
 3825SOL    HW112916   0.603   3.877   8.675
 3825SOL    HW212917   0.469   3.942   8.649
 3826SOL     OW12918   0.863   4.171   8.088
 3826SOL    HW112919   0.817   4.235   8.033
 3826SOL    HW212920   0.887   4.101   8.027
 3827SOL     OW12921   1.063   3.773   8.157
 3827SOL    HW112922   0.991   3.770   8.095
 3827SOL    HW212923   1.041   3.708   8.223
 3828SOL     OW12924   1.450   4.890   8.300
 3828SOL    HW112925   1.381   4.827   8.279
 3828SOL    HW212926   1.502   4.896   8.220
 3829SOL     OW12927   1.470   4.343   8.422
 3829SOL    HW112928   1.425   4.259   8.419
 3829SOL    HW212929   1.532   4.336   8.495
 3830SOL     OW12930   1.822   4.539   7.833
 3830SOL    HW112931   1.882   4.492   7.890
 3830SOL    HW212932   1.797   4.476   7.766
 3831SOL     OW12933   0.489   5.145   7.592
 3831SOL    HW112934   0.410   5.113   7.634
 3831SOL    HW212935   0.496   5.095   7.511
 3832SOL     OW12936   1.686   4.977   8.106
 3832SOL    HW112937   1.781   4.970   8.114
 3832SOL    HW212938   1.668   5.071   8.111
 3833SOL     OW12939   1.397   4.308   7.507
 3833SOL    HW112940   1.357   4.273   7.587
 3833SOL    HW212941   1.490   4.292   7.518
 3834SOL     OW12942   0.528   3.984   7.762
 3834SOL    HW112943   0.574   3.930   7.698
 3834SOL    HW212944   0.509   4.066   7.715
 3835SOL     OW12945   1.747   4.971   9.021
 3835SOL    HW112946   1.832   4.933   9.002
 3835SOL    HW212947   1.766   5.063   9.043
 3836SOL     OW12948   1.051   5.084   8.788
 3836SOL    HW112949   0.975   5.046   8.832
 3836SOL    HW212950   1.126   5.035   8.824
 3837SOL     OW12951   1.606   5.359   9.113
 3837SOL    HW112952   1.595   5.391   9.023
 3837SOL    HW212953   1.687   5.308   9.110
 3838SOL     OW12954   1.141   4.951   8.552
 3838SOL    HW112955   1.076   4.987   8.612
 3838SOL    HW212956   1.113   4.981   8.465
 3839SOL     OW12957   1.603   4.804   8.525
 3839SOL    HW112958   1.594   4.868   8.596
 3839SOL    HW212959   1.536   4.829   8.462
 3840SOL     OW12960   0.919   3.815   8.838
 3840SOL    HW112961   0.942   3.796   8.747
 3840SOL    HW212962   0.998   3.854   8.875
 3841SOL     OW12963   0.982   4.839   9.170
 3841SOL    HW112964   0.890   4.853   9.194
 3841SOL    HW212965   0.981   4.760   9.116
 3842SOL     OW12966   0.710   4.784   7.823
 3842SOL    HW112967   0.698   4.763   7.915
 3842SOL    HW212968   0.785   4.732   7.796
 3843SOL     OW12969   0.427   4.546   8.704
 3843SOL    HW112970   0.494   4.560   8.771
 3843SOL    HW212971   0.401   4.454   8.715
 3844SOL     OW12972   1.261   4.097   8.732
 3844SOL    HW112973   1.295   4.175   8.776
 3844SOL    HW212974   1.170   4.119   8.712
 3845SOL     OW12975   0.046   5.325   8.772
 3845SOL    HW112976   0.102   5.399   8.749
 3845SOL    HW212977   0.088   5.286   8.849
 3846SOL     OW12978   0.327   4.833   7.937
 3846SOL    HW112979   0.339   4.905   7.874
 3846SOL    HW212980   0.333   4.754   7.884
 3847SOL     OW12981   0.549   4.246   8.307
 3847SOL    HW112982   0.562   4.305   8.233
 3847SOL    HW212983   0.614   4.274   8.372
 3848SOL     OW12984   1.247   5.074   7.839
 3848SOL    HW112985   1.305   5.143   7.871
 3848SOL    HW212986   1.161   5.097   7.873
 3849SOL     OW12987   1.296   5.188   8.598
 3849SOL    HW112988   1.354   5.191   8.674
 3849SOL    HW212989   1.250   5.105   8.605
 3850SOL     OW12990   1.587   4.320   7.946
 3850SOL    HW112991   1.546   4.399   7.980
 3850SOL    HW212992   1.645   4.350   7.876
 3851SOL     OW12993   0.347   5.269   8.753
 3851SOL    HW112994   0.329   5.217   8.675
 3851SOL    HW212995   0.442   5.273   8.759
 3852SOL     OW12996   0.433   4.457   9.062
 3852SOL    HW112997   0.488   4.505   9.001
 3852SOL    HW212998   0.487   4.384   9.091
 3853SOL     OW12999   1.612   4.511   9.140
 3853SOL    HW113000   1.526   4.553   9.131
 3853SOL    HW213001   1.665   4.549   9.071
 3854SOL     OW13002   0.994   3.863   9.204
 3854SOL    HW113003   1.053   3.936   9.183
 3854SOL    HW213004   1.042   3.785   9.176
 3855SOL     OW13005   0.500   3.758   9.203
 3855SOL    HW113006   0.453   3.708   9.136
 3855SOL    HW213007   0.446   3.836   9.217
 3856SOL     OW13008   0.589   4.600   8.482
 3856SOL    HW113009   0.627   4.688   8.483
 3856SOL    HW213010   0.533   4.597   8.559
 3857SOL     OW13011   1.335   4.582   8.472
 3857SOL    HW113012   1.259   4.567   8.416
 3857SOL    HW213013   1.389   4.504   8.460
 3858SOL     OW13014   1.194   4.251   7.706
 3858SOL    HW113015   1.208   4.176   7.764
 3858SOL    HW213016   1.156   4.318   7.762
 3859SOL     OW13017   0.299   3.914   8.695
 3859SOL    HW113018   0.258   3.946   8.776
 3859SOL    HW213019   0.282   3.819   8.695
 3860SOL     OW13020   0.046   5.031   8.720
 3860SOL    HW113021   0.074   4.976   8.793
 3860SOL    HW213022   0.050   5.120   8.754
 3861SOL     OW13023   0.715   4.351   8.498
 3861SOL    HW113024   0.795   4.341   8.446
 3861SOL    HW213025   0.688   4.441   8.484
 3862SOL     OW13026   1.744   4.684   9.315
 3862SOL    HW113027   1.705   4.617   9.258
 3862SOL    HW213028   1.679   4.699   9.383
 3863SOL     OW13029   0.314   3.786   8.068
 3863SOL    HW113030   0.288   3.876   8.086
 3863SOL    HW213031   0.321   3.745   8.154
 3864SOL     OW13032   1.539   4.070   7.840
 3864SOL    HW113033   1.609   4.016   7.876
 3864SOL    HW213034   1.560   4.159   7.871
 3865SOL     OW13035   1.024   4.485   8.402
 3865SOL    HW113036   1.017   4.501   8.496
 3865SOL    HW213037   0.999   4.393   8.391
 3866SOL     OW13038   0.977   5.287   9.175
 3866SOL    HW113039   0.961   5.331   9.092
 3866SOL    HW213040   1.024   5.207   9.151
 3867SOL     OW13041   1.845   5.234   9.052
 3867SOL    HW113042   1.873   5.253   8.962
 3867SOL    HW213043   1.925   5.241   9.104
 3868SOL     OW13044   0.365   4.672   9.236
 3868SOL    HW113045   0.436   4.683   9.299
 3868SOL    HW213046   0.389   4.593   9.187
 3869SOL     OW13047   1.501   3.993   7.575
 3869SOL    HW113048   1.451   3.915   7.600
 3869SOL    HW213049   1.531   4.030   7.657
 3870SOL     OW13050   1.281   4.552   7.471
 3870SOL    HW113051   1.325   4.467   7.474
 3870SOL    HW213052   1.314   4.593   7.391
 3871SOL     OW13053   1.066   5.068   8.309
 3871SOL    HW113054   1.075   4.995   8.247
 3871SOL    HW213055   1.121   5.137   8.272
 3872SOL     OW13056   0.320   4.529   8.387
 3872SOL    HW113057   0.414   4.548   8.386
 3872SOL    HW213058   0.314   4.440   8.423
 3873SOL     OW13059   0.334   4.242   8.467
 3873SOL    HW113060   0.298   4.156   8.449
 3873SOL    HW213061   0.410   4.249   8.408
 3874SOL     OW13062   1.134   4.095   9.136
 3874SOL    HW113063   1.089   4.149   9.201
 3874SOL    HW213064   1.221   4.133   9.129
 3875SOL     OW13065   1.159   3.919   8.922
 3875SOL    HW113066   1.150   3.982   8.994
 3875SOL    HW213067   1.206   3.967   8.854
 3876SOL     OW13068   7.981   5.028   7.653
 3876SOL    HW113069   7.890   5.042   7.678
 3876SOL    HW213070   7.994   4.933   7.663
 3877SOL     OW13071   0.129   5.486   8.426
 3877SOL    HW113072   0.103   5.407   8.378
 3877SOL    HW213073   0.204   5.520   8.378
 3878SOL     OW13074   0.493   5.305   8.355
 3878SOL    HW113075   0.565   5.360   8.386
 3878SOL    HW213076   0.535   5.242   8.296
 3879SOL     OW13077   0.963   4.509   8.670
 3879SOL    HW113078   1.029   4.495   8.738
 3879SOL    HW213079   0.885   4.463   8.703
 3880SOL     OW13080   0.073   4.277   8.560
 3880SOL    HW113081   0.167   4.271   8.542
 3880SOL    HW213082   0.068   4.288   8.655
 3881SOL     OW13083   0.201   4.233   9.131
 3881SOL    HW113084   0.288   4.226   9.092
 3881SOL    HW213085   0.168   4.318   9.100
 3882SOL     OW13086   1.380   4.659   9.103
 3882SOL    HW113087   1.406   4.751   9.096
 3882SOL    HW213088   1.378   4.628   9.012
 3883SOL     OW13089   0.814   4.290   7.815
 3883SOL    HW113090   0.817   4.220   7.748
 3883SOL    HW213091   0.743   4.347   7.787
 3884SOL     OW13092   1.647   4.319   8.627
 3884SOL    HW113093   1.644   4.263   8.704
 3884SOL    HW213094   1.736   4.307   8.593
 3885SOL     OW13095   0.293   5.259   9.171
 3885SOL    HW113096   0.251   5.329   9.220
 3885SOL    HW213097   0.282   5.181   9.226
 3886SOL     OW13098   0.717   4.165   8.696
 3886SOL    HW113099   0.660   4.092   8.671
 3886SOL    HW213100   0.706   4.229   8.626
 3887SOL     OW13101   0.895   5.409   8.935
 3887SOL    HW113102   0.890   5.356   8.855
 3887SOL    HW213103   0.899   5.499   8.904
 3888SOL     OW13104   0.459   4.205   7.619
 3888SOL    HW113105   0.511   4.284   7.635
 3888SOL    HW213106   0.374   4.224   7.659
 3889SOL     OW13107   0.157   4.845   8.901
 3889SOL    HW113108   0.135   4.799   8.983
 3889SOL    HW213109   0.161   4.777   8.835
 3890SOL     OW13110   1.305   4.764   8.670
 3890SOL    HW113111   1.328   4.701   8.602
 3890SOL    HW213112   1.248   4.828   8.626
 3891SOL     OW13113   1.317   4.574   7.747
 3891SOL    HW113114   1.237   4.548   7.792
 3891SOL    HW213115   1.295   4.564   7.654
 3892SOL     OW13116   1.794   5.464   8.621
 3892SOL    HW113117   1.852   5.486   8.548
 3892SOL    HW213118   1.753   5.381   8.595
 3893SOL     OW13119   1.241   5.461   8.560
 3893SOL    HW113120   1.323   5.488   8.519
 3893SOL    HW213121   1.251   5.367   8.576
 3894SOL     OW13122   0.059   4.912   8.479
 3894SOL    HW113123   0.057   4.955   8.564
 3894SOL    HW213124  -0.013   4.952   8.430
 3895SOL     OW13125   0.690   5.398   9.194
 3895SOL    HW113126   0.630   5.467   9.166
 3895SOL    HW213127   0.765   5.405   9.134
 3896SOL     OW13128   1.728   3.891   7.939
 3896SOL    HW113129   1.798   3.878   7.875
 3896SOL    HW213130   1.721   3.806   7.983
 3897SOL     OW13131   1.397   5.289   7.942
 3897SOL    HW113132   1.456   5.321   7.874
 3897SOL    HW213133   1.348   5.366   7.969
 3898SOL     OW13134   0.167   5.471   9.286
 3898SOL    HW113135   0.103   5.421   9.338
 3898SOL    HW213136   0.213   5.524   9.351
 3899SOL     OW13137   1.278   4.661   8.122
 3899SOL    HW113138   1.352   4.601   8.138
 3899SOL    HW213139   1.313   4.726   8.062
 3900SOL     OW13140   0.795   5.002   8.866
 3900SOL    HW113141   0.767   5.045   8.946
 3900SOL    HW213142   0.723   5.014   8.805
 3901SOL     OW13143   0.664   5.354   7.606
 3901SOL    HW113144   0.682   5.368   7.513
 3901SOL    HW213145   0.611   5.275   7.609
 3902SOL     OW13146   1.613   5.450   8.844
 3902SOL    HW113147   1.674   5.451   8.770
 3902SOL    HW213148   1.595   5.543   8.861
 3903SOL     OW13149   1.827   3.889   8.417
 3903SOL    HW113150   1.870   3.807   8.396
 3903SOL    HW213151   1.751   3.892   8.358
 3904SOL     OW13152   0.257   4.038   8.152
 3904SOL    HW113153   0.171   4.074   8.132
 3904SOL    HW213154   0.259   4.032   8.247
 3905SOL     OW13155   1.203   5.321   7.483
 3905SOL    HW113156   1.198   5.228   7.507
 3905SOL    HW213157   1.138   5.332   7.414
 3906SOL     OW13158   0.825   4.731   8.827
 3906SOL    HW113159   0.869   4.719   8.743
 3906SOL    HW213160   0.820   4.826   8.838
 3907SOL     OW13161   0.916   4.633   7.745
 3907SOL    HW113162   0.970   4.664   7.673
 3907SOL    HW213163   0.969   4.566   7.788
 3908SOL     OW13164   1.481   5.373   7.493
 3908SOL    HW113165   1.389   5.352   7.474
 3908SOL    HW213166   1.524   5.372   7.407
 3909SOL     OW13167   0.366   5.028   8.941
 3909SOL    HW113168   0.348   5.105   8.888
 3909SOL    HW213169   0.296   4.966   8.920
 3910SOL     OW13170   1.591   4.994   8.721
 3910SOL    HW113171   1.679   4.998   8.758
 3910SOL    HW213172   1.544   5.066   8.764
 3911SOL     OW13173   1.066   4.840   8.166
 3911SOL    HW113174   0.995   4.786   8.199
 3911SOL    HW213175   1.134   4.777   8.139
 3912SOL     OW13176   1.016   3.972   8.430
 3912SOL    HW113177   1.005   3.931   8.344
 3912SOL    HW213178   1.015   3.899   8.492
 3913SOL     OW13179   0.608   5.214   7.934
 3913SOL    HW113180   0.662   5.165   7.872
 3913SOL    HW213181   0.522   5.219   7.892
 3914SOL     OW13182   1.734   4.121   8.835
 3914SOL    HW113183   1.810   4.179   8.836
 3914SOL    HW213184   1.759   4.051   8.774
 3915SOL     OW13185   0.250   5.058   7.716
 3915SOL    HW113186   0.155   5.059   7.711
 3915SOL    HW213187   0.270   5.099   7.801
 3916SOL     OW13188   0.103   4.726   9.161
 3916SOL    HW113189   0.071   4.813   9.186
 3916SOL    HW213190   0.189   4.719   9.202
 3917SOL     OW13191   0.679   3.921   8.947
 3917SOL    HW113192   0.764   3.898   8.908
 3917SOL    HW213193   0.702   3.951   9.035
 3918SOL     OW13194   0.098   4.077   7.473
 3918SOL    HW113195   0.034   4.127   7.524
 3918SOL    HW213196   0.119   4.132   7.398
 3919SOL     OW13197   1.419   4.581   8.844
 3919SOL    HW113198   1.370   4.642   8.790
 3919SOL    HW213199   1.508   4.582   8.808
 3920SOL     OW13200   0.089   3.955   7.819
 3920SOL    HW113201   0.029   3.957   7.744
 3920SOL    HW213202   0.166   3.908   7.788
 3921SOL     OW13203   1.183   5.053   7.569
 3921SOL    HW113204   1.093   5.020   7.571
 3921SOL    HW213205   1.209   5.056   7.661
 3922SOL     OW13206   0.622   4.559   8.890
 3922SOL    HW113207   0.680   4.634   8.875
 3922SOL    HW213208   0.680   4.483   8.892
 3923SOL     OW13209   1.484   5.526   8.446
 3923SOL    HW113210   1.515   5.586   8.377
 3923SOL    HW213211   1.557   5.465   8.459
 3924SOL     OW13212   0.710   4.282   9.147
 3924SOL    HW113213   0.761   4.338   9.204
 3924SOL    HW213214   0.729   4.193   9.177
 3925SOL     OW13215   1.476   4.919   9.073
 3925SOL    HW113216   1.471   4.932   9.168
 3925SOL    HW213217   1.567   4.935   9.051
 3926SOL     OW13218   0.389   5.467   9.018
 3926SOL    HW113219   0.301   5.496   8.993
 3926SOL    HW213220   0.376   5.380   9.055
 3927SOL     OW13221   1.656   4.597   8.706
 3927SOL    HW113222   1.664   4.512   8.662
 3927SOL    HW213223   1.646   4.659   8.634
 3928SOL     OW13224   1.227   4.028   7.912
 3928SOL    HW113225   1.313   4.020   7.869
 3928SOL    HW213226   1.239   4.096   7.978
 3929SOL     OW13227   0.596   4.454   8.129
 3929SOL    HW113228   0.636   4.540   8.117
 3929SOL    HW213229   0.532   4.447   8.058
 3930SOL     OW13230   1.756   4.089   9.112
 3930SOL    HW113231   1.751   4.107   9.018
 3930SOL    HW213232   1.681   4.033   9.130
 3931SOL     OW13233   1.748   4.656   8.958
 3931SOL    HW113234   1.747   4.752   8.964
 3931SOL    HW213235   1.730   4.637   8.866
 3932SOL     OW13236   0.857   5.089   7.493
 3932SOL    HW113237   0.826   5.128   7.575
 3932SOL    HW213238   0.883   5.164   7.439
 3933SOL     OW13239   0.677   5.507   8.401
 3933SOL    HW113240   0.662   5.591   8.357
 3933SOL    HW213241   0.768   5.486   8.382
 3934SOL     OW13242   0.870   4.697   8.301
 3934SOL    HW113243   0.921   4.624   8.336
 3934SOL    HW213244   0.830   4.738   8.378
 3935SOL     OW13245   1.063   4.700   7.531
 3935SOL    HW113246   1.048   4.759   7.457
 3935SOL    HW213247   1.142   4.652   7.508
 3936SOL     OW13248   1.858   5.267   8.299
 3936SOL    HW113249   1.782   5.248   8.243
 3936SOL    HW213250   1.878   5.184   8.342
 3937SOL     OW13251   0.212   5.026   9.303
 3937SOL    HW113252   0.120   5.011   9.280
 3937SOL    HW213253   0.213   5.021   9.399
 3938SOL     OW13254   0.140   4.986   8.103
 3938SOL    HW113255   0.064   4.939   8.138
 3938SOL    HW213256   0.197   4.917   8.070
 3939SOL     OW13257   0.683   5.133   9.080
 3939SOL    HW113258   0.603   5.093   9.112
 3939SOL    HW213259   0.684   5.220   9.120
 3940SOL     OW13260   1.787   3.903   8.687
 3940SOL    HW113261   1.829   3.819   8.706
 3940SOL    HW213262   1.799   3.914   8.592
 3941SOL     OW13263   0.443   4.157   7.977
 3941SOL    HW113264   0.471   4.087   7.918
 3941SOL    HW213265   0.387   4.114   8.041
 3942SOL     OW13266   1.673   5.232   8.555
 3942SOL    HW113267   1.610   5.200   8.491
 3942SOL    HW213268   1.708   5.153   8.597
 3943SOL     OW13269   0.355   4.285   8.745
 3943SOL    HW113270   0.401   4.224   8.804
 3943SOL    HW213271   0.371   4.249   8.657
 3944SOL     OW13272   0.830   5.313   8.121
 3944SOL    HW113273   0.815   5.377   8.052
 3944SOL    HW213274   0.757   5.252   8.113
 3945SOL     OW13275   1.436   3.962   8.568
 3945SOL    HW113276   1.484   3.895   8.617
 3945SOL    HW213277   1.384   4.007   8.634
 3946SOL     OW13278   1.010   3.739   8.581
 3946SOL    HW113279   0.955   3.672   8.541
 3946SOL    HW213280   1.098   3.702   8.581
 3947SOL     OW13281   0.772   5.058   7.782
 3947SOL    HW113282   0.751   4.965   7.785
 3947SOL    HW213283   0.859   5.063   7.823
 3948SOL     OW13284   0.620   5.288   8.734
 3948SOL    HW113285   0.619   5.375   8.774
 3948SOL    HW213286   0.709   5.277   8.702
 3949SOL     OW13287   1.366   3.761   7.640
 3949SOL    HW113288   1.410   3.694   7.587
 3949SOL    HW213289   1.277   3.726   7.653
 3950SOL     OW13290   1.256   4.179   8.126
 3950SOL    HW113291   1.224   4.269   8.129
 3950SOL    HW213292   1.276   4.157   8.217
 3951SOL     OW13293   1.556   3.915   8.314
 3951SOL    HW113294   1.525   3.946   8.399
 3951SOL    HW213295   1.575   3.995   8.264
 3952SOL     OW13296   0.052   4.765   7.717
 3952SOL    HW113297   0.143   4.740   7.705
 3952SOL    HW213298   0.038   4.761   7.812
 3953SOL     OW13299   0.888   5.389   7.787
 3953SOL    HW113300   0.812   5.374   7.731
 3953SOL    HW213301   0.863   5.463   7.842
 3954SOL     OW13302   0.243   4.422   9.395
 3954SOL    HW113303   0.208   4.371   9.468
 3954SOL    HW213304   0.237   4.364   9.319
 3955SOL     OW13305   0.236   3.991  10.292
 3955SOL    HW113306   0.258   3.962  10.381
 3955SOL    HW213307   0.156   3.943  10.270
 3956SOL     OW13308   8.006   4.108   9.916
 3956SOL    HW113309   7.915   4.095   9.944
 3956SOL    HW213310   8.014   4.056   9.837
 3957SOL     OW13311   0.576   5.026  10.510
 3957SOL    HW113312   0.489   5.026  10.468
 3957SOL    HW213313   0.589   5.117  10.536
 3958SOL     OW13314   1.586   5.246  10.016
 3958SOL    HW113315   1.539   5.216  10.094
 3958SOL    HW213316   1.521   5.243   9.946
 3959SOL     OW13317   1.133   4.430  10.001
 3959SOL    HW113318   1.182   4.511   9.990
 3959SOL    HW213319   1.086   4.442  10.084
 3960SOL     OW13320   1.750   4.324   9.545
 3960SOL    HW113321   1.732   4.323   9.451
 3960SOL    HW213322   1.732   4.235   9.574
 3961SOL     OW13323   0.739   4.859  10.364
 3961SOL    HW113324   0.677   4.899  10.425
 3961SOL    HW213325   0.781   4.933  10.320
 3962SOL     OW13326   0.879   4.477  11.134
 3962SOL    HW113327   0.865   4.549  11.196
 3962SOL    HW213328   0.901   4.521  11.051
 3963SOL     OW13329   0.688   4.722   9.954
 3963SOL    HW113330   0.755   4.715  10.022
 3963SOL    HW213331   0.621   4.779   9.992
 3964SOL     OW13332   0.715   4.875  11.138
 3964SOL    HW113333   0.765   4.951  11.167
 3964SOL    HW213334   0.639   4.911  11.093
 3965SOL     OW13335   0.340   5.134  10.377
 3965SOL    HW113336   0.284   5.079  10.322
 3965SOL    HW213337   0.385   5.192  10.316
 3966SOL     OW13338   1.457   5.224  10.679
 3966SOL    HW113339   1.512   5.302  10.685
 3966SOL    HW213340   1.388   5.238  10.743
 3967SOL     OW13341   0.447   4.111  10.801
 3967SOL    HW113342   0.527   4.058  10.802
 3967SOL    HW213343   0.376   4.047  10.805
 3968SOL     OW13344   1.604   4.159  10.053
 3968SOL    HW113345   1.546   4.180   9.980
 3968SOL    HW213346   1.623   4.244  10.093
 3969SOL     OW13347   0.222   5.421   9.789
 3969SOL    HW113348   0.210   5.506   9.832
 3969SOL    HW213349   0.291   5.437   9.724
 3970SOL     OW13350   1.137   5.066  11.006
 3970SOL    HW113351   1.179   5.055  11.091
 3970SOL    HW213352   1.086   4.985  10.994
 3971SOL     OW13353   0.304   5.163   9.826
 3971SOL    HW113354   0.273   5.253   9.833
 3971SOL    HW213355   0.250   5.114   9.887
 3972SOL     OW13356   0.287   4.809  10.216
 3972SOL    HW113357   0.286   4.715  10.234
 3972SOL    HW213358   0.206   4.841  10.256
 3973SOL     OW13359   0.602   5.529  10.725
 3973SOL    HW113360   0.525   5.503  10.775
 3973SOL    HW213361   0.625   5.616  10.759
 3974SOL     OW13362   0.571   4.713   9.456
 3974SOL    HW113363   0.622   4.755   9.386
 3974SOL    HW213364   0.612   4.742   9.537
 3975SOL     OW13365   1.591   3.851  10.772
 3975SOL    HW113366   1.630   3.921  10.720
 3975SOL    HW213367   1.569   3.892  10.855
 3976SOL     OW13368   0.136   4.351   9.857
 3976SOL    HW113369   0.097   4.269   9.888
 3976SOL    HW213370   0.120   4.414   9.927
 3977SOL     OW13371   1.839   5.482   9.650
 3977SOL    HW113372   1.916   5.457   9.702
 3977SOL    HW213373   1.862   5.566   9.611
 3978SOL     OW13374   0.019   5.310   9.451
 3978SOL    HW113375   0.003   5.217   9.439
 3978SOL    HW213376  -0.001   5.326   9.543
 3979SOL     OW13377   1.698   4.644   9.963
 3979SOL    HW113378   1.775   4.592   9.939
 3979SOL    HW213379   1.675   4.691   9.883
 3980SOL     OW13380   1.652   4.825   9.743
 3980SOL    HW113381   1.738   4.819   9.701
 3980SOL    HW213382   1.665   4.888   9.814
 3981SOL     OW13383   0.153   4.484  10.896
 3981SOL    HW113384   0.249   4.491  10.894
 3981SOL    HW213385   0.125   4.564  10.942
 3982SOL     OW13386   0.620   5.120  10.047
 3982SOL    HW113387   0.576   5.035  10.052
 3982SOL    HW213388   0.604   5.150   9.957
 3983SOL     OW13389   1.278   4.956  10.732
 3983SOL    HW113390   1.305   4.889  10.670
 3983SOL    HW213391   1.343   4.951  10.803
 3984SOL     OW13392   0.828   3.730   9.831
 3984SOL    HW113393   0.868   3.812   9.802
 3984SOL    HW213394   0.734   3.749   9.830
 3985SOL     OW13395   0.171   4.639  10.575
 3985SOL    HW113396   0.263   4.614  10.574
 3985SOL    HW213397   0.143   4.637  10.484
 3986SOL     OW13398   1.528   4.729   9.512
 3986SOL    HW113399   1.460   4.669   9.545
 3986SOL    HW213400   1.575   4.757   9.591
 3987SOL     OW13401   1.179   5.539  10.937
 3987SOL    HW113402   1.187   5.598  10.862
 3987SOL    HW213403   1.196   5.452  10.902
 3988SOL     OW13404   0.357   3.977  11.160
 3988SOL    HW113405   0.405   4.057  11.182
 3988SOL    HW213406   0.265   4.001  11.169
 3989SOL     OW13407   1.456   5.151  10.240
 3989SOL    HW113408   1.398   5.162  10.316
 3989SOL    HW213409   1.450   5.058  10.219
 3990SOL     OW13410   1.624   5.508   9.880
 3990SOL    HW113411   1.633   5.466   9.794
 3990SOL    HW213412   1.627   5.435   9.943
 3991SOL     OW13413   0.592   4.435   9.578
 3991SOL    HW113414   0.593   4.520   9.534
 3991SOL    HW213415   0.530   4.447   9.650
 3992SOL     OW13416   1.278   4.105  10.248
 3992SOL    HW113417   1.191   4.066  10.254
 3992SOL    HW213418   1.333   4.049  10.303
 3993SOL     OW13419   1.573   5.406   9.619
 3993SOL    HW113420   1.667   5.420   9.612
 3993SOL    HW213421   1.544   5.387   9.530
 3994SOL     OW13422   0.787   4.340  10.755
 3994SOL    HW113423   0.761   4.310  10.843
 3994SOL    HW213424   0.759   4.269  10.697
 3995SOL     OW13425   1.390   4.201  10.986
 3995SOL    HW113426   1.397   4.244  11.071
 3995SOL    HW213427   1.444   4.123  10.994
 3996SOL     OW13428   0.948   4.605  10.899
 3996SOL    HW113429   1.002   4.538  10.857
 3996SOL    HW213430   0.900   4.645  10.826
 3997SOL     OW13431   0.996   4.131  10.535
 3997SOL    HW113432   0.904   4.141  10.558
 3997SOL    HW213433   0.994   4.090  10.448
 3998SOL     OW13434   1.056   4.423   9.732
 3998SOL    HW113435   1.075   4.417   9.825
 3998SOL    HW213436   0.972   4.377   9.722
 3999SOL     OW13437   0.099   4.515  10.078
 3999SOL    HW113438   0.177   4.525  10.132
 3999SOL    HW213439   0.052   4.599  10.087
 4000SOL     OW13440   0.128   5.550  10.873
 4000SOL    HW113441   0.129   5.540  10.968
 4000SOL    HW213442   0.040   5.522  10.847
 4001SOL     OW13443   0.901   4.074   9.508
 4001SOL    HW113444   0.942   4.138   9.450
 4001SOL    HW213445   0.909   3.991   9.461
 4002SOL     OW13446   1.698   4.297  11.147
 4002SOL    HW113447   1.669   4.372  11.094
 4002SOL    HW213448   1.726   4.232  11.083
 4003SOL     OW13449   1.386   4.865   9.844
 4003SOL    HW113450   1.466   4.850   9.794
 4003SOL    HW213451   1.334   4.924   9.790
 4004SOL     OW13452   0.558   3.895  10.208
 4004SOL    HW113453   0.559   3.930  10.296
 4004SOL    HW213454   0.556   3.972  10.151
 4005SOL     OW13455   1.003   5.176   9.779
 4005SOL    HW113456   0.970   5.250   9.728
 4005SOL    HW213457   0.971   5.193   9.868
 4006SOL     OW13458   0.364   5.547  10.172
 4006SOL    HW113459   0.406   5.461  10.183
 4006SOL    HW213460   0.434   5.610  10.191
 4007SOL     OW13461   1.804   4.780  10.194
 4007SOL    HW113462   1.761   4.755  10.112
 4007SOL    HW213463   1.734   4.778  10.260
 4008SOL     OW13464   1.220   5.266  10.826
 4008SOL    HW113465   1.212   5.193  10.888
 4008SOL    HW213466   1.163   5.242  10.753
 4009SOL     OW13467   0.305   4.661   9.546
 4009SOL    HW113468   0.392   4.686   9.513
 4009SOL    HW213469   0.283   4.583   9.495
 4010SOL     OW13470   1.480   4.490  10.038
 4010SOL    HW113471   1.485   4.442  10.121
 4010SOL    HW213472   1.564   4.537  10.032
 4011SOL     OW13473   0.467   4.993  11.052
 4011SOL    HW113474   0.443   4.999  10.959
 4011SOL    HW213475   0.384   4.975  11.097
 4012SOL     OW13476   1.121   5.505   9.544
 4012SOL    HW113477   1.043   5.466   9.584
 4012SOL    HW213478   1.146   5.443   9.475
 4013SOL     OW13479   0.195   3.982  10.808
 4013SOL    HW113480   0.161   4.051  10.865
 4013SOL    HW213481   0.165   3.901  10.849
 4014SOL     OW13482   1.618   5.117   9.420
 4014SOL    HW113483   1.587   5.197   9.377
 4014SOL    HW213484   1.559   5.048   9.390
 4015SOL     OW13485   0.449   5.474   9.618
 4015SOL    HW113486   0.500   5.516   9.687
 4015SOL    HW213487   0.514   5.423   9.568
 4016SOL     OW13488   1.399   3.829   9.758
 4016SOL    HW113489   1.393   3.805   9.666
 4016SOL    HW213490   1.493   3.834   9.775
 4017SOL     OW13491   0.233   5.509  10.535
 4017SOL    HW113492   0.284   5.432  10.561
 4017SOL    HW213493   0.200   5.487  10.448
 4018SOL     OW13494   0.948   5.424  10.200
 4018SOL    HW113495   1.031   5.378  10.215
 4018SOL    HW213496   0.905   5.373  10.131
 4019SOL     OW13497   0.409   4.419   9.791
 4019SOL    HW113498   0.429   4.326   9.802
 4019SOL    HW213499   0.315   4.425   9.802
 4020SOL     OW13500   1.519   3.952  11.031
 4020SOL    HW113501   1.526   3.971  11.125
 4020SOL    HW213502   1.459   3.878  11.026
 4021SOL     OW13503   0.653   3.834   9.414
 4021SOL    HW113504   0.713   3.761   9.429
 4021SOL    HW213505   0.598   3.805   9.341
 4022SOL     OW13506   0.763   4.004  11.069
 4022SOL    HW113507   0.845   3.955  11.063
 4022SOL    HW213508   0.716   3.964  11.142
 4023SOL     OW13509   0.877   5.254  10.509
 4023SOL    HW113510   0.859   5.214  10.424
 4023SOL    HW213511   0.945   5.199  10.547
 4024SOL     OW13512   1.334   4.315  10.741
 4024SOL    HW113513   1.367   4.284  10.826
 4024SOL    HW213514   1.374   4.401  10.730
 4025SOL     OW13515   0.818   5.111  10.265
 4025SOL    HW113516   0.903   5.100  10.223
 4025SOL    HW213517   0.756   5.118  10.193
 4026SOL     OW13518   0.926   4.234  10.206
 4026SOL    HW113519   0.902   4.225  10.113
 4026SOL    HW213520   0.958   4.147  10.231
 4027SOL     OW13521   0.562   3.787   9.803
 4027SOL    HW113522   0.480   3.786   9.853
 4027SOL    HW213523   0.554   3.862   9.744
 4028SOL     OW13524   1.433   4.928   9.347
 4028SOL    HW113525   1.464   4.852   9.396
 4028SOL    HW213526   1.346   4.945   9.383
 4029SOL     OW13527   0.283   3.775   9.484
 4029SOL    HW113528   0.336   3.840   9.438
 4029SOL    HW213529   0.346   3.721   9.531
 4030SOL     OW13530   0.946   3.974   9.764
 4030SOL    HW113531   0.921   4.010   9.679
 4030SOL    HW213532   1.040   3.988   9.770
 4031SOL     OW13533   1.078   4.410  10.762
 4031SOL    HW113534   1.017   4.336  10.762
 4031SOL    HW213535   1.165   4.369  10.755
 4032SOL     OW13536   1.208   5.301  10.115
 4032SOL    HW113537   1.230   5.360  10.043
 4032SOL    HW213538   1.292   5.285  10.159
 4033SOL     OW13539   0.476   4.884  10.034
 4033SOL    HW113540   0.414   4.860  10.103
 4033SOL    HW213541   0.429   4.866   9.952
 4034SOL     OW13542   1.257   5.509   9.926
 4034SOL    HW113543   1.304   5.574   9.873
 4034SOL    HW213544   1.184   5.558   9.964
 4035SOL     OW13545   1.026   4.252   9.340
 4035SOL    HW113546   0.985   4.336   9.319
 4035SOL    HW213547   1.095   4.275   9.403
 4036SOL     OW13548   0.097   4.313  10.694
 4036SOL    HW113549   0.187   4.295  10.667
 4036SOL    HW213550   0.104   4.377  10.764
 4037SOL     OW13551   0.561   3.951  10.482
 4037SOL    HW113552   0.603   3.874  10.520
 4037SOL    HW213553   0.469   3.943  10.508
 4038SOL     OW13554   0.865   4.180   9.945
 4038SOL    HW113555   0.826   4.235   9.877
 4038SOL    HW213556   0.892   4.101   9.898
 4039SOL     OW13557   1.011   3.787  10.061
 4039SOL    HW113558   0.956   3.780   9.983
 4039SOL    HW213559   0.992   3.709  10.112
 4040SOL     OW13560   1.445   4.886  10.162
 4040SOL    HW113561   1.375   4.821  10.152
 4040SOL    HW213562   1.485   4.892  10.076
 4041SOL     OW13563   1.464   4.344  10.277
 4041SOL    HW113564   1.411   4.264  10.272
 4041SOL    HW213565   1.522   4.328  10.351
 4042SOL     OW13566   1.827   4.535   9.700
 4042SOL    HW113567   1.888   4.486   9.754
 4042SOL    HW213568   1.802   4.474   9.630
 4043SOL     OW13569   0.490   5.147   9.454
 4043SOL    HW113570   0.411   5.114   9.497
 4043SOL    HW213571   0.495   5.097   9.372
 4044SOL     OW13572   1.688   4.985   9.959
 4044SOL    HW113573   1.783   4.977   9.969
 4044SOL    HW213574   1.671   5.079   9.969
 4045SOL     OW13575   1.394   4.303   9.377
 4045SOL    HW113576   1.341   4.272   9.450
 4045SOL    HW213577   1.483   4.275   9.398
 4046SOL     OW13578   0.531   3.981   9.616
 4046SOL    HW113579   0.581   3.933   9.550
 4046SOL    HW213580   0.507   4.063   9.573
 4047SOL     OW13581   1.747   4.967  10.873
 4047SOL    HW113582   1.833   4.932  10.853
 4047SOL    HW213583   1.763   5.058  10.899
 4048SOL     OW13584   1.050   5.088  10.653
 4048SOL    HW113585   0.974   5.050  10.696
 4048SOL    HW213586   1.124   5.038  10.687
 4049SOL     OW13587   1.611   5.357  10.974
 4049SOL    HW113588   1.598   5.390  10.885
 4049SOL    HW213589   1.691   5.305  10.969
 4050SOL     OW13590   1.144   4.953  10.414
 4050SOL    HW113591   1.072   4.979  10.471
 4050SOL    HW213592   1.115   4.980  10.326
 4051SOL     OW13593   1.609   4.808  10.386
 4051SOL    HW113594   1.599   4.873  10.455
 4051SOL    HW213595   1.540   4.828  10.323
 4052SOL     OW13596   0.917   3.814  10.698
 4052SOL    HW113597   0.938   3.794  10.607
 4052SOL    HW213598   0.997   3.852  10.733
 4053SOL     OW13599   0.983   4.837  11.034
 4053SOL    HW113600   0.892   4.852  11.058
 4053SOL    HW213601   0.981   4.758  10.980
 4054SOL     OW13602   0.711   4.787   9.683
 4054SOL    HW113603   0.698   4.764   9.775
 4054SOL    HW213604   0.787   4.736   9.656
 4055SOL     OW13605   0.427   4.545  10.566
 4055SOL    HW113606   0.495   4.558  10.633
 4055SOL    HW213607   0.401   4.454  10.576
 4056SOL     OW13608   1.260   4.092  10.600
 4056SOL    HW113609   1.293   4.172  10.640
 4056SOL    HW213610   1.171   4.113  10.573
 4057SOL     OW13611   0.044   5.319  10.638
 4057SOL    HW113612   0.102   5.392  10.616
 4057SOL    HW213613   0.082   5.282  10.718
 4058SOL     OW13614   0.329   4.833   9.799
 4058SOL    HW113615   0.335   4.899   9.730
 4058SOL    HW213616   0.335   4.749   9.752
 4059SOL     OW13617   0.546   4.255  10.175
 4059SOL    HW113618   0.559   4.314  10.101
 4059SOL    HW213619   0.617   4.277  10.236
 4060SOL     OW13620   1.247   5.072   9.702
 4060SOL    HW113621   1.306   5.139   9.735
 4060SOL    HW213622   1.161   5.097   9.735
 4061SOL     OW13623   1.296   5.189  10.457
 4061SOL    HW113624   1.350   5.189  10.536
 4061SOL    HW213625   1.245   5.108  10.463
 4062SOL     OW13626   1.581   4.329   9.806
 4062SOL    HW113627   1.527   4.395   9.850
 4062SOL    HW213628   1.632   4.378   9.742
 4063SOL     OW13629   0.348   5.262  10.616
 4063SOL    HW113630   0.331   5.211  10.537
 4063SOL    HW213631   0.443   5.270  10.621
 4064SOL     OW13632   0.432   4.458  10.923
 4064SOL    HW113633   0.488   4.505  10.862
 4064SOL    HW213634   0.483   4.381  10.949
 4065SOL     OW13635   1.618   4.513  11.002
 4065SOL    HW113636   1.531   4.552  10.992
 4065SOL    HW213637   1.670   4.549  10.931
 4066SOL     OW13638   0.996   3.862  11.068
 4066SOL    HW113639   1.054   3.935  11.046
 4066SOL    HW213640   1.044   3.784  11.040
 4067SOL     OW13641   0.498   3.758  11.067
 4067SOL    HW113642   0.452   3.708  11.000
 4067SOL    HW213643   0.443   3.835  11.081
 4068SOL     OW13644   0.594   4.598  10.346
 4068SOL    HW113645   0.626   4.688  10.347
 4068SOL    HW213646   0.533   4.593  10.420
 4069SOL     OW13647   1.335   4.583  10.332
 4069SOL    HW113648   1.254   4.567  10.282
 4069SOL    HW213649   1.387   4.504  10.318
 4070SOL     OW13650   1.199   4.247   9.570
 4070SOL    HW113651   1.209   4.169   9.624
 4070SOL    HW213652   1.157   4.311   9.628
 4071SOL     OW13653   0.300   3.910  10.556
 4071SOL    HW113654   0.258   3.942  10.636
 4071SOL    HW213655   0.281   3.816  10.555
 4072SOL     OW13656   0.046   5.031  10.581
 4072SOL    HW113657   0.074   4.978  10.655
 4072SOL    HW213658   0.051   5.121  10.613
 4073SOL     OW13659   0.725   4.352  10.364
 4073SOL    HW113660   0.798   4.338  10.305
 4073SOL    HW213661   0.695   4.441  10.345
 4074SOL     OW13662   1.747   4.685  11.179
 4074SOL    HW113663   1.709   4.618  11.121
 4074SOL    HW213664   1.679   4.702  11.244
 4075SOL     OW13665   0.319   3.793   9.925
 4075SOL    HW113666   0.289   3.881   9.946
 4075SOL    HW213667   0.324   3.748  10.009
 4076SOL     OW13668   1.617   4.094   9.667
 4076SOL    HW113669   1.657   4.029   9.725
 4076SOL    HW213670   1.597   4.168   9.725
 4077SOL     OW13671   1.024   4.484  10.263
 4077SOL    HW113672   1.015   4.499  10.358
 4077SOL    HW213673   1.000   4.392  10.251
 4078SOL     OW13674   0.981   5.288  11.035
 4078SOL    HW113675   0.961   5.332  10.952
 4078SOL    HW213676   1.025   5.208  11.009
 4079SOL     OW13677   1.847   5.227  10.912
 4079SOL    HW113678   1.871   5.250  10.823
 4079SOL    HW213679   1.928   5.237  10.962
 4080SOL     OW13680   0.365   4.672  11.098
 4080SOL    HW113681   0.436   4.682  11.160
 4080SOL    HW213682   0.388   4.593  11.048
 4081SOL     OW13683   1.511   3.999   9.432
 4081SOL    HW113684   1.455   3.927   9.463
 4081SOL    HW213685   1.552   4.033   9.512
 4082SOL     OW13686   1.285   4.551   9.336
 4082SOL    HW113687   1.327   4.465   9.341
 4082SOL    HW213688   1.318   4.589   9.255
 4083SOL     OW13689   1.065   5.065  10.171
 4083SOL    HW113690   1.072   4.993  10.109
 4083SOL    HW213691   1.120   5.134  10.133
 4084SOL     OW13692   0.320   4.529  10.248
 4084SOL    HW113693   0.414   4.543  10.239
 4084SOL    HW213694   0.313   4.440  10.284
 4085SOL     OW13695   0.330   4.242  10.330
 4085SOL    HW113696   0.295   4.155  10.311
 4085SOL    HW213697   0.406   4.250  10.273
 4086SOL     OW13698   1.135   4.094  10.999
 4086SOL    HW113699   1.088   4.149  11.062
 4086SOL    HW213700   1.220   4.136  10.989
 4087SOL     OW13701   1.158   3.916  10.787
 4087SOL    HW113702   1.147   3.980  10.857
 4087SOL    HW213703   1.202   3.963  10.717
 4088SOL     OW13704   7.984   5.030   9.517
 4088SOL    HW113705   7.893   5.043   9.542
 4088SOL    HW213706   7.999   4.936   9.527
 4089SOL     OW13707   0.126   5.475  10.280
 4089SOL    HW113708   0.106   5.400  10.223
 4089SOL    HW213709   0.200   5.517  10.238
 4090SOL     OW13710   0.490   5.300  10.215
 4090SOL    HW113711   0.560   5.359  10.242
 4090SOL    HW213712   0.532   5.239  10.155
 4091SOL     OW13713   0.963   4.512  10.531
 4091SOL    HW113714   1.023   4.494  10.603
 4091SOL    HW213715   0.884   4.461  10.552
 4092SOL     OW13716   0.072   4.283  10.424
 4092SOL    HW113717   0.165   4.272  10.403
 4092SOL    HW213718   0.069   4.287  10.520
 4093SOL     OW13719   0.203   4.232  10.994
 4093SOL    HW113720   0.288   4.222  10.952
 4093SOL    HW213721   0.171   4.316  10.963
 4094SOL     OW13722   1.384   4.656  10.966
 4094SOL    HW113723   1.405   4.749  10.959
 4094SOL    HW213724   1.378   4.625  10.875
 4095SOL     OW13725   0.817   4.293   9.681
 4095SOL    HW113726   0.827   4.219   9.620
 4095SOL    HW213727   0.742   4.342   9.646
 4096SOL     OW13728   1.640   4.322  10.490
 4096SOL    HW113729   1.632   4.259  10.561
 4096SOL    HW213730   1.729   4.308  10.456
 4097SOL     OW13731   0.294   5.258  11.034
 4097SOL    HW113732   0.253   5.329  11.082
 4097SOL    HW213733   0.282   5.181  11.090
 4098SOL     OW13734   0.719   4.165  10.560
 4098SOL    HW113735   0.662   4.093  10.534
 4098SOL    HW213736   0.710   4.229  10.489
 4099SOL     OW13737   0.905   5.406  10.792
 4099SOL    HW113738   0.892   5.357  10.710
 4099SOL    HW213739   0.898   5.498  10.766
 4100SOL     OW13740   0.459   4.205   9.481
 4100SOL    HW113741   0.512   4.283   9.497
 4100SOL    HW213742   0.374   4.225   9.520
 4101SOL     OW13743   0.158   4.845  10.763
 4101SOL    HW113744   0.136   4.799  10.844
 4101SOL    HW213745   0.162   4.776  10.696
 4102SOL     OW13746   1.310   4.766  10.530
 4102SOL    HW113747   1.329   4.701  10.462
 4102SOL    HW213748   1.252   4.829  10.487
 4103SOL     OW13749   1.313   4.580   9.612
 4103SOL    HW113750   1.240   4.540   9.658
 4103SOL    HW213751   1.293   4.566   9.519
 4104SOL     OW13752   1.793   5.458  10.480
 4104SOL    HW113753   1.851   5.481  10.408
 4104SOL    HW213754   1.753   5.375  10.454
 4105SOL     OW13755   1.241   5.463  10.421
 4105SOL    HW113756   1.324   5.488  10.381
 4105SOL    HW213757   1.250   5.369  10.437
 4106SOL     OW13758   0.060   4.913  10.340
 4106SOL    HW113759   0.057   4.956  10.425
 4106SOL    HW213760  -0.010   4.954  10.289
 4107SOL     OW13761   0.685   5.399  11.054
 4107SOL    HW113762   0.622   5.469  11.038
 4107SOL    HW213763   0.755   5.414  10.991
 4108SOL     OW13764   1.735   3.888   9.809
 4108SOL    HW113765   1.801   3.870   9.743
 4108SOL    HW213766   1.716   3.802   9.848
 4109SOL     OW13767   1.401   5.286   9.806
 4109SOL    HW113768   1.455   5.319   9.735
 4109SOL    HW213769   1.345   5.360   9.831
 4110SOL     OW13770   0.170   5.468  11.151
 4110SOL    HW113771   0.105   5.420  11.203
 4110SOL    HW213772   0.214   5.525  11.215
 4111SOL     OW13773   1.279   4.663   9.989
 4111SOL    HW113774   1.351   4.602  10.002
 4111SOL    HW213775   1.313   4.728   9.928
 4112SOL     OW13776   0.794   5.004  10.728
 4112SOL    HW113777   0.767   5.046  10.809
 4112SOL    HW213778   0.720   5.015  10.668
 4113SOL     OW13779   0.665   5.355   9.468
 4113SOL    HW113780   0.682   5.369   9.375
 4113SOL    HW213781   0.612   5.276   9.472
 4114SOL     OW13782   1.615   5.452  10.706
 4114SOL    HW113783   1.673   5.452  10.630
 4114SOL    HW213784   1.598   5.544  10.724
 4115SOL     OW13785   1.841   3.890  10.280
 4115SOL    HW113786   1.874   3.804  10.255
 4115SOL    HW213787   1.756   3.898  10.236
 4116SOL     OW13788   0.260   4.042  10.015
 4116SOL    HW113789   0.172   4.072   9.993
 4116SOL    HW213790   0.260   4.034  10.111
 4117SOL     OW13791   1.199   5.325   9.352
 4117SOL    HW113792   1.195   5.232   9.375
 4117SOL    HW213793   1.135   5.335   9.281
 4118SOL     OW13794   0.824   4.732  10.691
 4118SOL    HW113795   0.864   4.718  10.605
 4118SOL    HW213796   0.819   4.827  10.699
 4119SOL     OW13797   0.921   4.640   9.606
 4119SOL    HW113798   0.978   4.671   9.536
 4119SOL    HW213799   0.971   4.569   9.648
 4120SOL     OW13800   1.476   5.387   9.355
 4120SOL    HW113801   1.387   5.358   9.336
 4120SOL    HW213802   1.521   5.381   9.270
 4121SOL     OW13803   0.369   5.026  10.802
 4121SOL    HW113804   0.349   5.105  10.750
 4121SOL    HW213805   0.298   4.965  10.781
 4122SOL     OW13806   1.595   5.003  10.581
 4122SOL    HW113807   1.672   4.995  10.637
 4122SOL    HW213808   1.541   5.070  10.624
 4123SOL     OW13809   1.065   4.839  10.027
 4123SOL    HW113810   0.992   4.786  10.060
 4123SOL    HW213811   1.132   4.776  10.002
 4124SOL     OW13812   1.025   3.970  10.279
 4124SOL    HW113813   1.022   3.926  10.194
 4124SOL    HW213814   1.021   3.899  10.343
 4125SOL     OW13815   0.605   5.219   9.793
 4125SOL    HW113816   0.657   5.168   9.730
 4125SOL    HW213817   0.515   5.209   9.763
 4126SOL     OW13818   1.737   4.111  10.697
 4126SOL    HW113819   1.809   4.174  10.693
 4126SOL    HW213820   1.762   4.042  10.636
 4127SOL     OW13821   0.254   5.058   9.582
 4127SOL    HW113822   0.158   5.059   9.576
 4127SOL    HW213823   0.273   5.100   9.666
 4128SOL     OW13824   0.102   4.725  11.022
 4128SOL    HW113825   0.070   4.812  11.046
 4128SOL    HW213826   0.188   4.719  11.063
 4129SOL     OW13827   0.678   3.922  10.811
 4129SOL    HW113828   0.761   3.899  10.768
 4129SOL    HW213829   0.704   3.953  10.898
 4130SOL     OW13830   0.107   4.081   9.338
 4130SOL    HW113831   0.034   4.122   9.385
 4130SOL    HW213832   0.122   4.139   9.263
 4131SOL     OW13833   1.421   4.581  10.706
 4131SOL    HW113834   1.370   4.641  10.651
 4131SOL    HW213835   1.508   4.582  10.667
 4132SOL     OW13836   0.090   3.968   9.671
 4132SOL    HW113837   0.040   3.947   9.592
 4132SOL    HW213838   0.174   3.923   9.659
 4133SOL     OW13839   1.180   5.055   9.430
 4133SOL    HW113840   1.093   5.015   9.430
 4133SOL    HW213841   1.207   5.053   9.522
 4134SOL     OW13842   0.624   4.557  10.752
 4134SOL    HW113843   0.681   4.631  10.737
 4134SOL    HW213844   0.682   4.481  10.754
 4135SOL     OW13845   1.487   5.526  10.310
 4135SOL    HW113846   1.519   5.580  10.238
 4135SOL    HW213847   1.558   5.464  10.327
 4136SOL     OW13848   0.710   4.279  11.010
 4136SOL    HW113849   0.762   4.335  11.068
 4136SOL    HW213850   0.729   4.190  11.039
 4137SOL     OW13851   1.475   4.916  10.935
 4137SOL    HW113852   1.468   4.934  11.029
 4137SOL    HW213853   1.567   4.935  10.914
 4138SOL     OW13854   0.387   5.464  10.876
 4138SOL    HW113855   0.299   5.495  10.852
 4138SOL    HW213856   0.373   5.378  10.915
 4139SOL     OW13857   1.659   4.597  10.568
 4139SOL    HW113858   1.659   4.511  10.525
 4139SOL    HW213859   1.648   4.659  10.496
 4140SOL     OW13860   1.215   4.041   9.766
 4140SOL    HW113861   1.279   3.969   9.761
 4140SOL    HW213862   1.244   4.092   9.842
 4141SOL     OW13863   0.586   4.463   9.998
 4141SOL    HW113864   0.631   4.545   9.978
 4141SOL    HW213865   0.527   4.450   9.924
 4142SOL     OW13866   1.751   4.089  10.973
 4142SOL    HW113867   1.747   4.104  10.879
 4142SOL    HW213868   1.676   4.033  10.992
 4143SOL     OW13869   1.760   4.654  10.818
 4143SOL    HW113870   1.744   4.748  10.828
 4143SOL    HW213871   1.737   4.635  10.727
 4144SOL     OW13872   0.858   5.090   9.356
 4144SOL    HW113873   0.825   5.127   9.437
 4144SOL    HW213874   0.882   5.166   9.303
 4145SOL     OW13875   0.672   5.500  10.252
 4145SOL    HW113876   0.655   5.591  10.228
 4145SOL    HW213877   0.767   5.489  10.238
 4146SOL     OW13878   0.869   4.698  10.164
 4146SOL    HW113879   0.918   4.623  10.197
 4146SOL    HW213880   0.829   4.736  10.242
 4147SOL     OW13881   1.074   4.713   9.397
 4147SOL    HW113882   1.053   4.762   9.318
 4147SOL    HW213883   1.149   4.658   9.373
 4148SOL     OW13884   1.852   5.272  10.156
 4148SOL    HW113885   1.773   5.255  10.104
 4148SOL    HW213886   1.873   5.188  10.197
 4149SOL     OW13887   0.214   5.024  11.166
 4149SOL    HW113888   0.122   5.010  11.142
 4149SOL    HW213889   0.214   5.022  11.262
 4150SOL     OW13890   0.142   4.988   9.961
 4150SOL    HW113891   0.065   4.943   9.996
 4150SOL    HW213892   0.198   4.918   9.927
 4151SOL     OW13893   0.687   5.132  10.948
 4151SOL    HW113894   0.604   5.093  10.975
 4151SOL    HW213895   0.685   5.221  10.983
 4152SOL     OW13896   1.803   3.896  10.549
 4152SOL    HW113897   1.813   3.801  10.559
 4152SOL    HW213898   1.817   3.913  10.456
 4153SOL     OW13899   0.444   4.156   9.836
 4153SOL    HW113900   0.474   4.086   9.778
 4153SOL    HW213901   0.388   4.113   9.900
 4154SOL     OW13902   1.672   5.226  10.412
 4154SOL    HW113903   1.607   5.199  10.348
 4154SOL    HW213904   1.686   5.149  10.467
 4155SOL     OW13905   0.354   4.284  10.607
 4155SOL    HW113906   0.401   4.223  10.664
 4155SOL    HW213907   0.367   4.249  10.519
 4156SOL     OW13908   0.830   5.300   9.987
 4156SOL    HW113909   0.797   5.352   9.914
 4156SOL    HW213910   0.762   5.235  10.003
 4157SOL     OW13911   1.425   3.957  10.424
 4157SOL    HW113912   1.442   3.869  10.457
 4157SOL    HW213913   1.376   4.000  10.494
 4158SOL     OW13914   1.008   3.737  10.440
 4158SOL    HW113915   0.957   3.674  10.390
 4158SOL    HW213916   1.096   3.699  10.445
 4159SOL     OW13917   0.773   5.060   9.644
 4159SOL    HW113918   0.747   4.967   9.645
 4159SOL    HW213919   0.860   5.061   9.683
 4160SOL     OW13920   0.622   5.286  10.597
 4160SOL    HW113921   0.620   5.371  10.642
 4160SOL    HW213922   0.711   5.278  10.562
 4161SOL     OW13923   1.363   3.769   9.492
 4161SOL    HW113924   1.403   3.698   9.441
 4161SOL    HW213925   1.273   3.741   9.506
 4162SOL     OW13926   1.285   4.190   9.984
 4162SOL    HW113927   1.237   4.273   9.988
 4162SOL    HW213928   1.288   4.159  10.075
 4163SOL     OW13929   1.582   3.916  10.194
 4163SOL    HW113930   1.528   3.946  10.268
 4163SOL    HW213931   1.584   3.991  10.135
 4164SOL     OW13932   0.056   4.771   9.579
 4164SOL    HW113933   0.145   4.739   9.566
 4164SOL    HW213934   0.038   4.755   9.672
 4165SOL     OW13935   0.885   5.395   9.653
 4165SOL    HW113936   0.810   5.374   9.596
 4165SOL    HW213937   0.853   5.463   9.711
 4166SOL     OW13938   0.246   4.422  11.258
 4166SOL    HW113939   0.208   4.371  11.329
 4166SOL    HW213940   0.240   4.365  11.181
 4167SOL     OW13941   0.239   3.996  12.148
 4167SOL    HW113942   0.275   3.967  12.232
 4167SOL    HW213943   0.156   3.950  12.140
 4168SOL     OW13944   8.005   4.110  11.778
 4168SOL    HW113945   7.915   4.095  11.805
 4168SOL    HW213946   8.015   4.058  11.698
 4169SOL     OW13947   0.547   4.974  12.340
 4169SOL    HW113948   0.473   5.015  12.296
 4169SOL    HW213949   0.547   5.012  12.428
 4170SOL     OW13950   1.539   5.244  11.893
 4170SOL    HW113951   1.505   5.325  11.931
 4170SOL    HW213952   1.493   5.236  11.809
 4171SOL     OW13953   1.135   4.422  11.864
 4171SOL    HW113954   1.180   4.506  11.853
 4171SOL    HW213955   1.084   4.432  11.944
 4172SOL     OW13956   1.764   4.325  11.405
 4172SOL    HW113957   1.742   4.323  11.312
 4172SOL    HW213958   1.734   4.241  11.439
 4173SOL     OW13959   0.769   4.867  12.237
 4173SOL    HW113960   0.687   4.895  12.275
 4173SOL    HW213961   0.800   4.942  12.186
 4174SOL     OW13962   0.690   4.720  11.818
 4174SOL    HW113963   0.754   4.714  11.889
 4174SOL    HW213964   0.621   4.777  11.853
 4175SOL     OW13965   0.344   5.129  12.227
 4175SOL    HW113966   0.277   5.082  12.177
 4175SOL    HW213967   0.384   5.189  12.164
 4176SOL     OW13968   1.601   4.160  11.919
 4176SOL    HW113969   1.539   4.176  11.848
 4176SOL    HW213970   1.587   4.233  11.980
 4177SOL     OW13971   0.224   5.416  11.651
 4177SOL    HW113972   0.197   5.501  11.687
 4177SOL    HW213973   0.293   5.438  11.588
 4178SOL     OW13974   0.304   5.160  11.689
 4178SOL    HW113975   0.274   5.250  11.694
 4178SOL    HW213976   0.248   5.112  11.750
 4179SOL     OW13977   0.283   4.809  12.072
 4179SOL    HW113978   0.281   4.716  12.092
 4179SOL    HW213979   0.204   4.844  12.113
 4180SOL     OW13980   0.571   4.713  11.317
 4180SOL    HW113981   0.622   4.757  11.248
 4180SOL    HW213982   0.612   4.742  11.399
 4181SOL     OW13983   0.137   4.352  11.720
 4181SOL    HW113984   0.097   4.270  11.750
 4181SOL    HW213985   0.122   4.414  11.791
 4182SOL     OW13986   1.848   5.474  11.502
 4182SOL    HW113987   1.922   5.452  11.559
 4182SOL    HW213988   1.863   5.566  11.479
 4183SOL     OW13989   0.018   5.308  11.313
 4183SOL    HW113990   0.002   5.214  11.301
 4183SOL    HW213991   0.000   5.324  11.406
 4184SOL     OW13992   1.699   4.647  11.820
 4184SOL    HW113993   1.768   4.593  11.783
 4184SOL    HW213994   1.666   4.698  11.746
 4185SOL     OW13995   1.648   4.824  11.604
 4185SOL    HW113996   1.735   4.823  11.563
 4185SOL    HW213997   1.652   4.894  11.668
 4186SOL     OW13998   0.154   4.452   0.286
 4186SOL    HW113999   0.148   4.421   0.377
 4186SOL    HW214000   0.216   4.525   0.290
 4187SOL     OW14001   0.615   5.119  11.905
 4187SOL    HW114002   0.571   5.035  11.911
 4187SOL    HW214003   0.599   5.149  11.815
 4188SOL     OW14004   0.828   3.733  11.693
 4188SOL    HW114005   0.867   3.815  11.664
 4188SOL    HW214006   0.734   3.750  11.693
 4189SOL     OW14007   0.192   4.648  12.448
 4189SOL    HW114008   0.281   4.621  12.426
 4189SOL    HW214009   0.144   4.645  12.365
 4190SOL     OW14010   1.530   4.727  11.372
 4190SOL    HW114011   1.461   4.668  11.402
 4190SOL    HW214012   1.573   4.757  11.452
 4191SOL     OW14013   1.649   5.488  11.742
 4191SOL    HW114014   1.631   5.458  11.653
 4191SOL    HW214015   1.649   5.408  11.794
 4192SOL     OW14016   0.592   4.438  11.441
 4192SOL    HW114017   0.590   4.522  11.396
 4192SOL    HW214018   0.530   4.448  11.514
 4193SOL     OW14019   1.281   4.099  12.108
 4193SOL    HW114020   1.193   4.062  12.112
 4193SOL    HW214021   1.333   4.045  12.167
 4194SOL     OW14022   1.581   5.400  11.482
 4194SOL    HW114023   1.674   5.420  11.472
 4194SOL    HW214024   1.550   5.385  11.393
 4195SOL     OW14025   0.985   4.074  12.383
 4195SOL    HW114026   0.906   4.116  12.414
 4195SOL    HW214027   0.966   4.053  12.291
 4196SOL     OW14028   1.056   4.422  11.594
 4196SOL    HW114029   1.075   4.414  11.687
 4196SOL    HW214030   0.972   4.378  11.582
 4197SOL     OW14031   0.096   4.510  11.944
 4197SOL    HW114032   0.175   4.522  11.997
 4197SOL    HW214033   0.046   4.590  11.956
 4198SOL     OW14034   0.070   5.494   0.258
 4198SOL    HW114035   0.123   5.473   0.336
 4198SOL    HW214036  -0.009   5.534   0.293
 4199SOL     OW14037   0.899   4.075  11.370
 4199SOL    HW114038   0.943   4.137  11.311
 4199SOL    HW214039   0.892   3.995  11.319
 4200SOL     OW14040   1.382   4.870  11.709
 4200SOL    HW114041   1.459   4.852  11.655
 4200SOL    HW214042   1.328   4.928  11.655
 4201SOL     OW14043   0.558   3.904  12.064
 4201SOL    HW114044   0.561   3.959  12.141
 4201SOL    HW214045   0.551   3.965  11.990
 4202SOL     OW14046   1.001   5.180  11.644
 4202SOL    HW114047   0.972   5.250  11.585
 4202SOL    HW214048   0.960   5.200  11.728
 4203SOL     OW14049   0.358   5.550  12.034
 4203SOL    HW114050   0.402   5.466  12.046
 4203SOL    HW214051   0.424   5.616  12.055
 4204SOL     OW14052   1.793   4.792  12.044
 4204SOL    HW114053   1.749   4.752  11.969
 4204SOL    HW214054   1.725   4.796  12.112
 4205SOL     OW14055   0.304   4.662  11.407
 4205SOL    HW114056   0.390   4.689  11.374
 4205SOL    HW214057   0.282   4.584  11.357
 4206SOL     OW14058   1.480   4.487  11.890
 4206SOL    HW114059   1.479   4.438  11.972
 4206SOL    HW214060   1.563   4.534  11.891
 4207SOL     OW14061   1.131   5.496  11.403
 4207SOL    HW114062   1.049   5.463  11.440
 4207SOL    HW214063   1.153   5.434  11.333
 4208SOL     OW14064   1.632   5.112  11.278
 4208SOL    HW114065   1.592   5.196  11.254
 4208SOL    HW214066   1.568   5.046  11.251
 4209SOL     OW14067   0.454   5.474  11.483
 4209SOL    HW114068   0.504   5.520  11.550
 4209SOL    HW214069   0.519   5.427  11.432
 4210SOL     OW14070   1.397   3.828  11.619
 4210SOL    HW114071   1.389   3.804  11.527
 4210SOL    HW214072   1.492   3.828  11.636
 4211SOL     OW14073   0.249   5.507  12.379
 4211SOL    HW114074   0.243   5.429  12.435
 4211SOL    HW214075   0.191   5.488  12.305
 4212SOL     OW14076   0.927   5.416  12.073
 4212SOL    HW114077   0.964   5.343  12.123
 4212SOL    HW214078   0.891   5.375  11.995
 4213SOL     OW14079   0.411   4.418  11.654
 4213SOL    HW114080   0.430   4.325  11.665
 4213SOL    HW214081   0.317   4.425  11.666
 4214SOL     OW14082   0.657   3.833  11.274
 4214SOL    HW114083   0.713   3.757  11.290
 4214SOL    HW214084   0.598   3.805  11.203
 4215SOL     OW14085   0.820   5.096  12.098
 4215SOL    HW114086   0.905   5.093  12.053
 4215SOL    HW214087   0.756   5.106  12.028
 4216SOL     OW14088   0.933   4.235  12.063
 4216SOL    HW114089   0.905   4.226  11.972
 4216SOL    HW214090   0.963   4.147  12.087
 4217SOL     OW14091   0.562   3.787  11.666
 4217SOL    HW114092   0.479   3.786  11.714
 4217SOL    HW214093   0.554   3.861  11.606
 4218SOL     OW14094   1.434   4.932  11.211
 4218SOL    HW114095   1.461   4.854  11.259
 4218SOL    HW214096   1.345   4.950  11.242
 4219SOL     OW14097   0.280   3.776  11.347
 4219SOL    HW114098   0.332   3.840  11.298
 4219SOL    HW214099   0.345   3.722  11.392
 4220SOL     OW14100   0.947   3.975  11.625
 4220SOL    HW114101   0.923   4.010  11.539
 4220SOL    HW214102   1.041   3.990  11.631
 4221SOL     OW14103   1.276   5.302  11.997
 4221SOL    HW114104   1.268   5.362  11.923
 4221SOL    HW214105   1.252   5.354  12.073
 4222SOL     OW14106   0.476   4.881  11.893
 4222SOL    HW114107   0.413   4.859  11.962
 4222SOL    HW214108   0.429   4.864  11.811
 4223SOL     OW14109   1.266   5.508  11.797
 4223SOL    HW114110   1.312   5.571  11.742
 4223SOL    HW214111   1.189   5.556  11.829
 4224SOL     OW14112   1.026   4.253  11.201
 4224SOL    HW114113   0.982   4.335  11.180
 4224SOL    HW214114   1.093   4.277  11.265
 4225SOL     OW14115   0.578   3.931  12.356
 4225SOL    HW114116   0.592   3.845  12.318
 4225SOL    HW214117   0.484   3.935  12.374
 4226SOL     OW14118   0.866   4.182  11.803
 4226SOL    HW114119   0.824   4.237  11.738
 4226SOL    HW214120   0.891   4.103  11.755
 4227SOL     OW14121   1.016   3.773  11.910
 4227SOL    HW114122   0.957   3.768  11.835
 4227SOL    HW214123   0.995   3.696  11.963
 4228SOL     OW14124   1.402   4.922  11.985
 4228SOL    HW114125   1.368   4.839  12.018
 4228SOL    HW214126   1.412   4.908  11.891
 4229SOL     OW14127   1.463   4.333  12.124
 4229SOL    HW114128   1.405   4.257  12.131
 4229SOL    HW214129   1.522   4.324  12.199
 4230SOL     OW14130   1.838   4.534  11.565
 4230SOL    HW114131   1.897   4.481  11.618
 4230SOL    HW214132   1.808   4.475  11.496
 4231SOL     OW14133   0.490   5.144  11.314
 4231SOL    HW114134   0.411   5.113  11.358
 4231SOL    HW214135   0.491   5.097  11.230
 4232SOL     OW14136   1.664   5.004  11.801
 4232SOL    HW114137   1.757   5.001  11.822
 4232SOL    HW214138   1.634   5.087  11.839
 4233SOL     OW14139   1.394   4.298  11.242
 4233SOL    HW114140   1.334   4.273  11.312
 4233SOL    HW214141   1.479   4.260  11.267
 4234SOL     OW14142   0.533   3.980  11.477
 4234SOL    HW114143   0.582   3.932  11.410
 4234SOL    HW214144   0.508   4.062  11.435
 4235SOL     OW14145   1.103   4.960  12.289
 4235SOL    HW114146   1.022   4.977  12.336
 4235SOL    HW214147   1.084   4.987  12.199
 4236SOL     OW14148   1.601   4.822  12.257
 4236SOL    HW114149   1.631   4.869  12.335
 4236SOL    HW214150   1.507   4.813  12.269
 4237SOL     OW14151   0.710   4.786  11.546
 4237SOL    HW114152   0.697   4.763  11.638
 4237SOL    HW214153   0.787   4.735  11.519
 4238SOL     OW14154   0.444   4.536  12.446
 4238SOL    HW114155   0.495   4.563  12.522
 4238SOL    HW214156   0.395   4.460  12.476
 4239SOL     OW14157   1.248   4.088  12.434
 4239SOL    HW114158   1.275   4.174  12.468
 4239SOL    HW214159   1.155   4.098  12.415
 4240SOL     OW14160   0.331   4.831  11.658
 4240SOL    HW114161   0.334   4.902  11.593
 4240SOL    HW214162   0.335   4.751  11.606
 4241SOL     OW14163   0.551   4.245  12.034
 4241SOL    HW114164   0.566   4.306  11.961
 4241SOL    HW214165   0.614   4.273  12.101
 4242SOL     OW14166   1.243   5.072  11.566
 4242SOL    HW114167   1.301   5.144  11.591
 4242SOL    HW214168   1.156   5.099  11.598
 4243SOL     OW14169   1.326   5.130  12.290
 4243SOL    HW114170   1.363   5.148  12.376
 4243SOL    HW214171   1.253   5.071  12.308
 4244SOL     OW14172   1.575   4.333  11.664
 4244SOL    HW114173   1.521   4.388  11.722
 4244SOL    HW214174   1.610   4.393  11.599
 4245SOL     OW14175   0.368   5.260  12.463
 4245SOL    HW114176   0.343   5.205  12.389
 4245SOL    HW214177   0.419   5.331  12.424
 4246SOL     OW14178   0.581   4.595  12.214
 4246SOL    HW114179   0.597   4.689  12.216
 4246SOL    HW214180   0.533   4.577  12.295
 4247SOL     OW14181   1.311   4.566  12.173
 4247SOL    HW114182   1.224   4.538  12.143
 4247SOL    HW214183   1.366   4.490  12.160
 4248SOL     OW14184   1.201   4.249  11.433
 4248SOL    HW114185   1.208   4.170  11.487
 4248SOL    HW214186   1.157   4.312  11.489
 4249SOL     OW14187   0.313   3.914  12.398
 4249SOL    HW114188   0.263   3.963  12.464
 4249SOL    HW214189   0.284   3.823  12.408
 4250SOL     OW14190   0.074   5.062  12.430
 4250SOL    HW114191   0.052   5.013  12.509
 4250SOL    HW214192   0.079   5.153  12.459
 4251SOL     OW14193   0.719   4.352  12.222
 4251SOL    HW114194   0.795   4.344  12.165
 4251SOL    HW214195   0.687   4.441  12.207
 4252SOL     OW14196   0.319   3.793  11.785
 4252SOL    HW114197   0.288   3.881  11.807
 4252SOL    HW214198   0.320   3.746  11.869
 4253SOL     OW14199   1.626   4.100  11.528
 4253SOL    HW114200   1.659   4.033  11.588
 4253SOL    HW214201   1.600   4.173  11.585
 4254SOL     OW14202   1.033   4.477  12.138
 4254SOL    HW114203   1.021   4.486  12.233
 4254SOL    HW214204   1.004   4.388  12.119
 4255SOL     OW14205   1.514   4.000  11.296
 4255SOL    HW114206   1.457   3.929  11.326
 4255SOL    HW214207   1.555   4.033  11.376
 4256SOL     OW14208   1.289   4.550  11.200
 4256SOL    HW114209   1.330   4.463  11.204
 4256SOL    HW214210   1.321   4.587  11.118
 4257SOL     OW14211   1.081   5.069  12.022
 4257SOL    HW114212   1.080   4.988  11.970
 4257SOL    HW214213   1.139   5.128  11.973
 4258SOL     OW14214   0.319   4.533  12.112
 4258SOL    HW114215   0.413   4.550  12.116
 4258SOL    HW214216   0.311   4.440  12.135
 4259SOL     OW14217   0.316   4.257  12.161
 4259SOL    HW114218   0.286   4.166  12.156
 4259SOL    HW214219   0.400   4.257  12.116
 4260SOL     OW14220   1.168   3.943   0.155
 4260SOL    HW114221   1.143   4.011   0.218
 4260SOL    HW214222   1.195   3.991   0.077
 4261SOL     OW14223   7.984   5.027  11.377
 4261SOL    HW114224   7.893   5.043  11.403
 4261SOL    HW214225   7.996   4.933  11.388
 4262SOL     OW14226   0.115   5.470  12.132
 4262SOL    HW114227   0.098   5.403  12.065
 4262SOL    HW214228   0.192   5.516  12.101
 4263SOL     OW14229   0.492   5.306  12.073
 4263SOL    HW114230   0.561   5.366  12.101
 4263SOL    HW214231   0.536   5.243  12.016
 4264SOL     OW14232   0.974   4.506  12.408
 4264SOL    HW114233   1.010   4.580  12.457
 4264SOL    HW214234   0.880   4.509  12.426
 4265SOL     OW14235   0.094   4.314  12.305
 4265SOL    HW114236   0.177   4.294  12.261
 4265SOL    HW214237   0.120   4.361  12.384
 4266SOL     OW14238   0.817   4.295  11.540
 4266SOL    HW114239   0.825   4.221  11.480
 4266SOL    HW214240   0.742   4.345  11.507
 4267SOL     OW14241   1.652   4.326  12.325
 4267SOL    HW114242   1.652   4.272  12.404
 4267SOL    HW214243   1.744   4.329  12.299
 4268SOL     OW14244   0.733   4.162  12.422
 4268SOL    HW114245   0.666   4.096  12.403
 4268SOL    HW214246   0.715   4.233  12.361
 4269SOL     OW14247   0.916   5.377   0.030
 4269SOL    HW114248   0.910   5.449  -0.033
 4269SOL    HW214249   0.940   5.419   0.112
 4270SOL     OW14250   0.461   4.205  11.347
 4270SOL    HW114251   0.512   4.284  11.362
 4270SOL    HW214252   0.375   4.225  11.384
 4271SOL     OW14253   1.331   4.792  12.318
 4271SOL    HW114254   1.317   4.709  12.272
 4271SOL    HW214255   1.248   4.838  12.310
 4272SOL     OW14256   1.317   4.579  11.475
 4272SOL    HW114257   1.242   4.543  11.524
 4272SOL    HW214258   1.294   4.566  11.383
 4273SOL     OW14259   1.737   5.456  12.289
 4273SOL    HW114260   1.816   5.479  12.240
 4273SOL    HW214261   1.732   5.360  12.282
 4274SOL     OW14262   1.248   5.440  12.240
 4274SOL    HW114263   1.336   5.470  12.217
 4274SOL    HW214264   1.261   5.378  12.311
 4275SOL     OW14265   0.061   4.918  12.201
 4275SOL    HW114266   0.070   4.969  12.282
 4275SOL    HW214267  -0.012   4.959  12.155
 4276SOL     OW14268   1.736   3.889  11.676
 4276SOL    HW114269   1.800   3.871  11.607
 4276SOL    HW214270   1.714   3.803  11.712
 4277SOL     OW14271   1.396   5.290  11.659
 4277SOL    HW114272   1.453   5.324  11.589
 4277SOL    HW214273   1.341   5.364  11.682
 4278SOL     OW14274   1.274   4.657  11.841
 4278SOL    HW114275   1.348   4.598  11.856
 4278SOL    HW214276   1.308   4.725  11.783
 4279SOL     OW14277   0.665   5.353  11.329
 4279SOL    HW114278   0.679   5.368  11.235
 4279SOL    HW214279   0.610   5.274  11.332
 4280SOL     OW14280   1.623   5.518   0.036
 4280SOL    HW114281   1.674   5.501  -0.043
 4280SOL    HW214282   1.661   5.598   0.072
 4281SOL     OW14283   1.842   3.889  12.147
 4281SOL    HW114284   1.872   3.801  12.124
 4281SOL    HW214285   1.756   3.897  12.106
 4282SOL     OW14286   0.261   4.043  11.874
 4282SOL    HW114287   0.173   4.074  11.852
 4282SOL    HW214288   0.260   4.035  11.970
 4283SOL     OW14289   1.208   5.320  11.207
 4283SOL    HW114290   1.198   5.228  11.232
 4283SOL    HW214291   1.142   5.333  11.139
 4284SOL     OW14292   0.787   4.742  12.487
 4284SOL    HW114293   0.791   4.785  12.402
 4284SOL    HW214294   0.867   4.770  12.532
 4285SOL     OW14295   0.923   4.642  11.470
 4285SOL    HW114296   0.980   4.672  11.399
 4285SOL    HW214297   0.972   4.570  11.511
 4286SOL     OW14298   1.486   5.363  11.221
 4286SOL    HW114299   1.394   5.346  11.203
 4286SOL    HW214300   1.527   5.366  11.134
 4287SOL     OW14301   1.065   4.835  11.895
 4287SOL    HW114302   0.991   4.783  11.927
 4287SOL    HW214303   1.129   4.770  11.866
 4288SOL     OW14304   1.027   3.960  12.123
 4288SOL    HW114305   1.024   3.913  12.039
 4288SOL    HW214306   1.026   3.892  12.189
 4289SOL     OW14307   0.608   5.220  11.653
 4289SOL    HW114308   0.658   5.169  11.589
 4289SOL    HW214309   0.518   5.218  11.621
 4290SOL     OW14310   1.766   4.164   0.029
 4290SOL    HW114311   1.850   4.162   0.074
 4290SOL    HW214312   1.753   4.074  -0.001
 4291SOL     OW14313   0.253   5.058  11.445
 4291SOL    HW114314   0.158   5.061  11.438
 4291SOL    HW214315   0.273   5.100  11.528
 4292SOL     OW14316   0.106   4.081  11.201
 4292SOL    HW114317   0.034   4.122  11.248
 4292SOL    HW214318   0.122   4.139  11.127
 4293SOL     OW14319   0.090   3.970  11.533
 4293SOL    HW114320   0.040   3.949  11.455
 4293SOL    HW214321   0.174   3.925  11.521
 4294SOL     OW14322   1.176   5.053  11.289
 4294SOL    HW114323   1.084   5.028  11.285
 4294SOL    HW214324   1.198   5.049  11.382
 4295SOL     OW14325   1.504   5.494  12.140
 4295SOL    HW114326   1.518   5.576  12.093
 4295SOL    HW214327   1.580   5.484  12.196
 4296SOL     OW14328   1.654   4.589  12.414
 4296SOL    HW114329   1.645   4.502  12.377
 4296SOL    HW214330   1.641   4.648  12.340
 4297SOL     OW14331   1.217   4.043  11.630
 4297SOL    HW114332   1.278   3.969  11.624
 4297SOL    HW214333   1.248   4.094  11.704
 4298SOL     OW14334   0.592   4.458  11.859
 4298SOL    HW114335   0.634   4.542  11.841
 4298SOL    HW214336   0.530   4.446  11.787
 4299SOL     OW14337   1.842   4.619   0.108
 4299SOL    HW114338   1.814   4.689   0.167
 4299SOL    HW214339   1.768   4.608   0.047
 4300SOL     OW14340   0.874   5.091  11.224
 4300SOL    HW114341   0.826   5.124  11.300
 4300SOL    HW214342   0.886   5.167  11.168
 4301SOL     OW14343   0.662   5.516  12.125
 4301SOL    HW114344   0.644   5.604  12.092
 4301SOL    HW214345   0.755   5.503  12.108
 4302SOL     OW14346   0.870   4.695  12.032
 4302SOL    HW114347   0.918   4.620  12.068
 4302SOL    HW214348   0.835   4.740  12.109
 4303SOL     OW14349   1.079   4.713  11.262
 4303SOL    HW114350   1.055   4.763  11.184
 4303SOL    HW214351   1.152   4.658  11.235
 4304SOL     OW14352   1.868   5.261  12.033
 4304SOL    HW114353   1.789   5.243  11.982
 4304SOL    HW214354   1.893   5.177  12.070
 4305SOL     OW14355   0.138   4.987  11.823
 4305SOL    HW114356   0.060   4.944  11.860
 4305SOL    HW214357   0.195   4.915  11.796
 4306SOL     OW14358   1.813   3.911  12.420
 4306SOL    HW114359   1.837   3.821  12.444
 4306SOL    HW214360   1.819   3.913  12.325
 4307SOL     OW14361   0.447   4.155  11.698
 4307SOL    HW114362   0.474   4.085  11.639
 4307SOL    HW214363   0.389   4.113  11.761
 4308SOL     OW14364   1.669   5.184  12.294
 4308SOL    HW114365   1.606   5.203  12.363
 4308SOL    HW214366   1.741   5.139  12.338
 4309SOL     OW14367   0.832   5.312  11.842
 4309SOL    HW114368   0.813   5.380  11.778
 4309SOL    HW214369   0.756   5.253  11.838
 4310SOL     OW14370   1.440   3.965  12.291
 4310SOL    HW114371   1.504   3.926  12.352
 4310SOL    HW214372   1.373   4.003  12.348
 4311SOL     OW14373   1.009   3.710  12.294
 4311SOL    HW114374   0.974   3.657  12.223
 4311SOL    HW214375   1.099   3.679  12.305
 4312SOL     OW14376   0.771   5.057  11.503
 4312SOL    HW114377   0.743   4.966  11.505
 4312SOL    HW214378   0.858   5.057  11.542
 4313SOL     OW14379   1.363   3.771  11.352
 4313SOL    HW114380   1.401   3.701  11.298
 4313SOL    HW214381   1.273   3.742  11.368
 4314SOL     OW14382   1.298   4.191  11.847
 4314SOL    HW114383   1.245   4.271  11.849
 4314SOL    HW214384   1.293   4.157  11.936
 4315SOL     OW14385   1.585   3.913  12.059
 4315SOL    HW114386   1.528   3.940  12.130
 4315SOL    HW214387   1.585   3.988  11.999
 4316SOL     OW14388   0.050   4.765  11.442
 4316SOL    HW114389   0.140   4.738  11.427
 4316SOL    HW214390   0.038   4.759  11.537
 4317SOL     OW14391   0.889   5.391  11.505
 4317SOL    HW114392   0.812   5.373  11.450
 4317SOL    HW214393   0.861   5.462  11.563
 4318SOL     OW14394   0.273   6.206   0.066
 4318SOL    HW114395   0.223   6.246   0.138
 4318SOL    HW214396   0.223   6.128   0.042
 4319SOL     OW14397   0.236   5.854   0.986
 4319SOL    HW114398   0.263   5.827   1.074
 4319SOL    HW214399   0.152   5.810   0.972
 4320SOL     OW14400   8.010   5.985   0.597
 4320SOL    HW114401   7.926   5.967   0.638
 4320SOL    HW214402   8.017   5.920   0.526
 4321SOL     OW14403   0.573   6.887   1.194
 4321SOL    HW114404   0.486   6.891   1.156
 4321SOL    HW214405   0.590   6.976   1.224
 4322SOL     OW14406   1.577   7.107   0.716
 4322SOL    HW114407   1.534   7.079   0.796
 4322SOL    HW214408   1.508   7.106   0.649
 4323SOL     OW14409   1.132   6.289   0.692
 4323SOL    HW114410   1.181   6.370   0.683
 4323SOL    HW214411   1.085   6.298   0.775
 4324SOL     OW14412   1.735   6.200   0.267
 4324SOL    HW114413   1.730   6.198   0.171
 4324SOL    HW214414   1.705   6.113   0.294
 4325SOL     OW14415   0.735   6.719   1.047
 4325SOL    HW114416   0.673   6.758   1.110
 4325SOL    HW214417   0.778   6.794   1.007
 4326SOL     OW14418   0.879   6.339   1.827
 4326SOL    HW114419   0.875   6.406   1.895
 4326SOL    HW214420   0.900   6.387   1.747
 4327SOL     OW14421   0.688   6.579   0.646
 4327SOL    HW114422   0.755   6.573   0.714
 4327SOL    HW214423   0.621   6.637   0.683
 4328SOL     OW14424   0.712   6.734   1.821
 4328SOL    HW114425   0.759   6.810   1.853
 4328SOL    HW214426   0.634   6.770   1.779
 4329SOL     OW14427   0.338   6.995   1.069
 4329SOL    HW114428   0.274   6.945   1.017
 4329SOL    HW214429   0.382   7.052   1.005
 4330SOL     OW14430   1.458   7.091   1.365
 4330SOL    HW114431   1.512   7.169   1.376
 4330SOL    HW214432   1.389   7.101   1.431
 4331SOL     OW14433   0.452   5.968   1.478
 4331SOL    HW114434   0.533   5.917   1.487
 4331SOL    HW214435   0.382   5.905   1.497
 4332SOL     OW14436   1.604   6.026   0.752
 4332SOL    HW114437   1.553   6.057   0.677
 4332SOL    HW214438   1.585   6.090   0.821
 4333SOL     OW14439   0.248   7.285   0.520
 4333SOL    HW114440   0.244   7.373   0.557
 4333SOL    HW214441   0.298   7.295   0.439
 4334SOL     OW14442   1.137   6.929   1.696
 4334SOL    HW114443   1.180   6.921   1.781
 4334SOL    HW214444   1.085   6.850   1.688
 4335SOL     OW14445   0.290   7.022   0.521
 4335SOL    HW114446   0.271   7.114   0.538
 4335SOL    HW214447   0.239   6.974   0.586
 4336SOL     OW14448   0.283   6.666   0.889
 4336SOL    HW114449   0.281   6.575   0.919
 4336SOL    HW214450   0.211   6.708   0.936
 4337SOL     OW14451   0.602   7.386   1.409
 4337SOL    HW114452   0.527   7.361   1.462
 4337SOL    HW214453   0.629   7.471   1.444
 4338SOL     OW14454   0.581   6.554   0.162
 4338SOL    HW114455   0.644   6.571   0.092
 4338SOL    HW214456   0.617   6.599   0.238
 4339SOL     OW14457   1.592   5.719   1.459
 4339SOL    HW114458   1.626   5.798   1.417
 4339SOL    HW214459   1.569   5.746   1.548
 4340SOL     OW14460   0.127   6.236   0.546
 4340SOL    HW114461   0.098   6.147   0.567
 4340SOL    HW214462   0.115   6.285   0.627
 4341SOL     OW14463   1.856   7.324   0.312
 4341SOL    HW114464   1.924   7.301   0.376
 4341SOL    HW214465   1.869   7.417   0.295
 4342SOL     OW14466   0.031   7.138   0.104
 4342SOL    HW114467   0.022   7.058   0.156
 4342SOL    HW214468   0.058   7.204   0.167
 4343SOL     OW14469   1.684   6.520   0.654
 4343SOL    HW114470   1.753   6.471   0.610
 4343SOL    HW214471   1.651   6.581   0.587
 4344SOL     OW14472   1.646   6.701   0.434
 4344SOL    HW114473   1.732   6.698   0.391
 4344SOL    HW214474   1.656   6.764   0.505
 4345SOL     OW14475   0.150   6.351   1.592
 4345SOL    HW114476   0.246   6.347   1.592
 4345SOL    HW214477   0.130   6.433   1.637
 4346SOL     OW14478   0.620   6.981   0.736
 4346SOL    HW114479   0.576   6.896   0.745
 4346SOL    HW214480   0.605   7.006   0.645
 4347SOL     OW14481   1.282   6.820   1.417
 4347SOL    HW114482   1.312   6.750   1.358
 4347SOL    HW214483   1.340   6.815   1.493
 4348SOL     OW14484   0.826   5.597   0.525
 4348SOL    HW114485   0.864   5.681   0.499
 4348SOL    HW214486   0.732   5.613   0.527
 4349SOL     OW14487   0.180   6.508   1.261
 4349SOL    HW114488   0.273   6.487   1.266
 4349SOL    HW214489   0.151   6.472   1.177
 4350SOL     OW14490   1.494   6.601   0.228
 4350SOL    HW114491   1.431   6.541   0.268
 4350SOL    HW214492   1.551   6.629   0.300
 4351SOL     OW14493   1.184   7.400   1.631
 4351SOL    HW114494   1.188   7.461   1.558
 4351SOL    HW214495   1.202   7.315   1.592
 4352SOL     OW14496   0.363   5.845   1.837
 4352SOL    HW114497   0.411   5.919   1.874
 4352SOL    HW214498   0.271   5.868   1.849
 4353SOL     OW14499   1.467   7.004   0.944
 4353SOL    HW114500   1.403   7.021   1.013
 4353SOL    HW214501   1.453   6.913   0.919
 4354SOL     OW14502   1.648   7.352   0.583
 4354SOL    HW114503   1.628   7.313   0.498
 4354SOL    HW214504   1.637   7.280   0.646
 4355SOL     OW14505   0.595   6.300   0.281
 4355SOL    HW114506   0.600   6.388   0.243
 4355SOL    HW214507   0.528   6.307   0.349
 4356SOL     OW14508   1.281   5.961   0.935
 4356SOL    HW114509   1.192   5.926   0.944
 4356SOL    HW214510   1.333   5.906   0.993
 4357SOL     OW14511   1.591   7.261   0.329
 4357SOL    HW114512   1.686   7.271   0.322
 4357SOL    HW214513   1.559   7.267   0.238
 4358SOL     OW14514   0.789   6.204   1.444
 4358SOL    HW114515   0.764   6.176   1.532
 4358SOL    HW214516   0.760   6.132   1.387
 4359SOL     OW14517   1.393   6.058   1.679
 4359SOL    HW114518   1.398   6.103   1.763
 4359SOL    HW214519   1.447   5.980   1.690
 4360SOL     OW14520   0.948   6.469   1.590
 4360SOL    HW114521   1.004   6.403   1.549
 4360SOL    HW214522   0.899   6.507   1.517
 4361SOL     OW14523   0.998   5.994   1.225
 4361SOL    HW114524   0.908   6.009   1.254
 4361SOL    HW214525   0.990   5.947   1.142
 4362SOL     OW14526   1.056   6.291   0.426
 4362SOL    HW114527   1.074   6.286   0.520
 4362SOL    HW214528   0.971   6.248   0.415
 4363SOL     OW14529   0.097   6.374   0.779
 4363SOL    HW114530   0.178   6.381   0.829
 4363SOL    HW214531   0.045   6.451   0.805
 4364SOL     OW14532   0.131   7.410   1.565
 4364SOL    HW114533   0.135   7.397   1.660
 4364SOL    HW214534   0.041   7.388   1.541
 4365SOL     OW14535   0.891   5.944   0.220
 4365SOL    HW114536   0.922   6.011   0.160
 4365SOL    HW214537   0.874   5.868   0.165
 4366SOL     OW14538   1.697   6.150   1.832
 4366SOL    HW114539   1.666   6.226   1.782
 4366SOL    HW214540   1.728   6.089   1.766
 4367SOL     OW14541   1.383   6.728   0.538
 4367SOL    HW114542   1.464   6.724   0.487
 4367SOL    HW214543   1.327   6.790   0.489
 4368SOL     OW14544   0.557   5.759   0.905
 4368SOL    HW114545   0.559   5.787   0.996
 4368SOL    HW214546   0.554   5.840   0.854
 4369SOL     OW14547   0.991   7.025   0.471
 4369SOL    HW114548   0.960   7.102   0.425
 4369SOL    HW214549   0.968   7.040   0.563
 4370SOL     OW14550   0.360   7.414   0.871
 4370SOL    HW114551   0.403   7.330   0.878
 4370SOL    HW214552   0.428   7.478   0.893
 4371SOL     OW14553   1.805   6.635   0.879
 4371SOL    HW114554   1.754   6.613   0.801
 4371SOL    HW214555   1.741   6.642   0.949
 4372SOL     OW14556   1.225   7.128   1.515
 4372SOL    HW114557   1.214   7.057   1.578
 4372SOL    HW214558   1.153   7.116   1.452
 4373SOL     OW14559   0.303   6.541   0.223
 4373SOL    HW114560   0.395   6.559   0.207
 4373SOL    HW214561   0.264   6.535   0.135
 4374SOL     OW14562   1.481   6.343   0.721
 4374SOL    HW114563   1.481   6.301   0.807
 4374SOL    HW214564   1.558   6.400   0.723
 4375SOL     OW14565   0.468   6.854   1.739
 4375SOL    HW114566   0.444   6.859   1.646
 4375SOL    HW214567   0.385   6.839   1.785
 4376SOL     OW14568   1.102   7.369   0.242
 4376SOL    HW114569   1.042   7.326   0.302
 4376SOL    HW214570   1.138   7.298   0.189
 4377SOL     OW14571   0.195   5.843   1.501
 4377SOL    HW114572   0.176   5.919   1.556
 4377SOL    HW214573   0.163   5.768   1.550
 4378SOL     OW14574   1.653   6.998   0.079
 4378SOL    HW114575   1.587   7.060   0.051
 4378SOL    HW214576   1.607   6.914   0.083
 4379SOL     OW14577   0.447   7.326   0.322
 4379SOL    HW114578   0.495   7.378   0.386
 4379SOL    HW214579   0.515   7.282   0.270
 4380SOL     OW14580   1.405   5.687   0.450
 4380SOL    HW114581   1.403   5.650   0.361
 4380SOL    HW214582   1.498   5.691   0.472
 4381SOL     OW14583   0.237   7.367   1.229
 4381SOL    HW114584   0.289   7.294   1.262
 4381SOL    HW214585   0.211   7.340   1.140
 4382SOL     OW14586   0.940   7.287   0.896
 4382SOL    HW114587   1.018   7.239   0.923
 4382SOL    HW214588   0.902   7.234   0.825
 4383SOL     OW14589   0.401   6.279   0.477
 4383SOL    HW114590   0.422   6.186   0.486
 4383SOL    HW214591   0.310   6.285   0.506
 4384SOL     OW14592   1.524   5.808   1.722
 4384SOL    HW114593   1.535   5.831   1.814
 4384SOL    HW214594   1.461   5.735   1.723
 4385SOL     OW14595   0.641   5.711   0.117
 4385SOL    HW114596   0.733   5.688   0.115
 4385SOL    HW214597   0.624   5.751   0.032
 4386SOL     OW14598   0.759   5.866   1.756
 4386SOL    HW114599   0.843   5.818   1.751
 4386SOL    HW214600   0.716   5.830   1.833
 4387SOL     OW14601   0.879   7.113   1.193
 4387SOL    HW114602   0.858   7.070   1.110
 4387SOL    HW214603   0.944   7.056   1.234
 4388SOL     OW14604   1.337   6.176   1.437
 4388SOL    HW114605   1.369   6.144   1.521
 4388SOL    HW214606   1.376   6.263   1.428
 4389SOL     OW14607   0.820   6.970   0.952
 4389SOL    HW114608   0.906   6.960   0.910
 4389SOL    HW214609   0.759   6.981   0.880
 4390SOL     OW14610   0.931   6.097   0.897
 4390SOL    HW114611   0.905   6.087   0.806
 4390SOL    HW214612   0.960   6.010   0.924
 4391SOL     OW14613   0.558   5.647   0.501
 4391SOL    HW114614   0.479   5.647   0.554
 4391SOL    HW214615   0.548   5.723   0.444
 4392SOL     OW14616   1.460   6.806   0.052
 4392SOL    HW114617   1.474   6.726   0.103
 4392SOL    HW214618   1.369   6.829   0.068
 4393SOL     OW14619   0.297   5.692   0.206
 4393SOL    HW114620   0.377   5.742   0.222
 4393SOL    HW214621   0.321   5.601   0.226
 4394SOL     OW14622   0.948   5.836   0.464
 4394SOL    HW114623   0.921   5.874   0.380
 4394SOL    HW214624   1.042   5.850   0.468
 4395SOL     OW14625   1.081   6.274   1.452
 4395SOL    HW114626   1.020   6.202   1.462
 4395SOL    HW214627   1.168   6.233   1.450
 4396SOL     OW14628   1.216   7.158   0.795
 4396SOL    HW114629   1.230   7.224   0.728
 4396SOL    HW214630   1.285   7.174   0.859
 4397SOL     OW14631   0.479   6.744   0.720
 4397SOL    HW114632   0.416   6.719   0.788
 4397SOL    HW214633   0.433   6.729   0.637
 4398SOL     OW14634   1.258   7.373   0.615
 4398SOL    HW114635   1.310   7.439   0.568
 4398SOL    HW214636   1.187   7.423   0.655
 4399SOL     OW14637   1.021   6.136   0.070
 4399SOL    HW114638   1.013   6.218   0.021
 4399SOL    HW214639   1.091   6.153   0.134
 4400SOL     OW14640   0.097   6.206   1.370
 4400SOL    HW114641   0.186   6.177   1.350
 4400SOL    HW214642   0.106   6.258   1.450
 4401SOL     OW14643   0.560   5.810   1.178
 4401SOL    HW114644   0.603   5.741   1.228
 4401SOL    HW214645   0.468   5.807   1.205
 4402SOL     OW14646   0.866   6.044   0.638
 4402SOL    HW114647   0.827   6.101   0.572
 4402SOL    HW214648   0.889   5.964   0.591
 4403SOL     OW14649   1.024   5.636   0.740
 4403SOL    HW114650   0.959   5.632   0.670
 4403SOL    HW214651   0.999   5.566   0.800
 4404SOL     OW14652   1.439   6.744   0.859
 4404SOL    HW114653   1.370   6.677   0.863
 4404SOL    HW214654   1.461   6.750   0.766
 4405SOL     OW14655   1.467   6.194   0.959
 4405SOL    HW114656   1.404   6.122   0.968
 4405SOL    HW214657   1.522   6.188   1.037
 4406SOL     OW14658   1.826   6.409   0.427
 4406SOL    HW114659   1.879   6.348   0.477
 4406SOL    HW214660   1.786   6.356   0.359
 4407SOL     OW14661   0.483   6.986   0.149
 4407SOL    HW114662   0.427   6.931   0.203
 4407SOL    HW214663   0.421   7.038   0.097
 4408SOL     OW14664   1.682   6.856   0.646
 4408SOL    HW114665   1.776   6.851   0.662
 4408SOL    HW214666   1.658   6.946   0.670
 4409SOL     OW14667   1.395   6.133   0.081
 4409SOL    HW114668   1.342   6.131   0.160
 4409SOL    HW214669   1.453   6.057   0.088
 4410SOL     OW14670   0.519   5.843   0.317
 4410SOL    HW114671   0.574   5.797   0.253
 4410SOL    HW214672   0.502   5.928   0.277
 4411SOL     OW14673   1.743   6.829   1.549
 4411SOL    HW114674   1.830   6.790   1.545
 4411SOL    HW214675   1.757   6.918   1.582
 4412SOL     OW14676   1.049   6.938   1.329
 4412SOL    HW114677   0.973   6.906   1.378
 4412SOL    HW214678   1.124   6.897   1.372
 4413SOL     OW14679   1.608   7.219   1.662
 4413SOL    HW114680   1.600   7.252   1.572
 4413SOL    HW214681   1.687   7.166   1.661
 4414SOL     OW14682   1.139   6.802   1.100
 4414SOL    HW114683   1.080   6.840   1.165
 4414SOL    HW214684   1.109   6.839   1.017
 4415SOL     OW14685   1.621   6.681   1.076
 4415SOL    HW114686   1.614   6.744   1.148
 4415SOL    HW214687   1.546   6.702   1.019
 4416SOL     OW14688   0.919   5.678   1.389
 4416SOL    HW114689   0.943   5.660   1.298
 4416SOL    HW214690   0.998   5.716   1.427
 4417SOL     OW14691   0.982   6.704   1.720
 4417SOL    HW114692   0.892   6.719   1.748
 4417SOL    HW214693   0.978   6.623   1.669
 4418SOL     OW14694   0.716   6.652   0.380
 4418SOL    HW114695   0.702   6.629   0.472
 4418SOL    HW214696   0.794   6.602   0.354
 4419SOL     OW14697   0.433   6.405   1.255
 4419SOL    HW114698   0.498   6.419   1.324
 4419SOL    HW214699   0.403   6.315   1.268
 4420SOL     OW14700   1.264   5.963   1.282
 4420SOL    HW114701   1.295   6.039   1.330
 4420SOL    HW214702   1.173   5.982   1.261
 4421SOL     OW14703   0.043   7.182   1.331
 4421SOL    HW114704   0.103   7.254   1.312
 4421SOL    HW214705   0.077   7.142   1.411
 4422SOL     OW14706   0.334   6.691   0.489
 4422SOL    HW114707   0.320   6.762   0.426
 4422SOL    HW214708   0.347   6.613   0.435
 4423SOL     OW14709   0.546   6.110   0.856
 4423SOL    HW114710   0.560   6.170   0.782
 4423SOL    HW214711   0.612   6.135   0.920
 4424SOL     OW14712   1.242   6.935   0.397
 4424SOL    HW114713   1.298   7.005   0.432
 4424SOL    HW214714   1.155   6.955   0.431
 4425SOL     OW14715   1.296   7.049   1.150
 4425SOL    HW114716   1.350   7.057   1.228
 4425SOL    HW214717   1.241   6.972   1.167
 4426SOL     OW14718   1.554   6.185   0.505
 4426SOL    HW114719   1.511   6.243   0.568
 4426SOL    HW214720   1.591   6.244   0.439
 4427SOL     OW14721   0.349   7.122   1.309
 4427SOL    HW114722   0.333   7.071   1.229
 4427SOL    HW214723   0.444   7.129   1.314
 4428SOL     OW14724   0.430   6.311   1.614
 4428SOL    HW114725   0.485   6.363   1.555
 4428SOL    HW214726   0.488   6.243   1.646
 4429SOL     OW14727   1.615   6.367   1.691
 4429SOL    HW114728   1.529   6.408   1.686
 4429SOL    HW214729   1.666   6.410   1.622
 4430SOL     OW14730   0.993   5.726   1.749
 4430SOL    HW114731   1.054   5.798   1.732
 4430SOL    HW214732   1.044   5.647   1.727
 4431SOL     OW14733   0.502   5.621   1.752
 4431SOL    HW114734   0.454   5.570   1.687
 4431SOL    HW214735   0.448   5.699   1.766
 4432SOL     OW14736   0.589   6.462   1.032
 4432SOL    HW114737   0.626   6.550   1.036
 4432SOL    HW214738   0.536   6.455   1.112
 4433SOL     OW14739   1.335   6.443   1.011
 4433SOL    HW114740   1.246   6.420   0.983
 4433SOL    HW214741   1.385   6.362   1.001
 4434SOL     OW14742   1.209   6.114   0.282
 4434SOL    HW114743   1.223   6.040   0.341
 4434SOL    HW214744   1.164   6.179   0.335
 4435SOL     OW14745   0.296   5.777   1.248
 4435SOL    HW114746   0.259   5.808   1.332
 4435SOL    HW214747   0.283   5.683   1.250
 4436SOL     OW14748   0.043   6.895   1.267
 4436SOL    HW114749   0.069   6.839   1.340
 4436SOL    HW214750   0.050   6.984   1.301
 4437SOL     OW14751   0.715   6.211   1.046
 4437SOL    HW114752   0.795   6.200   0.994
 4437SOL    HW214753   0.689   6.302   1.031
 4438SOL     OW14754   1.742   6.550   1.861
 4438SOL    HW114755   1.701   6.477   1.814
 4438SOL    HW214756   1.682   6.567   1.933
 4439SOL     OW14757   0.314   5.652   0.626
 4439SOL    HW114758   0.287   5.742   0.644
 4439SOL    HW214759   0.323   5.612   0.712
 4440SOL     OW14760   1.619   5.959   0.364
 4440SOL    HW114761   1.650   5.890   0.423
 4440SOL    HW214762   1.585   6.027   0.422
 4441SOL     OW14763   1.032   6.344   0.958
 4441SOL    HW114764   1.017   6.360   1.052
 4441SOL    HW214765   1.004   6.253   0.945
 4442SOL     OW14766   0.981   7.153   1.726
 4442SOL    HW114767   0.965   7.194   1.641
 4442SOL    HW214768   1.022   7.069   1.704
 4443SOL     OW14769   1.844   7.085   1.604
 4443SOL    HW114770   1.871   7.113   1.516
 4443SOL    HW214771   1.923   7.095   1.657
 4444SOL     OW14772   0.366   6.534   1.791
 4444SOL    HW114773   0.438   6.548   1.854
 4444SOL    HW214774   0.386   6.450   1.750
 4445SOL     OW14775   1.505   5.865   0.132
 4445SOL    HW114776   1.455   5.790   0.163
 4445SOL    HW214777   1.552   5.897   0.209
 4446SOL     OW14778   1.288   6.392   0.057
 4446SOL    HW114779   1.339   6.311   0.047
 4446SOL    HW214780   1.331   6.455  -0.000
 4447SOL     OW14781   1.070   6.929   0.858
 4447SOL    HW114782   1.078   6.856   0.796
 4447SOL    HW214783   1.126   6.997   0.823
 4448SOL     OW14784   0.319   6.387   0.944
 4448SOL    HW114785   0.412   6.410   0.946
 4448SOL    HW214786   0.316   6.298   0.978
 4449SOL     OW14787   0.332   6.105   1.015
 4449SOL    HW114788   0.296   6.017   1.001
 4449SOL    HW214789   0.407   6.110   0.957
 4450SOL     OW14790   1.136   5.959   1.684
 4450SOL    HW114791   1.089   6.010   1.750
 4450SOL    HW214792   1.224   5.997   1.681
 4451SOL     OW14793   1.160   5.783   1.470
 4451SOL    HW114794   1.149   5.844   1.543
 4451SOL    HW214795   1.205   5.834   1.403
 4452SOL     OW14796   7.996   6.885   0.205
 4452SOL    HW114797   7.911   6.909   0.241
 4452SOL    HW214798   8.008   6.794   0.231
 4453SOL     OW14799   0.105   7.333   0.940
 4453SOL    HW114800   0.110   7.254   0.886
 4453SOL    HW214801   0.183   7.383   0.917
 4454SOL     OW14802   0.486   7.162   0.903
 4454SOL    HW114803   0.555   7.224   0.926
 4454SOL    HW214804   0.530   7.099   0.844
 4455SOL     OW14805   0.963   6.370   1.221
 4455SOL    HW114806   1.026   6.353   1.292
 4455SOL    HW214807   0.882   6.330   1.252
 4456SOL     OW14808   0.070   6.135   1.111
 4456SOL    HW114809   0.164   6.128   1.095
 4456SOL    HW214810   0.063   6.157   1.204
 4457SOL     OW14811   0.193   6.083   1.653
 4457SOL    HW114812   0.287   6.089   1.633
 4457SOL    HW214813   0.162   6.173   1.645
 4458SOL     OW14814   1.384   6.514   1.655
 4458SOL    HW114815   1.405   6.607   1.652
 4458SOL    HW214816   1.381   6.486   1.564
 4459SOL     OW14817   0.818   6.165   0.380
 4459SOL    HW114818   0.824   6.087   0.324
 4459SOL    HW214819   0.742   6.213   0.346
 4460SOL     OW14820   1.640   6.187   1.171
 4460SOL    HW114821   1.632   6.130   1.248
 4460SOL    HW214822   1.729   6.172   1.140
 4461SOL     OW14823   0.290   7.120   1.721
 4461SOL    HW114824   0.251   7.191   1.772
 4461SOL    HW214825   0.283   7.043   1.778
 4462SOL     OW14826   0.721   6.028   1.248
 4462SOL    HW114827   0.662   5.956   1.227
 4462SOL    HW214828   0.708   6.091   1.177
 4463SOL     OW14829   0.919   7.260   1.475
 4463SOL    HW114830   0.892   7.219   1.393
 4463SOL    HW214831   0.913   7.354   1.458
 4464SOL     OW14832   0.475   6.071   0.188
 4464SOL    HW114833   0.532   6.144   0.214
 4464SOL    HW214834   0.405   6.113   0.138
 4465SOL     OW14835   0.153   6.711   1.449
 4465SOL    HW114836   0.134   6.666   1.531
 4465SOL    HW214837   0.160   6.640   1.384
 4466SOL     OW14838   1.317   6.626   1.213
 4466SOL    HW114839   1.335   6.563   1.144
 4466SOL    HW214840   1.253   6.687   1.175
 4467SOL     OW14841   1.301   6.432   0.329
 4467SOL    HW114842   1.225   6.395   0.374
 4467SOL    HW214843   1.290   6.406   0.238
 4468SOL     OW14844   1.782   7.320   1.159
 4468SOL    HW114845   1.842   7.343   1.088
 4468SOL    HW214846   1.753   7.231   1.138
 4469SOL     OW14847   1.237   7.316   1.096
 4469SOL    HW114848   1.322   7.343   1.060
 4469SOL    HW214849   1.250   7.224   1.121
 4470SOL     OW14850   0.078   6.785   1.025
 4470SOL    HW114851   0.069   6.825   1.111
 4470SOL    HW214852  -0.001   6.812   0.977
 4471SOL     OW14853   0.684   7.257   1.746
 4471SOL    HW114854   0.624   7.331   1.734
 4471SOL    HW214855   0.759   7.278   1.690
 4472SOL     OW14856   0.910   5.681   0.092
 4472SOL    HW114857   0.956   5.707   0.012
 4472SOL    HW214858   0.979   5.646   0.149
 4473SOL     OW14859   1.722   5.742   0.502
 4473SOL    HW114860   1.792   5.718   0.441
 4473SOL    HW214861   1.703   5.661   0.549
 4474SOL     OW14862   1.393   7.151   0.499
 4474SOL    HW114863   1.454   7.186   0.433
 4474SOL    HW214864   1.343   7.227   0.528
 4475SOL     OW14865   0.165   7.331   1.840
 4475SOL    HW114866   0.104   7.280   1.893
 4475SOL    HW214867   0.213   7.386   1.903
 4476SOL     OW14868   1.277   6.518   0.670
 4476SOL    HW114869   1.351   6.458   0.684
 4476SOL    HW214870   1.311   6.587   0.614
 4477SOL     OW14871   0.795   6.865   1.418
 4477SOL    HW114872   0.769   6.908   1.499
 4477SOL    HW214873   0.720   6.877   1.359
 4478SOL     OW14874   0.656   7.194   0.191
 4478SOL    HW114875   0.718   7.198   0.119
 4478SOL    HW214876   0.609   7.111   0.178
 4479SOL     OW14877   1.616   7.317   1.393
 4479SOL    HW114878   1.672   7.320   1.316
 4479SOL    HW214879   1.600   7.409   1.415
 4480SOL     OW14880   1.844   5.753   0.960
 4480SOL    HW114881   1.873   5.664   0.941
 4480SOL    HW214882   1.755   5.758   0.924
 4481SOL     OW14883   0.258   5.905   0.710
 4481SOL    HW114884   0.172   5.942   0.689
 4481SOL    HW214885   0.256   5.895   0.805
 4482SOL     OW14886   1.195   7.186   0.070
 4482SOL    HW114887   1.195   7.092   0.088
 4482SOL    HW214888   1.157   7.193  -0.018
 4483SOL     OW14889   0.824   6.595   1.380
 4483SOL    HW114890   0.868   6.587   1.295
 4483SOL    HW214891   0.818   6.689   1.395
 4484SOL     OW14892   0.929   6.511   0.296
 4484SOL    HW114893   0.987   6.535   0.223
 4484SOL    HW214894   0.975   6.441   0.341
 4485SOL     OW14895   1.459   7.166   0.006
 4485SOL    HW114896   1.372   7.191   0.037
 4485SOL    HW214897   1.511   7.247   0.011
 4486SOL     OW14898   0.367   6.886   1.490
 4486SOL    HW114899   0.348   6.967   1.441
 4486SOL    HW214900   0.293   6.828   1.470
 4487SOL     OW14901   1.606   6.872   1.282
 4487SOL    HW114902   1.661   6.850   1.358
 4487SOL    HW214903   1.546   6.938   1.314
 4488SOL     OW14904   1.067   6.700   0.714
 4488SOL    HW114905   0.994   6.649   0.751
 4488SOL    HW214906   1.132   6.634   0.691
 4489SOL     OW14907   1.028   5.830   0.963
 4489SOL    HW114908   1.026   5.784   0.879
 4489SOL    HW214909   1.022   5.761   1.028
 4490SOL     OW14910   0.606   7.066   0.480
 4490SOL    HW114911   0.647   7.023   0.405
 4490SOL    HW214912   0.517   7.084   0.451
 4491SOL     OW14913   1.729   5.980   1.377
 4491SOL    HW114914   1.803   6.041   1.380
 4491SOL    HW214915   1.759   5.910   1.319
 4492SOL     OW14916   0.270   6.883   0.295
 4492SOL    HW114917   0.181   6.895   0.261
 4492SOL    HW214918   0.274   6.942   0.371
 4493SOL     OW14919   0.109   6.593   1.704
 4493SOL    HW114920   0.067   6.674   1.734
 4493SOL    HW214921   0.192   6.590   1.751
 4494SOL     OW14922   0.680   5.784   1.498
 4494SOL    HW114923   0.765   5.759   1.460
 4494SOL    HW214924   0.701   5.813   1.587
 4495SOL     OW14925   0.110   5.996  12.499
 4495SOL    HW114926   0.043   5.991  12.567
 4495SOL    HW214927   0.080   5.936  12.431
 4496SOL     OW14928   1.422   6.443   1.394
 4496SOL    HW114929   1.372   6.503   1.339
 4496SOL    HW214930   1.510   6.445   1.358
 4497SOL     OW14931   0.073   5.818   0.361
 4497SOL    HW114932   0.033   5.868   0.290
 4497SOL    HW214933   0.151   5.780   0.322
 4498SOL     OW14934   1.193   6.915   0.121
 4498SOL    HW114935   1.098   6.908   0.111
 4498SOL    HW214936   1.208   6.908   0.215
 4499SOL     OW14937   0.623   6.419   1.444
 4499SOL    HW114938   0.680   6.495   1.431
 4499SOL    HW214939   0.682   6.344   1.448
 4500SOL     OW14940   1.485   7.377   0.989
 4500SOL    HW114941   1.511   7.445   0.927
 4500SOL    HW214942   1.568   7.342   1.021
 4501SOL     OW14943   0.710   6.144   1.698
 4501SOL    HW114944   0.760   6.200   1.758
 4501SOL    HW214945   0.727   6.055   1.729
 4502SOL     OW14946   1.471   6.777   1.625
 4502SOL    HW114947   1.460   6.792   1.719
 4502SOL    HW214948   1.563   6.797   1.608
 4503SOL     OW14949   0.388   7.321   1.561
 4503SOL    HW114950   0.300   7.353   1.541
 4503SOL    HW214951   0.374   7.236   1.602
 4504SOL     OW14952   1.660   6.464   1.253
 4504SOL    HW114953   1.658   6.378   1.209
 4504SOL    HW214954   1.651   6.527   1.182
 4505SOL     OW14955   1.223   5.898   0.453
 4505SOL    HW114956   1.284   5.825   0.453
 4505SOL    HW214957   1.244   5.948   0.532
 4506SOL     OW14958   0.589   6.317   0.677
 4506SOL    HW114959   0.629   6.403   0.665
 4506SOL    HW214960   0.526   6.310   0.606
 4507SOL     OW14961   1.754   5.949   1.651
 4507SOL    HW114962   1.739   5.966   1.558
 4507SOL    HW214963   1.681   5.892   1.676
 4508SOL     OW14964   1.746   6.520   1.508
 4508SOL    HW114965   1.733   6.614   1.519
 4508SOL    HW214966   1.727   6.504   1.416
 4509SOL     OW14967   0.921   6.951   0.063
 4509SOL    HW114968   0.863   6.933   0.136
 4509SOL    HW214969   0.902   7.042   0.039
 4510SOL     OW14970   0.664   7.367   0.927
 4510SOL    HW114971   0.649   7.461   0.914
 4510SOL    HW214972   0.759   7.358   0.927
 4511SOL     OW14973   0.873   6.559   0.854
 4511SOL    HW114974   0.922   6.486   0.891
 4511SOL    HW214975   0.830   6.600   0.929
 4512SOL     OW14976   1.084   6.573   0.071
 4512SOL    HW114977   1.125   6.648   0.028
 4512SOL    HW214978   1.153   6.508   0.079
 4513SOL     OW14979   1.844   7.136   0.837
 4513SOL    HW114980   1.760   7.125   0.793
 4513SOL    HW214981   1.843   7.070   0.907
 4514SOL     OW14982   0.217   6.885   1.854
 4514SOL    HW114983   0.125   6.871   1.833
 4514SOL    HW214984   0.220   6.887   1.950
 4515SOL     OW14985   0.134   6.848   0.660
 4515SOL    HW114986   0.057   6.804   0.696
 4515SOL    HW214987   0.198   6.777   0.648
 4516SOL     OW14988   0.683   6.998   1.630
 4516SOL    HW114989   0.604   6.956   1.665
 4516SOL    HW214990   0.685   7.084   1.671
 4517SOL     OW14991   1.806   5.769   1.231
 4517SOL    HW114992   1.816   5.675   1.248
 4517SOL    HW214993   1.821   5.777   1.137
 4518SOL     OW14994   0.432   6.019   0.524
 4518SOL    HW114995   0.462   5.947   0.468
 4518SOL    HW214996   0.382   5.976   0.594
 4519SOL     OW14997   1.694   7.071   1.092
 4519SOL    HW114998   1.616   7.050   1.041
 4519SOL    HW214999   1.699   7.002   1.158
 4520SOL     OW15000   0.353   6.146   1.296
 4520SOL    HW115001   0.396   6.085   1.357
 4520SOL    HW215002   0.369   6.108   1.209
 4521SOL     OW15003   0.835   7.164   0.676
 4521SOL    HW115004   0.807   7.237   0.621
 4521SOL    HW215005   0.759   7.107   0.680
 4522SOL     OW15006   1.429   5.819   1.117
 4522SOL    HW115007   1.453   5.739   1.162
 4522SOL    HW215008   1.378   5.869   1.181
 4523SOL     OW15009   1.010   5.605   1.130
 4523SOL    HW115010   0.952   5.539   1.092
 4523SOL    HW215011   1.096   5.564   1.129
 4524SOL     OW15012   0.789   6.910   0.307
 4524SOL    HW115013   0.757   6.822   0.329
 4524SOL    HW215014   0.860   6.926   0.368
 4525SOL     OW15015   0.623   7.144   1.283
 4525SOL    HW115016   0.620   7.229   1.328
 4525SOL    HW215017   0.713   7.138   1.250
 4526SOL     OW15018   1.370   5.612   0.186
 4526SOL    HW115019   1.389   5.588   0.095
 4526SOL    HW215020   1.287   5.659   0.181
 4527SOL     OW15021   1.279   6.047   0.672
 4527SOL    HW115022   1.232   6.130   0.678
 4527SOL    HW215023   1.285   6.015   0.762
 4528SOL     OW15024   1.581   5.775   0.887
 4528SOL    HW115025   1.528   5.801   0.962
 4528SOL    HW215026   1.582   5.853   0.830
 4529SOL     OW15027   0.042   6.637   0.295
 4529SOL    HW115028   0.131   6.611   0.272
 4529SOL    HW215029   0.036   6.625   0.389
 4530SOL     OW15030   0.879   7.246   0.351
 4530SOL    HW115031   0.796   7.222   0.312
 4530SOL    HW215032   0.857   7.314   0.414
 4531SOL     OW15033   0.231   6.279   1.937
 4531SOL    HW115034   0.177   6.253   2.011
 4531SOL    HW215035   0.258   6.197   1.896
 4532SOL     OW15036   0.236   5.855   2.848
 4532SOL    HW115037   0.264   5.827   2.936
 4532SOL    HW215038   0.152   5.812   2.835
 4533SOL     OW15039   8.008   5.980   2.462
 4533SOL    HW115040   7.921   5.964   2.501
 4533SOL    HW215041   8.012   5.921   2.387
 4534SOL     OW15042   0.573   6.888   3.056
 4534SOL    HW115043   0.485   6.891   3.019
 4534SOL    HW215044   0.590   6.977   3.086
 4535SOL     OW15045   1.579   7.103   2.574
 4535SOL    HW115046   1.535   7.076   2.654
 4535SOL    HW215047   1.510   7.104   2.508
 4536SOL     OW15048   1.132   6.288   2.552
 4536SOL    HW115049   1.180   6.369   2.543
 4536SOL    HW215050   1.085   6.297   2.636
 4537SOL     OW15051   1.791   6.177   2.083
 4537SOL    HW115052   1.757   6.171   1.993
 4537SOL    HW215053   1.748   6.105   2.129
 4538SOL     OW15054   0.734   6.719   2.909
 4538SOL    HW115055   0.673   6.758   2.971
 4538SOL    HW215056   0.778   6.794   2.868
 4539SOL     OW15057   0.879   6.340   3.689
 4539SOL    HW115058   0.878   6.407   3.756
 4539SOL    HW215059   0.900   6.386   3.608
 4540SOL     OW15060   0.690   6.582   2.506
 4540SOL    HW115061   0.757   6.576   2.574
 4540SOL    HW215062   0.623   6.639   2.544
 4541SOL     OW15063   0.711   6.733   3.683
 4541SOL    HW115064   0.759   6.810   3.715
 4541SOL    HW215065   0.633   6.769   3.641
 4542SOL     OW15066   0.335   6.995   2.932
 4542SOL    HW115067   0.270   6.945   2.884
 4542SOL    HW215068   0.378   7.049   2.866
 4543SOL     OW15069   1.458   7.091   3.227
 4543SOL    HW115070   1.513   7.169   3.238
 4543SOL    HW215071   1.389   7.101   3.293
 4544SOL     OW15072   0.452   5.968   3.342
 4544SOL    HW115073   0.534   5.920   3.350
 4544SOL    HW215074   0.384   5.904   3.360
 4545SOL     OW15075   1.598   6.023   2.613
 4545SOL    HW115076   1.526   6.040   2.552
 4545SOL    HW215077   1.590   6.092   2.679
 4546SOL     OW15078   0.234   7.285   2.345
 4546SOL    HW115079   0.232   7.369   2.391
 4546SOL    HW215080   0.300   7.296   2.276
 4547SOL     OW15081   1.137   6.930   3.558
 4547SOL    HW115082   1.181   6.920   3.643
 4547SOL    HW215083   1.085   6.850   3.549
 4548SOL     OW15084   0.301   7.021   2.371
 4548SOL    HW115085   0.274   7.112   2.382
 4548SOL    HW215086   0.247   6.972   2.432
 4549SOL     OW15087   0.283   6.668   2.749
 4549SOL    HW115088   0.279   6.579   2.784
 4549SOL    HW215089   0.215   6.715   2.797
 4550SOL     OW15090   0.599   7.389   3.268
 4550SOL    HW115091   0.525   7.362   3.322
 4550SOL    HW215092   0.627   7.473   3.304
 4551SOL     OW15093   0.570   6.579   2.008
 4551SOL    HW115094   0.623   6.619   1.939
 4551SOL    HW215095   0.612   6.606   2.090
 4552SOL     OW15096   1.586   5.720   3.318
 4552SOL    HW115097   1.628   5.796   3.275
 4552SOL    HW215098   1.568   5.750   3.407
 4553SOL     OW15099   0.135   6.222   2.407
 4553SOL    HW115100   0.097   6.139   2.435
 4553SOL    HW215101   0.122   6.281   2.481
 4554SOL     OW15102   1.844   7.333   2.187
 4554SOL    HW115103   1.913   7.311   2.249
 4554SOL    HW215104   1.859   7.426   2.167
 4555SOL     OW15105   0.017   7.170   2.002
 4555SOL    HW115106   0.001   7.077   1.988
 4555SOL    HW215107   0.005   7.183   2.096
 4556SOL     OW15108   1.693   6.505   2.514
 4556SOL    HW115109   1.778   6.462   2.503
 4556SOL    HW215110   1.678   6.551   2.432
 4557SOL     OW15111   1.655   6.687   2.291
 4557SOL    HW115112   1.742   6.683   2.250
 4557SOL    HW215113   1.664   6.751   2.361
 4558SOL     OW15114   0.151   6.351   3.455
 4558SOL    HW115115   0.246   6.346   3.455
 4558SOL    HW215116   0.131   6.434   3.499
 4559SOL     OW15117   0.619   6.982   2.599
 4559SOL    HW115118   0.577   6.896   2.605
 4559SOL    HW215119   0.606   7.009   2.508
 4560SOL     OW15120   1.282   6.820   3.279
 4560SOL    HW115121   1.312   6.751   3.220
 4560SOL    HW215122   1.341   6.815   3.354
 4561SOL     OW15123   0.825   5.593   2.375
 4561SOL    HW115124   0.865   5.677   2.352
 4561SOL    HW215125   0.731   5.612   2.380
 4562SOL     OW15126   0.181   6.512   3.118
 4562SOL    HW115127   0.275   6.496   3.123
 4562SOL    HW215128   0.149   6.447   3.055
 4563SOL     OW15129   1.531   6.592   2.062
 4563SOL    HW115130   1.462   6.535   2.094
 4563SOL    HW215131   1.576   6.622   2.141
 4564SOL     OW15132   1.181   7.399   3.492
 4564SOL    HW115133   1.187   7.460   3.418
 4564SOL    HW215134   1.200   7.313   3.454
 4565SOL     OW15135   0.361   5.845   3.697
 4565SOL    HW115136   0.411   5.918   3.733
 4565SOL    HW215137   0.270   5.868   3.711
 4566SOL     OW15138   1.466   7.004   2.803
 4566SOL    HW115139   1.403   7.020   2.873
 4566SOL    HW215140   1.452   6.913   2.778
 4567SOL     OW15141   1.647   7.349   2.436
 4567SOL    HW115142   1.627   7.310   2.352
 4567SOL    HW215143   1.637   7.277   2.499
 4568SOL     OW15144   0.588   6.293   2.126
 4568SOL    HW115145   0.596   6.380   2.089
 4568SOL    HW215146   0.529   6.304   2.201
 4569SOL     OW15147   1.279   5.961   2.797
 4569SOL    HW115148   1.191   5.925   2.807
 4569SOL    HW215149   1.333   5.907   2.854
 4570SOL     OW15150   1.576   7.263   2.175
 4570SOL    HW115151   1.670   7.282   2.167
 4570SOL    HW215152   1.548   7.245   2.085
 4571SOL     OW15153   0.785   6.205   3.306
 4571SOL    HW115154   0.762   6.176   3.394
 4571SOL    HW215155   0.758   6.132   3.249
 4572SOL     OW15156   1.393   6.057   3.540
 4572SOL    HW115157   1.399   6.101   3.625
 4572SOL    HW215158   1.447   5.979   3.551
 4573SOL     OW15159   0.949   6.468   3.452
 4573SOL    HW115160   1.004   6.401   3.411
 4573SOL    HW215161   0.899   6.505   3.379
 4574SOL     OW15162   0.998   5.997   3.086
 4574SOL    HW115163   0.907   6.009   3.114
 4574SOL    HW215164   0.992   5.946   3.006
 4575SOL     OW15165   1.054   6.286   2.284
 4575SOL    HW115166   1.075   6.281   2.377
 4575SOL    HW215167   0.971   6.240   2.276
 4576SOL     OW15168   0.100   6.374   2.636
 4576SOL    HW115169   0.181   6.381   2.686
 4576SOL    HW215170   0.047   6.448   2.664
 4577SOL     OW15171   0.131   7.410   3.427
 4577SOL    HW115172   0.136   7.396   3.521
 4577SOL    HW215173   0.041   7.388   3.404
 4578SOL     OW15174   0.898   5.936   2.059
 4578SOL    HW115175   0.941   5.997   1.999
 4578SOL    HW215176   0.905   5.851   2.016
 4579SOL     OW15177   1.693   6.151   3.695
 4579SOL    HW115178   1.665   6.226   3.644
 4579SOL    HW215179   1.728   6.089   3.630
 4580SOL     OW15180   1.387   6.729   2.403
 4580SOL    HW115181   1.467   6.717   2.352
 4580SOL    HW215182   1.335   6.790   2.351
 4581SOL     OW15183   0.554   5.760   2.766
 4581SOL    HW115184   0.558   5.786   2.858
 4581SOL    HW215185   0.556   5.842   2.717
 4582SOL     OW15186   0.995   7.031   2.327
 4582SOL    HW115187   0.971   7.108   2.275
 4582SOL    HW215188   0.970   7.054   2.416
 4583SOL     OW15189   0.358   7.411   2.723
 4583SOL    HW115190   0.402   7.327   2.735
 4583SOL    HW215191   0.424   7.476   2.747
 4584SOL     OW15192   1.802   6.643   2.738
 4584SOL    HW115193   1.750   6.618   2.662
 4584SOL    HW215194   1.738   6.647   2.810
 4585SOL     OW15195   1.223   7.128   3.377
 4585SOL    HW115196   1.214   7.057   3.441
 4585SOL    HW215197   1.157   7.110   3.311
 4586SOL     OW15198   0.301   6.530   2.095
 4586SOL    HW115199   0.388   6.557   2.068
 4586SOL    HW215200   0.281   6.453   2.043
 4587SOL     OW15201   1.481   6.341   2.580
 4587SOL    HW115202   1.482   6.298   2.666
 4587SOL    HW215203   1.561   6.394   2.580
 4588SOL     OW15204   0.468   6.854   3.601
 4588SOL    HW115205   0.444   6.859   3.509
 4588SOL    HW215206   0.385   6.840   3.647
 4589SOL     OW15207   1.129   7.368   2.081
 4589SOL    HW115208   1.052   7.333   2.125
 4589SOL    HW215209   1.153   7.301   2.017
 4590SOL     OW15210   0.192   5.844   3.362
 4590SOL    HW115211   0.176   5.919   3.419
 4590SOL    HW215212   0.162   5.769   3.413
 4591SOL     OW15213   1.628   6.971   1.952
 4591SOL    HW115214   1.585   7.056   1.939
 4591SOL    HW215215   1.560   6.906   1.931
 4592SOL     OW15216   0.453   7.336   2.171
 4592SOL    HW115217   0.501   7.379   2.241
 4592SOL    HW215218   0.519   7.289   2.121
 4593SOL     OW15219   1.400   5.696   2.309
 4593SOL    HW115220   1.398   5.667   2.217
 4593SOL    HW215221   1.493   5.696   2.332
 4594SOL     OW15222   0.240   7.368   3.093
 4594SOL    HW115223   0.291   7.295   3.127
 4594SOL    HW215224   0.214   7.340   3.005
 4595SOL     OW15225   0.940   7.286   2.757
 4595SOL    HW115226   1.020   7.240   2.782
 4595SOL    HW215227   0.903   7.234   2.685
 4596SOL     OW15228   0.408   6.283   2.338
 4596SOL    HW115229   0.424   6.190   2.351
 4596SOL    HW215230   0.315   6.295   2.356
 4597SOL     OW15231   1.526   5.808   3.585
 4597SOL    HW115232   1.534   5.834   3.677
 4597SOL    HW215233   1.474   5.729   3.586
 4598SOL     OW15234   0.653   5.699   1.964
 4598SOL    HW115235   0.703   5.622   1.992
 4598SOL    HW215236   0.599   5.668   1.892
 4599SOL     OW15237   0.759   5.867   3.618
 4599SOL    HW115238   0.842   5.820   3.613
 4599SOL    HW215239   0.717   5.831   3.697
 4600SOL     OW15240   0.879   7.113   3.056
 4600SOL    HW115241   0.859   7.070   2.973
 4600SOL    HW215242   0.945   7.057   3.097
 4601SOL     OW15243   1.337   6.178   3.299
 4601SOL    HW115244   1.369   6.143   3.383
 4601SOL    HW215245   1.379   6.263   3.291
 4602SOL     OW15246   0.820   6.971   2.814
 4602SOL    HW115247   0.906   6.960   2.772
 4602SOL    HW215248   0.759   6.982   2.741
 4603SOL     OW15249   0.929   6.097   2.759
 4603SOL    HW115250   0.904   6.085   2.668
 4603SOL    HW215251   0.959   6.010   2.787
 4604SOL     OW15252   0.557   5.649   2.355
 4604SOL    HW115253   0.477   5.650   2.408
 4604SOL    HW215254   0.547   5.725   2.297
 4605SOL     OW15255   1.428   6.789   1.898
 4605SOL    HW115256   1.459   6.715   1.950
 4605SOL    HW215257   1.343   6.811   1.937
 4606SOL     OW15258   0.280   5.635   2.036
 4606SOL    HW115259   0.338   5.703   2.000
 4606SOL    HW215260   0.338   5.577   2.085
 4607SOL     OW15261   0.945   5.838   2.316
 4607SOL    HW115262   0.923   5.875   2.231
 4607SOL    HW215263   1.040   5.852   2.324
 4608SOL     OW15264   1.082   6.273   3.314
 4608SOL    HW115265   1.023   6.198   3.324
 4608SOL    HW215266   1.169   6.235   3.312
 4609SOL     OW15267   1.214   7.159   2.657
 4609SOL    HW115268   1.230   7.225   2.590
 4609SOL    HW215269   1.286   7.171   2.720
 4610SOL     OW15270   0.479   6.744   2.581
 4610SOL    HW115271   0.417   6.720   2.650
 4610SOL    HW215272   0.433   6.725   2.499
 4611SOL     OW15273   1.259   7.375   2.477
 4611SOL    HW115274   1.307   7.438   2.424
 4611SOL    HW215275   1.190   7.426   2.519
 4612SOL     OW15276   1.028   6.112   1.889
 4612SOL    HW115277   0.985   6.196   1.872
 4612SOL    HW215278   1.091   6.131   1.959
 4613SOL     OW15279   0.099   6.208   3.231
 4613SOL    HW115280   0.188   6.177   3.212
 4613SOL    HW215281   0.107   6.257   3.312
 4614SOL     OW15282   0.560   5.809   3.039
 4614SOL    HW115283   0.603   5.739   3.089
 4614SOL    HW215284   0.469   5.805   3.067
 4615SOL     OW15285   0.865   6.042   2.499
 4615SOL    HW115286   0.825   6.098   2.432
 4615SOL    HW215287   0.891   5.963   2.451
 4616SOL     OW15288   1.018   5.642   2.607
 4616SOL    HW115289   0.959   5.632   2.532
 4616SOL    HW215290   0.997   5.569   2.665
 4617SOL     OW15291   1.435   6.743   2.719
 4617SOL    HW115292   1.371   6.673   2.730
 4617SOL    HW215293   1.450   6.748   2.624
 4618SOL     OW15294   1.467   6.197   2.822
 4618SOL    HW115295   1.406   6.123   2.830
 4618SOL    HW215296   1.524   6.190   2.899
 4619SOL     OW15297   1.833   6.392   2.245
 4619SOL    HW115298   1.891   6.347   2.307
 4619SOL    HW215299   1.815   6.327   2.177
 4620SOL     OW15300   0.490   7.006   2.006
 4620SOL    HW115301   0.409   6.977   2.048
 4620SOL    HW215302   0.495   6.954   1.925
 4621SOL     OW15303   1.691   6.856   2.493
 4621SOL    HW115304   1.784   6.852   2.514
 4621SOL    HW215305   1.664   6.943   2.523
 4622SOL     OW15306   1.392   6.160   1.933
 4622SOL    HW115307   1.331   6.136   2.003
 4622SOL    HW215308   1.478   6.130   1.964
 4623SOL     OW15309   0.526   5.844   2.166
 4623SOL    HW115310   0.579   5.799   2.101
 4623SOL    HW215311   0.500   5.926   2.124
 4624SOL     OW15312   1.743   6.830   3.413
 4624SOL    HW115313   1.829   6.789   3.415
 4624SOL    HW215314   1.758   6.919   3.444
 4625SOL     OW15315   1.050   6.940   3.193
 4625SOL    HW115316   0.974   6.907   3.241
 4625SOL    HW215317   1.125   6.897   3.234
 4626SOL     OW15318   1.607   7.220   3.524
 4626SOL    HW115319   1.599   7.253   3.434
 4626SOL    HW215320   1.686   7.166   3.523
 4627SOL     OW15321   1.139   6.804   2.963
 4627SOL    HW115322   1.080   6.842   3.027
 4627SOL    HW215323   1.110   6.840   2.879
 4628SOL     OW15324   1.620   6.681   2.938
 4628SOL    HW115325   1.614   6.743   3.011
 4628SOL    HW215326   1.544   6.702   2.883
 4629SOL     OW15327   0.918   5.678   3.249
 4629SOL    HW115328   0.942   5.658   3.159
 4629SOL    HW215329   0.997   5.716   3.288
 4630SOL     OW15330   0.981   6.704   3.581
 4630SOL    HW115331   0.891   6.718   3.609
 4630SOL    HW215332   0.978   6.623   3.530
 4631SOL     OW15333   0.711   6.649   2.236
 4631SOL    HW115334   0.700   6.628   2.328
 4631SOL    HW215335   0.785   6.595   2.208
 4632SOL     OW15336   0.433   6.406   3.117
 4632SOL    HW115337   0.498   6.420   3.186
 4632SOL    HW215338   0.404   6.315   3.129
 4633SOL     OW15339   1.264   5.963   3.145
 4633SOL    HW115340   1.296   6.040   3.193
 4633SOL    HW215341   1.173   5.984   3.123
 4634SOL     OW15342   0.043   7.182   3.192
 4634SOL    HW115343   0.103   7.255   3.176
 4634SOL    HW215344   0.076   7.142   3.272
 4635SOL     OW15345   0.334   6.691   2.349
 4635SOL    HW115346   0.342   6.764   2.288
 4635SOL    HW215347   0.337   6.613   2.294
 4636SOL     OW15348   0.547   6.110   2.717
 4636SOL    HW115349   0.563   6.171   2.645
 4636SOL    HW215350   0.613   6.134   2.783
 4637SOL     OW15351   1.247   6.939   2.253
 4637SOL    HW115352   1.303   7.008   2.289
 4637SOL    HW215353   1.160   6.958   2.288
 4638SOL     OW15354   1.297   7.049   3.011
 4638SOL    HW115355   1.351   7.057   3.089
 4638SOL    HW215356   1.244   6.970   3.027
 4639SOL     OW15357   1.572   6.207   2.347
 4639SOL    HW115358   1.523   6.247   2.418
 4639SOL    HW215359   1.624   6.279   2.310
 4640SOL     OW15360   0.349   7.122   3.172
 4640SOL    HW115361   0.333   7.071   3.092
 4640SOL    HW215362   0.445   7.129   3.177
 4641SOL     OW15363   0.430   6.311   3.477
 4641SOL    HW115364   0.485   6.363   3.417
 4641SOL    HW215365   0.489   6.243   3.509
 4642SOL     OW15366   1.614   6.368   3.553
 4642SOL    HW115367   1.528   6.409   3.548
 4642SOL    HW215368   1.665   6.411   3.484
 4643SOL     OW15369   0.992   5.726   3.611
 4643SOL    HW115370   1.053   5.798   3.593
 4643SOL    HW215371   1.040   5.647   3.587
 4644SOL     OW15372   0.503   5.621   3.613
 4644SOL    HW115373   0.456   5.569   3.548
 4644SOL    HW215374   0.449   5.699   3.627
 4645SOL     OW15375   0.588   6.463   2.894
 4645SOL    HW115376   0.627   6.551   2.899
 4645SOL    HW215377   0.536   6.456   2.974
 4646SOL     OW15378   1.335   6.445   2.871
 4646SOL    HW115379   1.247   6.420   2.844
 4646SOL    HW215380   1.387   6.365   2.863
 4647SOL     OW15381   1.194   6.112   2.120
 4647SOL    HW115382   1.206   6.035   2.175
 4647SOL    HW215383   1.154   6.177   2.178
 4648SOL     OW15384   0.295   5.779   3.110
 4648SOL    HW115385   0.259   5.809   3.194
 4648SOL    HW215386   0.283   5.684   3.112
 4649SOL     OW15387   0.040   6.893   3.128
 4649SOL    HW115388   0.067   6.836   3.200
 4649SOL    HW215389   0.049   6.982   3.164
 4650SOL     OW15390   0.715   6.210   2.908
 4650SOL    HW115391   0.795   6.198   2.857
 4650SOL    HW215392   0.691   6.301   2.893
 4651SOL     OW15393   1.741   6.551   3.722
 4651SOL    HW115394   1.702   6.478   3.675
 4651SOL    HW215395   1.682   6.567   3.795
 4652SOL     OW15396   0.309   5.654   2.478
 4652SOL    HW115397   0.286   5.744   2.502
 4652SOL    HW215398   0.320   5.609   2.562
 4653SOL     OW15399   1.629   5.974   2.213
 4653SOL    HW115400   1.655   5.905   2.274
 4653SOL    HW215401   1.601   6.046   2.269
 4654SOL     OW15402   1.030   6.344   2.821
 4654SOL    HW115403   1.016   6.360   2.914
 4654SOL    HW215404   1.003   6.253   2.808
 4655SOL     OW15405   0.979   7.152   3.588
 4655SOL    HW115406   0.964   7.194   3.504
 4655SOL    HW215407   1.022   7.069   3.566
 4656SOL     OW15408   1.843   7.086   3.466
 4656SOL    HW115409   1.871   7.113   3.379
 4656SOL    HW215410   1.922   7.095   3.520
 4657SOL     OW15411   0.366   6.534   3.654
 4657SOL    HW115412   0.438   6.548   3.716
 4657SOL    HW215413   0.386   6.450   3.612
 4658SOL     OW15414   1.523   5.861   1.984
 4658SOL    HW115415   1.466   5.791   2.016
 4658SOL    HW215416   1.561   5.899   2.064
 4659SOL     OW15417   1.280   6.407   1.886
 4659SOL    HW115418   1.323   6.322   1.894
 4659SOL    HW215419   1.316   6.445   1.806
 4660SOL     OW15420   1.069   6.928   2.720
 4660SOL    HW115421   1.078   6.856   2.657
 4660SOL    HW215422   1.125   6.997   2.685
 4661SOL     OW15423   0.319   6.389   2.806
 4661SOL    HW115424   0.412   6.412   2.809
 4661SOL    HW215425   0.317   6.298   2.838
 4662SOL     OW15426   0.332   6.106   2.876
 4662SOL    HW115427   0.297   6.018   2.861
 4662SOL    HW215428   0.408   6.111   2.818
 4663SOL     OW15429   1.135   5.959   3.546
 4663SOL    HW115430   1.090   6.011   3.613
 4663SOL    HW215431   1.223   5.996   3.543
 4664SOL     OW15432   1.158   5.784   3.332
 4664SOL    HW115433   1.149   5.845   3.405
 4664SOL    HW215434   1.206   5.833   3.266
 4665SOL     OW15435   7.980   6.887   2.061
 4665SOL    HW115436   7.890   6.907   2.089
 4665SOL    HW215437   7.990   6.794   2.077
 4666SOL     OW15438   0.102   7.333   2.802
 4666SOL    HW115439   0.115   7.245   2.765
 4666SOL    HW215440   0.179   7.382   2.774
 4667SOL     OW15441   0.485   7.162   2.763
 4667SOL    HW115442   0.554   7.223   2.789
 4667SOL    HW215443   0.529   7.098   2.707
 4668SOL     OW15444   0.962   6.371   3.085
 4668SOL    HW115445   1.026   6.353   3.154
 4668SOL    HW215446   0.882   6.328   3.115
 4669SOL     OW15447   0.071   6.139   2.972
 4669SOL    HW115448   0.165   6.129   2.956
 4669SOL    HW215449   0.065   6.158   3.066
 4670SOL     OW15450   0.194   6.083   3.514
 4670SOL    HW115451   0.287   6.088   3.495
 4670SOL    HW215452   0.163   6.173   3.509
 4671SOL     OW15453   1.383   6.515   3.518
 4671SOL    HW115454   1.404   6.608   3.514
 4671SOL    HW215455   1.380   6.487   3.426
 4672SOL     OW15456   0.817   6.154   2.230
 4672SOL    HW115457   0.827   6.079   2.171
 4672SOL    HW215458   0.741   6.202   2.196
 4673SOL     OW15459   1.641   6.187   3.034
 4673SOL    HW115460   1.634   6.129   3.110
 4673SOL    HW215461   1.730   6.174   3.002
 4674SOL     OW15462   0.290   7.120   3.583
 4674SOL    HW115463   0.250   7.191   3.634
 4674SOL    HW215464   0.283   7.043   3.639
 4675SOL     OW15465   0.720   6.027   3.110
 4675SOL    HW115466   0.662   5.954   3.089
 4675SOL    HW215467   0.707   6.090   3.039
 4676SOL     OW15468   0.914   7.263   3.340
 4676SOL    HW115469   0.891   7.220   3.257
 4676SOL    HW215470   0.910   7.356   3.321
 4677SOL     OW15471   0.448   6.068   2.027
 4677SOL    HW115472   0.503   6.143   2.048
 4677SOL    HW215473   0.366   6.085   2.073
 4678SOL     OW15474   0.152   6.711   3.309
 4678SOL    HW115475   0.135   6.666   3.392
 4678SOL    HW215476   0.160   6.641   3.245
 4679SOL     OW15477   1.317   6.627   3.075
 4679SOL    HW115478   1.334   6.563   3.006
 4679SOL    HW215479   1.253   6.687   3.036
 4680SOL     OW15480   1.318   6.448   2.160
 4680SOL    HW115481   1.250   6.411   2.217
 4680SOL    HW215482   1.288   6.429   2.071
 4681SOL     OW15483   1.782   7.321   3.021
 4681SOL    HW115484   1.843   7.343   2.951
 4681SOL    HW215485   1.753   7.232   3.001
 4682SOL     OW15486   1.238   7.316   2.958
 4682SOL    HW115487   1.322   7.344   2.923
 4682SOL    HW215488   1.251   7.224   2.983
 4683SOL     OW15489   0.090   6.809   2.879
 4683SOL    HW115490   0.073   6.839   2.968
 4683SOL    HW215491   0.003   6.803   2.839
 4684SOL     OW15492   0.685   7.257   3.608
 4684SOL    HW115493   0.627   7.332   3.595
 4684SOL    HW215494   0.761   7.276   3.553
 4685SOL     OW15495   1.721   5.751   2.359
 4685SOL    HW115496   1.792   5.732   2.297
 4685SOL    HW215497   1.704   5.667   2.402
 4686SOL     OW15498   1.394   7.154   2.358
 4686SOL    HW115499   1.450   7.190   2.289
 4686SOL    HW215500   1.343   7.228   2.389
 4687SOL     OW15501   0.165   7.332   3.702
 4687SOL    HW115502   0.104   7.281   3.755
 4687SOL    HW215503   0.213   7.386   3.765
 4688SOL     OW15504   1.278   6.517   2.531
 4688SOL    HW115505   1.351   6.457   2.545
 4688SOL    HW215506   1.315   6.587   2.478
 4689SOL     OW15507   0.796   6.865   3.279
 4689SOL    HW115508   0.769   6.908   3.360
 4689SOL    HW215509   0.720   6.876   3.220
 4690SOL     OW15510   0.663   7.216   2.019
 4690SOL    HW115511   0.678   7.229   1.926
 4690SOL    HW215512   0.610   7.136   2.024
 4691SOL     OW15513   1.615   7.317   3.255
 4691SOL    HW115514   1.672   7.320   3.178
 4691SOL    HW215515   1.600   7.409   3.276
 4692SOL     OW15516   1.843   5.754   2.823
 4692SOL    HW115517   1.874   5.665   2.804
 4692SOL    HW215518   1.755   5.756   2.786
 4693SOL     OW15519   0.259   5.904   2.571
 4693SOL    HW115520   0.172   5.939   2.551
 4693SOL    HW215521   0.260   5.894   2.666
 4694SOL     OW15522   1.209   7.180   1.896
 4694SOL    HW115523   1.197   7.090   1.925
 4694SOL    HW215524   1.140   7.194   1.831
 4695SOL     OW15525   0.824   6.594   3.243
 4695SOL    HW115526   0.871   6.583   3.160
 4695SOL    HW215527   0.819   6.689   3.255
 4696SOL     OW15528   0.914   6.494   2.150
 4696SOL    HW115529   0.974   6.528   2.084
 4696SOL    HW215530   0.965   6.429   2.198
 4697SOL     OW15531   1.484   7.225   1.911
 4697SOL    HW115532   1.392   7.208   1.894
 4697SOL    HW215533   1.524   7.228   1.823
 4698SOL     OW15534   0.366   6.886   3.352
 4698SOL    HW115535   0.348   6.967   3.304
 4698SOL    HW215536   0.292   6.829   3.332
 4699SOL     OW15537   1.606   6.871   3.144
 4699SOL    HW115538   1.662   6.850   3.219
 4699SOL    HW215539   1.546   6.938   3.177
 4700SOL     OW15540   1.068   6.699   2.575
 4700SOL    HW115541   0.995   6.648   2.613
 4700SOL    HW215542   1.133   6.633   2.553
 4701SOL     OW15543   1.025   5.831   2.828
 4701SOL    HW115544   1.024   5.785   2.744
 4701SOL    HW215545   1.022   5.761   2.893
 4702SOL     OW15546   0.607   7.071   2.342
 4702SOL    HW115547   0.657   7.025   2.275
 4702SOL    HW215548   0.516   7.069   2.310
 4703SOL     OW15549   1.730   5.983   3.239
 4703SOL    HW115550   1.804   6.043   3.242
 4703SOL    HW215551   1.758   5.912   3.182
 4704SOL     OW15552   0.248   6.923   2.127
 4704SOL    HW115553   0.152   6.927   2.123
 4704SOL    HW215554   0.270   6.962   2.212
 4705SOL     OW15555   0.110   6.594   3.565
 4705SOL    HW115556   0.068   6.674   3.596
 4705SOL    HW215557   0.193   6.591   3.613
 4706SOL     OW15558   0.681   5.785   3.360
 4706SOL    HW115559   0.765   5.760   3.322
 4706SOL    HW215560   0.702   5.813   3.449
 4707SOL     OW15561   0.116   5.954   1.883
 4707SOL    HW115562   0.040   5.988   1.930
 4707SOL    HW215563   0.118   6.004   1.801
 4708SOL     OW15564   1.422   6.444   3.257
 4708SOL    HW115565   1.373   6.505   3.201
 4708SOL    HW215566   1.511   6.445   3.221
 4709SOL     OW15567   0.093   5.827   2.225
 4709SOL    HW115568   0.048   5.805   2.143
 4709SOL    HW215569   0.175   5.779   2.220
 4710SOL     OW15570   1.179   6.915   1.983
 4710SOL    HW115571   1.091   6.878   1.986
 4710SOL    HW215572   1.207   6.919   2.075
 4711SOL     OW15573   0.622   6.421   3.307
 4711SOL    HW115574   0.680   6.496   3.294
 4711SOL    HW215575   0.680   6.345   3.310
 4712SOL     OW15576   1.486   7.378   2.852
 4712SOL    HW115577   1.511   7.446   2.789
 4712SOL    HW215578   1.568   7.341   2.883
 4713SOL     OW15579   0.709   6.145   3.561
 4713SOL    HW115580   0.760   6.201   3.620
 4713SOL    HW215581   0.727   6.056   3.591
 4714SOL     OW15582   1.471   6.778   3.487
 4714SOL    HW115583   1.461   6.792   3.581
 4714SOL    HW215584   1.563   6.797   3.470
 4715SOL     OW15585   0.389   7.322   3.424
 4715SOL    HW115586   0.301   7.353   3.404
 4715SOL    HW215587   0.375   7.236   3.465
 4716SOL     OW15588   1.660   6.463   3.115
 4716SOL    HW115589   1.660   6.377   3.073
 4716SOL    HW215590   1.652   6.525   3.043
 4717SOL     OW15591   1.218   5.908   2.316
 4717SOL    HW115592   1.278   5.834   2.312
 4717SOL    HW215593   1.246   5.958   2.393
 4718SOL     OW15594   0.594   6.318   2.540
 4718SOL    HW115595   0.635   6.404   2.529
 4718SOL    HW215596   0.530   6.312   2.469
 4719SOL     OW15597   1.756   5.950   3.514
 4719SOL    HW115598   1.741   5.967   3.421
 4719SOL    HW215599   1.684   5.892   3.539
 4720SOL     OW15600   1.742   6.523   3.370
 4720SOL    HW115601   1.732   6.617   3.378
 4720SOL    HW215602   1.725   6.504   3.278
 4721SOL     OW15603   0.857   6.948   1.910
 4721SOL    HW115604   0.826   6.968   1.999
 4721SOL    HW215605   0.875   7.034   1.871
 4722SOL     OW15606   0.663   7.366   2.790
 4722SOL    HW115607   0.650   7.460   2.776
 4722SOL    HW215608   0.759   7.356   2.790
 4723SOL     OW15609   0.873   6.559   2.715
 4723SOL    HW115610   0.922   6.486   2.752
 4723SOL    HW215611   0.830   6.599   2.791
 4724SOL     OW15612   1.072   6.573   1.947
 4724SOL    HW115613   1.054   6.626   1.869
 4724SOL    HW215614   1.147   6.518   1.922
 4725SOL     OW15615   1.845   7.135   2.699
 4725SOL    HW115616   1.761   7.123   2.656
 4725SOL    HW215617   1.848   7.066   2.766
 4726SOL     OW15618   0.217   6.885   3.716
 4726SOL    HW115619   0.125   6.871   3.695
 4726SOL    HW215620   0.220   6.886   3.812
 4727SOL     OW15621   0.135   6.850   2.506
 4727SOL    HW115622   0.059   6.812   2.549
 4727SOL    HW215623   0.197   6.778   2.497
 4728SOL     OW15624   0.682   6.998   3.490
 4728SOL    HW115625   0.604   6.956   3.527
 4728SOL    HW215626   0.685   7.084   3.532
 4729SOL     OW15627   1.801   5.770   3.093
 4729SOL    HW115628   1.821   5.679   3.114
 4729SOL    HW215629   1.817   5.777   2.999
 4730SOL     OW15630   0.433   6.020   2.382
 4730SOL    HW115631   0.470   5.947   2.333
 4730SOL    HW215632   0.385   5.980   2.454
 4731SOL     OW15633   1.692   7.073   2.955
 4731SOL    HW115634   1.616   7.050   2.903
 4731SOL    HW215635   1.699   7.002   3.020
 4732SOL     OW15636   0.354   6.145   3.158
 4732SOL    HW115637   0.397   6.086   3.219
 4732SOL    HW215638   0.371   6.108   3.072
 4733SOL     OW15639   0.838   7.169   2.532
 4733SOL    HW115640   0.813   7.243   2.476
 4733SOL    HW215641   0.760   7.113   2.534
 4734SOL     OW15642   1.430   5.822   2.977
 4734SOL    HW115643   1.459   5.742   3.021
 4734SOL    HW215644   1.380   5.869   3.044
 4735SOL     OW15645   1.010   5.603   2.992
 4735SOL    HW115646   0.955   5.537   2.951
 4735SOL    HW215647   1.097   5.564   2.993
 4736SOL     OW15648   0.779   6.919   2.183
 4736SOL    HW115649   0.755   6.827   2.196
 4736SOL    HW215650   0.858   6.931   2.236
 4737SOL     OW15651   0.623   7.146   3.144
 4737SOL    HW115652   0.620   7.231   3.188
 4737SOL    HW215653   0.713   7.138   3.112
 4738SOL     OW15654   1.368   5.633   2.039
 4738SOL    HW115655   1.407   5.556   1.998
 4738SOL    HW215656   1.277   5.609   2.054
 4739SOL     OW15657   1.294   6.053   2.538
 4739SOL    HW115658   1.242   6.133   2.541
 4739SOL    HW215659   1.290   6.017   2.626
 4740SOL     OW15660   1.581   5.773   2.747
 4740SOL    HW115661   1.529   5.801   2.822
 4740SOL    HW215662   1.583   5.850   2.690
 4741SOL     OW15663   0.042   6.623   2.144
 4741SOL    HW115664   0.133   6.603   2.122
 4741SOL    HW215665   0.042   6.635   2.239
 4742SOL     OW15666   0.894   7.249   2.187
 4742SOL    HW115667   0.815   7.232   2.136
 4742SOL    HW215668   0.866   7.311   2.254
 4743SOL     OW15669   0.230   6.278   3.797
 4743SOL    HW115670   0.176   6.253   3.872
 4743SOL    HW215671   0.261   6.196   3.760
 4744SOL     OW15672   0.237   5.855   4.710
 4744SOL    HW115673   0.264   5.827   4.797
 4744SOL    HW215674   0.152   5.812   4.696
 4745SOL     OW15675   8.007   5.979   4.325
 4745SOL    HW115676   7.920   5.963   4.361
 4745SOL    HW215677   8.012   5.921   4.249
 4746SOL     OW15678   0.573   6.888   4.920
 4746SOL    HW115679   0.486   6.891   4.879
 4746SOL    HW215680   0.590   6.978   4.948
 4747SOL     OW15681   1.581   7.103   4.434
 4747SOL    HW115682   1.537   7.076   4.515
 4747SOL    HW215683   1.512   7.104   4.368
 4748SOL     OW15684   1.130   6.291   4.415
 4748SOL    HW115685   1.180   6.372   4.405
 4748SOL    HW215686   1.084   6.300   4.498
 4749SOL     OW15687   1.780   6.180   3.948
 4749SOL    HW115688   1.751   6.174   3.858
 4749SOL    HW215689   1.743   6.103   3.991
 4750SOL     OW15690   0.733   6.719   4.772
 4750SOL    HW115691   0.673   6.759   4.834
 4750SOL    HW215692   0.777   6.793   4.730
 4751SOL     OW15693   0.880   6.341   5.550
 4751SOL    HW115694   0.880   6.410   5.616
 4751SOL    HW215695   0.901   6.385   5.468
 4752SOL     OW15696   0.689   6.583   4.368
 4752SOL    HW115697   0.757   6.576   4.435
 4752SOL    HW215698   0.623   6.639   4.406
 4753SOL     OW15699   0.710   6.733   5.546
 4753SOL    HW115700   0.758   6.810   5.577
 4753SOL    HW215701   0.633   6.768   5.503
 4754SOL     OW15702   0.336   6.997   4.793
 4754SOL    HW115703   0.277   6.944   4.740
 4754SOL    HW215704   0.382   7.052   4.729
 4755SOL     OW15705   1.457   7.090   5.090
 4755SOL    HW115706   1.513   7.167   5.098
 4755SOL    HW215707   1.390   7.101   5.157
 4756SOL     OW15708   0.449   5.971   5.209
 4756SOL    HW115709   0.531   5.922   5.215
 4756SOL    HW215710   0.381   5.905   5.222
 4757SOL     OW15711   1.602   6.022   4.472
 4757SOL    HW115712   1.537   6.043   4.406
 4757SOL    HW215713   1.597   6.094   4.535
 4758SOL     OW15714   0.233   7.283   4.206
 4758SOL    HW115715   0.229   7.367   4.252
 4758SOL    HW215716   0.300   7.296   4.139
 4759SOL     OW15717   1.137   6.929   5.421
 4759SOL    HW115718   1.184   6.917   5.503
 4759SOL    HW215719   1.085   6.849   5.411
 4760SOL     OW15720   0.301   7.020   4.232
 4760SOL    HW115721   0.274   7.111   4.243
 4760SOL    HW215722   0.247   6.972   4.295
 4761SOL     OW15723   0.284   6.668   4.617
 4761SOL    HW115724   0.282   6.576   4.644
 4761SOL    HW215725   0.210   6.708   4.663
 4762SOL     OW15726   0.594   7.389   5.131
 4762SOL    HW115727   0.518   7.367   5.185
 4762SOL    HW215728   0.625   7.472   5.167
 4763SOL     OW15729   0.570   6.579   3.870
 4763SOL    HW115730   0.623   6.619   3.801
 4763SOL    HW215731   0.612   6.606   3.952
 4764SOL     OW15732   1.582   5.720   5.178
 4764SOL    HW115733   1.631   5.788   5.132
 4764SOL    HW215734   1.568   5.756   5.266
 4765SOL     OW15735   0.135   6.221   4.269
 4765SOL    HW115736   0.096   6.138   4.298
 4765SOL    HW215737   0.122   6.280   4.342
 4766SOL     OW15738   1.843   7.334   4.050
 4766SOL    HW115739   1.914   7.311   4.111
 4766SOL    HW215740   1.859   7.426   4.029
 4767SOL     OW15741   0.017   7.171   3.864
 4767SOL    HW115742   0.001   7.078   3.850
 4767SOL    HW215743   0.005   7.183   3.958
 4768SOL     OW15744   1.696   6.505   4.379
 4768SOL    HW115745   1.780   6.460   4.370
 4768SOL    HW215746   1.681   6.547   4.295
 4769SOL     OW15747   1.655   6.687   4.153
 4769SOL    HW115748   1.741   6.682   4.113
 4769SOL    HW215749   1.664   6.750   4.224
 4770SOL     OW15750   0.153   6.349   5.315
 4770SOL    HW115751   0.249   6.348   5.313
 4770SOL    HW215752   0.131   6.432   5.358
 4771SOL     OW15753   0.617   6.982   4.462
 4771SOL    HW115754   0.575   6.896   4.468
 4771SOL    HW215755   0.605   7.008   4.371
 4772SOL     OW15756   1.281   6.819   5.143
 4772SOL    HW115757   1.310   6.750   5.083
 4772SOL    HW215758   1.342   6.814   5.217
 4773SOL     OW15759   0.825   5.593   4.237
 4773SOL    HW115760   0.866   5.677   4.215
 4773SOL    HW215761   0.731   5.613   4.241
 4774SOL     OW15762   0.179   6.508   4.984
 4774SOL    HW115763   0.272   6.485   4.989
 4774SOL    HW215764   0.151   6.477   4.898
 4775SOL     OW15765   1.530   6.593   3.924
 4775SOL    HW115766   1.461   6.535   3.957
 4775SOL    HW215767   1.576   6.622   4.003
 4776SOL     OW15768   1.176   7.396   5.354
 4776SOL    HW115769   1.186   7.459   5.283
 4776SOL    HW215770   1.197   7.311   5.314
 4777SOL     OW15771   0.360   5.843   5.563
 4777SOL    HW115772   0.409   5.918   5.596
 4777SOL    HW215773   0.268   5.866   5.577
 4778SOL     OW15774   1.465   7.006   4.662
 4778SOL    HW115775   1.403   7.021   4.734
 4778SOL    HW215776   1.452   6.914   4.639
 4779SOL     OW15777   1.646   7.350   4.299
 4779SOL    HW115778   1.627   7.311   4.213
 4779SOL    HW215779   1.638   7.277   4.360
 4780SOL     OW15780   0.588   6.292   3.988
 4780SOL    HW115781   0.597   6.379   3.951
 4780SOL    HW215782   0.529   6.304   4.063
 4781SOL     OW15783   1.278   5.963   4.660
 4781SOL    HW115784   1.191   5.925   4.670
 4781SOL    HW215785   1.334   5.909   4.716
 4782SOL     OW15786   1.576   7.263   4.037
 4782SOL    HW115787   1.670   7.281   4.030
 4782SOL    HW215788   1.548   7.245   3.947
 4783SOL     OW15789   0.782   6.205   5.168
 4783SOL    HW115790   0.761   6.175   5.256
 4783SOL    HW215791   0.757   6.132   5.111
 4784SOL     OW15792   1.392   6.057   5.401
 4784SOL    HW115793   1.400   6.102   5.486
 4784SOL    HW215794   1.446   5.979   5.410
 4785SOL     OW15795   0.949   6.467   5.313
 4785SOL    HW115796   1.004   6.400   5.273
 4785SOL    HW215797   0.899   6.504   5.241
 4786SOL     OW15798   0.997   5.998   4.948
 4786SOL    HW115799   0.905   6.007   4.974
 4786SOL    HW215800   0.994   5.947   4.867
 4787SOL     OW15801   1.054   6.286   4.146
 4787SOL    HW115802   1.075   6.282   4.239
 4787SOL    HW215803   0.971   6.239   4.138
 4788SOL     OW15804   0.101   6.374   4.497
 4788SOL    HW115805   0.182   6.381   4.548
 4788SOL    HW215806   0.048   6.449   4.525
 4789SOL     OW15807   0.119   7.431   5.313
 4789SOL    HW115808   0.128   7.393   5.400
 4789SOL    HW215809   0.033   7.402   5.283
 4790SOL     OW15810   0.899   5.935   3.921
 4790SOL    HW115811   0.941   5.997   3.861
 4790SOL    HW215812   0.912   5.850   3.880
 4791SOL     OW15813   1.691   6.153   5.559
 4791SOL    HW115814   1.664   6.229   5.506
 4791SOL    HW215815   1.727   6.091   5.496
 4792SOL     OW15816   1.388   6.729   4.263
 4792SOL    HW115817   1.468   6.715   4.213
 4792SOL    HW215818   1.336   6.789   4.210
 4793SOL     OW15819   0.554   5.759   4.626
 4793SOL    HW115820   0.558   5.786   4.718
 4793SOL    HW215821   0.557   5.841   4.577
 4794SOL     OW15822   0.996   7.031   4.189
 4794SOL    HW115823   0.971   7.108   4.137
 4794SOL    HW215824   0.971   7.054   4.279
 4795SOL     OW15825   0.363   7.413   4.584
 4795SOL    HW115826   0.409   7.330   4.597
 4795SOL    HW215827   0.428   7.480   4.606
 4796SOL     OW15828   1.803   6.646   4.603
 4796SOL    HW115829   1.753   6.619   4.525
 4796SOL    HW215830   1.738   6.647   4.673
 4797SOL     OW15831   1.221   7.127   5.239
 4797SOL    HW115832   1.212   7.056   5.302
 4797SOL    HW215833   1.162   7.103   5.167
 4798SOL     OW15834   0.301   6.531   3.958
 4798SOL    HW115835   0.389   6.557   3.930
 4798SOL    HW215836   0.282   6.453   3.905
 4799SOL     OW15837   1.481   6.344   4.445
 4799SOL    HW115838   1.482   6.300   4.530
 4799SOL    HW215839   1.562   6.396   4.445
 4800SOL     OW15840   0.467   6.857   5.465
 4800SOL    HW115841   0.442   6.863   5.373
 4800SOL    HW215842   0.385   6.839   5.511
 4801SOL     OW15843   1.128   7.368   3.942
 4801SOL    HW115844   1.051   7.332   3.987
 4801SOL    HW215845   1.153   7.301   3.878
 4802SOL     OW15846   0.192   5.844   5.225
 4802SOL    HW115847   0.171   5.917   5.284
 4802SOL    HW215848   0.163   5.766   5.272
 4803SOL     OW15849   1.627   6.972   3.816
 4803SOL    HW115850   1.584   7.056   3.801
 4803SOL    HW215851   1.561   6.907   3.793
 4804SOL     OW15852   0.452   7.335   4.033
 4804SOL    HW115853   0.501   7.380   4.102
 4804SOL    HW215854   0.519   7.288   3.983
 4805SOL     OW15855   1.401   5.695   4.170
 4805SOL    HW115856   1.400   5.667   4.079
 4805SOL    HW215857   1.493   5.692   4.195
 4806SOL     OW15858   0.234   7.366   4.951
 4806SOL    HW115859   0.290   7.292   4.977
 4806SOL    HW215860   0.207   7.346   4.862
 4807SOL     OW15861   0.942   7.285   4.619
 4807SOL    HW115862   1.025   7.241   4.638
 4807SOL    HW215863   0.903   7.234   4.548
 4808SOL     OW15864   0.408   6.284   4.200
 4808SOL    HW115865   0.424   6.190   4.212
 4808SOL    HW215866   0.314   6.294   4.218
 4809SOL     OW15867   1.527   5.811   5.446
 4809SOL    HW115868   1.532   5.835   5.539
 4809SOL    HW215869   1.480   5.727   5.446
 4810SOL     OW15870   0.651   5.699   3.827
 4810SOL    HW115871   0.706   5.625   3.852
 4810SOL    HW215872   0.599   5.667   3.754
 4811SOL     OW15873   0.759   5.867   5.481
 4811SOL    HW115874   0.842   5.820   5.475
 4811SOL    HW215875   0.717   5.831   5.559
 4812SOL     OW15876   0.877   7.112   4.920
 4812SOL    HW115877   0.859   7.071   4.835
 4812SOL    HW215878   0.945   7.057   4.959
 4813SOL     OW15879   1.336   6.178   5.161
 4813SOL    HW115880   1.369   6.143   5.243
 4813SOL    HW215881   1.380   6.263   5.152
 4814SOL     OW15882   0.819   6.971   4.676
 4814SOL    HW115883   0.905   6.960   4.635
 4814SOL    HW215884   0.758   6.982   4.603
 4815SOL     OW15885   0.927   6.097   4.621
 4815SOL    HW115886   0.903   6.085   4.529
 4815SOL    HW215887   0.959   6.011   4.649
 4816SOL     OW15888   0.556   5.650   4.217
 4816SOL    HW115889   0.477   5.650   4.270
 4816SOL    HW215890   0.547   5.725   4.159
 4817SOL     OW15891   1.428   6.789   3.759
 4817SOL    HW115892   1.461   6.715   3.811
 4817SOL    HW215893   1.344   6.811   3.799
 4818SOL     OW15894   0.283   5.634   3.897
 4818SOL    HW115895   0.341   5.702   3.861
 4818SOL    HW215896   0.341   5.577   3.947
 4819SOL     OW15897   0.946   5.838   4.179
 4819SOL    HW115898   0.923   5.875   4.093
 4819SOL    HW215899   1.040   5.851   4.186
 4820SOL     OW15900   1.081   6.272   5.176
 4820SOL    HW115901   1.024   6.195   5.183
 4820SOL    HW215902   1.170   6.236   5.173
 4821SOL     OW15903   1.211   7.162   4.522
 4821SOL    HW115904   1.228   7.227   4.454
 4821SOL    HW215905   1.287   7.167   4.580
 4822SOL     OW15906   0.478   6.744   4.445
 4822SOL    HW115907   0.417   6.719   4.514
 4822SOL    HW215908   0.431   6.725   4.363
 4823SOL     OW15909   1.259   7.375   4.340
 4823SOL    HW115910   1.307   7.437   4.285
 4823SOL    HW215911   1.190   7.427   4.381
 4824SOL     OW15912   1.028   6.112   3.752
 4824SOL    HW115913   0.986   6.197   3.735
 4824SOL    HW215914   1.092   6.131   3.821
 4825SOL     OW15915   0.098   6.201   5.095
 4825SOL    HW115916   0.188   6.174   5.074
 4825SOL    HW215917   0.108   6.255   5.174
 4826SOL     OW15918   0.561   5.808   4.900
 4826SOL    HW115919   0.604   5.737   4.947
 4826SOL    HW215920   0.470   5.803   4.928
 4827SOL     OW15921   0.864   6.042   4.360
 4827SOL    HW115922   0.826   6.097   4.292
 4827SOL    HW215923   0.892   5.962   4.314
 4828SOL     OW15924   1.012   5.647   4.474
 4828SOL    HW115925   0.958   5.634   4.396
 4828SOL    HW215926   0.994   5.571   4.529
 4829SOL     OW15927   1.436   6.744   4.580
 4829SOL    HW115928   1.372   6.673   4.587
 4829SOL    HW215929   1.457   6.748   4.487
 4830SOL     OW15930   1.466   6.199   4.686
 4830SOL    HW115931   1.408   6.124   4.691
 4830SOL    HW215932   1.524   6.190   4.762
 4831SOL     OW15933   1.831   6.394   4.109
 4831SOL    HW115934   1.890   6.348   4.169
 4831SOL    HW215935   1.810   6.329   4.041
 4832SOL     OW15936   0.489   7.006   3.868
 4832SOL    HW115937   0.409   6.976   3.910
 4832SOL    HW215938   0.496   6.954   3.788
 4833SOL     OW15939   1.691   6.854   4.358
 4833SOL    HW115940   1.785   6.849   4.377
 4833SOL    HW215941   1.666   6.942   4.384
 4834SOL     OW15942   1.393   6.161   3.794
 4834SOL    HW115943   1.334   6.134   3.865
 4834SOL    HW215944   1.479   6.128   3.821
 4835SOL     OW15945   0.525   5.844   4.028
 4835SOL    HW115946   0.579   5.798   3.964
 4835SOL    HW215947   0.500   5.926   3.985
 4836SOL     OW15948   1.743   6.831   5.277
 4836SOL    HW115949   1.830   6.790   5.277
 4836SOL    HW215950   1.760   6.920   5.307
 4837SOL     OW15951   1.052   6.944   5.060
 4837SOL    HW115952   0.975   6.909   5.105
 4837SOL    HW215953   1.126   6.897   5.098
 4838SOL     OW15954   1.606   7.220   5.386
 4838SOL    HW115955   1.598   7.253   5.297
 4838SOL    HW215956   1.686   7.167   5.385
 4839SOL     OW15957   1.141   6.809   4.826
 4839SOL    HW115958   1.078   6.844   4.888
 4839SOL    HW215959   1.112   6.841   4.741
 4840SOL     OW15960   1.617   6.678   4.800
 4840SOL    HW115961   1.611   6.741   4.872
 4840SOL    HW215962   1.543   6.699   4.743
 4841SOL     OW15963   0.916   5.678   5.111
 4841SOL    HW115964   0.941   5.657   5.021
 4841SOL    HW215965   0.996   5.716   5.149
 4842SOL     OW15966   0.981   6.703   5.443
 4842SOL    HW115967   0.890   6.716   5.469
 4842SOL    HW215968   0.979   6.622   5.391
 4843SOL     OW15969   0.712   6.649   4.098
 4843SOL    HW115970   0.700   6.628   4.190
 4843SOL    HW215971   0.786   6.595   4.070
 4844SOL     OW15972   0.432   6.406   4.980
 4844SOL    HW115973   0.497   6.420   5.049
 4844SOL    HW215974   0.404   6.315   4.991
 4845SOL     OW15975   1.263   5.961   5.009
 4845SOL    HW115976   1.296   6.039   5.055
 4845SOL    HW215977   1.173   5.983   4.986
 4846SOL     OW15978   0.042   7.184   5.050
 4846SOL    HW115979   0.106   7.251   5.025
 4846SOL    HW215980   0.077   7.146   5.130
 4847SOL     OW15981   0.331   6.692   4.212
 4847SOL    HW115982   0.343   6.764   4.150
 4847SOL    HW215983   0.336   6.613   4.159
 4848SOL     OW15984   0.547   6.112   4.581
 4848SOL    HW115985   0.562   6.172   4.508
 4848SOL    HW215986   0.614   6.134   4.645
 4849SOL     OW15987   1.247   6.939   4.115
 4849SOL    HW115988   1.303   7.007   4.151
 4849SOL    HW215989   1.160   6.958   4.149
 4850SOL     OW15990   1.297   7.048   4.872
 4850SOL    HW115991   1.352   7.054   4.951
 4850SOL    HW215992   1.247   6.968   4.884
 4851SOL     OW15993   1.571   6.202   4.215
 4851SOL    HW115994   1.523   6.250   4.282
 4851SOL    HW215995   1.624   6.268   4.171
 4852SOL     OW15996   0.349   7.121   5.033
 4852SOL    HW115997   0.333   7.072   4.953
 4852SOL    HW215998   0.444   7.130   5.037
 4853SOL     OW15999   0.432   6.315   5.340
 4853SOL    HW116000   0.487   6.364   5.279
 4853SOL    HW216001   0.487   6.243   5.370
 4854SOL     OW16002   1.614   6.371   5.415
 4854SOL    HW116003   1.527   6.411   5.409
 4854SOL    HW216004   1.665   6.412   5.346
 4855SOL     OW16005   0.992   5.726   5.475
 4855SOL    HW116006   1.053   5.798   5.456
 4855SOL    HW216007   1.039   5.647   5.449
 4856SOL     OW16008   0.503   5.621   5.477
 4856SOL    HW116009   0.456   5.569   5.412
 4856SOL    HW216010   0.448   5.698   5.490
 4857SOL     OW16011   0.588   6.463   4.756
 4857SOL    HW116012   0.627   6.550   4.760
 4857SOL    HW216013   0.536   6.456   4.836
 4858SOL     OW16014   1.336   6.446   4.736
 4858SOL    HW116015   1.249   6.420   4.705
 4858SOL    HW216016   1.388   6.366   4.728
 4859SOL     OW16017   1.194   6.111   3.982
 4859SOL    HW116018   1.207   6.034   4.037
 4859SOL    HW216019   1.154   6.175   4.041
 4860SOL     OW16020   0.297   5.777   4.973
 4860SOL    HW116021   0.258   5.808   5.055
 4860SOL    HW216022   0.283   5.683   4.974
 4861SOL     OW16023   0.041   6.893   4.992
 4861SOL    HW116024   0.069   6.836   5.064
 4861SOL    HW216025   0.047   6.982   5.029
 4862SOL     OW16026   0.717   6.210   4.772
 4862SOL    HW116027   0.796   6.196   4.719
 4862SOL    HW216028   0.693   6.301   4.754
 4863SOL     OW16029   1.742   6.552   5.585
 4863SOL    HW116030   1.704   6.479   5.535
 4863SOL    HW216031   1.681   6.566   5.658
 4864SOL     OW16032   0.309   5.654   4.341
 4864SOL    HW116033   0.285   5.744   4.364
 4864SOL    HW216034   0.320   5.610   4.425
 4865SOL     OW16035   1.627   5.971   4.076
 4865SOL    HW116036   1.656   5.901   4.134
 4865SOL    HW216037   1.599   6.042   4.134
 4866SOL     OW16038   1.028   6.345   4.682
 4866SOL    HW116039   1.015   6.360   4.776
 4866SOL    HW216040   1.002   6.253   4.669
 4867SOL     OW16041   0.977   7.148   5.451
 4867SOL    HW116042   0.962   7.192   5.367
 4867SOL    HW216043   1.023   7.068   5.428
 4868SOL     OW16044   1.844   7.088   5.328
 4868SOL    HW116045   1.871   7.114   5.240
 4868SOL    HW216046   1.923   7.096   5.381
 4869SOL     OW16047   0.369   6.535   5.513
 4869SOL    HW116048   0.438   6.545   5.578
 4869SOL    HW216049   0.391   6.454   5.467
 4870SOL     OW16050   1.516   5.865   3.846
 4870SOL    HW116051   1.463   5.792   3.877
 4870SOL    HW216052   1.558   5.900   3.925
 4871SOL     OW16053   1.280   6.407   3.749
 4871SOL    HW116054   1.323   6.322   3.757
 4871SOL    HW216055   1.316   6.445   3.668
 4872SOL     OW16056   1.068   6.928   4.583
 4872SOL    HW116057   1.076   6.856   4.520
 4872SOL    HW216058   1.124   6.997   4.547
 4873SOL     OW16059   0.320   6.389   4.668
 4873SOL    HW116060   0.413   6.411   4.670
 4873SOL    HW216061   0.316   6.299   4.700
 4874SOL     OW16062   0.332   6.106   4.739
 4874SOL    HW116063   0.296   6.019   4.724
 4874SOL    HW216064   0.408   6.112   4.681
 4875SOL     OW16065   1.134   5.959   5.409
 4875SOL    HW116066   1.090   6.012   5.476
 4875SOL    HW216067   1.223   5.996   5.405
 4876SOL     OW16068   1.156   5.783   5.195
 4876SOL    HW116069   1.148   5.845   5.268
 4876SOL    HW216070   1.206   5.830   5.129
 4877SOL     OW16071   7.979   6.888   3.924
 4877SOL    HW116072   7.890   6.907   3.951
 4877SOL    HW216073   7.990   6.794   3.939
 4878SOL     OW16074   0.117   7.335   4.680
 4878SOL    HW116075   0.115   7.253   4.629
 4878SOL    HW216076   0.192   7.383   4.644
 4879SOL     OW16077   0.488   7.162   4.628
 4879SOL    HW116078   0.557   7.224   4.652
 4879SOL    HW216079   0.531   7.099   4.570
 4880SOL     OW16080   0.962   6.372   4.947
 4880SOL    HW116081   1.026   6.354   5.016
 4880SOL    HW216082   0.883   6.325   4.975
 4881SOL     OW16083   0.071   6.140   4.834
 4881SOL    HW116084   0.165   6.131   4.817
 4881SOL    HW216085   0.065   6.156   4.928
 4882SOL     OW16086   0.197   6.086   5.389
 4882SOL    HW116087   0.288   6.085   5.360
 4882SOL    HW216088   0.166   6.175   5.368
 4883SOL     OW16089   1.381   6.517   5.380
 4883SOL    HW116090   1.405   6.610   5.374
 4883SOL    HW216091   1.379   6.488   5.289
 4884SOL     OW16092   0.817   6.153   4.093
 4884SOL    HW116093   0.828   6.079   4.034
 4884SOL    HW216094   0.742   6.201   4.058
 4885SOL     OW16095   1.641   6.186   4.898
 4885SOL    HW116096   1.635   6.126   4.973
 4885SOL    HW216097   1.730   6.174   4.865
 4886SOL     OW16098   0.284   7.125   5.445
 4886SOL    HW116099   0.245   7.189   5.504
 4886SOL    HW216100   0.283   7.043   5.495
 4887SOL     OW16101   0.718   6.027   4.973
 4887SOL    HW116102   0.662   5.953   4.950
 4887SOL    HW216103   0.707   6.089   4.901
 4888SOL     OW16104   0.904   7.265   5.209
 4888SOL    HW116105   0.890   7.220   5.125
 4888SOL    HW216106   0.906   7.358   5.185
 4889SOL     OW16107   0.447   6.068   3.888
 4889SOL    HW116108   0.504   6.143   3.909
 4889SOL    HW216109   0.366   6.086   3.936
 4890SOL     OW16110   0.153   6.710   5.172
 4890SOL    HW116111   0.135   6.665   5.254
 4890SOL    HW216112   0.161   6.641   5.107
 4891SOL     OW16113   1.314   6.627   4.939
 4891SOL    HW116114   1.333   6.564   4.870
 4891SOL    HW216115   1.253   6.689   4.899
 4892SOL     OW16116   1.315   6.449   4.023
 4892SOL    HW116117   1.248   6.408   4.078
 4892SOL    HW216118   1.289   6.429   3.933
 4893SOL     OW16119   1.786   7.321   4.887
 4893SOL    HW116120   1.845   7.343   4.815
 4893SOL    HW216121   1.753   7.233   4.865
 4894SOL     OW16122   1.239   7.317   4.825
 4894SOL    HW116123   1.322   7.345   4.787
 4894SOL    HW216124   1.252   7.224   4.846
 4895SOL     OW16125   0.076   6.786   4.749
 4895SOL    HW116126   0.066   6.827   4.835
 4895SOL    HW216127  -0.004   6.810   4.702
 4896SOL     OW16128   0.689   7.261   5.470
 4896SOL    HW116129   0.633   7.333   5.442
 4896SOL    HW216130   0.767   7.268   5.415
 4897SOL     OW16131   1.722   5.752   4.219
 4897SOL    HW116132   1.793   5.732   4.158
 4897SOL    HW216133   1.705   5.668   4.263
 4898SOL     OW16134   1.395   7.154   4.221
 4898SOL    HW116135   1.451   7.189   4.152
 4898SOL    HW216136   1.343   7.229   4.251
 4899SOL     OW16137   0.168   7.339   5.587
 4899SOL    HW116138   0.106   7.283   5.634
 4899SOL    HW216139   0.240   7.352   5.648
 4900SOL     OW16140   1.278   6.519   4.396
 4900SOL    HW116141   1.351   6.459   4.410
 4900SOL    HW216142   1.315   6.588   4.341
 4901SOL     OW16143   0.797   6.865   5.139
 4901SOL    HW116144   0.769   6.908   5.220
 4901SOL    HW216145   0.723   6.876   5.079
 4902SOL     OW16146   0.663   7.216   3.882
 4902SOL    HW116147   0.678   7.230   3.789
 4902SOL    HW216148   0.610   7.136   3.886
 4903SOL     OW16149   1.615   7.317   5.117
 4903SOL    HW116150   1.673   7.318   5.041
 4903SOL    HW216151   1.599   7.409   5.138
 4904SOL     OW16152   1.841   5.753   4.687
 4904SOL    HW116153   1.875   5.666   4.668
 4904SOL    HW216154   1.754   5.755   4.647
 4905SOL     OW16155   0.259   5.905   4.432
 4905SOL    HW116156   0.172   5.939   4.413
 4905SOL    HW216157   0.260   5.894   4.528
 4906SOL     OW16158   1.208   7.180   3.758
 4906SOL    HW116159   1.197   7.089   3.787
 4906SOL    HW216160   1.139   7.193   3.693
 4907SOL     OW16161   0.824   6.593   5.104
 4907SOL    HW116162   0.871   6.579   5.022
 4907SOL    HW216163   0.821   6.688   5.114
 4908SOL     OW16164   0.915   6.495   4.013
 4908SOL    HW116165   0.975   6.528   3.946
 4908SOL    HW216166   0.966   6.429   4.061
 4909SOL     OW16167   1.484   7.227   3.772
 4909SOL    HW116168   1.391   7.209   3.756
 4909SOL    HW216169   1.523   7.229   3.685
 4910SOL     OW16170   0.362   6.891   5.219
 4910SOL    HW116171   0.348   6.967   5.162
 4910SOL    HW216172   0.292   6.830   5.195
 4911SOL     OW16173   1.603   6.869   5.004
 4911SOL    HW116174   1.663   6.850   5.076
 4911SOL    HW216175   1.545   6.936   5.039
 4912SOL     OW16176   1.067   6.699   4.438
 4912SOL    HW116177   0.995   6.648   4.475
 4912SOL    HW216178   1.134   6.635   4.415
 4913SOL     OW16179   1.024   5.832   4.693
 4913SOL    HW116180   1.021   5.787   4.608
 4913SOL    HW216181   1.022   5.761   4.758
 4914SOL     OW16182   0.608   7.071   4.205
 4914SOL    HW116183   0.659   7.025   4.139
 4914SOL    HW216184   0.518   7.069   4.172
 4915SOL     OW16185   1.733   5.982   5.103
 4915SOL    HW116186   1.808   6.042   5.104
 4915SOL    HW216187   1.759   5.911   5.046
 4916SOL     OW16188   0.248   6.923   3.989
 4916SOL    HW116189   0.152   6.926   3.985
 4916SOL    HW216190   0.269   6.961   4.074
 4917SOL     OW16191   0.111   6.591   5.429
 4917SOL    HW116192   0.070   6.672   5.461
 4917SOL    HW216193   0.195   6.587   5.474
 4918SOL     OW16194   0.680   5.786   5.223
 4918SOL    HW116195   0.763   5.760   5.184
 4918SOL    HW216196   0.702   5.813   5.312
 4919SOL     OW16197   0.116   5.954   3.745
 4919SOL    HW116198   0.040   5.988   3.792
 4919SOL    HW216199   0.118   6.004   3.663
 4920SOL     OW16200   1.422   6.445   5.120
 4920SOL    HW116201   1.373   6.505   5.064
 4920SOL    HW216202   1.510   6.445   5.083
 4921SOL     OW16203   0.092   5.826   4.088
 4921SOL    HW116204   0.048   5.804   4.006
 4921SOL    HW216205   0.176   5.780   4.084
 4922SOL     OW16206   1.180   6.914   3.845
 4922SOL    HW116207   1.093   6.874   3.849
 4922SOL    HW216208   1.208   6.919   3.937
 4923SOL     OW16209   0.622   6.422   5.170
 4923SOL    HW116210   0.680   6.496   5.155
 4923SOL    HW216211   0.679   6.345   5.171
 4924SOL     OW16212   1.485   7.380   4.716
 4924SOL    HW116213   1.512   7.445   4.651
 4924SOL    HW216214   1.567   7.337   4.741
 4925SOL     OW16215   0.709   6.144   5.424
 4925SOL    HW116216   0.761   6.200   5.483
 4925SOL    HW216217   0.727   6.055   5.453
 4926SOL     OW16218   1.472   6.779   5.349
 4926SOL    HW116219   1.464   6.793   5.443
 4926SOL    HW216220   1.565   6.797   5.330
 4927SOL     OW16221   0.380   7.331   5.288
 4927SOL    HW116222   0.292   7.363   5.266
 4927SOL    HW216223   0.365   7.244   5.324
 4928SOL     OW16224   1.659   6.461   4.979
 4928SOL    HW116225   1.660   6.375   4.938
 4928SOL    HW216226   1.652   6.522   4.905
 4929SOL     OW16227   1.217   5.906   4.177
 4929SOL    HW116228   1.279   5.833   4.173
 4929SOL    HW216229   1.245   5.956   4.254
 4930SOL     OW16230   0.591   6.320   4.405
 4930SOL    HW116231   0.634   6.405   4.391
 4930SOL    HW216232   0.529   6.313   4.332
 4931SOL     OW16233   1.755   5.953   5.379
 4931SOL    HW116234   1.744   5.969   5.285
 4931SOL    HW216235   1.684   5.894   5.402
 4932SOL     OW16236   1.744   6.523   5.232
 4932SOL    HW116237   1.734   6.618   5.238
 4932SOL    HW216238   1.727   6.502   5.140
 4933SOL     OW16239   0.853   6.950   3.770
 4933SOL    HW116240   0.825   6.970   3.860
 4933SOL    HW216241   0.875   7.034   3.731
 4934SOL     OW16242   0.665   7.368   4.654
 4934SOL    HW116243   0.652   7.461   4.639
 4934SOL    HW216244   0.760   7.356   4.653
 4935SOL     OW16245   0.872   6.559   4.577
 4935SOL    HW116246   0.921   6.485   4.613
 4935SOL    HW216247   0.830   6.598   4.653
 4936SOL     OW16248   1.071   6.572   3.808
 4936SOL    HW116249   1.054   6.624   3.729
 4936SOL    HW216250   1.146   6.517   3.785
 4937SOL     OW16251   1.849   7.134   4.563
 4937SOL    HW116252   1.765   7.120   4.520
 4937SOL    HW216253   1.860   7.058   4.620
 4938SOL     OW16254   0.213   6.889   5.576
 4938SOL    HW116255   0.122   6.871   5.553
 4938SOL    HW216256   0.215   6.886   5.672
 4939SOL     OW16257   0.137   6.851   4.371
 4939SOL    HW116258   0.060   6.810   4.412
 4939SOL    HW216259   0.197   6.778   4.355
 4940SOL     OW16260   0.682   6.997   5.350
 4940SOL    HW116261   0.604   6.955   5.389
 4940SOL    HW216262   0.687   7.082   5.393
 4941SOL     OW16263   1.798   5.766   4.958
 4941SOL    HW116264   1.815   5.674   4.975
 4941SOL    HW216265   1.814   5.777   4.864
 4942SOL     OW16266   0.433   6.021   4.244
 4942SOL    HW116267   0.470   5.948   4.194
 4942SOL    HW216268   0.385   5.979   4.315
 4943SOL     OW16269   1.686   7.077   4.822
 4943SOL    HW116270   1.613   7.052   4.765
 4943SOL    HW216271   1.696   7.004   4.882
 4944SOL     OW16272   0.354   6.146   5.020
 4944SOL    HW116273   0.398   6.086   5.081
 4944SOL    HW216274   0.371   6.109   4.934
 4945SOL     OW16275   0.837   7.171   4.394
 4945SOL    HW116276   0.814   7.245   4.338
 4945SOL    HW216277   0.759   7.115   4.392
 4946SOL     OW16278   1.430   5.822   4.837
 4946SOL    HW116279   1.459   5.740   4.877
 4946SOL    HW216280   1.381   5.866   4.907
 4947SOL     OW16281   1.009   5.602   4.854
 4947SOL    HW116282   0.957   5.536   4.809
 4947SOL    HW216283   1.097   5.564   4.857
 4948SOL     OW16284   0.779   6.919   4.046
 4948SOL    HW116285   0.755   6.827   4.058
 4948SOL    HW216286   0.859   6.930   4.098
 4949SOL     OW16287   0.622   7.146   5.007
 4949SOL    HW116288   0.619   7.232   5.051
 4949SOL    HW216289   0.711   7.139   4.975
 4950SOL     OW16290   1.370   5.631   3.901
 4950SOL    HW116291   1.411   5.553   3.863
 4950SOL    HW216292   1.279   5.606   3.914
 4951SOL     OW16293   1.288   6.053   4.399
 4951SOL    HW116294   1.237   6.134   4.404
 4951SOL    HW216295   1.288   6.018   4.488
 4952SOL     OW16296   1.580   5.773   4.606
 4952SOL    HW116297   1.528   5.802   4.681
 4952SOL    HW216298   1.584   5.849   4.549
 4953SOL     OW16299   0.042   6.623   4.004
 4953SOL    HW116300   0.133   6.603   3.983
 4953SOL    HW216301   0.041   6.634   4.099
 4954SOL     OW16302   0.894   7.249   4.050
 4954SOL    HW116303   0.815   7.232   3.998
 4954SOL    HW216304   0.865   7.312   4.117
 4955SOL     OW16305   0.239   6.283   5.671
 4955SOL    HW116306   0.205   6.232   5.745
 4955SOL    HW216307   0.244   6.221   5.599
 4956SOL     OW16308   0.237   5.855   6.570
 4956SOL    HW116309   0.261   5.825   6.657
 4956SOL    HW216310   0.155   5.809   6.550
 4957SOL     OW16311   8.006   5.977   6.187
 4957SOL    HW116312   7.918   5.960   6.221
 4957SOL    HW216313   8.014   5.921   6.110
 4958SOL     OW16314   0.563   6.888   6.793
 4958SOL    HW116315   0.488   6.893   6.734
 4958SOL    HW216316   0.586   6.980   6.809
 4959SOL     OW16317   1.583   7.103   6.294
 4959SOL    HW116318   1.538   7.076   6.374
 4959SOL    HW216319   1.515   7.104   6.227
 4960SOL     OW16320   1.130   6.293   6.277
 4960SOL    HW116321   1.180   6.374   6.268
 4960SOL    HW216322   1.084   6.303   6.361
 4961SOL     OW16323   1.764   6.184   5.817
 4961SOL    HW116324   1.741   6.178   5.724
 4961SOL    HW216325   1.734   6.101   5.854
 4962SOL     OW16326   0.731   6.719   6.638
 4962SOL    HW116327   0.672   6.758   6.702
 4962SOL    HW216328   0.771   6.794   6.594
 4963SOL     OW16329   0.882   6.341   7.412
 4963SOL    HW116330   0.878   6.412   7.476
 4963SOL    HW216331   0.902   6.383   7.329
 4964SOL     OW16332   0.689   6.584   6.229
 4964SOL    HW116333   0.757   6.576   6.296
 4964SOL    HW216334   0.622   6.640   6.269
 4965SOL     OW16335   0.710   6.731   7.407
 4965SOL    HW116336   0.754   6.809   7.438
 4965SOL    HW216337   0.629   6.763   7.366
 4966SOL     OW16338   0.332   7.001   6.652
 4966SOL    HW116339   0.278   6.942   6.599
 4966SOL    HW216340   0.379   7.054   6.588
 4967SOL     OW16341   1.458   7.088   6.953
 4967SOL    HW116342   1.514   7.165   6.959
 4967SOL    HW216343   1.392   7.101   7.021
 4968SOL     OW16344   0.445   5.974   7.077
 4968SOL    HW116345   0.527   5.923   7.079
 4968SOL    HW216346   0.376   5.907   7.083
 4969SOL     OW16347   1.605   6.021   6.331
 4969SOL    HW116348   1.547   6.046   6.259
 4969SOL    HW216349   1.611   6.100   6.385
 4970SOL     OW16350   0.224   7.296   6.066
 4970SOL    HW116351   0.234   7.377   6.115
 4970SOL    HW216352   0.298   7.295   6.005
 4971SOL     OW16353   1.136   6.929   7.284
 4971SOL    HW116354   1.185   6.916   7.365
 4971SOL    HW216355   1.085   6.848   7.273
 4972SOL     OW16356   0.291   7.027   6.095
 4972SOL    HW116357   0.267   7.117   6.116
 4972SOL    HW216358   0.242   6.974   6.158
 4973SOL     OW16359   0.289   6.670   6.491
 4973SOL    HW116360   0.286   6.576   6.511
 4973SOL    HW216361   0.209   6.705   6.530
 4974SOL     OW16362   0.572   7.381   7.023
 4974SOL    HW116363   0.517   7.456   7.001
 4974SOL    HW216364   0.655   7.419   7.052
 4975SOL     OW16365   0.569   6.578   5.733
 4975SOL    HW116366   0.622   6.617   5.664
 4975SOL    HW216367   0.612   6.605   5.814
 4976SOL     OW16368   1.581   5.718   7.039
 4976SOL    HW116369   1.632   5.781   6.989
 4976SOL    HW216370   1.568   5.760   7.125
 4977SOL     OW16371   0.135   6.218   6.130
 4977SOL    HW116372   0.096   6.136   6.159
 4977SOL    HW216373   0.121   6.279   6.203
 4978SOL     OW16374   1.843   7.335   5.914
 4978SOL    HW116375   1.915   7.312   5.974
 4978SOL    HW216376   1.859   7.426   5.890
 4979SOL     OW16377   0.015   7.173   5.735
 4979SOL    HW116378  -0.002   7.081   5.716
 4979SOL    HW216379  -0.001   7.182   5.829
 4980SOL     OW16380   1.697   6.505   6.243
 4980SOL    HW116381   1.779   6.457   6.231
 4980SOL    HW216382   1.681   6.546   6.157
 4981SOL     OW16383   1.653   6.686   6.017
 4981SOL    HW116384   1.740   6.682   5.976
 4981SOL    HW216385   1.664   6.749   6.089
 4982SOL     OW16386   0.155   6.349   7.175
 4982SOL    HW116387   0.251   6.350   7.174
 4982SOL    HW216388   0.131   6.429   7.221
 4983SOL     OW16389   0.611   6.981   6.327
 4983SOL    HW116390   0.570   6.895   6.330
 4983SOL    HW216391   0.603   7.008   6.236
 4984SOL     OW16392   1.281   6.819   7.007
 4984SOL    HW116393   1.308   6.751   6.945
 4984SOL    HW216394   1.344   6.814   7.078
 4985SOL     OW16395   0.826   5.594   6.101
 4985SOL    HW116396   0.867   5.677   6.077
 4985SOL    HW216397   0.732   5.613   6.104
 4986SOL     OW16398   0.181   6.519   6.848
 4986SOL    HW116399   0.271   6.486   6.850
 4986SOL    HW216400   0.150   6.498   6.760
 4987SOL     OW16401   1.529   6.593   5.787
 4987SOL    HW116402   1.460   6.534   5.820
 4987SOL    HW216403   1.576   6.621   5.866
 4988SOL     OW16404   1.166   7.393   7.213
 4988SOL    HW116405   1.180   7.459   7.144
 4988SOL    HW216406   1.193   7.311   7.173
 4989SOL     OW16407   0.359   5.841   7.433
 4989SOL    HW116408   0.408   5.919   7.459
 4989SOL    HW216409   0.267   5.866   7.445
 4990SOL     OW16410   1.462   7.009   6.521
 4990SOL    HW116411   1.402   7.023   6.594
 4990SOL    HW216412   1.452   6.916   6.498
 4991SOL     OW16413   1.646   7.350   6.161
 4991SOL    HW116414   1.629   7.313   6.075
 4991SOL    HW216415   1.639   7.276   6.221
 4992SOL     OW16416   0.590   6.294   5.852
 4992SOL    HW116417   0.596   6.380   5.811
 4992SOL    HW216418   0.529   6.306   5.925
 4993SOL     OW16419   1.277   5.966   6.523
 4993SOL    HW116420   1.191   5.926   6.531
 4993SOL    HW216421   1.334   5.911   6.577
 4994SOL     OW16422   1.577   7.262   5.899
 4994SOL    HW116423   1.670   7.280   5.892
 4994SOL    HW216424   1.548   7.244   5.810
 4995SOL     OW16425   0.780   6.204   7.031
 4995SOL    HW116426   0.759   6.173   7.120
 4995SOL    HW216427   0.756   6.131   6.974
 4996SOL     OW16428   1.391   6.059   7.262
 4996SOL    HW116429   1.400   6.102   7.347
 4996SOL    HW216430   1.445   5.980   7.270
 4997SOL     OW16431   0.950   6.466   7.175
 4997SOL    HW116432   1.004   6.398   7.135
 4997SOL    HW216433   0.899   6.502   7.103
 4998SOL     OW16434   0.996   6.000   6.809
 4998SOL    HW116435   0.904   6.005   6.835
 4998SOL    HW216436   0.996   5.949   6.728
 4999SOL     OW16437   1.054   6.286   6.008
 4999SOL    HW116438   1.075   6.281   6.101
 4999SOL    HW216439   0.972   6.239   5.999
 5000SOL     OW16440   0.102   6.375   6.356
 5000SOL    HW116441   0.182   6.382   6.409
 5000SOL    HW216442   0.050   6.451   6.383
 5001SOL     OW16443   0.175   7.342   7.164
 5001SOL    HW116444   0.179   7.349   7.259
 5001SOL    HW216445   0.091   7.381   7.140
 5002SOL     OW16446   0.900   5.936   5.783
 5002SOL    HW116447   0.942   5.998   5.724
 5002SOL    HW216448   0.912   5.850   5.741
 5003SOL     OW16449   1.692   6.158   7.424
 5003SOL    HW116450   1.666   6.232   7.370
 5003SOL    HW216451   1.726   6.093   7.362
 5004SOL     OW16452   1.386   6.728   6.122
 5004SOL    HW116453   1.467   6.713   6.072
 5004SOL    HW216454   1.336   6.788   6.067
 5005SOL     OW16455   0.555   5.758   6.486
 5005SOL    HW116456   0.559   5.788   6.577
 5005SOL    HW216457   0.557   5.839   6.434
 5006SOL     OW16458   0.998   7.032   6.053
 5006SOL    HW116459   0.971   7.107   6.000
 5006SOL    HW216460   0.975   7.056   6.142
 5007SOL     OW16461   0.368   7.414   6.448
 5007SOL    HW116462   0.416   7.332   6.461
 5007SOL    HW216463   0.432   7.483   6.465
 5008SOL     OW16464   1.804   6.646   6.467
 5008SOL    HW116465   1.757   6.619   6.388
 5008SOL    HW216466   1.737   6.645   6.536
 5009SOL     OW16467   1.217   7.127   7.100
 5009SOL    HW116468   1.210   7.057   7.165
 5009SOL    HW216469   1.168   7.094   7.024
 5010SOL     OW16470   0.300   6.525   5.819
 5010SOL    HW116471   0.388   6.550   5.790
 5010SOL    HW216472   0.280   6.446   5.767
 5011SOL     OW16473   1.480   6.349   6.312
 5011SOL    HW116474   1.482   6.302   6.395
 5011SOL    HW216475   1.562   6.398   6.310
 5012SOL     OW16476   0.467   6.850   7.325
 5012SOL    HW116477   0.438   6.865   7.235
 5012SOL    HW216478   0.386   6.832   7.374
 5013SOL     OW16479   1.127   7.367   5.805
 5013SOL    HW116480   1.051   7.329   5.849
 5013SOL    HW216481   1.152   7.301   5.741
 5014SOL     OW16482   0.194   5.839   7.086
 5014SOL    HW116483   0.161   5.904   7.148
 5014SOL    HW216484   0.167   5.755   7.123
 5015SOL     OW16485   1.626   6.973   5.683
 5015SOL    HW116486   1.584   7.057   5.663
 5015SOL    HW216487   1.562   6.907   5.658
 5016SOL     OW16488   0.458   7.320   5.909
 5016SOL    HW116489   0.507   7.371   5.974
 5016SOL    HW216490   0.526   7.279   5.855
 5017SOL     OW16491   1.401   5.694   6.032
 5017SOL    HW116492   1.398   5.666   5.940
 5017SOL    HW216493   1.493   5.689   6.056
 5018SOL     OW16494   0.225   7.384   6.800
 5018SOL    HW116495   0.284   7.311   6.818
 5018SOL    HW216496   0.191   7.367   6.713
 5019SOL     OW16497   0.945   7.283   6.481
 5019SOL    HW116498   1.031   7.242   6.490
 5019SOL    HW216499   0.902   7.233   6.411
 5020SOL     OW16500   0.408   6.284   6.064
 5020SOL    HW116501   0.427   6.191   6.075
 5020SOL    HW216502   0.314   6.291   6.079
 5021SOL     OW16503   1.525   5.813   7.308
 5021SOL    HW116504   1.528   5.835   7.401
 5021SOL    HW216505   1.481   5.728   7.305
 5022SOL     OW16506   0.652   5.698   5.690
 5022SOL    HW116507   0.710   5.624   5.711
 5022SOL    HW216508   0.599   5.667   5.616
 5023SOL     OW16509   0.761   5.867   7.345
 5023SOL    HW116510   0.844   5.819   7.338
 5023SOL    HW216511   0.716   5.827   7.420
 5024SOL     OW16512   0.871   7.109   6.787
 5024SOL    HW116513   0.858   7.073   6.699
 5024SOL    HW216514   0.943   7.058   6.823
 5025SOL     OW16515   1.335   6.179   7.021
 5025SOL    HW116516   1.368   6.144   7.104
 5025SOL    HW216517   1.379   6.263   7.012
 5026SOL     OW16518   0.813   6.970   6.538
 5026SOL    HW116519   0.900   6.960   6.499
 5026SOL    HW216520   0.755   6.982   6.463
 5027SOL     OW16521   0.926   6.097   6.482
 5027SOL    HW116522   0.902   6.085   6.390
 5027SOL    HW216523   0.958   6.011   6.510
 5028SOL     OW16524   0.558   5.650   6.079
 5028SOL    HW116525   0.478   5.650   6.130
 5028SOL    HW216526   0.549   5.725   6.021
 5029SOL     OW16527   1.431   6.789   5.621
 5029SOL    HW116528   1.463   6.715   5.672
 5029SOL    HW216529   1.346   6.810   5.660
 5030SOL     OW16530   0.285   5.635   5.758
 5030SOL    HW116531   0.342   5.700   5.718
 5030SOL    HW216532   0.344   5.578   5.808
 5031SOL     OW16533   0.946   5.838   6.041
 5031SOL    HW116534   0.923   5.874   5.955
 5031SOL    HW216535   1.041   5.851   6.048
 5032SOL     OW16536   1.079   6.270   7.038
 5032SOL    HW116537   1.023   6.193   7.041
 5032SOL    HW216538   1.168   6.236   7.033
 5033SOL     OW16539   1.205   7.169   6.389
 5033SOL    HW116540   1.224   7.230   6.318
 5033SOL    HW216541   1.285   7.165   6.440
 5034SOL     OW16542   0.476   6.743   6.309
 5034SOL    HW116543   0.416   6.718   6.379
 5034SOL    HW216544   0.429   6.724   6.228
 5035SOL     OW16545   1.259   7.376   6.202
 5035SOL    HW116546   1.309   7.435   6.146
 5035SOL    HW216547   1.193   7.433   6.244
 5036SOL     OW16548   1.028   6.113   5.615
 5036SOL    HW116549   0.986   6.197   5.597
 5036SOL    HW216550   1.093   6.132   5.682
 5037SOL     OW16551   0.099   6.198   6.959
 5037SOL    HW116552   0.188   6.171   6.937
 5037SOL    HW216553   0.109   6.251   7.038
 5038SOL     OW16554   0.562   5.809   6.760
 5038SOL    HW116555   0.605   5.734   6.801
 5038SOL    HW216556   0.471   5.802   6.787
 5039SOL     OW16557   0.864   6.043   6.221
 5039SOL    HW116558   0.827   6.097   6.151
 5039SOL    HW216559   0.892   5.963   6.177
 5040SOL     OW16560   1.007   5.651   6.339
 5040SOL    HW116561   0.956   5.637   6.259
 5040SOL    HW216562   0.992   5.572   6.391
 5041SOL     OW16563   1.440   6.746   6.440
 5041SOL    HW116564   1.374   6.676   6.438
 5041SOL    HW216565   1.472   6.751   6.350
 5042SOL     OW16566   1.465   6.203   6.552
 5042SOL    HW116567   1.410   6.125   6.551
 5042SOL    HW216568   1.523   6.190   6.626
 5043SOL     OW16569   1.830   6.396   5.973
 5043SOL    HW116570   1.889   6.348   6.031
 5043SOL    HW216571   1.806   6.332   5.906
 5044SOL     OW16572   0.487   7.009   5.728
 5044SOL    HW116573   0.408   6.975   5.770
 5044SOL    HW216574   0.498   6.954   5.650
 5045SOL     OW16575   1.689   6.849   6.227
 5045SOL    HW116576   1.783   6.844   6.242
 5045SOL    HW216577   1.666   6.940   6.246
 5046SOL     OW16578   1.394   6.162   5.655
 5046SOL    HW116579   1.337   6.133   5.726
 5046SOL    HW216580   1.480   6.128   5.679
 5047SOL     OW16581   0.528   5.844   5.891
 5047SOL    HW116582   0.580   5.797   5.826
 5047SOL    HW216583   0.504   5.926   5.847
 5048SOL     OW16584   1.745   6.831   7.144
 5048SOL    HW116585   1.831   6.791   7.138
 5048SOL    HW216586   1.762   6.921   7.172
 5049SOL     OW16587   1.053   6.948   6.927
 5049SOL    HW116588   0.977   6.910   6.971
 5049SOL    HW216589   1.128   6.898   6.961
 5050SOL     OW16590   1.606   7.219   7.248
 5050SOL    HW116591   1.597   7.253   7.159
 5050SOL    HW216592   1.687   7.167   7.246
 5051SOL     OW16593   1.143   6.813   6.689
 5051SOL    HW116594   1.076   6.845   6.749
 5051SOL    HW216595   1.114   6.842   6.603
 5052SOL     OW16596   1.614   6.674   6.661
 5052SOL    HW116597   1.605   6.737   6.732
 5052SOL    HW216598   1.542   6.695   6.602
 5053SOL     OW16599   0.915   5.679   6.972
 5053SOL    HW116600   0.938   5.656   6.883
 5053SOL    HW216601   0.995   5.715   7.010
 5054SOL     OW16602   0.980   6.701   7.307
 5054SOL    HW116603   0.889   6.714   7.332
 5054SOL    HW216604   0.980   6.622   7.254
 5055SOL     OW16605   0.712   6.649   5.959
 5055SOL    HW116606   0.700   6.627   6.052
 5055SOL    HW216607   0.786   6.596   5.931
 5056SOL     OW16608   0.429   6.408   6.843
 5056SOL    HW116609   0.497   6.419   6.911
 5056SOL    HW216610   0.402   6.316   6.852
 5057SOL     OW16611   1.262   5.959   6.874
 5057SOL    HW116612   1.295   6.037   6.917
 5057SOL    HW216613   1.173   5.981   6.848
 5058SOL     OW16614   0.054   7.176   6.898
 5058SOL    HW116615   0.068   7.270   6.897
 5058SOL    HW216616   0.136   7.140   6.863
 5059SOL     OW16617   0.329   6.692   6.076
 5059SOL    HW116618   0.343   6.758   6.008
 5059SOL    HW216619   0.335   6.608   6.030
 5060SOL     OW16620   0.546   6.115   6.447
 5060SOL    HW116621   0.561   6.175   6.374
 5060SOL    HW216622   0.616   6.135   6.509
 5061SOL     OW16623   1.248   6.938   5.976
 5061SOL    HW116624   1.305   7.007   6.012
 5061SOL    HW216625   1.161   6.959   6.011
 5062SOL     OW16626   1.298   7.048   6.734
 5062SOL    HW116627   1.353   7.051   6.812
 5062SOL    HW216628   1.250   6.965   6.742
 5063SOL     OW16629   1.573   6.195   6.084
 5063SOL    HW116630   1.524   6.254   6.141
 5063SOL    HW216631   1.625   6.254   6.028
 5064SOL     OW16632   0.346   7.142   6.879
 5064SOL    HW116633   0.332   7.085   6.804
 5064SOL    HW216634   0.441   7.151   6.886
 5065SOL     OW16635   0.432   6.318   7.201
 5065SOL    HW116636   0.490   6.365   7.141
 5065SOL    HW216637   0.482   6.242   7.228
 5066SOL     OW16638   1.615   6.374   7.278
 5066SOL    HW116639   1.528   6.414   7.269
 5066SOL    HW216640   1.666   6.412   7.207
 5067SOL     OW16641   0.993   5.726   7.340
 5067SOL    HW116642   1.054   5.797   7.318
 5067SOL    HW216643   1.039   5.646   7.312
 5068SOL     OW16644   0.501   5.622   7.341
 5068SOL    HW116645   0.456   5.570   7.275
 5068SOL    HW216646   0.446   5.699   7.354
 5069SOL     OW16647   0.589   6.461   6.619
 5069SOL    HW116648   0.628   6.549   6.623
 5069SOL    HW216649   0.535   6.455   6.697
 5070SOL     OW16650   1.336   6.446   6.603
 5070SOL    HW116651   1.253   6.423   6.562
 5070SOL    HW216652   1.389   6.367   6.594
 5071SOL     OW16653   1.195   6.111   5.845
 5071SOL    HW116654   1.208   6.032   5.898
 5071SOL    HW216655   1.155   6.174   5.904
 5072SOL     OW16656   0.299   5.774   6.833
 5072SOL    HW116657   0.259   5.805   6.914
 5072SOL    HW216658   0.283   5.680   6.832
 5073SOL     OW16659   0.057   6.893   6.859
 5073SOL    HW116660   0.079   6.829   6.927
 5073SOL    HW216661   0.030   6.971   6.907
 5074SOL     OW16662   0.722   6.211   6.637
 5074SOL    HW116663   0.798   6.194   6.581
 5074SOL    HW216664   0.696   6.301   6.616
 5075SOL     OW16665   1.743   6.551   7.449
 5075SOL    HW116666   1.706   6.481   7.396
 5075SOL    HW216667   1.680   6.565   7.520
 5076SOL     OW16668   0.313   5.656   6.201
 5076SOL    HW116669   0.287   5.745   6.225
 5076SOL    HW216670   0.322   5.610   6.285
 5077SOL     OW16671   1.625   5.965   5.940
 5077SOL    HW116672   1.657   5.895   5.996
 5077SOL    HW216673   1.599   6.035   6.000
 5078SOL     OW16674   1.025   6.346   6.542
 5078SOL    HW116675   1.015   6.361   6.636
 5078SOL    HW216676   1.001   6.254   6.530
 5079SOL     OW16677   0.975   7.146   7.316
 5079SOL    HW116678   0.958   7.192   7.234
 5079SOL    HW216679   1.023   7.068   7.290
 5080SOL     OW16680   1.845   7.089   7.190
 5080SOL    HW116681   1.871   7.114   7.101
 5080SOL    HW216682   1.925   7.098   7.242
 5081SOL     OW16683   0.371   6.535   7.374
 5081SOL    HW116684   0.439   6.542   7.440
 5081SOL    HW216685   0.392   6.455   7.326
 5082SOL     OW16686   1.511   5.866   5.709
 5082SOL    HW116687   1.459   5.791   5.738
 5082SOL    HW216688   1.554   5.898   5.788
 5083SOL     OW16689   1.282   6.409   5.612
 5083SOL    HW116690   1.324   6.323   5.619
 5083SOL    HW216691   1.317   6.446   5.531
 5084SOL     OW16692   1.065   6.930   6.447
 5084SOL    HW116693   1.073   6.857   6.385
 5084SOL    HW216694   1.120   6.999   6.411
 5085SOL     OW16695   0.320   6.390   6.528
 5085SOL    HW116696   0.414   6.407   6.526
 5085SOL    HW216697   0.314   6.300   6.561
 5086SOL     OW16698   0.331   6.105   6.603
 5086SOL    HW116699   0.296   6.018   6.587
 5086SOL    HW216700   0.407   6.112   6.546
 5087SOL     OW16701   1.134   5.959   7.272
 5087SOL    HW116702   1.090   6.012   7.338
 5087SOL    HW216703   1.222   5.996   7.266
 5088SOL     OW16704   1.154   5.781   7.059
 5088SOL    HW116705   1.147   5.844   7.131
 5088SOL    HW216706   1.204   5.827   6.991
 5089SOL     OW16707   7.979   6.891   5.792
 5089SOL    HW116708   7.888   6.904   5.817
 5089SOL    HW216709   7.993   6.797   5.804
 5090SOL     OW16710   0.127   7.336   6.550
 5090SOL    HW116711   0.111   7.262   6.491
 5090SOL    HW216712   0.201   7.382   6.510
 5091SOL     OW16713   0.492   7.163   6.496
 5091SOL    HW116714   0.562   7.224   6.519
 5091SOL    HW216715   0.533   7.101   6.435
 5092SOL     OW16716   0.961   6.375   6.810
 5092SOL    HW116717   1.024   6.355   6.879
 5092SOL    HW216718   0.885   6.321   6.830
 5093SOL     OW16719   0.071   6.144   6.696
 5093SOL    HW116720   0.164   6.132   6.678
 5093SOL    HW216721   0.066   6.155   6.791
 5094SOL     OW16722   0.199   6.092   7.266
 5094SOL    HW116723   0.285   6.080   7.224
 5094SOL    HW216724   0.169   6.177   7.235
 5095SOL     OW16725   1.381   6.519   7.242
 5095SOL    HW116726   1.405   6.612   7.236
 5095SOL    HW216727   1.379   6.488   7.152
 5096SOL     OW16728   0.817   6.153   5.956
 5096SOL    HW116729   0.829   6.079   5.897
 5096SOL    HW216730   0.742   6.200   5.920
 5097SOL     OW16731   1.641   6.186   6.764
 5097SOL    HW116732   1.635   6.123   6.836
 5097SOL    HW216733   1.730   6.174   6.729
 5098SOL     OW16734   0.326   7.121   7.337
 5098SOL    HW116735   0.290   7.194   7.388
 5098SOL    HW216736   0.297   7.042   7.382
 5099SOL     OW16737   0.717   6.027   6.836
 5099SOL    HW116738   0.662   5.952   6.811
 5099SOL    HW216739   0.708   6.089   6.764
 5100SOL     OW16740   0.884   7.270   7.075
 5100SOL    HW116741   0.893   7.219   6.995
 5100SOL    HW216742   0.906   7.360   7.050
 5101SOL     OW16743   0.453   6.067   5.753
 5101SOL    HW116744   0.508   6.143   5.772
 5101SOL    HW216745   0.370   6.087   5.795
 5102SOL     OW16746   0.157   6.711   7.044
 5102SOL    HW116747   0.137   6.663   7.124
 5102SOL    HW216748   0.164   6.644   6.977
 5103SOL     OW16749   1.312   6.628   6.804
 5103SOL    HW116750   1.331   6.563   6.736
 5103SOL    HW216751   1.253   6.690   6.761
 5104SOL     OW16752   1.313   6.447   5.886
 5104SOL    HW116753   1.245   6.404   5.937
 5104SOL    HW216754   1.291   6.428   5.795
 5105SOL     OW16755   1.791   7.320   6.753
 5105SOL    HW116756   1.849   7.343   6.680
 5105SOL    HW216757   1.754   7.235   6.729
 5106SOL     OW16758   1.241   7.317   6.693
 5106SOL    HW116759   1.323   7.346   6.653
 5106SOL    HW216760   1.255   7.224   6.711
 5107SOL     OW16761   0.070   6.784   6.612
 5107SOL    HW116762   0.064   6.826   6.697
 5107SOL    HW216763  -0.008   6.815   6.565
 5108SOL     OW16764   0.686   7.257   7.332
 5108SOL    HW116765   0.626   7.330   7.316
 5108SOL    HW216766   0.759   7.273   7.272
 5109SOL     OW16767   1.727   5.751   6.082
 5109SOL    HW116768   1.796   5.731   6.020
 5109SOL    HW216769   1.708   5.668   6.125
 5110SOL     OW16770   1.395   7.153   6.083
 5110SOL    HW116771   1.452   7.187   6.014
 5110SOL    HW216772   1.344   7.229   6.112
 5111SOL     OW16773   0.185   7.327   7.439
 5111SOL    HW116774   0.118   7.279   7.487
 5111SOL    HW216775   0.220   7.389   7.503
 5112SOL     OW16776   1.278   6.524   6.263
 5112SOL    HW116777   1.351   6.462   6.277
 5112SOL    HW216778   1.314   6.590   6.204
 5113SOL     OW16779   0.798   6.865   7.001
 5113SOL    HW116780   0.767   6.908   7.081
 5113SOL    HW216781   0.727   6.877   6.938
 5114SOL     OW16782   0.663   7.216   5.743
 5114SOL    HW116783   0.681   7.231   5.650
 5114SOL    HW216784   0.610   7.136   5.745
 5115SOL     OW16785   1.614   7.315   6.980
 5115SOL    HW116786   1.673   7.317   6.905
 5115SOL    HW216787   1.598   7.408   7.000
 5116SOL     OW16788   1.841   5.753   6.552
 5116SOL    HW116789   1.875   5.666   6.532
 5116SOL    HW216790   1.755   5.756   6.510
 5117SOL     OW16791   0.260   5.906   6.293
 5117SOL    HW116792   0.171   5.937   6.273
 5117SOL    HW216793   0.260   5.896   6.388
 5118SOL     OW16794   1.207   7.180   5.621
 5118SOL    HW116795   1.197   7.089   5.648
 5118SOL    HW216796   1.140   7.193   5.553
 5119SOL     OW16797   0.824   6.591   6.966
 5119SOL    HW116798   0.873   6.571   6.887
 5119SOL    HW216799   0.826   6.687   6.972
 5120SOL     OW16800   0.918   6.499   5.878
 5120SOL    HW116801   0.977   6.530   5.810
 5120SOL    HW216802   0.968   6.431   5.923
 5121SOL     OW16803   1.483   7.229   5.634
 5121SOL    HW116804   1.391   7.210   5.617
 5121SOL    HW216805   1.524   7.231   5.548
 5122SOL     OW16806   0.352   6.905   7.072
 5122SOL    HW116807   0.410   6.886   6.998
 5122SOL    HW216808   0.284   6.838   7.067
 5123SOL     OW16809   1.598   6.866   6.862
 5123SOL    HW116810   1.668   6.851   6.926
 5123SOL    HW216811   1.543   6.934   6.900
 5124SOL     OW16812   1.065   6.702   6.303
 5124SOL    HW116813   0.994   6.648   6.337
 5124SOL    HW216814   1.133   6.639   6.279
 5125SOL     OW16815   1.023   5.832   6.557
 5125SOL    HW116816   1.019   5.788   6.472
 5125SOL    HW216817   1.021   5.761   6.621
 5126SOL     OW16818   0.611   7.072   6.071
 5126SOL    HW116819   0.664   7.024   6.007
 5126SOL    HW216820   0.524   7.078   6.030
 5127SOL     OW16821   1.735   5.980   6.968
 5127SOL    HW116822   1.811   6.040   6.966
 5127SOL    HW216823   1.760   5.908   6.910
 5128SOL     OW16824   0.249   6.922   5.852
 5128SOL    HW116825   0.153   6.920   5.848
 5128SOL    HW216826   0.268   6.962   5.937
 5129SOL     OW16827   0.111   6.590   7.296
 5129SOL    HW116828   0.072   6.670   7.330
 5129SOL    HW216829   0.195   6.583   7.340
 5130SOL     OW16830   0.679   5.787   7.086
 5130SOL    HW116831   0.761   5.762   7.045
 5130SOL    HW216832   0.703   5.815   7.174
 5131SOL     OW16833   0.112   5.950   5.611
 5131SOL    HW116834   0.036   5.986   5.657
 5131SOL    HW216835   0.120   6.002   5.532
 5132SOL     OW16836   1.422   6.446   6.983
 5132SOL    HW116837   1.372   6.505   6.927
 5132SOL    HW216838   1.510   6.445   6.945
 5133SOL     OW16839   0.091   5.829   5.948
 5133SOL    HW116840   0.046   5.805   5.867
 5133SOL    HW216841   0.175   5.783   5.944
 5134SOL     OW16842   1.182   6.913   5.707
 5134SOL    HW116843   1.098   6.866   5.711
 5134SOL    HW216844   1.210   6.919   5.798
 5135SOL     OW16845   0.622   6.422   7.031
 5135SOL    HW116846   0.682   6.494   7.015
 5135SOL    HW216847   0.677   6.344   7.033
 5136SOL     OW16848   1.484   7.382   6.578
 5136SOL    HW116849   1.511   7.447   6.512
 5136SOL    HW216850   1.564   7.333   6.597
 5137SOL     OW16851   0.710   6.142   7.288
 5137SOL    HW116852   0.763   6.197   7.346
 5137SOL    HW216853   0.728   6.052   7.316
 5138SOL     OW16854   1.474   6.780   7.211
 5138SOL    HW116855   1.467   6.794   7.305
 5138SOL    HW216856   1.566   6.797   7.190
 5139SOL     OW16857   1.659   6.460   6.842
 5139SOL    HW116858   1.660   6.373   6.802
 5139SOL    HW216859   1.651   6.520   6.768
 5140SOL     OW16860   1.217   5.905   6.039
 5140SOL    HW116861   1.279   5.833   6.034
 5140SOL    HW216862   1.245   5.955   6.116
 5141SOL     OW16863   0.587   6.324   6.271
 5141SOL    HW116864   0.632   6.406   6.253
 5141SOL    HW216865   0.527   6.313   6.197
 5142SOL     OW16866   1.752   5.956   7.245
 5142SOL    HW116867   1.745   5.971   7.150
 5142SOL    HW216868   1.681   5.896   7.266
 5143SOL     OW16869   1.750   6.521   7.094
 5143SOL    HW116870   1.738   6.616   7.100
 5143SOL    HW216871   1.731   6.500   7.003
 5144SOL     OW16872   0.847   6.953   5.629
 5144SOL    HW116873   0.826   6.981   5.718
 5144SOL    HW216874   0.878   7.032   5.585
 5145SOL     OW16875   0.668   7.369   6.526
 5145SOL    HW116876   0.654   7.461   6.502
 5145SOL    HW216877   0.763   7.357   6.517
 5146SOL     OW16878   0.870   6.559   6.439
 5146SOL    HW116879   0.920   6.484   6.472
 5146SOL    HW216880   0.829   6.596   6.517
 5147SOL     OW16881   1.073   6.574   5.670
 5147SOL    HW116882   1.054   6.623   5.590
 5147SOL    HW216883   1.147   6.519   5.648
 5148SOL     OW16884   1.853   7.132   6.428
 5148SOL    HW116885   1.771   7.117   6.382
 5148SOL    HW216886   1.869   7.051   6.477
 5149SOL     OW16887   0.215   6.883   7.442
 5149SOL    HW116888   0.122   6.870   7.421
 5149SOL    HW216889   0.218   6.882   7.537
 5150SOL     OW16890   0.142   6.850   6.238
 5150SOL    HW116891   0.065   6.808   6.275
 5150SOL    HW216892   0.198   6.778   6.209
 5151SOL     OW16893   0.669   7.000   7.204
 5151SOL    HW116894   0.605   6.953   7.258
 5151SOL    HW216895   0.683   7.083   7.250
 5152SOL     OW16896   1.796   5.762   6.823
 5152SOL    HW116897   1.810   5.668   6.836
 5152SOL    HW216898   1.813   5.776   6.729
 5153SOL     OW16899   0.436   6.021   6.106
 5153SOL    HW116900   0.472   5.949   6.055
 5153SOL    HW216901   0.386   5.978   6.176
 5154SOL     OW16902   1.680   7.083   6.687
 5154SOL    HW116903   1.611   7.056   6.626
 5154SOL    HW216904   1.693   7.007   6.743
 5155SOL     OW16905   0.355   6.147   6.882
 5155SOL    HW116906   0.399   6.086   6.942
 5155SOL    HW216907   0.370   6.109   6.796
 5156SOL     OW16908   0.833   7.179   6.255
 5156SOL    HW116909   0.820   7.255   6.199
 5156SOL    HW216910   0.757   7.123   6.238
 5157SOL     OW16911   1.428   5.821   6.698
 5157SOL    HW116912   1.452   5.734   6.731
 5157SOL    HW216913   1.381   5.862   6.770
 5158SOL     OW16914   1.008   5.600   6.717
 5158SOL    HW116915   0.957   5.535   6.669
 5158SOL    HW216916   1.096   5.563   6.721
 5159SOL     OW16917   0.777   6.920   5.914
 5159SOL    HW116918   0.754   6.827   5.920
 5159SOL    HW216919   0.861   6.927   5.960
 5160SOL     OW16920   0.617   7.148   6.876
 5160SOL    HW116921   0.618   7.224   6.935
 5160SOL    HW216922   0.707   7.142   6.844
 5161SOL     OW16923   1.369   5.630   5.763
 5161SOL    HW116924   1.411   5.554   5.724
 5161SOL    HW216925   1.278   5.604   5.776
 5162SOL     OW16926   1.283   6.053   6.260
 5162SOL    HW116927   1.234   6.135   6.266
 5162SOL    HW216928   1.287   6.019   6.349
 5163SOL     OW16929   1.581   5.775   6.467
 5163SOL    HW116930   1.528   5.803   6.542
 5163SOL    HW216931   1.584   5.851   6.409
 5164SOL     OW16932   0.049   6.631   5.860
 5164SOL    HW116933   0.139   6.603   5.842
 5164SOL    HW216934   0.041   6.626   5.955
 5165SOL     OW16935   0.892   7.247   5.913
 5165SOL    HW116936   0.815   7.231   5.860
 5165SOL    HW216937   0.864   7.311   5.978
 5166SOL     OW16938   0.240   6.285   7.532
 5166SOL    HW116939   0.210   6.231   7.605
 5166SOL    HW216940   0.238   6.226   7.457
 5167SOL     OW16941   0.228   5.856   8.423
 5167SOL    HW116942   0.243   5.818   8.510
 5167SOL    HW216943   0.148   5.814   8.392
 5168SOL     OW16944   8.001   5.972   8.058
 5168SOL    HW116945   7.909   5.960   8.082
 5168SOL    HW216946   8.014   5.913   7.983
 5169SOL     OW16947   0.569   6.887   8.642
 5169SOL    HW116948   0.486   6.895   8.595
 5169SOL    HW216949   0.589   6.975   8.674
 5170SOL     OW16950   1.582   7.103   8.155
 5170SOL    HW116951   1.537   7.076   8.235
 5170SOL    HW216952   1.514   7.105   8.088
 5171SOL     OW16953   1.131   6.293   8.139
 5171SOL    HW116954   1.181   6.374   8.127
 5171SOL    HW216955   1.084   6.306   8.222
 5172SOL     OW16956   1.750   6.187   7.685
 5172SOL    HW116957   1.734   6.184   7.591
 5172SOL    HW216958   1.729   6.098   7.716
 5173SOL     OW16959   0.735   6.719   8.500
 5173SOL    HW116960   0.672   6.761   8.559
 5173SOL    HW216961   0.777   6.792   8.454
 5174SOL     OW16962   0.868   6.338   9.266
 5174SOL    HW116963   0.856   6.409   9.329
 5174SOL    HW216964   0.892   6.382   9.184
 5175SOL     OW16965   0.688   6.585   8.091
 5175SOL    HW116966   0.756   6.579   8.158
 5175SOL    HW216967   0.621   6.642   8.130
 5176SOL     OW16968   0.715   6.737   9.276
 5176SOL    HW116969   0.765   6.813   9.305
 5176SOL    HW216970   0.639   6.775   9.230
 5177SOL     OW16971   0.342   6.996   8.512
 5177SOL    HW116972   0.284   6.947   8.453
 5177SOL    HW216973   0.389   7.057   8.454
 5178SOL     OW16974   1.458   7.086   8.817
 5178SOL    HW116975   1.513   7.164   8.823
 5178SOL    HW216976   1.388   7.101   8.881
 5179SOL     OW16977   0.450   5.959   8.916
 5179SOL    HW116978   0.526   5.908   8.943
 5179SOL    HW216979   0.376   5.915   8.957
 5180SOL     OW16980   1.605   6.023   8.191
 5180SOL    HW116981   1.548   6.043   8.117
 5180SOL    HW216982   1.627   6.108   8.228
 5181SOL     OW16983   0.231   7.280   7.928
 5181SOL    HW116984   0.219   7.364   7.972
 5181SOL    HW216985   0.299   7.296   7.863
 5182SOL     OW16986   1.138   6.926   9.143
 5182SOL    HW116987   1.182   6.915   9.227
 5182SOL    HW216988   1.087   6.846   9.132
 5183SOL     OW16989   0.295   7.018   7.960
 5183SOL    HW116990   0.271   7.110   7.968
 5183SOL    HW216991   0.242   6.974   8.027
 5184SOL     OW16992   0.281   6.671   8.355
 5184SOL    HW116993   0.279   6.577   8.375
 5184SOL    HW216994   0.200   6.705   8.392
 5185SOL     OW16995   0.602   7.384   8.862
 5185SOL    HW116996   0.524   7.363   8.913
 5185SOL    HW216997   0.629   7.470   8.893
 5186SOL     OW16998   0.570   6.576   7.595
 5186SOL    HW116999   0.623   6.615   7.525
 5186SOL    HW217000   0.612   6.605   7.676
 5187SOL     OW17001   1.581   5.715   8.902
 5187SOL    HW117002   1.633   5.770   8.844
 5187SOL    HW217003   1.570   5.767   8.981
 5188SOL     OW17004   0.136   6.213   7.997
 5188SOL    HW117005   0.093   6.132   8.025
 5188SOL    HW217006   0.115   6.277   8.064
 5189SOL     OW17007   1.843   7.337   7.776
 5189SOL    HW117008   1.916   7.315   7.835
 5189SOL    HW217009   1.860   7.427   7.750
 5190SOL     OW17010   0.020   7.164   7.584
 5190SOL    HW117011   0.003   7.069   7.580
 5190SOL    HW217012   0.003   7.188   7.675
 5191SOL     OW17013   1.697   6.505   8.101
 5191SOL    HW117014   1.775   6.454   8.079
 5191SOL    HW217015   1.674   6.551   8.020
 5192SOL     OW17016   1.652   6.686   7.880
 5192SOL    HW117017   1.739   6.682   7.839
 5192SOL    HW217018   1.663   6.749   7.952
 5193SOL     OW17019   0.149   6.350   9.034
 5193SOL    HW117020   0.244   6.357   9.036
 5193SOL    HW217021   0.118   6.428   9.080
 5194SOL     OW17022   0.612   6.978   8.190
 5194SOL    HW117023   0.569   6.893   8.193
 5194SOL    HW217024   0.603   7.006   8.098
 5195SOL     OW17025   1.279   6.817   8.871
 5195SOL    HW117026   1.306   6.750   8.808
 5195SOL    HW217027   1.344   6.812   8.941
 5196SOL     OW17028   0.829   5.597   7.968
 5196SOL    HW117029   0.869   5.679   7.939
 5196SOL    HW217030   0.735   5.614   7.967
 5197SOL     OW17031   0.197   6.504   8.711
 5197SOL    HW117032   0.272   6.542   8.665
 5197SOL    HW217033   0.128   6.501   8.645
 5198SOL     OW17034   1.528   6.592   7.650
 5198SOL    HW117035   1.461   6.532   7.682
 5198SOL    HW217036   1.575   6.620   7.729
 5199SOL     OW17037   1.180   7.397   9.082
 5199SOL    HW117038   1.184   7.461   9.012
 5199SOL    HW217039   1.198   7.313   9.039
 5200SOL     OW17040   0.357   5.849   9.297
 5200SOL    HW117041   0.401   5.928   9.328
 5200SOL    HW217042   0.264   5.867   9.307
 5201SOL     OW17043   1.464   7.009   8.384
 5201SOL    HW117044   1.402   7.023   8.455
 5201SOL    HW217045   1.454   6.917   8.360
 5202SOL     OW17046   1.648   7.349   8.023
 5202SOL    HW117047   1.630   7.313   7.936
 5202SOL    HW217048   1.638   7.274   8.082
 5203SOL     OW17049   0.592   6.297   7.716
 5203SOL    HW117050   0.595   6.382   7.673
 5203SOL    HW217051   0.529   6.309   7.788
 5204SOL     OW17052   1.276   5.965   8.387
 5204SOL    HW117053   1.191   5.922   8.392
 5204SOL    HW217054   1.334   5.910   8.439
 5205SOL     OW17055   1.577   7.263   7.761
 5205SOL    HW117056   1.670   7.281   7.753
 5205SOL    HW217057   1.548   7.245   7.672
 5206SOL     OW17058   0.786   6.193   8.889
 5206SOL    HW117059   0.761   6.167   8.977
 5206SOL    HW217060   0.742   6.130   8.831
 5207SOL     OW17061   1.388   6.059   9.125
 5207SOL    HW117062   1.401   6.101   9.210
 5207SOL    HW217063   1.442   5.981   9.128
 5208SOL     OW17064   0.946   6.466   9.035
 5208SOL    HW117065   1.001   6.399   8.994
 5208SOL    HW217066   0.902   6.509   8.962
 5209SOL     OW17067   1.008   6.001   8.672
 5209SOL    HW117068   0.919   5.998   8.707
 5209SOL    HW217069   1.002   5.958   8.587
 5210SOL     OW17070   1.055   6.286   7.870
 5210SOL    HW117071   1.075   6.280   7.963
 5210SOL    HW217072   0.972   6.239   7.860
 5211SOL     OW17073   0.096   6.388   8.216
 5211SOL    HW117074   0.174   6.399   8.269
 5211SOL    HW217075   0.062   6.477   8.204
 5212SOL     OW17076   0.126   7.413   9.014
 5212SOL    HW117077   0.128   7.399   9.109
 5212SOL    HW217078   0.038   7.383   8.988
 5213SOL     OW17079   0.900   5.937   7.647
 5213SOL    HW117080   0.943   5.999   7.587
 5213SOL    HW217081   0.901   5.854   7.600
 5214SOL     OW17082   1.669   6.160   9.291
 5214SOL    HW117083   1.655   6.236   9.235
 5214SOL    HW217084   1.709   6.095   9.234
 5215SOL     OW17085   1.385   6.728   7.983
 5215SOL    HW117086   1.464   6.713   7.931
 5215SOL    HW217087   1.334   6.789   7.930
 5216SOL     OW17088   0.555   5.755   8.326
 5216SOL    HW117089   0.556   5.796   8.413
 5216SOL    HW217090   0.557   5.828   8.265
 5217SOL     OW17091   0.999   7.034   7.916
 5217SOL    HW117092   0.972   7.108   7.861
 5217SOL    HW217093   0.970   7.059   8.004
 5218SOL     OW17094   0.366   7.415   8.311
 5218SOL    HW117095   0.414   7.333   8.324
 5218SOL    HW217096   0.431   7.483   8.329
 5219SOL     OW17097   1.804   6.641   8.329
 5219SOL    HW117098   1.759   6.616   8.248
 5219SOL    HW217099   1.736   6.641   8.396
 5220SOL     OW17100   1.222   7.127   8.963
 5220SOL    HW117101   1.212   7.053   9.023
 5220SOL    HW217102   1.161   7.108   8.891
 5221SOL     OW17103   0.304   6.525   7.683
 5221SOL    HW117104   0.391   6.549   7.653
 5221SOL    HW217105   0.282   6.446   7.634
 5222SOL     OW17106   1.478   6.353   8.178
 5222SOL    HW117107   1.483   6.304   8.260
 5222SOL    HW217108   1.562   6.399   8.173
 5223SOL     OW17109   0.465   6.853   9.190
 5223SOL    HW117110   0.443   6.858   9.097
 5223SOL    HW217111   0.382   6.838   9.234
 5224SOL     OW17112   1.129   7.365   7.669
 5224SOL    HW117113   1.051   7.329   7.712
 5224SOL    HW217114   1.153   7.299   7.604
 5225SOL     OW17115   0.186   5.857   8.951
 5225SOL    HW117116   0.102   5.902   8.939
 5225SOL    HW217117   0.163   5.773   8.992
 5226SOL     OW17118   1.628   6.974   7.551
 5226SOL    HW117119   1.587   7.058   7.527
 5226SOL    HW217120   1.565   6.908   7.523
 5227SOL     OW17121   0.452   7.336   7.757
 5227SOL    HW117122   0.502   7.381   7.825
 5227SOL    HW217123   0.518   7.290   7.705
 5228SOL     OW17124   1.400   5.691   7.893
 5228SOL    HW117125   1.394   5.665   7.801
 5228SOL    HW217126   1.493   5.686   7.914
 5229SOL     OW17127   0.231   7.365   8.671
 5229SOL    HW117128   0.285   7.290   8.696
 5229SOL    HW217129   0.201   7.345   8.582
 5230SOL     OW17130   0.945   7.284   8.340
 5230SOL    HW117131   1.031   7.242   8.349
 5230SOL    HW217132   0.902   7.234   8.270
 5231SOL     OW17133   0.408   6.280   7.927
 5231SOL    HW117134   0.429   6.187   7.938
 5231SOL    HW217135   0.313   6.284   7.939
 5232SOL     OW17136   1.522   5.816   9.174
 5232SOL    HW117137   1.522   5.833   9.268
 5232SOL    HW217138   1.484   5.729   9.165
 5233SOL     OW17139   0.654   5.695   7.552
 5233SOL    HW117140   0.712   5.621   7.569
 5233SOL    HW217141   0.599   5.666   7.480
 5234SOL     OW17142   0.769   5.868   9.215
 5234SOL    HW117143   0.849   5.817   9.205
 5234SOL    HW217144   0.717   5.818   9.278
 5235SOL     OW17145   0.874   7.109   8.644
 5235SOL    HW117146   0.859   7.071   8.558
 5235SOL    HW217147   0.946   7.057   8.681
 5236SOL     OW17148   1.335   6.181   8.881
 5236SOL    HW117149   1.371   6.149   8.964
 5236SOL    HW217150   1.378   6.266   8.868
 5237SOL     OW17151   0.818   6.969   8.399
 5237SOL    HW117152   0.904   6.960   8.357
 5237SOL    HW217153   0.757   6.982   8.325
 5238SOL     OW17154   0.930   6.091   8.342
 5238SOL    HW117155   0.906   6.083   8.250
 5238SOL    HW217156   0.964   6.005   8.365
 5239SOL     OW17157   0.564   5.651   7.941
 5239SOL    HW117158   0.481   5.649   7.990
 5239SOL    HW217159   0.555   5.725   7.881
 5240SOL     OW17160   1.433   6.790   7.484
 5240SOL    HW117161   1.464   6.715   7.534
 5240SOL    HW217162   1.348   6.811   7.522
 5241SOL     OW17163   0.283   5.638   7.622
 5241SOL    HW117164   0.337   5.700   7.573
 5241SOL    HW217165   0.346   5.583   7.668
 5242SOL     OW17166   0.947   5.840   7.903
 5242SOL    HW117167   0.923   5.874   7.817
 5242SOL    HW217168   1.042   5.852   7.908
 5243SOL     OW17169   1.079   6.269   8.904
 5243SOL    HW117170   1.022   6.193   8.896
 5243SOL    HW217171   1.168   6.234   8.894
 5244SOL     OW17172   1.206   7.169   8.250
 5244SOL    HW117173   1.223   7.231   8.178
 5244SOL    HW217174   1.286   7.171   8.302
 5245SOL     OW17175   0.473   6.741   8.173
 5245SOL    HW117176   0.411   6.719   8.243
 5245SOL    HW217177   0.425   6.723   8.092
 5246SOL     OW17178   1.258   7.377   8.065
 5246SOL    HW117179   1.308   7.437   8.008
 5246SOL    HW217180   1.191   7.432   8.104
 5247SOL     OW17181   1.028   6.114   7.478
 5247SOL    HW117182   0.986   6.198   7.459
 5247SOL    HW217183   1.095   6.134   7.543
 5248SOL     OW17184   0.127   6.177   8.823
 5248SOL    HW117185   0.204   6.217   8.783
 5248SOL    HW217186   0.111   6.229   8.902
 5249SOL     OW17187   0.566   5.789   8.612
 5249SOL    HW117188   0.630   5.718   8.620
 5249SOL    HW217189   0.483   5.749   8.640
 5250SOL     OW17190   0.863   6.042   8.082
 5250SOL    HW117191   0.826   6.097   8.013
 5250SOL    HW217192   0.892   5.963   8.037
 5251SOL     OW17193   0.999   5.654   8.204
 5251SOL    HW117194   0.951   5.642   8.122
 5251SOL    HW217195   0.987   5.572   8.252
 5252SOL     OW17196   1.445   6.747   8.300
 5252SOL    HW117197   1.373   6.685   8.290
 5252SOL    HW217198   1.484   6.754   8.213
 5253SOL     OW17199   1.464   6.205   8.417
 5253SOL    HW117200   1.413   6.124   8.410
 5253SOL    HW217201   1.523   6.189   8.490
 5254SOL     OW17202   1.832   6.397   7.837
 5254SOL    HW117203   1.892   6.347   7.892
 5254SOL    HW217204   1.803   6.334   7.770
 5255SOL     OW17205   0.491   7.006   7.601
 5255SOL    HW117206   0.409   6.974   7.640
 5255SOL    HW217207   0.499   6.957   7.519
 5256SOL     OW17208   1.686   6.847   8.094
 5256SOL    HW117209   1.781   6.843   8.105
 5256SOL    HW217210   1.664   6.939   8.109
 5257SOL     OW17211   1.395   6.162   7.517
 5257SOL    HW117212   1.338   6.132   7.588
 5257SOL    HW217213   1.481   6.127   7.539
 5258SOL     OW17214   0.532   5.844   7.753
 5258SOL    HW117215   0.581   5.795   7.688
 5258SOL    HW217216   0.508   5.925   7.709
 5259SOL     OW17217   1.747   6.829   9.010
 5259SOL    HW117218   1.834   6.793   8.994
 5259SOL    HW217219   1.763   6.919   9.037
 5260SOL     OW17220   1.052   6.945   8.786
 5260SOL    HW117221   0.975   6.910   8.832
 5260SOL    HW217222   1.126   6.898   8.824
 5261SOL     OW17223   1.610   7.218   9.112
 5261SOL    HW117224   1.598   7.252   9.024
 5261SOL    HW217225   1.690   7.166   9.107
 5262SOL     OW17226   1.143   6.812   8.552
 5262SOL    HW117227   1.077   6.846   8.612
 5262SOL    HW217228   1.115   6.842   8.465
 5263SOL     OW17229   1.612   6.672   8.523
 5263SOL    HW117230   1.602   6.737   8.592
 5263SOL    HW217231   1.542   6.692   8.461
 5264SOL     OW17232   0.911   5.689   8.828
 5264SOL    HW117233   0.935   5.657   8.741
 5264SOL    HW217234   0.993   5.720   8.866
 5265SOL     OW17235   0.983   6.697   9.173
 5265SOL    HW117236   0.892   6.715   9.195
 5265SOL    HW217237   0.980   6.619   9.118
 5266SOL     OW17238   0.712   6.650   7.821
 5266SOL    HW117239   0.700   6.628   7.913
 5266SOL    HW217240   0.788   6.597   7.793
 5267SOL     OW17241   0.446   6.378   8.703
 5267SOL    HW117242   0.512   6.391   8.771
 5267SOL    HW217243   0.363   6.401   8.744
 5268SOL     OW17244   1.270   5.954   8.740
 5268SOL    HW117245   1.304   6.035   8.779
 5268SOL    HW217246   1.183   5.977   8.708
 5269SOL     OW17247   0.045   7.178   8.775
 5269SOL    HW117248   0.102   7.251   8.750
 5269SOL    HW217249   0.086   7.142   8.854
 5270SOL     OW17250   0.324   6.694   7.940
 5270SOL    HW117251   0.338   6.765   7.877
 5270SOL    HW217252   0.331   6.614   7.887
 5271SOL     OW17253   0.556   6.117   8.308
 5271SOL    HW117254   0.560   6.175   8.232
 5271SOL    HW217255   0.633   6.142   8.361
 5272SOL     OW17256   1.248   6.939   7.841
 5272SOL    HW117257   1.304   7.008   7.876
 5272SOL    HW217258   1.161   6.960   7.875
 5273SOL     OW17259   1.298   7.048   8.596
 5273SOL    HW117260   1.352   7.051   8.675
 5273SOL    HW217261   1.248   6.967   8.603
 5274SOL     OW17262   1.579   6.192   7.947
 5274SOL    HW117263   1.525   6.258   7.988
 5274SOL    HW217264   1.628   6.240   7.879
 5275SOL     OW17265   0.348   7.118   8.755
 5275SOL    HW117266   0.333   7.069   8.674
 5275SOL    HW217267   0.443   7.128   8.760
 5276SOL     OW17268   0.426   6.329   9.055
 5276SOL    HW117269   0.494   6.370   9.002
 5276SOL    HW217270   0.467   6.248   9.088
 5277SOL     OW17271   1.613   6.377   9.140
 5277SOL    HW117272   1.528   6.419   9.127
 5277SOL    HW217273   1.667   6.412   9.070
 5278SOL     OW17274   0.997   5.723   9.201
 5278SOL    HW117275   1.057   5.794   9.177
 5278SOL    HW217276   1.041   5.643   9.173
 5279SOL     OW17277   0.500   5.633   9.201
 5279SOL    HW117278   0.454   5.577   9.138
 5279SOL    HW217279   0.442   5.707   9.216
 5280SOL     OW17280   0.606   6.455   8.481
 5280SOL    HW117281   0.632   6.546   8.487
 5280SOL    HW217282   0.547   6.441   8.556
 5281SOL     OW17283   1.337   6.444   8.471
 5281SOL    HW117284   1.260   6.432   8.415
 5281SOL    HW217285   1.388   6.364   8.459
 5282SOL     OW17286   1.198   6.111   7.708
 5282SOL    HW117287   1.209   6.032   7.760
 5282SOL    HW217288   1.156   6.173   7.767
 5283SOL     OW17289   0.301   5.787   8.704
 5283SOL    HW117290   0.257   5.811   8.786
 5283SOL    HW217291   0.285   5.693   8.695
 5284SOL     OW17292   0.051   6.891   8.720
 5284SOL    HW117293   0.075   6.841   8.798
 5284SOL    HW217294   0.054   6.983   8.748
 5285SOL     OW17295   0.738   6.214   8.500
 5285SOL    HW117296   0.811   6.200   8.440
 5285SOL    HW217297   0.707   6.302   8.481
 5286SOL     OW17298   1.748   6.544   9.317
 5286SOL    HW117299   1.705   6.482   9.258
 5286SOL    HW217300   1.681   6.565   9.382
 5287SOL     OW17301   0.321   5.654   8.062
 5287SOL    HW117302   0.285   5.740   8.082
 5287SOL    HW217303   0.324   5.609   8.146
 5288SOL     OW17304   1.622   5.959   7.804
 5288SOL    HW117305   1.659   5.890   7.860
 5288SOL    HW217306   1.599   6.029   7.865
 5289SOL     OW17307   1.023   6.345   8.400
 5289SOL    HW117308   1.017   6.361   8.494
 5289SOL    HW217309   1.005   6.251   8.390
 5290SOL     OW17310   0.979   7.146   9.174
 5290SOL    HW117311   0.960   7.192   9.092
 5290SOL    HW217312   1.027   7.067   9.147
 5291SOL     OW17313   1.847   7.087   9.051
 5291SOL    HW117314   1.871   7.113   8.962
 5291SOL    HW217315   1.927   7.098   9.102
 5292SOL     OW17316   0.360   6.538   9.236
 5292SOL    HW117317   0.432   6.550   9.298
 5292SOL    HW217318   0.384   6.460   9.186
 5293SOL     OW17319   1.507   5.866   7.572
 5293SOL    HW117320   1.456   5.790   7.600
 5293SOL    HW217321   1.551   5.896   7.651
 5294SOL     OW17322   1.284   6.410   7.475
 5294SOL    HW117323   1.326   6.324   7.481
 5294SOL    HW217324   1.318   6.448   7.394
 5295SOL     OW17325   1.070   6.930   8.310
 5295SOL    HW117326   1.076   6.858   8.246
 5295SOL    HW217327   1.123   7.000   8.272
 5296SOL     OW17328   0.321   6.394   8.387
 5296SOL    HW117329   0.413   6.402   8.361
 5296SOL    HW217330   0.319   6.315   8.442
 5297SOL     OW17331   0.367   6.088   8.493
 5297SOL    HW117332   0.299   6.032   8.455
 5297SOL    HW217333   0.429   6.103   8.421
 5298SOL     OW17334   1.133   5.959   9.135
 5298SOL    HW117335   1.089   6.018   9.196
 5298SOL    HW217336   1.221   5.996   9.125
 5299SOL     OW17337   1.152   5.781   8.920
 5299SOL    HW117338   1.146   5.845   8.991
 5299SOL    HW217339   1.205   5.825   8.853
 5300SOL     OW17340   7.979   6.890   7.648
 5300SOL    HW117341   7.889   6.905   7.677
 5300SOL    HW217342   7.994   6.796   7.661
 5301SOL     OW17343   0.125   7.335   8.408
 5301SOL    HW117344   0.110   7.264   8.346
 5301SOL    HW217345   0.202   7.382   8.374
 5302SOL     OW17346   0.492   7.165   8.355
 5302SOL    HW117347   0.562   7.226   8.377
 5302SOL    HW217348   0.534   7.102   8.296
 5303SOL     OW17349   0.969   6.374   8.669
 5303SOL    HW117350   1.030   6.357   8.740
 5303SOL    HW217351   0.891   6.323   8.692
 5304SOL     OW17352   0.063   6.082   8.576
 5304SOL    HW117353   0.049   5.988   8.585
 5304SOL    HW217354   0.076   6.113   8.666
 5305SOL     OW17355   0.193   6.114   9.161
 5305SOL    HW117356   0.223   6.057   9.091
 5305SOL    HW217357   0.166   6.195   9.117
 5306SOL     OW17358   1.379   6.519   9.104
 5306SOL    HW117359   1.402   6.611   9.098
 5306SOL    HW217360   1.376   6.490   9.013
 5307SOL     OW17361   0.817   6.154   7.819
 5307SOL    HW117362   0.829   6.080   7.760
 5307SOL    HW217363   0.742   6.202   7.783
 5308SOL     OW17364   1.641   6.184   8.629
 5308SOL    HW117365   1.635   6.120   8.700
 5308SOL    HW217366   1.729   6.172   8.593
 5309SOL     OW17367   0.294   7.118   9.170
 5309SOL    HW117368   0.254   7.190   9.218
 5309SOL    HW217369   0.282   7.042   9.227
 5310SOL     OW17370   0.679   6.038   8.689
 5310SOL    HW117371   0.690   5.953   8.646
 5310SOL    HW217372   0.702   6.102   8.622
 5311SOL     OW17373   0.907   7.262   8.931
 5311SOL    HW117374   0.890   7.218   8.847
 5311SOL    HW217375   0.907   7.356   8.909
 5312SOL     OW17376   0.459   6.067   7.618
 5312SOL    HW117377   0.512   6.145   7.635
 5312SOL    HW217378   0.374   6.088   7.658
 5313SOL     OW17379   0.158   6.703   8.905
 5313SOL    HW117380   0.132   6.661   8.988
 5313SOL    HW217381   0.165   6.631   8.843
 5314SOL     OW17382   1.309   6.626   8.668
 5314SOL    HW117383   1.329   6.562   8.600
 5314SOL    HW217384   1.250   6.689   8.626
 5315SOL     OW17385   1.314   6.443   7.750
 5315SOL    HW117386   1.242   6.402   7.798
 5315SOL    HW217387   1.294   6.426   7.658
 5316SOL     OW17388   1.793   7.319   8.618
 5316SOL    HW117389   1.850   7.342   8.545
 5316SOL    HW217390   1.754   7.235   8.592
 5317SOL     OW17391   1.242   7.318   8.557
 5317SOL    HW117392   1.324   7.346   8.516
 5317SOL    HW217393   1.254   7.225   8.574
 5318SOL     OW17394   0.055   6.781   8.475
 5318SOL    HW117395   0.058   6.821   8.562
 5318SOL    HW217396  -0.017   6.825   8.430
 5319SOL     OW17397   0.684   7.260   9.190
 5319SOL    HW117398   0.621   7.330   9.177
 5319SOL    HW217399   0.753   7.277   9.126
 5320SOL     OW17400   1.734   5.751   7.948
 5320SOL    HW117401   1.800   5.731   7.881
 5320SOL    HW217402   1.713   5.666   7.987
 5321SOL     OW17403   1.397   7.154   7.946
 5321SOL    HW117404   1.452   7.188   7.876
 5321SOL    HW217405   1.344   7.229   7.973
 5322SOL     OW17406   0.171   7.326   9.288
 5322SOL    HW117407   0.106   7.279   9.341
 5322SOL    HW217408   0.214   7.385   9.351
 5323SOL     OW17409   1.277   6.525   8.127
 5323SOL    HW117410   1.350   6.465   8.141
 5323SOL    HW217411   1.312   6.591   8.066
 5324SOL     OW17412   0.798   6.866   8.871
 5324SOL    HW117413   0.770   6.908   8.953
 5324SOL    HW217414   0.728   6.885   8.809
 5325SOL     OW17415   0.663   7.217   7.606
 5325SOL    HW117416   0.679   7.228   7.513
 5325SOL    HW217417   0.611   7.137   7.612
 5326SOL     OW17418   1.616   7.313   8.844
 5326SOL    HW117419   1.674   7.316   8.768
 5326SOL    HW217420   1.599   7.405   8.864
 5327SOL     OW17421   1.841   5.753   8.419
 5327SOL    HW117422   1.874   5.666   8.396
 5327SOL    HW217423   1.756   5.758   8.374
 5328SOL     OW17424   0.259   5.907   8.150
 5328SOL    HW117425   0.170   5.934   8.127
 5328SOL    HW217426   0.258   5.897   8.245
 5329SOL     OW17427   1.207   7.180   7.483
 5329SOL    HW117428   1.197   7.088   7.509
 5329SOL    HW217429   1.140   7.193   7.416
 5330SOL     OW17430   0.827   6.596   8.827
 5330SOL    HW117431   0.867   6.585   8.741
 5330SOL    HW217432   0.820   6.691   8.839
 5331SOL     OW17433   0.921   6.501   7.742
 5331SOL    HW117434   0.980   6.533   7.673
 5331SOL    HW217435   0.970   6.431   7.785
 5332SOL     OW17436   1.484   7.230   7.496
 5332SOL    HW117437   1.392   7.209   7.479
 5332SOL    HW217438   1.525   7.231   7.410
 5333SOL     OW17439   0.369   6.885   8.939
 5333SOL    HW117440   0.352   6.963   8.887
 5333SOL    HW217441   0.295   6.827   8.921
 5334SOL     OW17442   1.597   6.866   8.720
 5334SOL    HW117443   1.672   6.857   8.779
 5334SOL    HW217444   1.542   6.933   8.762
 5335SOL     OW17445   1.065   6.703   8.164
 5335SOL    HW117446   0.992   6.651   8.198
 5335SOL    HW217447   1.131   6.639   8.140
 5336SOL     OW17448   1.020   5.830   8.422
 5336SOL    HW117449   1.014   5.787   8.337
 5336SOL    HW217450   1.021   5.757   8.485
 5337SOL     OW17451   0.612   7.070   7.933
 5337SOL    HW117452   0.664   7.024   7.867
 5337SOL    HW217453   0.525   7.077   7.894
 5338SOL     OW17454   1.739   5.976   8.838
 5338SOL    HW117455   1.813   6.037   8.832
 5338SOL    HW217456   1.762   5.906   8.777
 5339SOL     OW17457   0.248   6.921   7.715
 5339SOL    HW117458   0.153   6.923   7.710
 5339SOL    HW217459   0.268   6.960   7.800
 5340SOL     OW17460   0.098   6.590   9.162
 5340SOL    HW117461   0.065   6.677   9.185
 5340SOL    HW217462   0.184   6.584   9.204
 5341SOL     OW17463   0.681   5.795   8.951
 5341SOL    HW117464   0.761   5.765   8.907
 5341SOL    HW217465   0.711   5.820   9.039
 5342SOL     OW17466   0.110   5.948   7.481
 5342SOL    HW117467   0.034   5.985   7.525
 5342SOL    HW217468   0.122   6.002   7.403
 5343SOL     OW17469   1.422   6.445   8.845
 5343SOL    HW117470   1.371   6.504   8.789
 5343SOL    HW217471   1.510   6.446   8.806
 5344SOL     OW17472   0.098   5.833   7.802
 5344SOL    HW117473   0.047   5.810   7.725
 5344SOL    HW217474   0.181   5.788   7.790
 5345SOL     OW17475   1.183   6.911   7.571
 5345SOL    HW117476   1.103   6.860   7.575
 5345SOL    HW217477   1.212   6.919   7.662
 5346SOL     OW17478   0.631   6.417   8.896
 5346SOL    HW117479   0.686   6.493   8.878
 5346SOL    HW217480   0.692   6.343   8.896
 5347SOL     OW17481   1.483   7.383   8.439
 5347SOL    HW117482   1.508   7.448   8.373
 5347SOL    HW217483   1.564   7.334   8.455
 5348SOL     OW17484   0.706   6.138   9.142
 5348SOL    HW117485   0.752   6.199   9.201
 5348SOL    HW217486   0.725   6.051   9.178
 5349SOL     OW17487   1.476   6.777   9.073
 5349SOL    HW117488   1.468   6.796   9.167
 5349SOL    HW217489   1.567   6.797   9.052
 5350SOL     OW17490   0.385   7.326   9.013
 5350SOL    HW117491   0.298   7.358   8.991
 5350SOL    HW217492   0.370   7.239   9.051
 5351SOL     OW17493   1.659   6.460   8.705
 5351SOL    HW117494   1.660   6.374   8.663
 5351SOL    HW217495   1.649   6.522   8.633
 5352SOL     OW17496   1.217   5.904   7.903
 5352SOL    HW117497   1.280   5.832   7.896
 5352SOL    HW217498   1.246   5.954   7.979
 5353SOL     OW17499   0.578   6.331   8.136
 5353SOL    HW117500   0.626   6.411   8.116
 5353SOL    HW217501   0.522   6.317   8.060
 5354SOL     OW17502   1.748   5.960   9.116
 5354SOL    HW117503   1.749   5.973   9.021
 5354SOL    HW217504   1.677   5.898   9.131
 5355SOL     OW17505   1.755   6.518   8.957
 5355SOL    HW117506   1.743   6.612   8.965
 5355SOL    HW217507   1.734   6.498   8.865
 5356SOL     OW17508   0.834   6.957   7.486
 5356SOL    HW117509   0.821   6.981   7.577
 5356SOL    HW217510   0.873   7.034   7.446
 5357SOL     OW17511   0.669   7.369   8.382
 5357SOL    HW117512   0.653   7.461   8.364
 5357SOL    HW217513   0.764   7.359   8.376
 5358SOL     OW17514   0.870   6.561   8.300
 5358SOL    HW117515   0.919   6.485   8.333
 5358SOL    HW217516   0.828   6.598   8.378
 5359SOL     OW17517   1.076   6.578   7.534
 5359SOL    HW117518   1.055   6.624   7.453
 5359SOL    HW217519   1.150   6.521   7.511
 5360SOL     OW17520   1.851   7.135   8.288
 5360SOL    HW117521   1.769   7.121   8.240
 5360SOL    HW217522   1.864   7.054   8.337
 5361SOL     OW17523   0.214   6.885   9.304
 5361SOL    HW117524   0.122   6.872   9.283
 5361SOL    HW217525   0.217   6.884   9.400
 5362SOL     OW17526   0.136   6.845   8.104
 5362SOL    HW117527   0.064   6.793   8.139
 5362SOL    HW217528   0.196   6.779   8.067
 5363SOL     OW17529   0.687   6.993   9.089
 5363SOL    HW117530   0.602   6.958   9.115
 5363SOL    HW217531   0.687   7.083   9.121
 5364SOL     OW17532   1.795   5.758   8.689
 5364SOL    HW117533   1.808   5.663   8.698
 5364SOL    HW217534   1.811   5.775   8.596
 5365SOL     OW17535   0.446   6.018   7.973
 5365SOL    HW117536   0.476   5.949   7.914
 5365SOL    HW217537   0.387   5.974   8.034
 5366SOL     OW17538   1.680   7.083   8.548
 5366SOL    HW117539   1.610   7.060   8.486
 5366SOL    HW217540   1.688   7.006   8.605
 5367SOL     OW17541   0.834   7.177   8.114
 5367SOL    HW117542   0.822   7.256   8.062
 5367SOL    HW217543   0.756   7.125   8.096
 5368SOL     OW17544   1.428   5.816   8.556
 5368SOL    HW117545   1.445   5.726   8.581
 5368SOL    HW217546   1.384   5.854   8.633
 5369SOL     OW17547   1.005   5.596   8.581
 5369SOL    HW117548   0.955   5.531   8.531
 5369SOL    HW217549   1.093   5.560   8.586
 5370SOL     OW17550   0.780   6.920   7.773
 5370SOL    HW117551   0.755   6.828   7.781
 5370SOL    HW217552   0.862   6.927   7.822
 5371SOL     OW17553   0.622   7.142   8.738
 5371SOL    HW117554   0.620   7.227   8.781
 5371SOL    HW217555   0.710   7.136   8.700
 5372SOL     OW17556   1.368   5.629   7.626
 5372SOL    HW117557   1.410   5.555   7.581
 5372SOL    HW217558   1.277   5.601   7.638
 5373SOL     OW17559   1.284   6.053   8.123
 5373SOL    HW117560   1.236   6.135   8.128
 5373SOL    HW217561   1.288   6.021   8.213
 5374SOL     OW17562   1.584   5.779   8.328
 5374SOL    HW117563   1.530   5.807   8.402
 5374SOL    HW217564   1.586   5.856   8.270
 5375SOL     OW17565   0.052   6.632   7.716
 5375SOL    HW117566   0.142   6.603   7.702
 5375SOL    HW217567   0.038   6.624   7.810
 5376SOL     OW17568   0.892   7.248   7.774
 5376SOL    HW117569   0.815   7.232   7.721
 5376SOL    HW217570   0.863   7.311   7.840
 5377SOL     OW17571   0.249   6.284   9.399
 5377SOL    HW117572   0.207   6.237   9.470
 5377SOL    HW217573   0.237   6.228   9.322
 5378SOL     OW17574   0.238   5.851  10.290
 5378SOL    HW117575   0.255   5.820  10.379
 5378SOL    HW217576   0.156   5.809  10.265
 5379SOL     OW17577   8.002   5.974   9.916
 5379SOL    HW117578   7.914   5.962   9.951
 5379SOL    HW217579   8.010   5.910   9.845
 5380SOL     OW17580   0.571   6.880  10.504
 5380SOL    HW117581   0.485   6.886  10.460
 5380SOL    HW217582   0.587   6.969  10.535
 5381SOL     OW17583   1.580   7.098  10.017
 5381SOL    HW117584   1.532   7.078  10.098
 5381SOL    HW217585   1.512   7.106   9.950
 5382SOL     OW17586   1.132   6.277   9.988
 5382SOL    HW117587   1.177   6.362   9.991
 5382SOL    HW217588   1.053   6.289  10.040
 5383SOL     OW17589   1.752   6.178   9.549
 5383SOL    HW117590   1.721   6.184   9.459
 5383SOL    HW217591   1.797   6.093   9.553
 5384SOL     OW17592   0.755   6.726  10.376
 5384SOL    HW117593   0.682   6.762  10.427
 5384SOL    HW217594   0.792   6.801  10.330
 5385SOL     OW17595   0.886   6.345  11.136
 5385SOL    HW117596   0.875   6.411  11.205
 5385SOL    HW217597   0.900   6.397  11.056
 5386SOL     OW17598   0.693   6.582   9.959
 5386SOL    HW117599   0.757   6.580  10.030
 5386SOL    HW217600   0.623   6.639   9.991
 5387SOL     OW17601   0.714   6.733  11.131
 5387SOL    HW117602   0.762   6.810  11.163
 5387SOL    HW217603   0.636   6.770  11.090
 5388SOL     OW17604   0.341   6.996  10.375
 5388SOL    HW117605   0.282   6.945  10.318
 5388SOL    HW217606   0.387   7.055  10.316
 5389SOL     OW17607   1.461   7.088  10.678
 5389SOL    HW117608   1.516   7.166  10.686
 5389SOL    HW217609   1.391   7.101  10.743
 5390SOL     OW17610   0.456   5.970  10.790
 5390SOL    HW117611   0.531   5.911  10.797
 5390SOL    HW217612   0.380   5.913  10.805
 5391SOL     OW17613   1.618   6.040  10.046
 5391SOL    HW117614   1.597   6.093   9.969
 5391SOL    HW217615   1.637   6.104  10.115
 5392SOL     OW17616   0.228   7.280   9.788
 5392SOL    HW117617   0.213   7.364   9.831
 5392SOL    HW217618   0.295   7.298   9.723
 5393SOL     OW17619   1.136   6.928  11.005
 5393SOL    HW117620   1.180   6.919  11.090
 5393SOL    HW217621   1.084   6.847  10.997
 5394SOL     OW17622   0.298   7.021   9.826
 5394SOL    HW117623   0.271   7.112   9.831
 5394SOL    HW217624   0.244   6.975   9.890
 5395SOL     OW17625   0.289   6.667  10.222
 5395SOL    HW117626   0.282   6.573  10.239
 5395SOL    HW217627   0.209   6.704  10.258
 5396SOL     OW17628   0.605   7.375  10.724
 5396SOL    HW117629   0.527   7.355  10.775
 5396SOL    HW217630   0.632   7.462  10.755
 5397SOL     OW17631   0.572   6.575   9.454
 5397SOL    HW117632   0.622   6.620   9.386
 5397SOL    HW217633   0.612   6.605   9.536
 5398SOL     OW17634   1.586   5.717  10.767
 5398SOL    HW117635   1.630   5.786  10.719
 5398SOL    HW217636   1.568   5.754  10.853
 5399SOL     OW17637   0.141   6.211   9.859
 5399SOL    HW117638   0.096   6.131   9.886
 5399SOL    HW217639   0.120   6.275   9.927
 5400SOL     OW17640   1.845   7.336   9.638
 5400SOL    HW117641   1.917   7.315   9.697
 5400SOL    HW217642   1.860   7.427   9.613
 5401SOL     OW17643   0.017   7.167   9.450
 5401SOL    HW117644   0.002   7.073   9.444
 5401SOL    HW217645  -0.001   7.189   9.542
 5402SOL     OW17646   1.691   6.496   9.959
 5402SOL    HW117647   1.775   6.454   9.943
 5402SOL    HW217648   1.674   6.546   9.879
 5403SOL     OW17649   1.651   6.686   9.746
 5403SOL    HW117650   1.737   6.686   9.704
 5403SOL    HW217651   1.661   6.747   9.819
 5404SOL     OW17652   0.147   6.354  10.894
 5404SOL    HW117653   0.243   6.355  10.893
 5404SOL    HW217654   0.122   6.433  10.941
 5405SOL     OW17655   0.611   6.974  10.057
 5405SOL    HW117656   0.567   6.890  10.056
 5405SOL    HW217657   0.604   7.006   9.966
 5406SOL     OW17658   1.282   6.814  10.727
 5406SOL    HW117659   1.314   6.746  10.668
 5406SOL    HW217660   1.343   6.812  10.801
 5407SOL     OW17661   0.821   5.601   9.838
 5407SOL    HW117662   0.850   5.688   9.810
 5407SOL    HW217663   0.725   5.607   9.838
 5408SOL     OW17664   0.170   6.505  10.576
 5408SOL    HW117665   0.262   6.477  10.570
 5408SOL    HW217666   0.139   6.501  10.485
 5409SOL     OW17667   1.528   6.590   9.513
 5409SOL    HW117668   1.463   6.529   9.547
 5409SOL    HW217669   1.574   6.621   9.591
 5410SOL     OW17670   1.181   7.399  10.944
 5410SOL    HW117671   1.185   7.464  10.874
 5410SOL    HW217672   1.203   7.316  10.902
 5411SOL     OW17673   0.358   5.843  11.161
 5411SOL    HW117674   0.402   5.922  11.191
 5411SOL    HW217675   0.265   5.863  11.168
 5412SOL     OW17676   1.463   7.009  10.253
 5412SOL    HW117677   1.399   7.023  10.322
 5412SOL    HW217678   1.451   6.918  10.227
 5413SOL     OW17679   1.652   7.346   9.885
 5413SOL    HW117680   1.630   7.313   9.798
 5413SOL    HW217681   1.639   7.270   9.943
 5414SOL     OW17682   0.591   6.301   9.579
 5414SOL    HW117683   0.587   6.385   9.534
 5414SOL    HW217684   0.527   6.309   9.650
 5415SOL     OW17685   1.276   5.958  10.238
 5415SOL    HW117686   1.189   5.918  10.246
 5415SOL    HW217687   1.332   5.906  10.295
 5416SOL     OW17688   1.578   7.260   9.624
 5416SOL    HW117689   1.671   7.280   9.615
 5416SOL    HW217690   1.548   7.245   9.534
 5417SOL     OW17691   0.776   6.207  10.738
 5417SOL    HW117692   0.767   6.187  10.831
 5417SOL    HW217693   0.737   6.132  10.693
 5418SOL     OW17694   1.391   6.060  10.985
 5418SOL    HW117695   1.398   6.104  11.070
 5418SOL    HW217696   1.444   5.982  10.994
 5419SOL     OW17697   0.948   6.473  10.879
 5419SOL    HW117698   1.006   6.405  10.843
 5419SOL    HW217699   0.907   6.513  10.802
 5420SOL     OW17700   0.986   6.022  10.519
 5420SOL    HW117701   0.900   5.995  10.553
 5420SOL    HW217702   1.002   5.962  10.446
 5421SOL     OW17703   1.062   6.275   9.719
 5421SOL    HW117704   1.080   6.271   9.813
 5421SOL    HW217705   0.976   6.235   9.709
 5422SOL     OW17706   0.093   6.378  10.076
 5422SOL    HW117707   0.169   6.388  10.133
 5422SOL    HW217708   0.046   6.461  10.085
 5423SOL     OW17709   0.141   7.454  10.890
 5423SOL    HW117710   0.143   7.413  10.977
 5423SOL    HW217711   0.065   7.416  10.847
 5424SOL     OW17712   0.913   5.949   9.500
 5424SOL    HW117713   0.952   6.012   9.439
 5424SOL    HW217714   0.878   5.880   9.444
 5425SOL     OW17715   1.693   6.154  11.145
 5425SOL    HW117716   1.665   6.230  11.093
 5425SOL    HW217717   1.724   6.091  11.080
 5426SOL     OW17718   1.375   6.720   9.843
 5426SOL    HW117719   1.457   6.711   9.795
 5426SOL    HW217720   1.326   6.786   9.795
 5427SOL     OW17721   0.562   5.753  10.207
 5427SOL    HW117722   0.558   5.787  10.296
 5427SOL    HW217723   0.544   5.830  10.151
 5428SOL     OW17724   0.998   7.035   9.777
 5428SOL    HW117725   0.971   7.106   9.719
 5428SOL    HW217726   0.966   7.060   9.863
 5429SOL     OW17727   0.367   7.416  10.172
 5429SOL    HW117728   0.414   7.333  10.184
 5429SOL    HW217729   0.433   7.483  10.188
 5430SOL     OW17730   1.801   6.634  10.196
 5430SOL    HW117731   1.755   6.622  10.113
 5430SOL    HW217732   1.731   6.638  10.262
 5431SOL     OW17733   1.226   7.128  10.826
 5431SOL    HW117734   1.213   7.055  10.886
 5431SOL    HW217735   1.154   7.120  10.763
 5432SOL     OW17736   0.308   6.524   9.550
 5432SOL    HW117737   0.392   6.551   9.514
 5432SOL    HW217738   0.284   6.446   9.500
 5433SOL     OW17739   1.475   6.356  10.054
 5433SOL    HW117740   1.489   6.299  10.130
 5433SOL    HW217741   1.560   6.397  10.038
 5434SOL     OW17742   0.468   6.855  11.050
 5434SOL    HW117743   0.443   6.861  10.958
 5434SOL    HW217744   0.386   6.837  11.096
 5435SOL     OW17745   1.130   7.362   9.536
 5435SOL    HW117746   1.050   7.326   9.574
 5435SOL    HW217747   1.153   7.299   9.468
 5436SOL     OW17748   0.204   5.850  10.807
 5436SOL    HW117749   0.132   5.913  10.816
 5436SOL    HW217750   0.172   5.770  10.849
 5437SOL     OW17751   1.629   6.973   9.414
 5437SOL    HW117752   1.591   7.058   9.392
 5437SOL    HW217753   1.564   6.909   9.386
 5438SOL     OW17754   0.454   7.334   9.619
 5438SOL    HW117755   0.504   7.380   9.686
 5438SOL    HW217756   0.521   7.290   9.566
 5439SOL     OW17757   1.397   5.695   9.757
 5439SOL    HW117758   1.386   5.661   9.668
 5439SOL    HW217759   1.479   5.656   9.787
 5440SOL     OW17760   0.231   7.364  10.542
 5440SOL    HW117761   0.287   7.289  10.561
 5440SOL    HW217762   0.202   7.350  10.452
 5441SOL     OW17763   0.943   7.284  10.200
 5441SOL    HW117764   1.029   7.243  10.210
 5441SOL    HW217765   0.901   7.234  10.130
 5442SOL     OW17766   0.413   6.275   9.793
 5442SOL    HW117767   0.432   6.182   9.805
 5442SOL    HW217768   0.318   6.282   9.804
 5443SOL     OW17769   1.522   5.812  11.030
 5443SOL    HW117770   1.529   5.832  11.123
 5443SOL    HW217771   1.467   5.733  11.027
 5444SOL     OW17772   0.658   5.693   9.410
 5444SOL    HW117773   0.705   5.612   9.433
 5444SOL    HW217774   0.599   5.668   9.339
 5445SOL     OW17775   0.764   5.867  11.067
 5445SOL    HW117776   0.846   5.817  11.062
 5445SOL    HW217777   0.716   5.827  11.139
 5446SOL     OW17778   0.876   7.106  10.506
 5446SOL    HW117779   0.858   7.071  10.418
 5446SOL    HW217780   0.946   7.051  10.540
 5447SOL     OW17781   1.334   6.186  10.747
 5447SOL    HW117782   1.367   6.150  10.829
 5447SOL    HW217783   1.380   6.269  10.737
 5448SOL     OW17784   0.820   6.969  10.260
 5448SOL    HW117785   0.905   6.964  10.217
 5448SOL    HW217786   0.758   6.982  10.188
 5449SOL     OW17787   0.930   6.108  10.199
 5449SOL    HW117788   0.908   6.096  10.107
 5449SOL    HW217789   0.956   6.021  10.229
 5450SOL     OW17790   0.558   5.647   9.802
 5450SOL    HW117791   0.477   5.647   9.852
 5450SOL    HW217792   0.550   5.721   9.742
 5451SOL     OW17793   1.431   6.793   9.348
 5451SOL    HW117794   1.458   6.717   9.400
 5451SOL    HW217795   1.344   6.815   9.382
 5452SOL     OW17796   0.279   5.640   9.483
 5452SOL    HW117797   0.335   5.703   9.437
 5452SOL    HW217798   0.340   5.583   9.529
 5453SOL     OW17799   0.944   5.834   9.750
 5453SOL    HW117800   0.922   5.881   9.670
 5453SOL    HW217801   1.013   5.774   9.724
 5454SOL     OW17802   1.072   6.253  10.743
 5454SOL    HW117803   1.041   6.189  10.807
 5454SOL    HW217804   1.166   6.240  10.740
 5455SOL     OW17805   1.208   7.170  10.111
 5455SOL    HW117806   1.222   7.231  10.038
 5455SOL    HW217807   1.284   7.184  10.169
 5456SOL     OW17808   0.476   6.735  10.034
 5456SOL    HW117809   0.413   6.715  10.103
 5456SOL    HW217810   0.427   6.722   9.953
 5457SOL     OW17811   1.258   7.377   9.927
 5457SOL    HW117812   1.308   7.435   9.869
 5457SOL    HW217813   1.190   7.433   9.965
 5458SOL     OW17814   1.041   6.140   9.342
 5458SOL    HW117815   0.974   6.202   9.316
 5458SOL    HW217816   1.121   6.192   9.347
 5459SOL     OW17817   0.102   6.179  10.692
 5459SOL    HW117818   0.194   6.165  10.666
 5459SOL    HW217819   0.107   6.244  10.762
 5460SOL     OW17820   0.560   5.805  10.481
 5460SOL    HW117821   0.598   5.724  10.516
 5460SOL    HW217822   0.468   5.801  10.507
 5461SOL     OW17823   0.876   6.050   9.938
 5461SOL    HW117824   0.826   6.100   9.873
 5461SOL    HW217825   0.901   5.969   9.893
 5462SOL     OW17826   1.013   5.642  10.049
 5462SOL    HW117827   0.950   5.629   9.979
 5462SOL    HW217828   0.998   5.568  10.109
 5463SOL     OW17829   1.451   6.750  10.156
 5463SOL    HW117830   1.370   6.719  10.115
 5463SOL    HW217831   1.511   6.761  10.082
 5464SOL     OW17832   1.465   6.198  10.284
 5464SOL    HW117833   1.416   6.115  10.280
 5464SOL    HW217834   1.524   6.187  10.359
 5465SOL     OW17835   1.830   6.397   9.696
 5465SOL    HW117836   1.890   6.348   9.752
 5465SOL    HW217837   1.804   6.334   9.629
 5466SOL     OW17838   0.490   7.005   9.450
 5466SOL    HW117839   0.411   6.975   9.495
 5466SOL    HW217840   0.490   6.957   9.367
 5467SOL     OW17841   1.679   6.838   9.973
 5467SOL    HW117842   1.774   6.834   9.978
 5467SOL    HW217843   1.658   6.931   9.978
 5468SOL     OW17844   1.405   6.162   9.383
 5468SOL    HW117845   1.386   6.111   9.461
 5468SOL    HW217846   1.500   6.155   9.372
 5469SOL     OW17847   0.537   5.842   9.614
 5469SOL    HW117848   0.582   5.792   9.546
 5469SOL    HW217849   0.510   5.923   9.571
 5470SOL     OW17850   1.746   6.828  10.869
 5470SOL    HW117851   1.833   6.792  10.855
 5470SOL    HW217852   1.760   6.918  10.897
 5471SOL     OW17853   1.053   6.932  10.637
 5471SOL    HW117854   0.977   6.902  10.686
 5471SOL    HW217855   1.128   6.891  10.680
 5472SOL     OW17856   1.610   7.218  10.973
 5472SOL    HW117857   1.599   7.253  10.884
 5472SOL    HW217858   1.690   7.165  10.968
 5473SOL     OW17859   1.128   6.788  10.409
 5473SOL    HW117860   1.077   6.834  10.475
 5473SOL    HW217861   1.108   6.834  10.327
 5474SOL     OW17862   1.604   6.671  10.383
 5474SOL    HW117863   1.598   6.736  10.454
 5474SOL    HW217864   1.538   6.699  10.320
 5475SOL     OW17865   0.915   5.684  10.694
 5475SOL    HW117866   0.938   5.657  10.605
 5475SOL    HW217867   0.996   5.716  10.732
 5476SOL     OW17868   0.983   6.698  11.031
 5476SOL    HW117869   0.892   6.715  11.058
 5476SOL    HW217870   0.977   6.621  10.974
 5477SOL     OW17871   0.711   6.647   9.684
 5477SOL    HW117872   0.698   6.626   9.777
 5477SOL    HW217873   0.788   6.596   9.658
 5478SOL     OW17874   0.425   6.405  10.562
 5478SOL    HW117875   0.487   6.423  10.633
 5478SOL    HW217876   0.398   6.315  10.576
 5479SOL     OW17877   1.261   5.966  10.596
 5479SOL    HW117878   1.298   6.042  10.642
 5479SOL    HW217879   1.173   5.995  10.570
 5480SOL     OW17880   0.041   7.181  10.638
 5480SOL    HW117881   0.106   7.246  10.610
 5480SOL    HW217882   0.079   7.142  10.717
 5481SOL     OW17883   0.329   6.695   9.798
 5481SOL    HW117884   0.335   6.768   9.736
 5481SOL    HW217885   0.331   6.617   9.743
 5482SOL     OW17886   0.554   6.129  10.182
 5482SOL    HW117887   0.557   6.184  10.104
 5482SOL    HW217888   0.644   6.129  10.215
 5483SOL     OW17889   1.245   6.935   9.707
 5483SOL    HW117890   1.302   7.006   9.736
 5483SOL    HW217891   1.158   6.960   9.737
 5484SOL     OW17892   1.296   7.049  10.465
 5484SOL    HW117893   1.355   7.058  10.540
 5484SOL    HW217894   1.233   6.982  10.492
 5485SOL     OW17895   1.591   6.197   9.808
 5485SOL    HW117896   1.542   6.275   9.836
 5485SOL    HW217897   1.646   6.228   9.736
 5486SOL     OW17898   0.348   7.120  10.616
 5486SOL    HW117899   0.332   7.070  10.536
 5486SOL    HW217900   0.443   7.127  10.621
 5487SOL     OW17901   0.422   6.324  10.918
 5487SOL    HW117902   0.484   6.373  10.863
 5487SOL    HW217903   0.468   6.243  10.939
 5488SOL     OW17904   1.614   6.371  11.001
 5488SOL    HW117905   1.528   6.413  10.995
 5488SOL    HW217906   1.667   6.412  10.933
 5489SOL     OW17907   0.996   5.725  11.060
 5489SOL    HW117908   1.057   5.796  11.039
 5489SOL    HW217909   1.043   5.645  11.036
 5490SOL     OW17910   0.499   5.625  11.064
 5490SOL    HW117911   0.452   5.573  10.999
 5490SOL    HW217912   0.443   5.701  11.079
 5491SOL     OW17913   0.594   6.451  10.349
 5491SOL    HW117914   0.602   6.545  10.333
 5491SOL    HW217915   0.527   6.445  10.417
 5492SOL     OW17916   1.295   6.414  10.314
 5492SOL    HW117917   1.315   6.460  10.233
 5492SOL    HW217918   1.355   6.340  10.315
 5493SOL     OW17919   1.219   6.059   9.630
 5493SOL    HW117920   1.159   6.031   9.561
 5493SOL    HW217921   1.184   6.143   9.659
 5494SOL     OW17922   0.301   5.773  10.555
 5494SOL    HW117923   0.263   5.805  10.636
 5494SOL    HW217924   0.281   5.679  10.554
 5495SOL     OW17925   0.048   6.891  10.581
 5495SOL    HW117926   0.075   6.837  10.654
 5495SOL    HW217927   0.050   6.980  10.615
 5496SOL     OW17928   0.756   6.236  10.388
 5496SOL    HW117929   0.807   6.218  10.309
 5496SOL    HW217930   0.698   6.308  10.363
 5497SOL     OW17931   1.745   6.548  11.174
 5497SOL    HW117932   1.705   6.478  11.123
 5497SOL    HW217933   1.683   6.565  11.244
 5498SOL     OW17934   0.320   5.656   9.925
 5498SOL    HW117935   0.282   5.741   9.946
 5498SOL    HW217936   0.322   5.610  10.009
 5499SOL     OW17937   1.573   5.940   9.708
 5499SOL    HW117938   1.638   5.879   9.743
 5499SOL    HW217939   1.605   6.027   9.735
 5500SOL     OW17940   1.035   6.325  10.355
 5500SOL    HW117941   1.124   6.360  10.342
 5500SOL    HW217942   1.029   6.253  10.293
 5501SOL     OW17943   0.980   7.151  11.035
 5501SOL    HW117944   0.965   7.194  10.951
 5501SOL    HW217945   1.023   7.068  11.013
 5502SOL     OW17946   1.847   7.086  10.911
 5502SOL    HW117947   1.870   7.112  10.822
 5502SOL    HW217948   1.927   7.096  10.962
 5503SOL     OW17949   0.364   6.538  11.100
 5503SOL    HW117950   0.434   6.545  11.165
 5503SOL    HW217951   0.382   6.456  11.054
 5504SOL     OW17952   1.498   5.859   9.445
 5504SOL    HW117953   1.453   5.777   9.462
 5504SOL    HW217954   1.542   5.880   9.527
 5505SOL     OW17955   1.283   6.403   9.333
 5505SOL    HW117956   1.335   6.323   9.340
 5505SOL    HW217957   1.315   6.445   9.253
 5506SOL     OW17958   1.075   6.932  10.176
 5506SOL    HW117959   1.079   6.863  10.110
 5506SOL    HW217960   1.126   7.004  10.138
 5507SOL     OW17961   0.314   6.385  10.246
 5507SOL    HW117962   0.408   6.390  10.227
 5507SOL    HW217963   0.303   6.300  10.288
 5508SOL     OW17964   0.336   6.099  10.335
 5508SOL    HW117965   0.301   6.013  10.311
 5508SOL    HW217966   0.412   6.111  10.278
 5509SOL     OW17967   1.131   5.967  10.988
 5509SOL    HW117968   1.087   6.014  11.059
 5509SOL    HW217969   1.221   6.002  10.988
 5510SOL     OW17970   1.155   5.785  10.780
 5510SOL    HW117971   1.145   5.848  10.852
 5510SOL    HW217972   1.206   5.832  10.714
 5511SOL     OW17973   7.983   6.890   9.515
 5511SOL    HW117974   7.892   6.904   9.541
 5511SOL    HW217975   7.997   6.796   9.526
 5512SOL     OW17976   0.132   7.345  10.286
 5512SOL    HW117977   0.105   7.274  10.228
 5512SOL    HW217978   0.207   7.385  10.243
 5513SOL     OW17979   0.492   7.165  10.217
 5513SOL    HW117980   0.562   7.226  10.240
 5513SOL    HW217981   0.533   7.101  10.159
 5514SOL     OW17982   0.072   6.141  10.424
 5514SOL    HW117983   0.164   6.122  10.407
 5514SOL    HW217984   0.066   6.148  10.519
 5515SOL     OW17985   0.197   6.112  11.014
 5515SOL    HW117986   0.265   6.077  10.956
 5515SOL    HW217987   0.166   6.191  10.971
 5516SOL     OW17988   1.383   6.517  10.964
 5516SOL    HW117989   1.405   6.610  10.962
 5516SOL    HW217990   1.383   6.490  10.872
 5517SOL     OW17991   0.816   6.161   9.676
 5517SOL    HW117992   0.822   6.088   9.614
 5517SOL    HW217993   0.740   6.211   9.647
 5518SOL     OW17994   1.644   6.183  10.490
 5518SOL    HW117995   1.639   6.123  10.565
 5518SOL    HW217996   1.732   6.171  10.456
 5519SOL     OW17997   0.289   7.123  11.033
 5519SOL    HW117998   0.248   7.192  11.085
 5519SOL    HW217999   0.281   7.045  11.088
 5520SOL     OW18000   0.711   6.019  10.557
 5520SOL    HW118001   0.655   5.943  10.539
 5520SOL    HW218002   0.692   6.080  10.487
 5521SOL     OW18003   0.919   7.258  10.784
 5521SOL    HW118004   0.891   7.217  10.702
 5521SOL    HW218005   0.915   7.352  10.766
 5522SOL     OW18006   0.461   6.066   9.484
 5522SOL    HW118007   0.510   6.147   9.497
 5522SOL    HW218008   0.374   6.084   9.520
 5523SOL     OW18009   0.158   6.708  10.764
 5523SOL    HW118010   0.135   6.663  10.845
 5523SOL    HW218011   0.161   6.638  10.698
 5524SOL     OW18012   1.299   6.608  10.520
 5524SOL    HW118013   1.305   6.541  10.452
 5524SOL    HW218014   1.241   6.674  10.484
 5525SOL     OW18015   1.318   6.430   9.608
 5525SOL    HW118016   1.235   6.414   9.653
 5525SOL    HW218017   1.296   6.424   9.515
 5526SOL     OW18018   1.790   7.319  10.476
 5526SOL    HW118019   1.849   7.343  10.404
 5526SOL    HW218020   1.755   7.233  10.450
 5527SOL     OW18021   1.241   7.318  10.414
 5527SOL    HW118022   1.323   7.346  10.373
 5527SOL    HW218023   1.255   7.225  10.434
 5528SOL     OW18024   0.061   6.776  10.339
 5528SOL    HW118025   0.059   6.818  10.425
 5528SOL    HW218026  -0.011   6.817  10.290
 5529SOL     OW18027   0.685   7.258  11.054
 5529SOL    HW118028   0.624   7.328  11.033
 5529SOL    HW218029   0.761   7.273  10.998
 5530SOL     OW18030   1.745   5.755   9.809
 5530SOL    HW118031   1.808   5.735   9.740
 5530SOL    HW218032   1.720   5.669   9.844
 5531SOL     OW18033   1.397   7.153   9.807
 5531SOL    HW118034   1.452   7.187   9.737
 5531SOL    HW218035   1.343   7.228   9.833
 5532SOL     OW18036   0.165   7.340  11.146
 5532SOL    HW118037   0.106   7.287  11.199
 5532SOL    HW218038   0.219   7.387  11.210
 5533SOL     OW18039   1.272   6.517   9.990
 5533SOL    HW118040   1.347   6.459  10.003
 5533SOL    HW218041   1.304   6.584   9.929
 5534SOL     OW18042   0.801   6.854  10.735
 5534SOL    HW118043   0.775   6.898  10.816
 5534SOL    HW218044   0.729   6.874  10.674
 5535SOL     OW18045   0.665   7.213   9.465
 5535SOL    HW118046   0.679   7.229   9.372
 5535SOL    HW218047   0.609   7.135   9.468
 5536SOL     OW18048   1.617   7.315  10.705
 5536SOL    HW118049   1.675   7.318  10.628
 5536SOL    HW218050   1.601   7.407  10.726
 5537SOL     OW18051   1.840   5.753  10.275
 5537SOL    HW118052   1.873   5.666  10.254
 5537SOL    HW218053   1.755   5.759  10.231
 5538SOL     OW18054   0.258   5.909  10.015
 5538SOL    HW118055   0.170   5.938   9.992
 5538SOL    HW218056   0.255   5.895  10.110
 5539SOL     OW18057   1.209   7.183   9.344
 5539SOL    HW118058   1.197   7.091   9.367
 5539SOL    HW218059   1.145   7.199   9.274
 5540SOL     OW18060   0.831   6.593  10.653
 5540SOL    HW118061   0.825   6.610  10.559
 5540SOL    HW218062   0.828   6.680  10.693
 5541SOL     OW18063   0.924   6.501   9.612
 5541SOL    HW118064   0.976   6.532   9.538
 5541SOL    HW218065   0.972   6.425   9.646
 5542SOL     OW18066   1.486   7.226   9.359
 5542SOL    HW118067   1.394   7.209   9.341
 5542SOL    HW218068   1.527   7.229   9.273
 5543SOL     OW18069   0.368   6.888  10.802
 5543SOL    HW118070   0.350   6.965  10.748
 5543SOL    HW218071   0.297   6.827  10.781
 5544SOL     OW18072   1.596   6.865  10.582
 5544SOL    HW118073   1.671   6.855  10.641
 5544SOL    HW218074   1.542   6.933  10.623
 5545SOL     OW18075   1.062   6.702  10.034
 5545SOL    HW118076   0.991   6.650  10.072
 5545SOL    HW218077   1.124   6.636  10.001
 5546SOL     OW18078   1.023   5.832  10.277
 5546SOL    HW118079   1.016   5.789  10.192
 5546SOL    HW218080   1.019   5.761  10.341
 5547SOL     OW18081   0.612   7.075   9.803
 5547SOL    HW118082   0.661   7.028   9.736
 5547SOL    HW218083   0.524   7.085   9.767
 5548SOL     OW18084   1.735   5.977  10.691
 5548SOL    HW118085   1.809   6.037  10.691
 5548SOL    HW218086   1.761   5.906  10.633
 5549SOL     OW18087   0.253   6.919   9.581
 5549SOL    HW118088   0.157   6.921   9.574
 5549SOL    HW218089   0.272   6.962   9.664
 5550SOL     OW18090   0.102   6.590  11.021
 5550SOL    HW118091   0.066   6.675  11.046
 5550SOL    HW218092   0.188   6.587  11.065
 5551SOL     OW18093   0.679   5.788  10.810
 5551SOL    HW118094   0.761   5.761  10.769
 5551SOL    HW218095   0.704   5.816  10.898
 5552SOL     OW18096   0.103   5.940   9.346
 5552SOL    HW118097   0.029   5.978   9.394
 5552SOL    HW218098   0.123   6.005   9.279
 5553SOL     OW18099   1.424   6.447  10.704
 5553SOL    HW118100   1.373   6.504  10.647
 5553SOL    HW218101   1.512   6.449  10.669
 5554SOL     OW18102   0.098   5.831   9.657
 5554SOL    HW118103   0.046   5.813   9.579
 5554SOL    HW218104   0.179   5.781   9.644
 5555SOL     OW18105   1.177   6.914   9.428
 5555SOL    HW118106   1.084   6.896   9.425
 5555SOL    HW218107   1.199   6.915   9.522
 5556SOL     OW18108   0.618   6.430  10.753
 5556SOL    HW118109   0.675   6.504  10.734
 5556SOL    HW218110   0.676   6.354  10.753
 5557SOL     OW18111   1.483   7.379  10.295
 5557SOL    HW118112   1.503   7.448  10.232
 5557SOL    HW218113   1.568   7.341  10.317
 5558SOL     OW18114   0.739   6.143  10.996
 5558SOL    HW118115   0.777   6.197  11.065
 5558SOL    HW218116   0.744   6.054  11.030
 5559SOL     OW18117   1.474   6.777  10.936
 5559SOL    HW118118   1.465   6.795  11.029
 5559SOL    HW218119   1.565   6.797  10.916
 5560SOL     OW18120   0.389   7.326  10.877
 5560SOL    HW118121   0.305   7.364  10.852
 5560SOL    HW218122   0.367   7.241  10.915
 5561SOL     OW18123   1.661   6.463  10.566
 5561SOL    HW118124   1.664   6.377  10.524
 5561SOL    HW218125   1.650   6.525  10.494
 5562SOL     OW18126   0.594   6.324   9.993
 5562SOL    HW118127   0.634   6.409   9.974
 5562SOL    HW218128   0.532   6.310   9.921
 5563SOL     OW18129   1.752   5.951  10.967
 5563SOL    HW118130   1.744   5.966  10.873
 5563SOL    HW218131   1.678   5.894  10.989
 5564SOL     OW18132   1.750   6.521  10.821
 5564SOL    HW118133   1.738   6.616  10.831
 5564SOL    HW218134   1.732   6.505  10.728
 5565SOL     OW18135   0.876   6.951   9.363
 5565SOL    HW118136   0.828   6.987   9.438
 5565SOL    HW218137   0.888   7.026   9.305
 5566SOL     OW18138   0.669   7.369  10.247
 5566SOL    HW118139   0.652   7.461  10.225
 5566SOL    HW218140   0.764   7.359  10.237
 5567SOL     OW18141   0.872   6.558  10.184
 5567SOL    HW118142   0.912   6.487  10.235
 5567SOL    HW218143   0.829   6.614  10.248
 5568SOL     OW18144   1.073   6.566   9.399
 5568SOL    HW118145   1.051   6.622   9.324
 5568SOL    HW218146   1.148   6.515   9.368
 5569SOL     OW18147   1.848   7.136  10.146
 5569SOL    HW118148   1.767   7.125  10.098
 5569SOL    HW218149   1.851   7.063  10.207
 5570SOL     OW18150   0.215   6.888  11.165
 5570SOL    HW118151   0.123   6.872  11.142
 5570SOL    HW218152   0.217   6.886  11.260
 5571SOL     OW18153   0.141   6.846   9.969
 5571SOL    HW118154   0.064   6.800  10.001
 5571SOL    HW218155   0.196   6.778   9.931
 5572SOL     OW18156   0.688   6.992  10.944
 5572SOL    HW118157   0.606   6.954  10.974
 5572SOL    HW218158   0.688   7.081  10.980
 5573SOL     OW18159   1.801   5.760  10.546
 5573SOL    HW118160   1.811   5.666  10.558
 5573SOL    HW218161   1.816   5.774  10.452
 5574SOL     OW18162   0.454   6.014   9.844
 5574SOL    HW118163   0.473   5.945   9.780
 5574SOL    HW218164   0.389   5.974   9.902
 5575SOL     OW18165   1.688   7.077  10.404
 5575SOL    HW118166   1.612   7.057  10.349
 5575SOL    HW218167   1.694   7.003  10.464
 5576SOL     OW18168   0.359   6.146  10.607
 5576SOL    HW118169   0.402   6.082  10.664
 5576SOL    HW218170   0.365   6.109  10.519
 5577SOL     OW18171   0.834   7.179   9.972
 5577SOL    HW118172   0.828   7.261   9.923
 5577SOL    HW218173   0.755   7.131   9.945
 5578SOL     OW18174   1.426   5.820  10.416
 5578SOL    HW118175   1.444   5.730  10.442
 5578SOL    HW218176   1.383   5.859  10.492
 5579SOL     OW18177   1.008   5.603  10.440
 5579SOL    HW118178   0.953   5.537  10.399
 5579SOL    HW218179   1.095   5.563  10.445
 5580SOL     OW18180   0.770   6.920   9.641
 5580SOL    HW118181   0.747   6.827   9.645
 5580SOL    HW218182   0.856   6.925   9.683
 5581SOL     OW18183   0.622   7.136  10.596
 5581SOL    HW118184   0.620   7.221  10.641
 5581SOL    HW218185   0.710   7.131  10.559
 5582SOL     OW18186   1.365   5.623   9.492
 5582SOL    HW118187   1.409   5.552   9.445
 5582SOL    HW218188   1.274   5.593   9.501
 5583SOL     OW18189   1.277   6.035   9.970
 5583SOL    HW118190   1.229   6.118   9.974
 5583SOL    HW218191   1.285   6.007  10.061
 5584SOL     OW18192   1.583   5.787  10.184
 5584SOL    HW118193   1.530   5.811  10.260
 5584SOL    HW218194   1.584   5.866  10.130
 5585SOL     OW18195   0.055   6.632   9.579
 5585SOL    HW118196   0.145   6.601   9.568
 5585SOL    HW218197   0.036   6.617   9.672
 5586SOL     OW18198   0.891   7.247   9.635
 5586SOL    HW118199   0.814   7.231   9.580
 5586SOL    HW218200   0.861   7.310   9.700
 5587SOL     OW18201   0.246   6.285  11.256
 5587SOL    HW118202   0.208   6.235  11.329
 5587SOL    HW218203   0.236   6.227  11.180
 5588SOL     OW18204   0.241   5.859  12.145
 5588SOL    HW118205   0.271   5.829  12.231
 5588SOL    HW218206   0.160   5.810  12.130
 5589SOL     OW18207   8.001   5.977  11.777
 5589SOL    HW118208   7.912   5.962  11.807
 5589SOL    HW218209   8.009   5.922  11.699
 5590SOL     OW18210   0.548   6.833  12.342
 5590SOL    HW118211   0.473   6.876  12.300
 5590SOL    HW218212   0.555   6.876  12.427
 5591SOL     OW18213   1.581   7.103  11.885
 5591SOL    HW118214   1.539   7.078  11.967
 5591SOL    HW218215   1.510   7.106  11.821
 5592SOL     OW18216   1.135   6.285  11.863
 5592SOL    HW118217   1.181   6.369  11.855
 5592SOL    HW218218   1.084   6.294  11.944
 5593SOL     OW18219   1.782   6.179  11.397
 5593SOL    HW118220   1.752   6.176  11.306
 5593SOL    HW218221   1.743   6.102  11.438
 5594SOL     OW18222   0.763   6.719  12.233
 5594SOL    HW118223   0.682   6.749  12.273
 5594SOL    HW218224   0.795   6.795  12.183
 5595SOL     OW18225   0.691   6.581  11.816
 5595SOL    HW118226   0.757   6.576  11.885
 5595SOL    HW218227   0.623   6.638  11.852
 5596SOL     OW18228   0.345   6.992  12.232
 5596SOL    HW118229   0.277   6.943  12.186
 5596SOL    HW218230   0.384   7.048  12.164
 5597SOL     OW18231   1.600   6.019  11.921
 5597SOL    HW118232   1.533   6.037  11.855
 5597SOL    HW218233   1.593   6.093  11.982
 5598SOL     OW18234   0.233   7.279  11.654
 5598SOL    HW118235   0.222   7.365  11.697
 5598SOL    HW218236   0.302   7.293  11.589
 5599SOL     OW18237   0.305   7.019  11.685
 5599SOL    HW118238   0.274   7.110  11.692
 5599SOL    HW218239   0.249   6.970  11.745
 5600SOL     OW18240   0.285   6.671  12.064
 5600SOL    HW118241   0.282   6.579  12.090
 5600SOL    HW218242   0.210   6.711  12.108
 5601SOL     OW18243   0.571   6.576  11.317
 5601SOL    HW118244   0.623   6.618  11.248
 5601SOL    HW218245   0.612   6.605  11.399
 5602SOL     OW18246   0.139   6.215  11.718
 5602SOL    HW118247   0.097   6.134  11.748
 5602SOL    HW218248   0.123   6.277  11.790
 5603SOL     OW18249   1.836   7.339  11.491
 5603SOL    HW118250   1.901   7.316  11.558
 5603SOL    HW218251   1.854   7.431  11.472
 5604SOL     OW18252   0.024   7.174  11.310
 5604SOL    HW118253   0.005   7.082  11.292
 5604SOL    HW218254   0.010   7.184  11.404
 5605SOL     OW18255   1.693   6.508  11.824
 5605SOL    HW118256   1.775   6.462  11.806
 5605SOL    HW218257   1.673   6.555  11.743
 5606SOL     OW18258   1.654   6.687  11.602
 5606SOL    HW118259   1.740   6.684  11.561
 5606SOL    HW218260   1.663   6.752  11.672
 5607SOL     OW18261   0.151   6.316   0.288
 5607SOL    HW118262   0.145   6.284   0.378
 5607SOL    HW218263   0.215   6.388   0.292
 5608SOL     OW18264   0.612   6.984  11.902
 5608SOL    HW118265   0.570   6.898  11.909
 5608SOL    HW218266   0.599   7.011  11.811
 5609SOL     OW18267   0.829   5.593  11.695
 5609SOL    HW118268   0.868   5.675  11.666
 5609SOL    HW218269   0.734   5.610  11.694
 5610SOL     OW18270   0.197   6.516  12.444
 5610SOL    HW118271   0.288   6.495  12.423
 5610SOL    HW218272   0.146   6.475  12.374
 5611SOL     OW18273   1.530   6.591  11.373
 5611SOL    HW118274   1.462   6.533  11.405
 5611SOL    HW218275   1.575   6.621  11.452
 5612SOL     OW18276   1.473   6.999  12.117
 5612SOL    HW118277   1.405   7.015  12.182
 5612SOL    HW218278   1.456   6.909  12.088
 5613SOL     OW18279   1.656   7.345  11.746
 5613SOL    HW118280   1.625   7.311  11.662
 5613SOL    HW218281   1.641   7.273  11.808
 5614SOL     OW18282   0.591   6.297  11.440
 5614SOL    HW118283   0.591   6.383  11.398
 5614SOL    HW218284   0.530   6.306  11.513
 5615SOL     OW18285   1.289   5.960  12.110
 5615SOL    HW118286   1.200   5.925  12.110
 5615SOL    HW218287   1.337   5.904  12.171
 5616SOL     OW18288   1.572   7.260  11.485
 5616SOL    HW118289   1.664   7.284  11.476
 5616SOL    HW218290   1.543   7.244  11.396
 5617SOL     OW18291   0.987   5.934  12.384
 5617SOL    HW118292   0.967   6.004  12.447
 5617SOL    HW218293   0.909   5.929  12.329
 5618SOL     OW18294   1.056   6.285  11.594
 5618SOL    HW118295   1.076   6.279  11.687
 5618SOL    HW218296   0.972   6.240  11.584
 5619SOL     OW18297   0.098   6.372  11.944
 5619SOL    HW118298   0.178   6.384  11.996
 5619SOL    HW218299   0.043   6.447  11.967
 5620SOL     OW18300   0.067   7.336   0.283
 5620SOL    HW118301   0.047   7.372   0.369
 5620SOL    HW218302   0.037   7.403   0.222
 5621SOL     OW18303   0.895   5.938  11.371
 5621SOL    HW118304   0.942   5.996  11.310
 5621SOL    HW218305   0.881   5.858  11.320
 5622SOL     OW18306   1.385   6.729  11.710
 5622SOL    HW118307   1.465   6.717  11.659
 5622SOL    HW218308   1.332   6.790  11.660
 5623SOL     OW18309   0.559   5.767  12.063
 5623SOL    HW118310   0.560   5.819  12.143
 5623SOL    HW218311   0.551   5.831  11.993
 5624SOL     OW18312   0.996   7.032  11.638
 5624SOL    HW118313   0.969   7.107  11.585
 5624SOL    HW218314   0.970   7.056  11.727
 5625SOL     OW18315   0.361   7.411  12.029
 5625SOL    HW118316   0.407   7.328  12.043
 5625SOL    HW218317   0.426   7.477  12.051
 5626SOL     OW18318   1.801   6.646  12.049
 5626SOL    HW118319   1.751   6.620  11.972
 5626SOL    HW218320   1.737   6.649  12.120
 5627SOL     OW18321   0.303   6.526  11.409
 5627SOL    HW118322   0.389   6.551  11.377
 5627SOL    HW218323   0.281   6.447  11.359
 5628SOL     OW18324   1.482   6.341  11.887
 5628SOL    HW118325   1.480   6.299  11.973
 5628SOL    HW218326   1.561   6.395  11.888
 5629SOL     OW18327   1.127   7.365  11.395
 5629SOL    HW118328   1.049   7.328  11.436
 5629SOL    HW218329   1.152   7.300  11.329
 5630SOL     OW18330   1.633   6.973  11.270
 5630SOL    HW118331   1.591   7.057  11.253
 5630SOL    HW218332   1.567   6.907  11.246
 5631SOL     OW18333   0.454   7.331  11.484
 5631SOL    HW118334   0.504   7.375  11.553
 5631SOL    HW218335   0.520   7.284  11.433
 5632SOL     OW18336   1.397   5.687  11.622
 5632SOL    HW118337   1.390   5.664  11.529
 5632SOL    HW218338   1.491   5.698  11.637
 5633SOL     OW18339   0.217   7.370  12.392
 5633SOL    HW118340   0.254   7.289  12.426
 5633SOL    HW218341   0.180   7.347  12.307
 5634SOL     OW18342   0.945   7.280  12.068
 5634SOL    HW118343   1.027   7.231  12.078
 5634SOL    HW218344   0.898   7.234  11.999
 5635SOL     OW18345   0.412   6.280  11.652
 5635SOL    HW118346   0.429   6.187  11.663
 5635SOL    HW218347   0.317   6.288  11.666
 5636SOL     OW18348   0.658   5.696  11.271
 5636SOL    HW118349   0.707   5.617  11.293
 5636SOL    HW218350   0.599   5.669  11.201
 5637SOL     OW18351   0.811   6.950  12.102
 5637SOL    HW118352   0.899   6.957  12.065
 5637SOL    HW218353   0.753   6.968  12.028
 5638SOL     OW18354   0.936   6.096  12.065
 5638SOL    HW118355   0.906   6.085  11.975
 5638SOL    HW218356   0.970   6.010  12.090
 5639SOL     OW18357   0.564   5.649  11.665
 5639SOL    HW118358   0.482   5.648  11.714
 5639SOL    HW218359   0.556   5.723  11.605
 5640SOL     OW18360   1.432   6.792  11.210
 5640SOL    HW118361   1.461   6.717  11.261
 5640SOL    HW218362   1.346   6.814  11.246
 5641SOL     OW18363   0.280   5.638  11.346
 5641SOL    HW118364   0.334   5.703  11.300
 5641SOL    HW218365   0.343   5.583  11.393
 5642SOL     OW18366   0.947   5.836  11.625
 5642SOL    HW118367   0.922   5.872  11.540
 5642SOL    HW218368   1.041   5.852  11.631
 5643SOL     OW18369   1.214   7.168  11.972
 5643SOL    HW118370   1.227   7.229  11.899
 5643SOL    HW218371   1.291   7.182  12.028
 5644SOL     OW18372   0.479   6.743  11.890
 5644SOL    HW118373   0.417   6.720  11.959
 5644SOL    HW218374   0.432   6.724  11.808
 5645SOL     OW18375   1.257   7.376  11.787
 5645SOL    HW118376   1.307   7.435  11.731
 5645SOL    HW218377   1.193   7.432  11.830
 5646SOL     OW18378   1.030   6.114  11.201
 5646SOL    HW118379   0.987   6.199  11.185
 5646SOL    HW218380   1.093   6.132  11.271
 5647SOL     OW18381   0.577   5.793  12.353
 5647SOL    HW118382   0.591   5.704  12.320
 5647SOL    HW218383   0.483   5.797  12.371
 5648SOL     OW18384   0.866   6.043  11.806
 5648SOL    HW118385   0.822   6.099  11.742
 5648SOL    HW218386   0.890   5.964  11.757
 5649SOL     OW18387   1.023   5.621  11.912
 5649SOL    HW118388   0.962   5.623  11.839
 5649SOL    HW218389   0.993   5.549  11.967
 5650SOL     OW18390   1.434   6.740  12.025
 5650SOL    HW118391   1.369   6.670  12.025
 5650SOL    HW218392   1.457   6.751  11.933
 5651SOL     OW18393   1.461   6.198  12.126
 5651SOL    HW118394   1.404   6.121  12.133
 5651SOL    HW218395   1.522   6.189  12.200
 5652SOL     OW18396   1.834   6.393  11.559
 5652SOL    HW118397   1.894   6.347  11.617
 5652SOL    HW218398   1.813   6.329  11.490
 5653SOL     OW18399   0.489   7.006  11.314
 5653SOL    HW118400   0.409   6.976  11.358
 5653SOL    HW218401   0.491   6.956  11.233
 5654SOL     OW18402   1.689   6.855  11.807
 5654SOL    HW118403   1.782   6.852  11.826
 5654SOL    HW218404   1.662   6.943  11.834
 5655SOL     OW18405   1.393   6.161  11.240
 5655SOL    HW118406   1.334   6.136  11.311
 5655SOL    HW218407   1.479   6.132  11.268
 5656SOL     OW18408   0.534   5.841  11.476
 5656SOL    HW118409   0.583   5.795  11.408
 5656SOL    HW218410   0.508   5.924  11.434
 5657SOL     OW18411   1.105   6.826  12.287
 5657SOL    HW118412   1.022   6.844  12.331
 5657SOL    HW218413   1.091   6.855  12.197
 5658SOL     OW18414   1.605   6.679  12.243
 5658SOL    HW118415   1.572   6.715  12.326
 5658SOL    HW218416   1.538   6.701  12.179
 5659SOL     OW18417   0.712   6.649  11.545
 5659SOL    HW118418   0.699   6.627  11.637
 5659SOL    HW218419   0.786   6.595  11.517
 5660SOL     OW18420   0.446   6.400  12.447
 5660SOL    HW118421   0.496   6.427  12.524
 5660SOL    HW218422   0.396   6.325  12.476
 5661SOL     OW18423   1.252   5.944  12.431
 5661SOL    HW118424   1.278   6.030  12.463
 5661SOL    HW218425   1.161   5.954  12.406
 5662SOL     OW18426   0.334   6.691  11.657
 5662SOL    HW118427   0.337   6.763  11.594
 5662SOL    HW218428   0.335   6.612  11.604
 5663SOL     OW18429   0.551   6.105  12.032
 5663SOL    HW118430   0.566   6.166  11.959
 5663SOL    HW218431   0.613   6.133  12.099
 5664SOL     OW18432   1.246   6.938  11.565
 5664SOL    HW118433   1.302   7.007  11.599
 5664SOL    HW218434   1.159   6.958  11.597
 5665SOL     OW18435   1.289   7.032  12.316
 5665SOL    HW118436   1.345   7.028  12.393
 5665SOL    HW218437   1.232   6.956  12.323
 5666SOL     OW18438   1.575   6.199  11.661
 5666SOL    HW118439   1.525   6.246  11.728
 5666SOL    HW218440   1.621   6.268  11.613
 5667SOL     OW18441   0.360   7.142  12.456
 5667SOL    HW118442   0.339   7.080  12.387
 5667SOL    HW218443   0.446   7.176  12.433
 5668SOL     OW18444   0.581   6.456  12.213
 5668SOL    HW118445   0.607   6.548  12.216
 5668SOL    HW218446   0.535   6.441  12.295
 5669SOL     OW18447   1.322   6.442  12.168
 5669SOL    HW118448   1.235   6.413  12.140
 5669SOL    HW218449   1.377   6.364  12.161
 5670SOL     OW18450   1.196   6.111  11.431
 5670SOL    HW118451   1.206   6.033  11.485
 5670SOL    HW218452   1.156   6.176  11.488
 5671SOL     OW18453   0.312   5.774  12.395
 5671SOL    HW118454   0.270   5.815  12.471
 5671SOL    HW218455   0.288   5.682  12.401
 5672SOL     OW18456   0.072   6.928  12.428
 5672SOL    HW118457   0.050   6.874  12.504
 5672SOL    HW218458   0.077   7.017  12.462
 5673SOL     OW18459   0.717   6.212  12.220
 5673SOL    HW118460   0.795   6.206  12.165
 5673SOL    HW218461   0.685   6.302  12.206
 5674SOL     OW18462   0.322   5.659  11.784
 5674SOL    HW118463   0.289   5.746  11.806
 5674SOL    HW218464   0.320   5.611  11.867
 5675SOL     OW18465   1.624   5.967  11.526
 5675SOL    HW118466   1.656   5.901  11.588
 5675SOL    HW218467   1.598   6.041  11.580
 5676SOL     OW18468   1.032   6.340  12.139
 5676SOL    HW118469   1.021   6.349  12.234
 5676SOL    HW218470   1.004   6.250  12.120
 5677SOL     OW18471   1.517   5.859  11.295
 5677SOL    HW118472   1.460   5.789  11.326
 5677SOL    HW218473   1.556   5.896  11.374
 5678SOL     OW18474   1.283   6.409  11.196
 5678SOL    HW118475   1.325   6.324  11.203
 5678SOL    HW218476   1.318   6.447  11.115
 5679SOL     OW18477   1.073   6.932  12.030
 5679SOL    HW118478   1.081   6.859  11.969
 5679SOL    HW218479   1.129   7.000  11.994
 5680SOL     OW18480   0.319   6.396  12.113
 5680SOL    HW118481   0.412   6.415  12.121
 5680SOL    HW218482   0.311   6.304  12.138
 5681SOL     OW18483   0.316   6.122  12.163
 5681SOL    HW118484   0.285   6.031  12.160
 5681SOL    HW218485   0.400   6.120  12.116
 5682SOL     OW18486   1.179   5.798   0.153
 5682SOL    HW118487   1.152   5.863   0.217
 5682SOL    HW218488   1.202   5.850   0.075
 5683SOL     OW18489   7.981   6.889  11.370
 5683SOL    HW118490   7.892   6.907  11.399
 5683SOL    HW218491   7.993   6.796  11.385
 5684SOL     OW18492   0.117   7.335  12.133
 5684SOL    HW118493   0.102   7.263  12.072
 5684SOL    HW218494   0.192   7.382  12.097
 5685SOL     OW18495   0.496   7.169  12.074
 5685SOL    HW118496   0.566   7.227  12.102
 5685SOL    HW218497   0.538   7.106  12.016
 5686SOL     OW18498   0.973   6.369  12.412
 5686SOL    HW118499   1.015   6.442  12.458
 5686SOL    HW218500   0.879   6.382  12.427
 5687SOL     OW18501   0.091   6.190  12.301
 5687SOL    HW118502   0.176   6.178  12.260
 5687SOL    HW218503   0.096   6.141  12.383
 5688SOL     OW18504   0.818   6.157  11.540
 5688SOL    HW118505   0.825   6.082  11.481
 5688SOL    HW218506   0.742   6.206  11.508
 5689SOL     OW18507   1.650   6.186  12.323
 5689SOL    HW118508   1.651   6.136  12.405
 5689SOL    HW218509   1.741   6.185  12.294
 5690SOL     OW18510   0.724   6.026  12.423
 5690SOL    HW118511   0.658   5.960  12.401
 5690SOL    HW218512   0.710   6.097  12.360
 5691SOL     OW18513   0.885   7.234   0.031
 5691SOL    HW118514   0.898   7.301  -0.036
 5691SOL    HW218515   0.916   7.275   0.112
 5692SOL     OW18516   0.458   6.066  11.343
 5692SOL    HW118517   0.510   6.145  11.360
 5692SOL    HW218518   0.372   6.085  11.381
 5693SOL     OW18519   1.282   6.623  12.368
 5693SOL    HW118520   1.304   6.566  12.294
 5693SOL    HW218521   1.230   6.693  12.329
 5694SOL     OW18522   1.318   6.443  11.471
 5694SOL    HW118523   1.246   6.408  11.525
 5694SOL    HW218524   1.290   6.428  11.381
 5695SOL     OW18525   1.762   7.339  12.308
 5695SOL    HW118526   1.828   7.354  12.241
 5695SOL    HW218527   1.744   7.245  12.303
 5696SOL     OW18528   1.246   7.303  12.279
 5696SOL    HW118529   1.325   7.339  12.238
 5696SOL    HW218530   1.264   7.209  12.284
 5697SOL     OW18531   0.077   6.793  12.194
 5697SOL    HW118532   0.077   6.841  12.277
 5697SOL    HW218533  -0.005   6.819  12.151
 5698SOL     OW18534   1.730   5.751  11.672
 5698SOL    HW118535   1.796   5.735  11.606
 5698SOL    HW218536   1.712   5.665  11.710
 5699SOL     OW18537   1.394   7.153  11.671
 5699SOL    HW118538   1.449   7.187  11.601
 5699SOL    HW218539   1.342   7.229  11.699
 5700SOL     OW18540   1.278   6.518  11.842
 5700SOL    HW118541   1.351   6.457  11.853
 5700SOL    HW218542   1.313   6.588  11.787
 5701SOL     OW18543   0.664   7.214  11.328
 5701SOL    HW118544   0.679   7.229  11.235
 5701SOL    HW218545   0.610   7.135  11.331
 5702SOL     OW18546   1.621   7.378   0.043
 5702SOL    HW118547   1.676   7.362  -0.034
 5702SOL    HW218548   1.648   7.465   0.074
 5703SOL     OW18549   1.840   5.752  12.150
 5703SOL    HW118550   1.873   5.666  12.125
 5703SOL    HW218551   1.755   5.759  12.106
 5704SOL     OW18552   0.259   5.908  11.872
 5704SOL    HW118553   0.170   5.940  11.852
 5704SOL    HW218554   0.261   5.901  11.967
 5705SOL     OW18555   1.209   7.182  11.206
 5705SOL    HW118556   1.197   7.091  11.232
 5705SOL    HW218557   1.143   7.197  11.139
 5706SOL     OW18558   0.791   6.600  12.487
 5706SOL    HW118559   0.793   6.645  12.403
 5706SOL    HW218560   0.871   6.627  12.531
 5707SOL     OW18561   0.917   6.496  11.462
 5707SOL    HW118562   0.977   6.531  11.396
 5707SOL    HW218563   0.967   6.429  11.508
 5708SOL     OW18564   1.486   7.222  11.220
 5708SOL    HW118565   1.393   7.207  11.203
 5708SOL    HW218566   1.526   7.226  11.133
 5709SOL     OW18567   1.069   6.701  11.889
 5709SOL    HW118568   0.995   6.650  11.924
 5709SOL    HW218569   1.133   6.635  11.863
 5710SOL     OW18570   1.040   5.830  12.106
 5710SOL    HW118571   1.035   5.767  12.034
 5710SOL    HW218572   1.028   5.777  12.185
 5711SOL     OW18573   0.606   7.077  11.648
 5711SOL    HW118574   0.657   7.029  11.582
 5711SOL    HW218575   0.516   7.071  11.618
 5712SOL     OW18576   1.764   6.021   0.029
 5712SOL    HW118577   1.846   6.018   0.078
 5712SOL    HW218578   1.751   5.931  -0.000
 5713SOL     OW18579   0.250   6.922  11.440
 5713SOL    HW118580   0.154   6.925  11.435
 5713SOL    HW218581   0.270   6.961  11.525
 5714SOL     OW18582   0.104   5.941  11.201
 5714SOL    HW118583   0.032   5.981  11.249
 5714SOL    HW218584   0.124   6.004  11.132
 5715SOL     OW18585   0.092   5.832  11.528
 5715SOL    HW118586   0.043   5.810  11.449
 5715SOL    HW218587   0.175   5.785  11.519
 5716SOL     OW18588   1.179   6.915  11.291
 5716SOL    HW118589   1.088   6.884  11.292
 5716SOL    HW218590   1.205   6.918  11.383
 5717SOL     OW18591   1.485   7.373  12.155
 5717SOL    HW118592   1.505   7.450  12.102
 5717SOL    HW218593   1.567   7.352  12.200
 5718SOL     OW18594   1.669   6.456  12.408
 5718SOL    HW118595   1.653   6.371  12.367
 5718SOL    HW218596   1.651   6.519  12.338
 5719SOL     OW18597   1.217   5.905  11.627
 5719SOL    HW118598   1.277   5.831  11.624
 5719SOL    HW218599   1.246   5.956  11.703
 5720SOL     OW18600   0.595   6.317  11.855
 5720SOL    HW118601   0.635   6.403  11.841
 5720SOL    HW218602   0.531   6.308  11.785
 5721SOL     OW18603   1.833   6.476   0.120
 5721SOL    HW118604   1.807   6.554   0.169
 5721SOL    HW218605   1.767   6.468   0.050
 5722SOL     OW18606   0.865   6.947  11.221
 5722SOL    HW118607   0.828   6.970  11.306
 5722SOL    HW218608   0.878   7.030  11.177
 5723SOL     OW18609   0.666   7.383  12.125
 5723SOL    HW118610   0.651   7.470  12.088
 5723SOL    HW218611   0.760   7.367  12.112
 5724SOL     OW18612   0.875   6.557  12.028
 5724SOL    HW118613   0.922   6.483  12.065
 5724SOL    HW218614   0.837   6.602  12.103
 5725SOL     OW18615   1.077   6.576  11.260
 5725SOL    HW118616   1.056   6.627  11.182
 5725SOL    HW218617   1.150   6.521  11.234
 5726SOL     OW18618   1.849   7.136  12.010
 5726SOL    HW118619   1.762   7.126  11.970
 5726SOL    HW218620   1.854   7.066  12.074
 5727SOL     OW18621   0.137   6.850  11.820
 5727SOL    HW118622   0.059   6.811  11.859
 5727SOL    HW218623   0.196   6.776  11.805
 5728SOL     OW18624   1.800   5.761  12.423
 5728SOL    HW118625   1.866   5.694  12.444
 5728SOL    HW218626   1.806   5.770  12.328
 5729SOL     OW18627   0.445   6.017  11.695
 5729SOL    HW118628   0.472   5.945  11.639
 5729SOL    HW218629   0.387   5.977  11.760
 5730SOL     OW18630   1.704   7.078  12.276
 5730SOL    HW118631   1.626   7.041  12.234
 5730SOL    HW218632   1.726   7.016  12.345
 5731SOL     OW18633   0.830   7.178  11.844
 5731SOL    HW118634   0.814   7.251  11.784
 5731SOL    HW218635   0.754   7.121  11.833
 5732SOL     OW18636   1.448   5.818  12.298
 5732SOL    HW118637   1.517   5.797  12.361
 5732SOL    HW218638   1.378   5.856  12.351
 5733SOL     OW18639   1.008   5.578  12.294
 5733SOL    HW118640   0.964   5.533  12.221
 5733SOL    HW218641   1.099   5.548  12.289
 5734SOL     OW18642   0.776   6.919  11.494
 5734SOL    HW118643   0.752   6.828  11.505
 5734SOL    HW218644   0.857   6.929  11.545
 5735SOL     OW18645   1.365   5.631  11.353
 5735SOL    HW118646   1.403   5.561  11.300
 5735SOL    HW218647   1.275   5.603  11.369
 5736SOL     OW18648   1.296   6.050  11.848
 5736SOL    HW118649   1.244   6.130  11.850
 5736SOL    HW218650   1.293   6.017  11.937
 5737SOL     OW18651   1.581   5.768  12.059
 5737SOL    HW118652   1.528   5.795  12.134
 5737SOL    HW218653   1.581   5.844  12.001
 5738SOL     OW18654   0.047   6.628  11.444
 5738SOL    HW118655   0.138   6.601  11.430
 5738SOL    HW218656   0.036   6.626  11.539
 5739SOL     OW18657   0.891   7.247  11.499
 5739SOL    HW118658   0.814   7.231  11.445
 5739SOL    HW218659   0.863   7.312  11.564
 5740SOL     OW18660   0.240   7.717   0.987
 5740SOL    HW118661   0.269   7.690   1.074
 5740SOL    HW218662   0.154   7.676   0.977
 5741SOL     OW18663   8.012   7.848   0.590
 5741SOL    HW118664   7.922   7.840   0.622
 5741SOL    HW218665   8.018   7.784   0.519
 5742SOL     OW18666   1.620   8.026   0.193
 5742SOL    HW118667   1.666   7.967   0.134
 5742SOL    HW218668   1.628   7.986   0.279
 5743SOL     OW18669   0.456   7.851   1.524
 5743SOL    HW118670   0.533   7.805   1.490
 5743SOL    HW218671   0.383   7.792   1.505
 5744SOL     OW18672   1.591   7.935   0.697
 5744SOL    HW118673   1.500   7.916   0.674
 5744SOL    HW218674   1.588   7.965   0.788
 5745SOL     OW18675   1.587   7.581   1.460
 5745SOL    HW118676   1.626   7.659   1.420
 5745SOL    HW218677   1.560   7.609   1.547
 5746SOL     OW18678   0.081   0.119   0.554
 5746SOL    HW118679   0.054   0.028   0.567
 5746SOL    HW218680   0.149   0.134   0.620
 5747SOL     OW18681   0.819   7.440   0.532
 5747SOL    HW118682   0.863   7.520   0.503
 5747SOL    HW218683   0.726   7.461   0.532
 5748SOL     OW18684   0.361   7.699   1.827
 5748SOL    HW118685   0.408   7.780   1.810
 5748SOL    HW218686   0.273   7.726   1.851
 5749SOL     OW18687   1.263   7.801   0.931
 5749SOL    HW118688   1.175   7.765   0.942
 5749SOL    HW218689   1.318   7.746   0.987
 5750SOL     OW18690   1.411   7.945   1.700
 5750SOL    HW118691   1.388   7.964   1.791
 5750SOL    HW218692   1.462   7.864   1.705
 5751SOL     OW18693   0.927   0.399   1.515
 5751SOL    HW118694   1.000   0.337   1.512
 5751SOL    HW218695   0.856   0.354   1.469
 5752SOL     OW18696   0.985   7.818   1.247
 5752SOL    HW118697   0.900   7.845   1.282
 5752SOL    HW218698   0.964   7.748   1.185
 5753SOL     OW18699   0.879   7.782   0.218
 5753SOL    HW118700   0.960   7.803   0.172
 5753SOL    HW218701   0.859   7.692   0.193
 5754SOL     OW18702   1.747   0.016   1.808
 5754SOL    HW118703   1.740   0.089   1.747
 5754SOL    HW218704   1.761  -0.061   1.752
 5755SOL     OW18705   0.557   7.629   0.904
 5755SOL    HW118706   0.559   7.647   0.998
 5755SOL    HW218707   0.553   7.715   0.863
 5756SOL     OW18708   0.201   7.704   1.502
 5756SOL    HW118709   0.187   7.769   1.570
 5756SOL    HW218710   0.172   7.621   1.540
 5757SOL     OW18711   1.411   7.544   0.455
 5757SOL    HW118712   1.403   7.510   0.366
 5757SOL    HW218713   1.505   7.540   0.473
 5758SOL     OW18714   1.516   7.675   1.730
 5758SOL    HW118715   1.523   7.697   1.822
 5758SOL    HW218716   1.456   7.600   1.728
 5759SOL     OW18717   0.633   7.569   0.114
 5759SOL    HW118718   0.722   7.534   0.118
 5759SOL    HW218719   0.624   7.601   0.024
 5760SOL     OW18720   0.767   7.717   1.749
 5760SOL    HW118721   0.850   7.670   1.746
 5760SOL    HW218722   0.725   7.687   1.829
 5761SOL     OW18723   1.335   0.009   1.436
 5761SOL    HW118724   1.372  -0.011   1.522
 5761SOL    HW218725   1.272   0.079   1.453
 5762SOL     OW18726   0.556   7.505   0.500
 5762SOL    HW118727   0.478   7.511   0.555
 5762SOL    HW218728   0.555   7.584   0.446
 5763SOL     OW18729   0.298   7.531   0.200
 5763SOL    HW118730   0.381   7.575   0.180
 5763SOL    HW218731   0.323   7.445   0.233
 5764SOL     OW18732   0.952   7.663   0.459
 5764SOL    HW118733   0.919   7.721   0.390
 5764SOL    HW218734   1.044   7.688   0.468
 5765SOL     OW18735   0.116   0.021   1.383
 5765SOL    HW118736   0.159  -0.040   1.443
 5765SOL    HW218737   0.115   0.104   1.429
 5766SOL     OW18738   0.559   7.663   1.178
 5766SOL    HW118739   0.601   7.596   1.232
 5766SOL    HW218740   0.467   7.662   1.204
 5767SOL     OW18741   1.028   7.493   0.738
 5767SOL    HW118742   0.963   7.496   0.668
 5767SOL    HW218743   0.998   7.422   0.795
 5768SOL     OW18744   1.503   7.946   0.956
 5768SOL    HW118745   1.412   7.919   0.966
 5768SOL    HW218746   1.528   7.978   1.042
 5769SOL     OW18747   0.548   7.713   0.323
 5769SOL    HW118748   0.578   7.660   0.250
 5769SOL    HW218749   0.597   7.795   0.316
 5770SOL     OW18750   0.920   7.533   1.392
 5770SOL    HW118751   0.944   7.511   1.302
 5770SOL    HW218752   0.999   7.572   1.429
 5771SOL     OW18753   1.258   7.807   1.276
 5771SOL    HW118754   1.288   7.881   1.328
 5771SOL    HW218755   1.163   7.819   1.269
 5772SOL     OW18756   0.554   7.920   0.859
 5772SOL    HW118757   0.532   7.989   0.796
 5772SOL    HW218758   0.623   7.957   0.913
 5773SOL     OW18759   1.006   7.590   1.750
 5773SOL    HW118760   1.068   7.661   1.732
 5773SOL    HW218761   1.054   7.510   1.729
 5774SOL     OW18762   0.502   7.477   1.751
 5774SOL    HW118763   0.456   7.427   1.684
 5774SOL    HW218764   0.447   7.554   1.766
 5775SOL     OW18765   0.297   7.633   1.250
 5775SOL    HW118766   0.262   7.665   1.334
 5775SOL    HW218767   0.281   7.539   1.252
 5776SOL     OW18768   0.744   0.050   1.013
 5776SOL    HW118769   0.809   0.082   0.951
 5776SOL    HW218770   0.705   0.129   1.051
 5777SOL     OW18771   0.317   7.534   0.631
 5777SOL    HW118772   0.291   7.623   0.654
 5777SOL    HW218773   0.325   7.488   0.714
 5778SOL     OW18774   1.604   7.817   0.384
 5778SOL    HW118775   1.652   7.743   0.422
 5778SOL    HW218776   1.550   7.850   0.456
 5779SOL     OW18777   1.498   7.684   0.103
 5779SOL    HW118778   1.451   7.620   0.156
 5779SOL    HW218779   1.534   7.746   0.167
 5780SOL     OW18780   0.321   7.977   1.037
 5780SOL    HW118781   0.313   7.885   1.013
 5780SOL    HW218782   0.398   8.009   0.989
 5781SOL     OW18783   1.157   7.819   1.677
 5781SOL    HW118784   1.102   7.896   1.692
 5781SOL    HW218785   1.247   7.851   1.683
 5782SOL     OW18786   1.164   7.633   1.473
 5782SOL    HW118787   1.156   7.698   1.543
 5782SOL    HW218788   1.209   7.679   1.402
 5783SOL     OW18789   0.069   0.018   1.115
 5783SOL    HW118790   0.160   0.004   1.089
 5783SOL    HW218791   0.070   0.014   1.211
 5784SOL     OW18792   0.180   7.941   1.651
 5784SOL    HW118793   0.255   7.981   1.696
 5784SOL    HW218794   0.108   8.003   1.665
 5785SOL     OW18795   0.796   0.032   0.267
 5785SOL    HW118796   0.828  -0.058   0.265
 5785SOL    HW218797   0.746   0.037   0.348
 5786SOL     OW18798   1.625   8.018   1.196
 5786SOL    HW118799   1.613   7.977   1.282
 5786SOL    HW218800   1.702   7.975   1.159
 5787SOL     OW18801   0.717   7.886   1.234
 5787SOL    HW118802   0.655   7.816   1.216
 5787SOL    HW218803   0.716   7.941   1.155
 5788SOL     OW18804   0.908   7.527   0.111
 5788SOL    HW118805   0.952   7.574   0.041
 5788SOL    HW218806   0.979   7.497   0.168
 5789SOL     OW18807   1.730   7.602   0.508
 5789SOL    HW118808   1.800   7.581   0.445
 5789SOL    HW218809   1.710   7.519   0.550
 5790SOL     OW18810   1.846   7.617   0.958
 5790SOL    HW118811   1.870   7.527   0.937
 5790SOL    HW218812   1.757   7.627   0.923
 5791SOL     OW18813   0.256   7.794   0.714
 5791SOL    HW118814   0.164   7.811   0.695
 5791SOL    HW218815   0.258   7.772   0.807
 5792SOL     OW18816   1.029   7.667   0.962
 5792SOL    HW118817   1.024   7.622   0.877
 5792SOL    HW218818   1.020   7.597   1.027
 5793SOL     OW18819   1.735   7.819   1.387
 5793SOL    HW118820   1.801   7.888   1.388
 5793SOL    HW218821   1.769   7.752   1.328
 5794SOL     OW18822   0.681   7.639   1.493
 5794SOL    HW118823   0.766   7.615   1.457
 5794SOL    HW218824   0.701   7.670   1.582
 5795SOL     OW18825   0.104   7.784   0.031
 5795SOL    HW118826   0.067   7.761  -0.054
 5795SOL    HW218827   0.109   7.879   0.031
 5796SOL     OW18828   0.102   7.667   0.352
 5796SOL    HW118829   0.109   7.745   0.297
 5796SOL    HW218830   0.173   7.610   0.322
 5797SOL     OW18831   0.780   7.995   1.721
 5797SOL    HW118832   0.687   8.015   1.717
 5797SOL    HW218833   0.784   7.900   1.724
 5798SOL     OW18834   1.221   7.742   0.450
 5798SOL    HW118835   1.287   7.672   0.456
 5798SOL    HW218836   1.247   7.805   0.518
 5799SOL     OW18837   0.639   0.247   0.702
 5799SOL    HW118838   0.647   0.330   0.656
 5799SOL    HW218839   0.571   0.199   0.654
 5800SOL     OW18840   1.759   7.786   1.659
 5800SOL    HW118841   1.748   7.803   1.566
 5800SOL    HW218842   1.681   7.739   1.685
 5801SOL     OW18843   1.816   7.618   1.230
 5801SOL    HW118844   1.816   7.523   1.238
 5801SOL    HW218845   1.828   7.634   1.136
 5802SOL     OW18846   0.357   7.863   0.457
 5802SOL    HW118847   0.412   7.793   0.423
 5802SOL    HW218848   0.327   7.830   0.542
 5803SOL     OW18849   1.424   7.668   1.113
 5803SOL    HW118850   1.443   7.585   1.156
 5803SOL    HW218851   1.373   7.717   1.177
 5804SOL     OW18852   1.006   7.455   1.139
 5804SOL    HW118853   0.949   7.389   1.099
 5804SOL    HW218854   1.093   7.416   1.136
 5805SOL     OW18855   1.355   7.470   0.197
 5805SOL    HW118856   1.366   7.440   0.107
 5805SOL    HW218857   1.262   7.455   0.216
 5806SOL     OW18858   1.319   7.892   0.673
 5806SOL    HW118859   1.276   7.977   0.670
 5806SOL    HW218860   1.297   7.857   0.760
 5807SOL     OW18861   1.583   7.650   0.889
 5807SOL    HW118862   1.532   7.664   0.969
 5807SOL    HW218863   1.570   7.729   0.838
 5808SOL     OW18864   0.240   7.716   2.852
 5808SOL    HW118865   0.269   7.689   2.939
 5808SOL    HW218866   0.153   7.678   2.842
 5809SOL     OW18867   8.007   7.835   2.451
 5809SOL    HW118868   7.925   7.798   2.484
 5809SOL    HW218869   8.029   7.780   2.376
 5810SOL     OW18870   1.632   0.025   2.056
 5810SOL    HW118871   1.687   0.015   1.978
 5810SOL    HW218872   1.672  -0.033   2.121
 5811SOL     OW18873   0.454   7.853   3.387
 5811SOL    HW118874   0.532   7.810   3.352
 5811SOL    HW218875   0.383   7.791   3.368
 5812SOL     OW18876   1.596   7.914   2.564
 5812SOL    HW118877   1.504   7.904   2.537
 5812SOL    HW218878   1.591   7.957   2.649
 5813SOL     OW18879   1.586   7.581   3.321
 5813SOL    HW118880   1.626   7.659   3.281
 5813SOL    HW218881   1.560   7.610   3.408
 5814SOL     OW18882   0.089   0.103   2.428
 5814SOL    HW118883   0.056   0.013   2.432
 5814SOL    HW218884   0.182   0.096   2.449
 5815SOL     OW18885   0.821   7.431   2.381
 5815SOL    HW118886   0.864   7.512   2.353
 5815SOL    HW218887   0.728   7.454   2.385
 5816SOL     OW18888   0.360   7.699   3.689
 5816SOL    HW118889   0.408   7.781   3.675
 5816SOL    HW218890   0.272   7.727   3.714
 5817SOL     OW18891   1.258   7.803   2.797
 5817SOL    HW118892   1.171   7.765   2.807
 5817SOL    HW218893   1.315   7.747   2.850
 5818SOL     OW18894   1.412   7.946   3.564
 5818SOL    HW118895   1.389   7.965   3.655
 5818SOL    HW218896   1.465   7.866   3.569
 5819SOL     OW18897   0.928   0.409   3.371
 5819SOL    HW118898   1.003   0.369   3.416
 5819SOL    HW218899   0.889   0.338   3.321
 5820SOL     OW18900   0.978   7.825   3.104
 5820SOL    HW118901   0.893   7.845   3.141
 5820SOL    HW218902   0.962   7.751   3.045
 5821SOL     OW18903   0.895   7.789   2.051
 5821SOL    HW118904   0.948   7.803   1.972
 5821SOL    HW218905   0.922   7.703   2.083
 5822SOL     OW18906   1.742   0.018   3.665
 5822SOL    HW118907   1.760   0.090   3.604
 5822SOL    HW218908   1.755  -0.061   3.613
 5823SOL     OW18909   0.554   7.628   2.764
 5823SOL    HW118910   0.558   7.647   2.857
 5823SOL    HW218911   0.549   7.714   2.722
 5824SOL     OW18912   0.198   7.703   3.363
 5824SOL    HW118913   0.184   7.767   3.432
 5824SOL    HW218914   0.170   7.620   3.401
 5825SOL     OW18915   1.400   7.546   2.306
 5825SOL    HW118916   1.395   7.523   2.214
 5825SOL    HW218917   1.494   7.543   2.327
 5826SOL     OW18918   1.517   7.674   3.592
 5826SOL    HW118919   1.523   7.697   3.685
 5826SOL    HW218920   1.459   7.598   3.590
 5827SOL     OW18921   0.650   7.562   1.962
 5827SOL    HW118922   0.705   7.487   1.988
 5827SOL    HW218923   0.597   7.529   1.890
 5828SOL     OW18924   0.767   7.719   3.611
 5828SOL    HW118925   0.850   7.671   3.608
 5828SOL    HW218926   0.725   7.690   3.692
 5829SOL     OW18927   1.336   0.002   3.299
 5829SOL    HW118928   1.375  -0.014   3.385
 5829SOL    HW218929   1.274   0.074   3.314
 5830SOL     OW18930   0.558   7.503   2.360
 5830SOL    HW118931   0.478   7.509   2.413
 5830SOL    HW218932   0.556   7.580   2.304
 5831SOL     OW18933   0.277   7.497   2.033
 5831SOL    HW118934   0.333   7.563   1.992
 5831SOL    HW218935   0.337   7.441   2.082
 5832SOL     OW18936   0.946   7.665   2.316
 5832SOL    HW118937   0.907   7.751   2.301
 5832SOL    HW218938   1.040   7.683   2.327
 5833SOL     OW18939   0.119   0.018   3.241
 5833SOL    HW118940   0.158  -0.046   3.301
 5833SOL    HW218941   0.115   0.099   3.292
 5834SOL     OW18942   0.560   7.665   3.038
 5834SOL    HW118943   0.603   7.598   3.090
 5834SOL    HW218944   0.468   7.662   3.065
 5835SOL     OW18945   1.026   7.495   2.602
 5835SOL    HW118946   0.965   7.495   2.528
 5835SOL    HW218947   0.997   7.422   2.657
 5836SOL     OW18948   1.494   7.954   2.816
 5836SOL    HW118949   1.406   7.919   2.831
 5836SOL    HW218950   1.526   7.977   2.904
 5837SOL     OW18951   0.550   7.706   2.178
 5837SOL    HW118952   0.583   7.661   2.100
 5837SOL    HW218953   0.589   7.793   2.173
 5838SOL     OW18954   0.919   7.535   3.252
 5838SOL    HW118955   0.945   7.510   3.164
 5838SOL    HW218956   0.999   7.572   3.291
 5839SOL     OW18957   1.255   7.805   3.137
 5839SOL    HW118958   1.287   7.878   3.190
 5839SOL    HW218959   1.161   7.821   3.129
 5840SOL     OW18960   0.552   7.934   2.715
 5840SOL    HW118961   0.559   8.006   2.652
 5840SOL    HW218962   0.620   7.953   2.780
 5841SOL     OW18963   1.005   7.590   3.611
 5841SOL    HW118964   1.068   7.660   3.594
 5841SOL    HW218965   1.052   7.510   3.589
 5842SOL     OW18966   0.503   7.478   3.613
 5842SOL    HW118967   0.457   7.427   3.547
 5842SOL    HW218968   0.447   7.555   3.627
 5843SOL     OW18969   0.297   7.634   3.113
 5843SOL    HW118970   0.262   7.665   3.196
 5843SOL    HW218971   0.283   7.539   3.115
 5844SOL     OW18972   0.748   0.042   2.875
 5844SOL    HW118973   0.820   0.058   2.814
 5844SOL    HW218974   0.716   0.130   2.896
 5845SOL     OW18975   0.308   7.522   2.480
 5845SOL    HW118976   0.284   7.611   2.506
 5845SOL    HW218977   0.319   7.475   2.562
 5846SOL     OW18978   1.612   7.806   2.243
 5846SOL    HW118979   1.657   7.734   2.288
 5846SOL    HW218980   1.583   7.864   2.313
 5847SOL     OW18981   1.504   7.733   1.995
 5847SOL    HW118982   1.450   7.657   2.018
 5847SOL    HW218983   1.545   7.759   2.077
 5848SOL     OW18984   1.216   0.250   1.950
 5848SOL    HW118985   1.291   0.191   1.952
 5848SOL    HW218986   1.222   0.293   1.864
 5849SOL     OW18987   0.322   7.976   2.892
 5849SOL    HW118988   0.308   7.883   2.874
 5849SOL    HW218989   0.402   7.997   2.844
 5850SOL     OW18990   1.158   7.818   3.539
 5850SOL    HW118991   1.104   7.896   3.553
 5850SOL    HW218992   1.248   7.850   3.545
 5851SOL     OW18993   1.163   7.634   3.335
 5851SOL    HW118994   1.157   7.698   3.405
 5851SOL    HW218995   1.209   7.679   3.264
 5852SOL     OW18996   0.069   0.015   2.974
 5852SOL    HW118997   0.160   0.002   2.947
 5852SOL    HW218998   0.072   0.010   3.069
 5853SOL     OW18999   0.175   7.939   3.513
 5853SOL    HW119000   0.251   7.979   3.554
 5853SOL    HW219001   0.104   8.001   3.528
 5854SOL     OW19002   0.792   0.036   2.105
 5854SOL    HW119003   0.834  -0.049   2.094
 5854SOL    HW219004   0.749   0.031   2.190
 5855SOL     OW19005   1.617   8.013   3.054
 5855SOL    HW119006   1.610   7.975   3.142
 5855SOL    HW219007   1.700   7.979   3.021
 5856SOL     OW19008   0.708   7.892   3.102
 5856SOL    HW119009   0.650   7.820   3.080
 5856SOL    HW219010   0.716   7.942   3.021
 5857SOL     OW19011   1.739   7.600   2.372
 5857SOL    HW119012   1.807   7.582   2.308
 5857SOL    HW219013   1.716   7.514   2.407
 5858SOL     OW19014   1.845   7.616   2.822
 5858SOL    HW119015   1.870   7.526   2.800
 5858SOL    HW219016   1.757   7.627   2.784
 5859SOL     OW19017   0.254   7.774   2.575
 5859SOL    HW119018   0.163   7.800   2.558
 5859SOL    HW219019   0.257   7.759   2.670
 5860SOL     OW19020   1.025   7.665   2.827
 5860SOL    HW119021   1.023   7.621   2.742
 5860SOL    HW219022   1.019   7.595   2.891
 5861SOL     OW19023   1.735   7.820   3.251
 5861SOL    HW119024   1.800   7.890   3.251
 5861SOL    HW219025   1.770   7.755   3.191
 5862SOL     OW19026   0.681   7.640   3.355
 5862SOL    HW119027   0.766   7.615   3.319
 5862SOL    HW219028   0.701   7.670   3.444
 5863SOL     OW19029   0.114   7.790   1.886
 5863SOL    HW119030   0.035   7.738   1.902
 5863SOL    HW219031   0.088   7.854   1.821
 5864SOL     OW19032   0.078   7.671   2.239
 5864SOL    HW119033   0.044   7.667   2.150
 5864SOL    HW219034   0.170   7.646   2.231
 5865SOL     OW19035   0.780   7.998   3.585
 5865SOL    HW119036   0.686   8.016   3.580
 5865SOL    HW219037   0.786   7.903   3.586
 5866SOL     OW19038   1.208   7.743   2.337
 5866SOL    HW119039   1.276   7.676   2.324
 5866SOL    HW219040   1.246   7.802   2.402
 5867SOL     OW19041   0.636   0.230   2.519
 5867SOL    HW119042   0.634   0.324   2.502
 5867SOL    HW219043   0.546   0.201   2.506
 5868SOL     OW19044   1.761   7.786   3.522
 5868SOL    HW119045   1.749   7.803   3.429
 5868SOL    HW219046   1.682   7.737   3.548
 5869SOL     OW19047   1.816   7.619   3.093
 5869SOL    HW119048   1.816   7.524   3.102
 5869SOL    HW219049   1.826   7.634   2.999
 5870SOL     OW19050   0.360   7.855   2.325
 5870SOL    HW119051   0.414   7.782   2.295
 5870SOL    HW219052   0.333   7.830   2.414
 5871SOL     OW19053   1.425   7.671   2.972
 5871SOL    HW119054   1.447   7.588   3.014
 5871SOL    HW219055   1.373   7.718   3.038
 5872SOL     OW19056   1.006   7.452   3.002
 5872SOL    HW119057   0.950   7.386   2.962
 5872SOL    HW219058   1.094   7.414   2.999
 5873SOL     OW19059   1.367   7.495   2.034
 5873SOL    HW119060   1.406   7.418   1.992
 5873SOL    HW219061   1.276   7.469   2.050
 5874SOL     OW19062   1.319   7.896   2.542
 5874SOL    HW119063   1.286   7.986   2.544
 5874SOL    HW219064   1.299   7.861   2.629
 5875SOL     OW19065   1.584   7.650   2.747
 5875SOL    HW119066   1.531   7.670   2.824
 5875SOL    HW219067   1.575   7.728   2.692
 5876SOL     OW19068   0.239   7.717   4.713
 5876SOL    HW119069   0.269   7.689   4.800
 5876SOL    HW219070   0.152   7.678   4.705
 5877SOL     OW19071   8.011   7.845   4.311
 5877SOL    HW119072   7.921   7.825   4.337
 5877SOL    HW219073   8.028   7.786   4.238
 5878SOL     OW19074   1.633   0.027   3.916
 5878SOL    HW119075   1.683   0.018   3.834
 5878SOL    HW219076   1.683  -0.023   3.980
 5879SOL     OW19077   0.461   7.847   5.233
 5879SOL    HW119078   0.544   7.810   5.205
 5879SOL    HW219079   0.395   7.783   5.206
 5880SOL     OW19080   1.596   7.912   4.427
 5880SOL    HW119081   1.505   7.903   4.399
 5880SOL    HW219082   1.591   7.957   4.511
 5881SOL     OW19083   1.585   7.581   5.183
 5881SOL    HW119084   1.628   7.655   5.141
 5881SOL    HW219085   1.560   7.614   5.269
 5882SOL     OW19086   0.086   0.115   4.272
 5882SOL    HW119087   0.052   0.026   4.279
 5882SOL    HW219088   0.130   0.131   4.355
 5883SOL     OW19089   0.820   7.433   4.244
 5883SOL    HW119090   0.864   7.513   4.215
 5883SOL    HW219091   0.728   7.456   4.247
 5884SOL     OW19092   0.314   7.715   5.530
 5884SOL    HW119093   0.393   7.768   5.529
 5884SOL    HW219094   0.244   7.775   5.504
 5885SOL     OW19095   1.257   7.804   4.660
 5885SOL    HW119096   1.170   7.766   4.670
 5885SOL    HW219097   1.314   7.747   4.711
 5886SOL     OW19098   1.404   7.948   5.430
 5886SOL    HW119099   1.390   7.965   5.523
 5886SOL    HW219100   1.457   7.868   5.428
 5887SOL     OW19101   0.909   0.405   5.245
 5887SOL    HW119102   0.993   0.364   5.261
 5887SOL    HW219103   0.856   0.338   5.203
 5888SOL     OW19104   0.980   7.821   4.965
 5888SOL    HW119105   0.894   7.844   4.999
 5888SOL    HW219106   0.962   7.753   4.900
 5889SOL     OW19107   0.896   7.790   3.911
 5889SOL    HW119108   0.952   7.800   3.834
 5889SOL    HW219109   0.921   7.706   3.949
 5890SOL     OW19110   1.736   0.021   5.523
 5890SOL    HW119111   1.760   0.090   5.461
 5890SOL    HW219112   1.752  -0.060   5.475
 5891SOL     OW19113   0.555   7.630   4.625
 5891SOL    HW119114   0.559   7.647   4.719
 5891SOL    HW219115   0.550   7.716   4.584
 5892SOL     OW19116   0.192   7.701   5.214
 5892SOL    HW119117   0.186   7.770   5.280
 5892SOL    HW219118   0.164   7.622   5.259
 5893SOL     OW19119   1.399   7.545   4.168
 5893SOL    HW119120   1.395   7.522   4.075
 5893SOL    HW219121   1.493   7.544   4.188
 5894SOL     OW19122   1.517   7.676   5.454
 5894SOL    HW119123   1.521   7.699   5.547
 5894SOL    HW219124   1.462   7.598   5.451
 5895SOL     OW19125   0.647   7.564   3.826
 5895SOL    HW119126   0.704   7.491   3.851
 5895SOL    HW219127   0.596   7.531   3.752
 5896SOL     OW19128   0.769   7.713   5.478
 5896SOL    HW119129   0.852   7.667   5.476
 5896SOL    HW219130   0.728   7.685   5.560
 5897SOL     OW19131   1.330   0.002   5.159
 5897SOL    HW119132   1.378  -0.012   5.241
 5897SOL    HW219133   1.273   0.077   5.177
 5898SOL     OW19134   0.557   7.506   4.220
 5898SOL    HW119135   0.478   7.510   4.273
 5898SOL    HW219136   0.554   7.584   4.165
 5899SOL     OW19137   0.277   7.498   3.896
 5899SOL    HW119138   0.334   7.562   3.855
 5899SOL    HW219139   0.336   7.441   3.945
 5900SOL     OW19140   0.946   7.667   4.177
 5900SOL    HW119141   0.907   7.754   4.169
 5900SOL    HW219142   1.039   7.683   4.187
 5901SOL     OW19143   0.120   0.016   5.110
 5901SOL    HW119144   0.166  -0.043   5.170
 5901SOL    HW219145   0.108   0.096   5.160
 5902SOL     OW19146   0.562   7.663   4.899
 5902SOL    HW119147   0.603   7.593   4.949
 5902SOL    HW219148   0.470   7.660   4.925
 5903SOL     OW19149   1.024   7.498   4.466
 5903SOL    HW119150   0.964   7.496   4.391
 5903SOL    HW219151   0.997   7.423   4.520
 5904SOL     OW19152   1.492   7.957   4.678
 5904SOL    HW119153   1.405   7.921   4.694
 5904SOL    HW219154   1.525   7.978   4.765
 5905SOL     OW19155   0.543   7.712   4.039
 5905SOL    HW119156   0.578   7.665   3.963
 5905SOL    HW219157   0.588   7.796   4.037
 5906SOL     OW19158   0.921   7.533   5.116
 5906SOL    HW119159   0.945   7.509   5.026
 5906SOL    HW219160   1.000   7.572   5.153
 5907SOL     OW19161   1.254   7.800   5.001
 5907SOL    HW119162   1.285   7.875   5.051
 5907SOL    HW219163   1.160   7.816   4.990
 5908SOL     OW19164   0.547   7.924   4.583
 5908SOL    HW119165   0.522   7.992   4.521
 5908SOL    HW219166   0.620   7.962   4.632
 5909SOL     OW19167   1.007   7.587   5.480
 5909SOL    HW119168   1.068   7.658   5.458
 5909SOL    HW219169   1.052   7.507   5.453
 5910SOL     OW19170   0.487   7.490   5.479
 5910SOL    HW119171   0.451   7.433   5.411
 5910SOL    HW219172   0.427   7.565   5.480
 5911SOL     OW19173   0.300   7.631   4.972
 5911SOL    HW119174   0.259   7.665   5.051
 5911SOL    HW219175   0.282   7.537   4.973
 5912SOL     OW19176   0.749   0.045   4.731
 5912SOL    HW119177   0.820   0.058   4.668
 5912SOL    HW219178   0.712   0.133   4.744
 5913SOL     OW19179   0.308   7.521   4.341
 5913SOL    HW119180   0.280   7.608   4.368
 5913SOL    HW219181   0.321   7.473   4.423
 5914SOL     OW19182   1.609   7.802   4.106
 5914SOL    HW119183   1.656   7.732   4.151
 5914SOL    HW219184   1.584   7.863   4.175
 5915SOL     OW19185   1.503   7.733   3.857
 5915SOL    HW119186   1.450   7.657   3.879
 5915SOL    HW219187   1.545   7.759   3.939
 5916SOL     OW19188   1.210   0.245   3.796
 5916SOL    HW119189   1.286   0.191   3.818
 5916SOL    HW219190   1.239   0.298   3.722
 5917SOL     OW19191   0.323   7.975   4.760
 5917SOL    HW119192   0.307   7.883   4.739
 5917SOL    HW219193   0.401   7.998   4.709
 5918SOL     OW19194   1.144   7.829   5.410
 5918SOL    HW119195   1.086   7.901   5.433
 5918SOL    HW219196   1.232   7.867   5.413
 5919SOL     OW19197   1.161   7.637   5.205
 5919SOL    HW119198   1.153   7.706   5.271
 5919SOL    HW219199   1.207   7.679   5.132
 5920SOL     OW19200   0.071   0.016   4.842
 5920SOL    HW119201   0.162   0.003   4.815
 5920SOL    HW219202   0.074   0.011   4.938
 5921SOL     OW19203   0.189   7.922   5.379
 5921SOL    HW119204   0.270   7.961   5.412
 5921SOL    HW219205   0.121   7.986   5.400
 5922SOL     OW19206   0.799   0.041   3.962
 5922SOL    HW119207   0.839  -0.046   3.951
 5922SOL    HW219208   0.749   0.034   4.044
 5923SOL     OW19209   1.617   8.011   4.915
 5923SOL    HW119210   1.611   7.978   5.005
 5923SOL    HW219211   1.700   7.978   4.883
 5924SOL     OW19212   0.713   7.891   4.957
 5924SOL    HW119213   0.652   7.819   4.936
 5924SOL    HW219214   0.716   7.943   4.876
 5925SOL     OW19215   1.740   7.600   4.235
 5925SOL    HW119216   1.808   7.582   4.170
 5925SOL    HW219217   1.717   7.514   4.269
 5926SOL     OW19218   1.845   7.616   4.685
 5926SOL    HW119219   1.870   7.527   4.663
 5926SOL    HW219220   1.758   7.627   4.646
 5927SOL     OW19221   0.249   7.769   4.437
 5927SOL    HW119222   0.159   7.799   4.421
 5927SOL    HW219223   0.254   7.759   4.532
 5928SOL     OW19224   1.024   7.666   4.692
 5928SOL    HW119225   1.021   7.624   4.606
 5928SOL    HW219226   1.019   7.594   4.755
 5929SOL     OW19227   1.738   7.820   5.116
 5929SOL    HW119228   1.803   7.890   5.114
 5929SOL    HW219229   1.771   7.755   5.054
 5930SOL     OW19230   0.683   7.634   5.222
 5930SOL    HW119231   0.768   7.611   5.184
 5930SOL    HW219232   0.704   7.667   5.309
 5931SOL     OW19233   0.113   7.793   3.750
 5931SOL    HW119234   0.035   7.740   3.765
 5931SOL    HW219235   0.090   7.850   3.677
 5932SOL     OW19236   0.080   7.674   4.100
 5932SOL    HW119237   0.044   7.672   4.011
 5932SOL    HW219238   0.169   7.639   4.091
 5933SOL     OW19239   0.730   7.979   5.408
 5933SOL    HW119240   0.805   8.022   5.450
 5933SOL    HW219241   0.746   7.886   5.421
 5934SOL     OW19242   1.208   7.742   4.200
 5934SOL    HW119243   1.275   7.676   4.185
 5934SOL    HW219244   1.246   7.802   4.264
 5935SOL     OW19245   0.653   0.238   4.366
 5935SOL    HW119246   0.629   0.331   4.369
 5935SOL    HW219247   0.572   0.192   4.390
 5936SOL     OW19248   1.762   7.785   5.386
 5936SOL    HW119249   1.751   7.802   5.293
 5936SOL    HW219250   1.683   7.737   5.411
 5937SOL     OW19251   1.813   7.617   4.956
 5937SOL    HW119252   1.815   7.522   4.964
 5937SOL    HW219253   1.824   7.634   4.863
 5938SOL     OW19254   0.374   7.863   4.213
 5938SOL    HW119255   0.416   7.791   4.165
 5938SOL    HW219256   0.336   7.821   4.290
 5939SOL     OW19257   1.425   7.671   4.832
 5939SOL    HW119258   1.447   7.586   4.870
 5939SOL    HW219259   1.374   7.715   4.900
 5940SOL     OW19260   1.005   7.450   4.864
 5940SOL    HW119261   0.951   7.385   4.820
 5940SOL    HW219262   1.094   7.413   4.862
 5941SOL     OW19263   1.368   7.494   3.896
 5941SOL    HW119264   1.408   7.417   3.855
 5941SOL    HW219265   1.277   7.468   3.911
 5942SOL     OW19266   1.319   7.896   4.404
 5942SOL    HW119267   1.287   7.986   4.406
 5942SOL    HW219268   1.299   7.861   4.491
 5943SOL     OW19269   1.585   7.651   4.607
 5943SOL    HW119270   1.532   7.672   4.684
 5943SOL    HW219271   1.577   7.729   4.551
 5944SOL     OW19272   0.243   7.717   6.580
 5944SOL    HW119273   0.273   7.688   6.666
 5944SOL    HW219274   0.152   7.687   6.574
 5945SOL     OW19275   8.009   7.821   6.185
 5945SOL    HW119276   7.926   7.842   6.229
 5945SOL    HW219277   8.003   7.726   6.168
 5946SOL     OW19278   1.645   0.031   5.779
 5946SOL    HW119279   1.685   0.022   5.692
 5946SOL    HW219280   1.705  -0.016   5.837
 5947SOL     OW19281   0.440   7.872   7.101
 5947SOL    HW119282   0.520   7.837   7.061
 5947SOL    HW219283   0.376   7.801   7.092
 5948SOL     OW19284   1.597   7.904   6.295
 5948SOL    HW119285   1.507   7.898   6.262
 5948SOL    HW219286   1.589   7.950   6.378
 5949SOL     OW19287   1.584   7.579   7.046
 5949SOL    HW119288   1.631   7.649   7.000
 5949SOL    HW219289   1.561   7.618   7.130
 5950SOL     OW19290   0.111   0.076   6.137
 5950SOL    HW119291   0.076  -0.013   6.139
 5950SOL    HW219292   0.075   0.118   6.216
 5951SOL     OW19293   0.818   7.430   6.108
 5951SOL    HW119294   0.865   7.509   6.080
 5951SOL    HW219295   0.726   7.456   6.109
 5952SOL     OW19296   0.354   7.698   7.413
 5952SOL    HW119297   0.390   7.784   7.389
 5952SOL    HW219298   0.264   7.717   7.441
 5953SOL     OW19299   1.254   7.807   6.524
 5953SOL    HW119300   1.167   7.768   6.536
 5953SOL    HW219301   1.313   7.751   6.573
 5954SOL     OW19302   1.410   7.948   7.287
 5954SOL    HW119303   1.395   7.967   7.379
 5954SOL    HW219304   1.465   7.870   7.287
 5955SOL     OW19305   0.916   0.382   7.126
 5955SOL    HW119306   0.996   0.333   7.105
 5955SOL    HW219307   0.852   0.350   7.062
 5956SOL     OW19308   0.983   7.817   6.825
 5956SOL    HW119309   0.896   7.842   6.857
 5956SOL    HW219310   0.965   7.760   6.750
 5957SOL     OW19311   0.903   7.782   5.775
 5957SOL    HW119312   0.946   7.806   5.694
 5957SOL    HW219313   0.937   7.695   5.797
 5958SOL     OW19314   1.732   0.023   7.388
 5958SOL    HW119315   1.739   0.090   7.321
 5958SOL    HW219316   1.752  -0.059   7.342
 5959SOL     OW19317   0.554   7.627   6.480
 5959SOL    HW119318   0.557   7.650   6.572
 5959SOL    HW219319   0.549   7.712   6.434
 5960SOL     OW19320   0.197   7.719   7.079
 5960SOL    HW119321   0.163   7.809   7.079
 5960SOL    HW219322   0.167   7.682   7.162
 5961SOL     OW19323   1.398   7.543   6.030
 5961SOL    HW119324   1.394   7.521   5.937
 5961SOL    HW219325   1.492   7.548   6.048
 5962SOL     OW19326   1.518   7.677   7.317
 5962SOL    HW119327   1.518   7.701   7.409
 5962SOL    HW219328   1.465   7.598   7.312
 5963SOL     OW19329   0.641   7.562   5.689
 5963SOL    HW119330   0.701   7.491   5.710
 5963SOL    HW219331   0.591   7.530   5.614
 5964SOL     OW19332   0.763   7.716   7.337
 5964SOL    HW119333   0.847   7.670   7.336
 5964SOL    HW219334   0.721   7.686   7.418
 5965SOL     OW19335   1.328   0.006   7.020
 5965SOL    HW119336   1.374  -0.009   7.103
 5965SOL    HW219337   1.267   0.078   7.039
 5966SOL     OW19338   0.558   7.508   6.080
 5966SOL    HW119339   0.478   7.515   6.133
 5966SOL    HW219340   0.559   7.589   6.029
 5967SOL     OW19341   0.325   7.499   5.756
 5967SOL    HW119342   0.393   7.565   5.742
 5967SOL    HW219343   0.366   7.434   5.813
 5968SOL     OW19344   0.947   7.661   6.045
 5968SOL    HW119345   0.908   7.743   6.013
 5968SOL    HW219346   1.040   7.682   6.056
 5969SOL     OW19347   0.134  -0.008   6.986
 5969SOL    HW119348   0.227  -0.005   7.008
 5969SOL    HW219349   0.097   0.069   7.030
 5970SOL     OW19350   0.563   7.670   6.750
 5970SOL    HW119351   0.610   7.602   6.797
 5970SOL    HW219352   0.474   7.666   6.784
 5971SOL     OW19353   1.021   7.504   6.334
 5971SOL    HW119354   0.965   7.505   6.257
 5971SOL    HW219355   0.994   7.426   6.382
 5972SOL     OW19356   1.493   7.958   6.542
 5972SOL    HW119357   1.405   7.926   6.561
 5972SOL    HW219358   1.527   7.983   6.628
 5973SOL     OW19359   0.557   7.721   5.907
 5973SOL    HW119360   0.597   7.680   5.830
 5973SOL    HW219361   0.590   7.811   5.906
 5974SOL     OW19362   0.915   7.530   6.974
 5974SOL    HW119363   0.941   7.508   6.885
 5974SOL    HW219364   0.993   7.572   7.012
 5975SOL     OW19365   1.255   7.798   6.866
 5975SOL    HW119366   1.286   7.874   6.915
 5975SOL    HW219367   1.161   7.813   6.854
 5976SOL     OW19368   0.545   7.920   6.446
 5976SOL    HW119369   0.517   7.983   6.381
 5976SOL    HW219370   0.620   7.962   6.489
 5977SOL     OW19371   1.003   7.591   7.342
 5977SOL    HW119372   1.065   7.661   7.322
 5977SOL    HW219373   1.048   7.511   7.314
 5978SOL     OW19374   0.501   7.483   7.329
 5978SOL    HW119375   0.468   7.456   7.243
 5978SOL    HW219376   0.445   7.557   7.355
 5979SOL     OW19377   0.312   7.633   6.845
 5979SOL    HW119378   0.267   7.666   6.923
 5979SOL    HW219379   0.281   7.543   6.834
 5980SOL     OW19380   0.750   0.050   6.589
 5980SOL    HW119381   0.820   0.057   6.525
 5980SOL    HW219382   0.696   0.128   6.575
 5981SOL     OW19383   0.313   7.519   6.204
 5981SOL    HW119384   0.281   7.607   6.225
 5981SOL    HW219385   0.325   7.477   6.289
 5982SOL     OW19386   1.604   7.796   5.967
 5982SOL    HW119387   1.654   7.730   6.015
 5982SOL    HW219388   1.587   7.865   6.031
 5983SOL     OW19389   1.498   7.734   5.720
 5983SOL    HW119390   1.448   7.655   5.741
 5983SOL    HW219391   1.543   7.756   5.802
 5984SOL     OW19392   1.212   0.225   5.629
 5984SOL    HW119393   1.286   0.180   5.670
 5984SOL    HW219394   1.245   0.313   5.610
 5985SOL     OW19395   0.325   7.973   6.628
 5985SOL    HW119396   0.307   7.882   6.605
 5985SOL    HW219397   0.401   7.996   6.575
 5986SOL     OW19398   1.156   7.819   7.270
 5986SOL    HW119399   1.103   7.897   7.288
 5986SOL    HW219400   1.246   7.852   7.269
 5987SOL     OW19401   1.156   7.633   7.065
 5987SOL    HW119402   1.151   7.701   7.132
 5987SOL    HW219403   1.203   7.675   6.992
 5988SOL     OW19404   0.075   0.025   6.711
 5988SOL    HW119405   0.162   0.001   6.679
 5988SOL    HW219406   0.074  -0.006   6.802
 5989SOL     OW19407   0.178   7.946   7.282
 5989SOL    HW119408   0.254   8.005   7.287
 5989SOL    HW219409   0.103   8.004   7.272
 5990SOL     OW19410   0.784   8.023   5.826
 5990SOL    HW119411   0.831   7.941   5.817
 5990SOL    HW219412   0.761   8.028   5.919
 5991SOL     OW19413   1.625   8.014   6.781
 5991SOL    HW119414   1.616   7.970   6.865
 5991SOL    HW219415   1.704   7.976   6.743
 5992SOL     OW19416   0.715   7.892   6.816
 5992SOL    HW119417   0.654   7.823   6.789
 5992SOL    HW219418   0.719   7.951   6.740
 5993SOL     OW19419   1.742   7.600   6.097
 5993SOL    HW119420   1.808   7.583   6.030
 5993SOL    HW219421   1.718   7.514   6.130
 5994SOL     OW19422   1.846   7.617   6.549
 5994SOL    HW119423   1.873   7.528   6.527
 5994SOL    HW219424   1.760   7.627   6.509
 5995SOL     OW19425   0.259   7.774   6.298
 5995SOL    HW119426   0.168   7.800   6.281
 5995SOL    HW219427   0.263   7.763   6.393
 5996SOL     OW19428   1.020   7.668   6.563
 5996SOL    HW119429   1.018   7.629   6.476
 5996SOL    HW219430   1.018   7.594   6.623
 5997SOL     OW19431   1.741   7.819   6.980
 5997SOL    HW119432   1.806   7.890   6.976
 5997SOL    HW219433   1.772   7.754   6.917
 5998SOL     OW19434   0.676   7.642   7.081
 5998SOL    HW119435   0.761   7.623   7.041
 5998SOL    HW219436   0.697   7.673   7.169
 5999SOL     OW19437   0.035   7.795   5.610
 5999SOL    HW119438  -0.058   7.785   5.589
 5999SOL    HW219439   0.045   7.888   5.631
 6000SOL     OW19440   0.086   7.635   5.865
 6000SOL    HW119441   0.071   7.727   5.887
 6000SOL    HW219442   0.165   7.611   5.914
 6001SOL     OW19443   0.783   7.992   7.295
 6001SOL    HW119444   0.691   8.018   7.293
 6001SOL    HW219445   0.781   7.897   7.300
 6002SOL     OW19446   1.207   7.741   6.065
 6002SOL    HW119447   1.275   7.675   6.048
 6002SOL    HW219448   1.247   7.801   6.128
 6003SOL     OW19449   0.646   0.221   6.219
 6003SOL    HW119450   0.638   0.317   6.217
 6003SOL    HW219451   0.564   0.191   6.258
 6004SOL     OW19452   1.762   7.787   7.250
 6004SOL    HW119453   1.752   7.806   7.157
 6004SOL    HW219454   1.682   7.739   7.273
 6005SOL     OW19455   1.809   7.613   6.821
 6005SOL    HW119456   1.813   7.517   6.824
 6005SOL    HW219457   1.823   7.635   6.729
 6006SOL     OW19458   0.318   7.820   6.027
 6006SOL    HW119459   0.406   7.790   6.004
 6006SOL    HW219460   0.311   7.806   6.121
 6007SOL     OW19461   1.423   7.672   6.692
 6007SOL    HW119462   1.448   7.586   6.726
 6007SOL    HW219463   1.374   7.713   6.763
 6008SOL     OW19464   1.004   7.445   6.723
 6008SOL    HW119465   0.956   7.382   6.669
 6008SOL    HW219466   1.093   7.411   6.726
 6009SOL     OW19467   1.367   7.492   5.758
 6009SOL    HW119468   1.408   7.416   5.716
 6009SOL    HW219469   1.276   7.466   5.773
 6010SOL     OW19470   1.319   7.896   6.267
 6010SOL    HW119471   1.293   7.988   6.269
 6010SOL    HW219472   1.298   7.864   6.355
 6011SOL     OW19473   1.587   7.652   6.467
 6011SOL    HW119474   1.533   7.675   6.542
 6011SOL    HW219475   1.582   7.727   6.409
 6012SOL     OW19476   0.242   7.717   8.436
 6012SOL    HW119477   0.268   7.687   8.523
 6012SOL    HW219478   0.158   7.674   8.420
 6013SOL     OW19479   8.013   7.825   8.046
 6013SOL    HW119480   7.918   7.823   8.058
 6013SOL    HW219481   8.028   7.772   7.967
 6014SOL     OW19482   1.663   0.034   7.652
 6014SOL    HW119483   1.697   0.025   7.563
 6014SOL    HW219484   1.687  -0.047   7.696
 6015SOL     OW19485   0.440   7.845   8.994
 6015SOL    HW119486   0.517   7.809   8.949
 6015SOL    HW219487   0.368   7.787   8.968
 6016SOL     OW19488   1.597   7.898   8.163
 6016SOL    HW119489   1.509   7.896   8.127
 6016SOL    HW219490   1.589   7.946   8.245
 6017SOL     OW19491   1.588   7.576   8.910
 6017SOL    HW119492   1.631   7.647   8.862
 6017SOL    HW219493   1.562   7.617   8.993
 6018SOL     OW19494   0.121   0.078   8.005
 6018SOL    HW119495   0.081  -0.009   8.015
 6018SOL    HW219496   0.086   0.128   8.079
 6019SOL     OW19497   0.819   7.429   7.971
 6019SOL    HW119498   0.865   7.508   7.944
 6019SOL    HW219499   0.726   7.453   7.972
 6020SOL     OW19500   0.353   7.699   9.286
 6020SOL    HW119501   0.381   7.777   9.238
 6020SOL    HW219502   0.264   7.720   9.315
 6021SOL     OW19503   1.256   7.810   8.386
 6021SOL    HW119504   1.170   7.770   8.398
 6021SOL    HW219505   1.316   7.754   8.436
 6022SOL     OW19506   1.408   7.946   9.149
 6022SOL    HW119507   1.390   7.964   9.242
 6022SOL    HW219508   1.462   7.867   9.150
 6023SOL     OW19509   0.927   0.397   8.959
 6023SOL    HW119510   0.985   0.327   8.931
 6023SOL    HW219511   0.840   0.371   8.928
 6024SOL     OW19512   0.995   7.814   8.686
 6024SOL    HW119513   0.907   7.839   8.715
 6024SOL    HW219514   0.980   7.760   8.609
 6025SOL     OW19515   0.904   7.784   7.642
 6025SOL    HW119516   0.939   7.822   7.562
 6025SOL    HW219517   0.935   7.693   7.642
 6026SOL     OW19518   1.732   0.025   9.248
 6026SOL    HW119519   1.726   0.088   9.176
 6026SOL    HW219520   1.754  -0.058   9.205
 6027SOL     OW19521   0.557   7.627   8.349
 6027SOL    HW119522   0.560   7.649   8.442
 6027SOL    HW219523   0.551   7.712   8.304
 6028SOL     OW19524   0.207   7.700   8.943
 6028SOL    HW119525   0.151   7.773   8.971
 6028SOL    HW219526   0.169   7.623   8.986
 6029SOL     OW19527   1.400   7.544   7.891
 6029SOL    HW119528   1.393   7.521   7.799
 6029SOL    HW219529   1.494   7.546   7.908
 6030SOL     OW19530   1.515   7.678   9.176
 6030SOL    HW119531   1.517   7.699   9.269
 6030SOL    HW219532   1.458   7.601   9.170
 6031SOL     OW19533   0.646   7.558   7.550
 6031SOL    HW119534   0.703   7.485   7.574
 6031SOL    HW219535   0.595   7.526   7.476
 6032SOL     OW19536   0.772   7.723   9.201
 6032SOL    HW119537   0.853   7.672   9.199
 6032SOL    HW219538   0.723   7.685   9.274
 6033SOL     OW19539   1.347   0.012   8.884
 6033SOL    HW119540   1.377  -0.009   8.972
 6033SOL    HW219541   1.280   0.079   8.896
 6034SOL     OW19542   0.559   7.506   7.944
 6034SOL    HW119543   0.478   7.509   7.995
 6034SOL    HW219544   0.556   7.584   7.889
 6035SOL     OW19545   0.279   7.509   7.631
 6035SOL    HW119546   0.335   7.573   7.589
 6035SOL    HW219547   0.340   7.450   7.676
 6036SOL     OW19548   0.947   7.659   7.907
 6036SOL    HW119549   0.912   7.731   7.854
 6036SOL    HW219550   1.039   7.682   7.921
 6037SOL     OW19551   0.119  -0.015   8.891
 6037SOL    HW119552   0.172  -0.019   8.811
 6037SOL    HW219553   0.105   0.079   8.905
 6038SOL     OW19554   0.563   7.667   8.622
 6038SOL    HW119555   0.604   7.596   8.670
 6038SOL    HW219556   0.471   7.663   8.647
 6039SOL     OW19557   1.024   7.506   8.196
 6039SOL    HW119558   0.966   7.511   8.119
 6039SOL    HW219559   0.994   7.428   8.243
 6040SOL     OW19560   1.492   7.964   8.407
 6040SOL    HW119561   1.402   7.931   8.418
 6040SOL    HW219562   1.517   7.995   8.494
 6041SOL     OW19563   0.545   7.710   7.760
 6041SOL    HW119564   0.578   7.661   7.685
 6041SOL    HW219565   0.588   7.795   7.754
 6042SOL     OW19566   0.921   7.531   8.841
 6042SOL    HW119567   0.942   7.509   8.750
 6042SOL    HW219568   1.001   7.571   8.875
 6043SOL     OW19569   1.264   7.798   8.736
 6043SOL    HW119570   1.294   7.878   8.778
 6043SOL    HW219571   1.171   7.813   8.719
 6044SOL     OW19572   0.545   7.913   8.295
 6044SOL    HW119573   0.508   7.972   8.229
 6044SOL    HW219574   0.613   7.964   8.338
 6045SOL     OW19575   1.008   7.590   9.210
 6045SOL    HW119576   1.068   7.661   9.186
 6045SOL    HW219577   1.053   7.510   9.181
 6046SOL     OW19578   0.496   7.480   9.205
 6046SOL    HW119579   0.451   7.431   9.136
 6046SOL    HW219580   0.441   7.557   9.219
 6047SOL     OW19581   0.302   7.628   8.695
 6047SOL    HW119582   0.270   7.658   8.779
 6047SOL    HW219583   0.283   7.534   8.694
 6048SOL     OW19584   0.761   0.051   8.460
 6048SOL    HW119585   0.816   0.058   8.382
 6048SOL    HW219586   0.692   0.116   8.446
 6049SOL     OW19587   0.313   7.517   8.063
 6049SOL    HW119588   0.285   7.605   8.089
 6049SOL    HW219589   0.324   7.471   8.147
 6050SOL     OW19590   1.611   7.801   7.822
 6050SOL    HW119591   1.657   7.733   7.871
 6050SOL    HW219592   1.584   7.864   7.888
 6051SOL     OW19593   1.489   7.739   7.583
 6051SOL    HW119594   1.441   7.658   7.602
 6051SOL    HW219595   1.538   7.757   7.663
 6052SOL     OW19596   1.221   0.251   7.544
 6052SOL    HW119597   1.310   0.215   7.549
 6052SOL    HW219598   1.217   0.293   7.458
 6053SOL     OW19599   0.314   7.982   8.453
 6053SOL    HW119600   0.303   7.888   8.442
 6053SOL    HW219601   0.400   8.001   8.415
 6054SOL     OW19602   1.153   7.825   9.131
 6054SOL    HW119603   1.100   7.902   9.152
 6054SOL    HW219604   1.243   7.857   9.130
 6055SOL     OW19605   1.162   7.633   8.931
 6055SOL    HW119606   1.152   7.702   8.995
 6055SOL    HW219607   1.208   7.674   8.858
 6056SOL     OW19608   0.104   8.032   8.606
 6056SOL    HW119609   0.173   8.006   8.546
 6056SOL    HW219610   0.043   7.958   8.606
 6057SOL     OW19611   0.190   7.945   9.163
 6057SOL    HW119612   0.243   7.953   9.084
 6057SOL    HW219613   0.113   8.000   9.146
 6058SOL     OW19614   0.792   0.032   7.686
 6058SOL    HW119615   0.839  -0.051   7.687
 6058SOL    HW219616   0.748   0.035   7.772
 6059SOL     OW19617   1.628   8.020   8.656
 6059SOL    HW119618   1.616   7.951   8.721
 6059SOL    HW219619   1.702   7.990   8.603
 6060SOL     OW19620   0.725   7.887   8.679
 6060SOL    HW119621   0.662   7.818   8.659
 6060SOL    HW219622   0.724   7.945   8.602
 6061SOL     OW19623   1.740   7.599   7.956
 6061SOL    HW119624   1.806   7.583   7.889
 6061SOL    HW219625   1.718   7.513   7.990
 6062SOL     OW19626   1.848   7.617   8.413
 6062SOL    HW119627   1.874   7.528   8.390
 6062SOL    HW219628   1.762   7.629   8.373
 6063SOL     OW19629   0.256   7.764   8.158
 6063SOL    HW119630   0.166   7.792   8.140
 6063SOL    HW219631   0.261   7.759   8.253
 6064SOL     OW19632   1.025   7.669   8.426
 6064SOL    HW119633   1.021   7.630   8.338
 6064SOL    HW219634   1.019   7.594   8.485
 6065SOL     OW19635   1.741   7.819   8.842
 6065SOL    HW119636   1.805   7.889   8.836
 6065SOL    HW219637   1.771   7.753   8.779
 6066SOL     OW19638   0.683   7.635   8.946
 6066SOL    HW119639   0.767   7.613   8.905
 6066SOL    HW219640   0.706   7.672   9.031
 6067SOL     OW19641   0.101   7.778   7.484
 6067SOL    HW119642   0.008   7.757   7.476
 6067SOL    HW219643   0.116   7.848   7.421
 6068SOL     OW19644   0.082   7.677   7.819
 6068SOL    HW119645   0.050   7.699   7.731
 6068SOL    HW219646   0.165   7.632   7.804
 6069SOL     OW19647   0.782   8.002   9.174
 6069SOL    HW119648   0.689   8.021   9.162
 6069SOL    HW219649   0.787   7.906   9.173
 6070SOL     OW19650   1.207   7.738   7.929
 6070SOL    HW119651   1.275   7.673   7.912
 6070SOL    HW219652   1.248   7.799   7.991
 6071SOL     OW19653   0.631   0.253   8.136
 6071SOL    HW119654   0.612   0.336   8.092
 6071SOL    HW219655   0.561   0.194   8.107
 6072SOL     OW19656   1.760   7.788   9.114
 6072SOL    HW119657   1.751   7.808   9.020
 6072SOL    HW219658   1.681   7.740   9.136
 6073SOL     OW19659   1.811   7.611   8.685
 6073SOL    HW119660   1.812   7.515   8.686
 6073SOL    HW219661   1.825   7.635   8.593
 6074SOL     OW19662   0.384   7.866   7.936
 6074SOL    HW119663   0.419   7.793   7.886
 6074SOL    HW219664   0.344   7.826   8.013
 6075SOL     OW19665   1.424   7.672   8.554
 6075SOL    HW119666   1.440   7.582   8.582
 6075SOL    HW219667   1.376   7.712   8.626
 6076SOL     OW19668   1.005   7.446   8.587
 6076SOL    HW119669   0.953   7.382   8.538
 6076SOL    HW219670   1.093   7.410   8.588
 6077SOL     OW19671   1.367   7.493   7.620
 6077SOL    HW119672   1.407   7.417   7.577
 6077SOL    HW219673   1.276   7.466   7.635
 6078SOL     OW19674   1.322   7.896   8.128
 6078SOL    HW119675   1.289   7.986   8.123
 6078SOL    HW219676   1.298   7.867   8.216
 6079SOL     OW19677   1.590   7.652   8.329
 6079SOL    HW119678   1.535   7.677   8.404
 6079SOL    HW219679   1.585   7.726   8.269
 6080SOL     OW19680   0.243   7.716  10.288
 6080SOL    HW119681   0.272   7.679  10.371
 6080SOL    HW219682   0.158   7.675  10.272
 6081SOL     OW19683   8.009   7.822   9.905
 6081SOL    HW119684   7.918   7.803   9.924
 6081SOL    HW219685   8.028   7.771   9.825
 6082SOL     OW19686   1.653   0.027   9.508
 6082SOL    HW119687   1.690   0.022   9.420
 6082SOL    HW219688   1.696  -0.043   9.557
 6083SOL     OW19689   0.476   7.819  10.808
 6083SOL    HW119690   0.514   7.865  10.733
 6083SOL    HW219691   0.523   7.736  10.812
 6084SOL     OW19692   1.599   7.897  10.024
 6084SOL    HW119693   1.510   7.896   9.987
 6084SOL    HW219694   1.589   7.942  10.107
 6085SOL     OW19695   1.588   7.577  10.772
 6085SOL    HW119696   1.633   7.647  10.726
 6085SOL    HW219697   1.560   7.616  10.855
 6086SOL     OW19698   0.117   0.076   9.874
 6086SOL    HW119699   0.079  -0.012   9.877
 6086SOL    HW219700   0.076   0.122   9.947
 6087SOL     OW19701   0.820   7.428   9.835
 6087SOL    HW119702   0.866   7.506   9.806
 6087SOL    HW219703   0.728   7.452   9.835
 6088SOL     OW19704   0.321   7.709  11.102
 6088SOL    HW119705   0.375   7.782  11.071
 6088SOL    HW219706   0.254   7.750  11.157
 6089SOL     OW19707   1.254   7.811  10.249
 6089SOL    HW119708   1.168   7.770  10.261
 6089SOL    HW219709   1.314   7.754  10.297
 6090SOL     OW19710   1.409   7.948  11.015
 6090SOL    HW119711   1.389   7.967  11.107
 6090SOL    HW219712   1.463   7.869  11.018
 6091SOL     OW19713   0.947   0.390  10.836
 6091SOL    HW119714   0.958   0.322  10.769
 6091SOL    HW219715   0.852   0.396  10.848
 6092SOL     OW19716   0.983   7.815  10.550
 6092SOL    HW119717   0.896   7.837  10.584
 6092SOL    HW219718   0.966   7.764  10.471
 6093SOL     OW19719   0.904   7.777   9.507
 6093SOL    HW119720   0.925   7.824   9.426
 6093SOL    HW219721   0.927   7.686   9.488
 6094SOL     OW19722   1.732   0.027  11.102
 6094SOL    HW119723   1.741   0.089  11.031
 6094SOL    HW219724   1.751  -0.058  11.062
 6095SOL     OW19725   0.559   7.627  10.208
 6095SOL    HW119726   0.565   7.651  10.300
 6095SOL    HW219727   0.551   7.710  10.161
 6096SOL     OW19728   1.399   7.542   9.753
 6096SOL    HW119729   1.390   7.521   9.660
 6096SOL    HW219730   1.492   7.556   9.766
 6097SOL     OW19731   1.513   7.677  11.037
 6097SOL    HW119732   1.518   7.697  11.131
 6097SOL    HW219733   1.454   7.602  11.032
 6098SOL     OW19734   0.653   7.560   9.409
 6098SOL    HW119735   0.709   7.484   9.427
 6098SOL    HW219736   0.595   7.531   9.339
 6099SOL     OW19737   0.770   7.731  11.059
 6099SOL    HW119738   0.852   7.682  11.056
 6099SOL    HW219739   0.726   7.699  11.138
 6100SOL     OW19740   1.350  -0.010  10.741
 6100SOL    HW119741   1.390  -0.021  10.828
 6100SOL    HW219742   1.289   0.062  10.752
 6101SOL     OW19743   0.562   7.504   9.805
 6101SOL    HW119744   0.480   7.508   9.854
 6101SOL    HW219745   0.559   7.582   9.749
 6102SOL     OW19746   0.280   7.500   9.483
 6102SOL    HW119747   0.333   7.565   9.435
 6102SOL    HW219748   0.344   7.445   9.528
 6103SOL     OW19749   0.948   7.657   9.767
 6103SOL    HW119750   0.917   7.717   9.699
 6103SOL    HW219751   1.039   7.683   9.783
 6104SOL     OW19752   0.070   7.985  10.698
 6104SOL    HW119753   0.146   7.949  10.742
 6104SOL    HW219754   0.051   8.066  10.745
 6105SOL     OW19755   0.574   7.664  10.483
 6105SOL    HW119756   0.613   7.586  10.520
 6105SOL    HW219757   0.481   7.658  10.506
 6106SOL     OW19758   1.024   7.508  10.059
 6106SOL    HW119759   0.968   7.516   9.982
 6106SOL    HW219760   0.992   7.430  10.104
 6107SOL     OW19761   1.494   7.960  10.267
 6107SOL    HW119762   1.404   7.931  10.283
 6107SOL    HW219763   1.526   7.990  10.352
 6108SOL     OW19764   0.549   7.707   9.621
 6108SOL    HW119765   0.579   7.658   9.545
 6108SOL    HW219766   0.590   7.793   9.612
 6109SOL     OW19767   0.920   7.530  10.702
 6109SOL    HW119768   0.942   7.509  10.612
 6109SOL    HW219769   0.999   7.571  10.737
 6110SOL     OW19770   1.255   7.791  10.589
 6110SOL    HW119771   1.290   7.867  10.635
 6110SOL    HW219772   1.162   7.810  10.577
 6111SOL     OW19773   0.542   7.916  10.156
 6111SOL    HW119774   0.502   7.970  10.088
 6111SOL    HW219775   0.611   7.972  10.192
 6112SOL     OW19776   1.004   7.594  11.063
 6112SOL    HW119777   1.067   7.663  11.044
 6112SOL    HW219778   1.050   7.513  11.040
 6113SOL     OW19779   0.487   7.488  11.070
 6113SOL    HW119780   0.452   7.432  11.001
 6113SOL    HW219781   0.428   7.563  11.072
 6114SOL     OW19782   0.312   7.625  10.545
 6114SOL    HW119783   0.240   7.671  10.588
 6114SOL    HW219784   0.289   7.532  10.552
 6115SOL     OW19785   0.765   0.049  10.329
 6115SOL    HW119786   0.822   0.049  10.252
 6115SOL    HW219787   0.699   0.115  10.311
 6116SOL     OW19788   0.317   7.519   9.924
 6116SOL    HW119789   0.286   7.606   9.948
 6116SOL    HW219790   0.324   7.472  10.007
 6117SOL     OW19791   1.604   7.793   9.688
 6117SOL    HW119792   1.654   7.730   9.739
 6117SOL    HW219793   1.582   7.863   9.750
 6118SOL     OW19794   1.491   7.738   9.442
 6118SOL    HW119795   1.440   7.659   9.462
 6118SOL    HW219796   1.537   7.757   9.524
 6119SOL     OW19797   1.251   0.264   9.409
 6119SOL    HW119798   1.301   0.183   9.399
 6119SOL    HW219799   1.222   0.287   9.321
 6120SOL     OW19800   0.325   7.973  10.333
 6120SOL    HW119801   0.304   7.882  10.314
 6120SOL    HW219802   0.406   7.990  10.284
 6121SOL     OW19803   1.153   7.827  10.994
 6121SOL    HW119804   1.101   7.904  11.015
 6121SOL    HW219805   1.244   7.858  10.992
 6122SOL     OW19806   1.161   7.634  10.792
 6122SOL    HW119807   1.154   7.704  10.857
 6122SOL    HW219808   1.205   7.674  10.718
 6123SOL     OW19809   0.091   0.055  10.433
 6123SOL    HW119810   0.168   0.008  10.400
 6123SOL    HW219811   0.070   0.012  10.515
 6124SOL     OW19812   0.186   7.923  10.943
 6124SOL    HW119813   0.268   7.955  10.980
 6124SOL    HW219814   0.120   7.986  10.971
 6125SOL     OW19815   0.794   0.028   9.554
 6125SOL    HW119816   0.841  -0.055   9.561
 6125SOL    HW219817   0.744   0.034   9.636
 6126SOL     OW19818   1.628   8.018  10.510
 6126SOL    HW119819   1.614   7.966  10.589
 6126SOL    HW219820   1.704   7.978  10.468
 6127SOL     OW19821   0.697   7.901  10.552
 6127SOL    HW119822   0.651   7.822  10.522
 6127SOL    HW219823   0.714   7.951  10.472
 6128SOL     OW19824   1.742   7.598   9.821
 6128SOL    HW119825   1.807   7.583   9.752
 6128SOL    HW219826   1.720   7.511   9.853
 6129SOL     OW19827   1.847   7.617  10.275
 6129SOL    HW119828   1.873   7.528  10.250
 6129SOL    HW219829   1.761   7.629  10.235
 6130SOL     OW19830   0.256   7.767  10.014
 6130SOL    HW119831   0.166   7.794   9.996
 6130SOL    HW219832   0.260   7.762  10.110
 6131SOL     OW19833   1.021   7.670  10.290
 6131SOL    HW119834   1.019   7.632  10.202
 6131SOL    HW219835   1.018   7.595  10.349
 6132SOL     OW19836   1.743   7.818  10.707
 6132SOL    HW119837   1.806   7.890  10.700
 6132SOL    HW219838   1.773   7.755  10.642
 6133SOL     OW19839   0.683   7.623  10.815
 6133SOL    HW119840   0.766   7.602  10.772
 6133SOL    HW219841   0.708   7.665  10.897
 6134SOL     OW19842   0.100   7.777   9.356
 6134SOL    HW119843   0.017   7.744   9.323
 6134SOL    HW219844   0.123   7.848   9.298
 6135SOL     OW19845   0.083   7.677   9.681
 6135SOL    HW119846   0.048   7.693   9.593
 6135SOL    HW219847   0.168   7.636   9.665
 6136SOL     OW19848   0.768   8.021  11.022
 6136SOL    HW119849   0.709   8.034  11.097
 6136SOL    HW219850   0.773   7.926  11.012
 6137SOL     OW19851   1.207   7.738   9.794
 6137SOL    HW119852   1.275   7.672   9.775
 6137SOL    HW219853   1.249   7.799   9.854
 6138SOL     OW19854   0.629   0.251   9.995
 6138SOL    HW119855   0.614   0.334   9.951
 6138SOL    HW219856   0.560   0.193   9.963
 6139SOL     OW19857   1.759   7.784  10.977
 6139SOL    HW119858   1.752   7.804  10.883
 6139SOL    HW219859   1.678   7.738  10.998
 6140SOL     OW19860   1.808   7.610  10.547
 6140SOL    HW119861   1.811   7.515  10.545
 6140SOL    HW219862   1.824   7.637  10.456
 6141SOL     OW19863   0.389   7.865   9.795
 6141SOL    HW119864   0.423   7.791   9.745
 6141SOL    HW219865   0.346   7.826   9.871
 6142SOL     OW19866   1.425   7.671  10.415
 6142SOL    HW119867   1.450   7.586  10.452
 6142SOL    HW219868   1.372   7.712  10.484
 6143SOL     OW19869   1.004   7.446  10.449
 6143SOL    HW119870   0.952   7.382  10.399
 6143SOL    HW219871   1.093   7.410  10.448
 6144SOL     OW19872   1.364   7.494   9.482
 6144SOL    HW119873   1.403   7.422   9.434
 6144SOL    HW219874   1.274   7.467   9.499
 6145SOL     OW19875   1.323   7.896   9.990
 6145SOL    HW119876   1.292   7.986   9.983
 6145SOL    HW219877   1.299   7.869  10.078
 6146SOL     OW19878   1.588   7.650  10.191
 6146SOL    HW119879   1.534   7.676  10.265
 6146SOL    HW219880   1.584   7.724  10.130
 6147SOL     OW19881   0.238   7.714  12.160
 6147SOL    HW119882   0.276   7.681  12.242
 6147SOL    HW219883   0.146   7.688  12.164
 6148SOL     OW19884   8.014   7.836  11.750
 6148SOL    HW119885   7.926   7.820  11.784
 6148SOL    HW219886   8.024   7.773  11.678
 6149SOL     OW19887   1.644   0.027  11.360
 6149SOL    HW119888   1.680   0.018  11.272
 6149SOL    HW219889   1.720   0.027  11.418
 6150SOL     OW19890   1.593   7.915  11.876
 6150SOL    HW119891   1.503   7.908  11.844
 6150SOL    HW219892   1.586   7.953  11.963
 6151SOL     OW19893   0.100   0.096  11.738
 6151SOL    HW119894   0.075   0.004  11.725
 6151SOL    HW219895   0.059   0.121  11.820
 6152SOL     OW19896   0.820   7.433  11.693
 6152SOL    HW119897   0.864   7.513  11.663
 6152SOL    HW219898   0.727   7.457  11.694
 6153SOL     OW19899   1.261   7.793  12.105
 6153SOL    HW119900   1.172   7.762  12.123
 6153SOL    HW219901   1.316   7.742  12.165
 6154SOL     OW19902   0.963   7.789  12.424
 6154SOL    HW119903   0.894   7.854  12.440
 6154SOL    HW219904   0.961   7.775  12.329
 6155SOL     OW19905   0.895   7.800  11.356
 6155SOL    HW119906   0.953   7.802  11.280
 6155SOL    HW219907   0.917   7.717  11.400
 6156SOL     OW19908   0.557   7.636  12.063
 6156SOL    HW119909   0.564   7.675  12.150
 6156SOL    HW219910   0.546   7.711  12.004
 6157SOL     OW19911   1.395   7.542  11.615
 6157SOL    HW119912   1.388   7.521  11.522
 6157SOL    HW219913   1.485   7.572  11.626
 6158SOL     OW19914   0.647   7.570  11.271
 6158SOL    HW119915   0.707   7.498  11.290
 6158SOL    HW219916   0.592   7.537  11.200
 6159SOL     OW19917   0.558   7.507  11.669
 6159SOL    HW119918   0.476   7.510  11.719
 6159SOL    HW219919   0.554   7.583  11.612
 6160SOL     OW19920   0.285   7.493  11.346
 6160SOL    HW119921   0.348   7.559  11.315
 6160SOL    HW219922   0.338   7.431  11.396
 6161SOL     OW19923   0.942   7.671  11.625
 6161SOL    HW119924   0.904   7.758  11.629
 6161SOL    HW219925   1.037   7.685  11.633
 6162SOL     OW19926   0.115   0.051   0.054
 6162SOL    HW119927   0.197   0.033   0.101
 6162SOL    HW219928   0.067   0.110   0.112
 6163SOL     OW19929   0.577   7.646  12.348
 6163SOL    HW119930   0.591   7.558  12.312
 6163SOL    HW219931   0.484   7.648  12.371
 6164SOL     OW19932   1.021   7.502  11.923
 6164SOL    HW119933   0.965   7.502  11.844
 6164SOL    HW219934   0.996   7.422  11.969
 6165SOL     OW19935   1.497   7.946  12.130
 6165SOL    HW119936   1.406   7.919  12.141
 6165SOL    HW219937   1.520   7.987  12.214
 6166SOL     OW19938   0.540   7.711  11.486
 6166SOL    HW119939   0.580   7.667  11.410
 6166SOL    HW219940   0.580   7.798  11.487
 6167SOL     OW19941   1.240   7.844  12.426
 6167SOL    HW119942   1.270   7.894  12.502
 6167SOL    HW219943   1.149   7.821  12.447
 6168SOL     OW19944   0.544   7.929  12.030
 6168SOL    HW119945   0.509   7.992  11.968
 6168SOL    HW219946   0.618   7.975  12.071
 6169SOL     OW19947   0.315   7.629  12.410
 6169SOL    HW119948   0.263   7.678  12.473
 6169SOL    HW219949   0.284   7.539  12.417
 6170SOL     OW19950   0.747   0.046  12.185
 6170SOL    HW119951   0.842   0.060  12.187
 6170SOL    HW219952   0.710   0.134  12.173
 6171SOL     OW19953   0.309   7.521  11.785
 6171SOL    HW119954   0.278   7.606  11.814
 6171SOL    HW219955   0.318   7.470  11.866
 6172SOL     OW19956   1.590   7.781  11.558
 6172SOL    HW119957   1.649   7.727  11.610
 6172SOL    HW219958   1.585   7.864  11.607
 6173SOL     OW19959   1.499   7.732  11.302
 6173SOL    HW119960   1.445   7.656  11.324
 6173SOL    HW219961   1.540   7.757  11.384
 6174SOL     OW19962   1.224   0.292  11.270
 6174SOL    HW119963   1.289   0.223  11.275
 6174SOL    HW219964   1.210   0.307  11.176
 6175SOL     OW19965   0.322   7.969  12.202
 6175SOL    HW119966   0.295   7.880  12.182
 6175SOL    HW219967   0.401   7.982  12.150
 6176SOL     OW19968   1.155   7.705   0.177
 6176SOL    HW119969   1.177   7.724   0.269
 6176SOL    HW219970   1.236   7.726   0.129
 6177SOL     OW19971   0.071   0.032  12.279
 6177SOL    HW119972   0.163   0.019  12.257
 6177SOL    HW219973   0.071   0.050  12.373
 6178SOL     OW19974   0.795   0.047  11.416
 6178SOL    HW119975   0.839  -0.036  11.401
 6178SOL    HW219976   0.743   0.033  11.495
 6179SOL     OW19977   1.641   8.027  12.360
 6179SOL    HW119978   1.642   7.961  12.430
 6179SOL    HW219979   1.716   8.004  12.305
 6180SOL     OW19980   0.675   7.904  12.409
 6180SOL    HW119981   0.642   7.818  12.383
 6180SOL    HW219982   0.694   7.949  12.327
 6181SOL     OW19983   1.747   7.599  11.690
 6181SOL    HW119984   1.810   7.580  11.620
 6181SOL    HW219985   1.719   7.513  11.720
 6182SOL     OW19986   1.842   7.618  12.138
 6182SOL    HW119987   1.867   7.530  12.111
 6182SOL    HW219988   1.753   7.629  12.103
 6183SOL     OW19989   0.247   7.764  11.886
 6183SOL    HW119990   0.160   7.799  11.867
 6183SOL    HW219991   0.249   7.755  11.981
 6184SOL     OW19992   1.019   7.668  12.154
 6184SOL    HW119993   1.018   7.625  12.068
 6184SOL    HW219994   1.013   7.596  12.217
 6185SOL     OW19995   1.753   7.845   0.042
 6185SOL    HW119996   1.841   7.882   0.046
 6185SOL    HW219997   1.765   7.758   0.004
 6186SOL     OW19998   0.069   7.799  11.182
 6186SOL    HW119999   0.000   7.749  11.226
 6186SOL    HW220000   0.056   7.889  11.213
 6187SOL     OW20001   0.077   7.661  11.550
 6187SOL    HW120002   0.042   7.633  11.465
 6187SOL    HW220003   0.171   7.645  11.544
 6188SOL     OW20004   1.205   7.742  11.649
 6188SOL    HW120005   1.273   7.676  11.633
 6188SOL    HW220006   1.244   7.802  11.711
 6189SOL     OW20007   0.636   0.219  11.775
 6189SOL    HW120008   0.662   0.306  11.807
 6189SOL    HW220009   0.568   0.190  11.835
 6190SOL     OW20010   1.816   7.609  12.413
 6190SOL    HW120011   1.820   7.514  12.407
 6190SOL    HW220012   1.824   7.639  12.323
 6191SOL     OW20013   0.366   7.857  11.659
 6191SOL    HW120014   0.408   7.783  11.616
 6191SOL    HW220015   0.329   7.822  11.740
 6192SOL     OW20016   1.431   7.691  12.307
 6192SOL    HW120017   1.487   7.659  12.378
 6192SOL    HW220018   1.365   7.744  12.351
 6193SOL     OW20019   1.003   7.425  12.301
 6193SOL    HW120020   0.967   7.375  12.229
 6193SOL    HW220021   1.094   7.398  12.308
 6194SOL     OW20022   1.362   7.495  11.343
 6194SOL    HW120023   1.401   7.420  11.297
 6194SOL    HW220024   1.272   7.468  11.361
 6195SOL     OW20025   1.314   7.898  11.853
 6195SOL    HW120026   1.268   7.982  11.856
 6195SOL    HW220027   1.297   7.858  11.939
 6196SOL     OW20028   1.578   7.649  12.070
 6196SOL    HW120029   1.529   7.672  12.148
 6196SOL    HW220030   1.568   7.725  12.012
 6197SOL     OW20031   2.122   0.587   0.026
 6197SOL    HW120032   2.087   0.643   0.095
 6197SOL    HW220033   2.058   0.594  -0.045
 6198SOL     OW20034   2.077   0.306   0.990
 6198SOL    HW120035   2.112   0.263   1.069
 6198SOL    HW220036   1.995   0.261   0.972
 6199SOL     OW20037   1.866   0.397   0.635
 6199SOL    HW120038   1.784   0.424   0.676
 6199SOL    HW220039   1.850   0.307   0.605
 6200SOL     OW20040   2.439   1.306   1.190
 6200SOL    HW120041   2.353   1.308   1.149
 6200SOL    HW220042   2.453   1.395   1.222
 6201SOL     OW20043   3.440   1.522   0.712
 6201SOL    HW120044   3.394   1.498   0.792
 6201SOL    HW220045   3.371   1.525   0.645
 6202SOL     OW20046   2.996   0.702   0.693
 6202SOL    HW120047   3.043   0.786   0.683
 6202SOL    HW220048   2.948   0.711   0.775
 6203SOL     OW20049   3.596   0.625   0.277
 6203SOL    HW120050   3.580   0.634   0.183
 6203SOL    HW220051   3.568   0.536   0.298
 6204SOL     OW20052   2.601   1.133   1.051
 6204SOL    HW120053   2.541   1.172   1.115
 6204SOL    HW220054   2.633   1.208   1.000
 6205SOL     OW20055   2.743   0.747   1.828
 6205SOL    HW120056   2.738   0.812   1.899
 6205SOL    HW220057   2.765   0.799   1.750
 6206SOL     OW20058   2.547   0.991   0.645
 6206SOL    HW120059   2.612   0.984   0.715
 6206SOL    HW220060   2.479   1.048   0.680
 6207SOL     OW20061   2.576   1.147   1.817
 6207SOL    HW120062   2.621   1.223   1.853
 6207SOL    HW220063   2.495   1.183   1.780
 6208SOL     OW20064   2.201   1.414   1.063
 6208SOL    HW120065   2.124   1.369   1.027
 6208SOL    HW220066   2.234   1.466   0.991
 6209SOL     OW20067   3.319   1.507   1.362
 6209SOL    HW120068   3.374   1.585   1.374
 6209SOL    HW220069   3.250   1.516   1.427
 6210SOL     OW20070   2.311   0.382   1.458
 6210SOL    HW120071   2.391   0.332   1.475
 6210SOL    HW220072   2.240   0.323   1.484
 6211SOL     OW20073   3.477   0.462   0.733
 6211SOL    HW120074   3.438   0.500   0.655
 6211SOL    HW220075   3.452   0.522   0.804
 6212SOL     OW20076   2.077   1.716   0.471
 6212SOL    HW120077   2.097   1.792   0.526
 6212SOL    HW220078   2.155   1.705   0.416
 6213SOL     OW20079   2.997   1.345   1.696
 6213SOL    HW120080   3.041   1.338   1.781
 6213SOL    HW220081   2.946   1.265   1.688
 6214SOL     OW20082   2.091   1.451   0.549
 6214SOL    HW120083   2.069   1.544   0.544
 6214SOL    HW220084   2.030   1.416   0.614
 6215SOL     OW20085   2.143   1.091   0.896
 6215SOL    HW120086   2.132   1.002   0.928
 6215SOL    HW220087   2.082   1.143   0.948
 6216SOL     OW20088   2.467   1.785   1.427
 6216SOL    HW120089   2.385   1.767   1.473
 6216SOL    HW220090   2.490   1.874   1.454
 6217SOL     OW20091   2.441   0.963   0.150
 6217SOL    HW120092   2.508   0.980   0.083
 6217SOL    HW220093   2.472   1.010   0.227
 6218SOL     OW20094   3.517   0.125   1.484
 6218SOL    HW120095   3.461   0.160   1.414
 6218SOL    HW220096   3.472   0.151   1.565
 6219SOL     OW20097   1.986   0.647   0.565
 6219SOL    HW120098   1.948   0.562   0.587
 6219SOL    HW220099   1.978   0.699   0.645
 6220SOL     OW20100   3.719   1.735   0.311
 6220SOL    HW120101   3.787   1.713   0.375
 6220SOL    HW220102   3.729   1.829   0.296
 6221SOL     OW20103   1.897   1.516   0.136
 6221SOL    HW120104   1.808   1.483   0.123
 6221SOL    HW220105   1.885   1.596   0.188
 6222SOL     OW20106   3.547   0.935   0.652
 6222SOL    HW120107   3.612   0.887   0.601
 6222SOL    HW220108   3.511   1.000   0.591
 6223SOL     OW20109   3.504   1.116   0.437
 6223SOL    HW120110   3.590   1.113   0.395
 6223SOL    HW220111   3.514   1.181   0.507
 6224SOL     OW20112   1.986   0.754   1.584
 6224SOL    HW120113   2.075   0.788   1.595
 6224SOL    HW220114   1.930   0.831   1.588
 6225SOL     OW20115   2.477   1.394   0.739
 6225SOL    HW120116   2.430   1.311   0.743
 6225SOL    HW220117   2.470   1.422   0.648
 6226SOL     OW20118   3.140   1.238   1.413
 6226SOL    HW120119   3.173   1.166   1.358
 6226SOL    HW220120   3.195   1.234   1.492
 6227SOL     OW20121   2.703   0.035   0.572
 6227SOL    HW120122   2.746   0.109   0.529
 6227SOL    HW220123   2.613   0.064   0.586
 6228SOL     OW20124   2.048   0.960   1.284
 6228SOL    HW120125   2.134   0.922   1.267
 6228SOL    HW220126   1.988   0.912   1.227
 6229SOL     OW20127   3.356   1.014   0.228
 6229SOL    HW120128   3.293   0.954   0.269
 6229SOL    HW220129   3.412   1.042   0.301
 6230SOL     OW20130   3.035   1.817   1.624
 6230SOL    HW120131   3.057   1.883   1.559
 6230SOL    HW220132   3.071   1.735   1.589
 6231SOL     OW20133   2.170   0.228   1.773
 6231SOL    HW120134   2.239   0.282   1.811
 6231SOL    HW220135   2.092   0.249   1.825
 6232SOL     OW20136   3.324   1.420   0.940
 6232SOL    HW120137   3.261   1.435   1.010
 6232SOL    HW220138   3.312   1.327   0.917
 6233SOL     OW20139   3.515   1.767   0.582
 6233SOL    HW120140   3.493   1.730   0.497
 6233SOL    HW220141   3.501   1.695   0.644
 6234SOL     OW20142   2.446   0.714   0.280
 6234SOL    HW120143   2.452   0.801   0.240
 6234SOL    HW220144   2.382   0.724   0.350
 6235SOL     OW20145   3.157   0.380   0.935
 6235SOL    HW120146   3.065   0.351   0.938
 6235SOL    HW220147   3.202   0.323   0.996
 6236SOL     OW20148   3.452   1.672   0.330
 6236SOL    HW120149   3.547   1.682   0.320
 6236SOL    HW220150   3.418   1.687   0.242
 6237SOL     OW20151   2.630   0.644   1.437
 6237SOL    HW120152   2.621   0.614   1.527
 6237SOL    HW220153   2.625   0.565   1.384
 6238SOL     OW20154   3.275   0.486   1.680
 6238SOL    HW120155   3.274   0.530   1.765
 6238SOL    HW220156   3.337   0.415   1.691
 6239SOL     OW20157   2.812   0.879   1.590
 6239SOL    HW120158   2.861   0.808   1.550
 6239SOL    HW220159   2.759   0.915   1.518
 6240SOL     OW20160   2.874   0.416   1.207
 6240SOL    HW120161   2.788   0.434   1.245
 6240SOL    HW220162   2.855   0.374   1.123
 6241SOL     OW20163   2.918   0.702   0.425
 6241SOL    HW120164   2.934   0.696   0.519
 6241SOL    HW220165   2.833   0.660   0.412
 6242SOL     OW20166   1.955   0.814   0.777
 6242SOL    HW120167   2.033   0.812   0.832
 6242SOL    HW220168   1.905   0.889   0.809
 6243SOL     OW20169   1.986   1.873   1.587
 6243SOL    HW120170   1.995   1.850   1.679
 6243SOL    HW220171   1.897   1.849   1.564
 6244SOL     OW20172   2.748   0.364   0.210
 6244SOL    HW120173   2.795   0.434   0.165
 6244SOL    HW220174   2.697   0.320   0.141
 6245SOL     OW20175   3.575   0.570   1.829
 6245SOL    HW120176   3.537   0.645   1.783
 6245SOL    HW220177   3.597   0.508   1.759
 6246SOL     OW20178   3.241   1.143   0.534
 6246SOL    HW120179   3.323   1.136   0.485
 6246SOL    HW220180   3.188   1.204   0.482
 6247SOL     OW20181   2.385   0.238   0.923
 6247SOL    HW120182   2.388   0.254   1.017
 6247SOL    HW220183   2.400   0.323   0.883
 6248SOL     OW20184   2.858   1.434   0.476
 6248SOL    HW120185   2.821   1.509   0.430
 6248SOL    HW220186   2.838   1.450   0.568
 6249SOL     OW20187   2.210   1.816   0.876
 6249SOL    HW120188   2.261   1.736   0.882
 6249SOL    HW220189   2.273   1.886   0.896
 6250SOL     OW20190   3.674   1.047   0.875
 6250SOL    HW120191   3.621   1.025   0.798
 6250SOL    HW220192   3.610   1.058   0.946
 6251SOL     OW20193   3.087   1.545   1.513
 6251SOL    HW120194   3.076   1.473   1.575
 6251SOL    HW220195   3.003   1.551   1.467
 6252SOL     OW20196   2.178   0.981   0.267
 6252SOL    HW120197   2.254   0.991   0.210
 6252SOL    HW220198   2.138   0.898   0.239
 6253SOL     OW20199   3.340   0.766   0.723
 6253SOL    HW120200   3.341   0.720   0.807
 6253SOL    HW220201   3.420   0.818   0.724
 6254SOL     OW20202   2.339   1.270   1.731
 6254SOL    HW120203   2.311   1.273   1.640
 6254SOL    HW220204   2.257   1.267   1.781
 6255SOL     OW20205   2.934   1.784   0.231
 6255SOL    HW120206   2.889   1.730   0.297
 6255SOL    HW220207   2.996   1.724   0.189
 6256SOL     OW20208   2.053   0.259   1.502
 6256SOL    HW120209   1.988   0.329   1.497
 6256SOL    HW220210   2.071   0.249   1.595
 6257SOL     OW20211   3.518   1.411   0.078
 6257SOL    HW120212   3.452   1.475   0.054
 6257SOL    HW220213   3.471   1.328   0.080
 6258SOL     OW20214   2.317   1.727   0.333
 6258SOL    HW120215   2.363   1.788   0.390
 6258SOL    HW220216   2.385   1.691   0.276
 6259SOL     OW20217   3.261   0.107   0.422
 6259SOL    HW120218   3.254   0.058   0.340
 6259SOL    HW220219   3.355   0.121   0.434
 6260SOL     OW20220   2.114   1.791   1.225
 6260SOL    HW120221   2.161   1.717   1.265
 6260SOL    HW220222   2.101   1.765   1.134
 6261SOL     OW20223   2.256   0.682   0.482
 6261SOL    HW120224   2.276   0.589   0.492
 6261SOL    HW220225   2.164   0.689   0.507
 6262SOL     OW20226   3.405   0.216   1.722
 6262SOL    HW120227   3.417   0.246   1.812
 6262SOL    HW220228   3.335   0.151   1.728
 6263SOL     OW20229   2.462   0.092   0.093
 6263SOL    HW120230   2.534   0.081   0.156
 6263SOL    HW220231   2.478   0.024   0.027
 6264SOL     OW20232   2.584   0.301   1.758
 6264SOL    HW120233   2.673   0.266   1.772
 6264SOL    HW220234   2.534   0.269   1.833
 6265SOL     OW20235   2.766   1.527   1.139
 6265SOL    HW120236   2.716   1.455   1.099
 6265SOL    HW220237   2.814   1.485   1.210
 6266SOL     OW20238   3.200   0.596   1.439
 6266SOL    HW120239   3.238   0.566   1.522
 6266SOL    HW220240   3.237   0.683   1.426
 6267SOL     OW20241   2.677   1.374   0.925
 6267SOL    HW120242   2.750   1.347   0.869
 6267SOL    HW220243   2.603   1.382   0.864
 6268SOL     OW20244   2.788   0.523   0.888
 6268SOL    HW120245   2.760   0.513   0.797
 6268SOL    HW220246   2.825   0.438   0.911
 6269SOL     OW20247   2.429   0.022   0.431
 6269SOL    HW120248   2.370   0.009   0.506
 6269SOL    HW220249   2.416   0.113   0.405
 6270SOL     OW20250   3.326   1.218   0.050
 6270SOL    HW120251   3.338   1.139   0.103
 6270SOL    HW220252   3.233   1.240   0.062
 6271SOL     OW20253   2.212  -0.002   0.189
 6271SOL    HW120254   2.295   0.036   0.161
 6271SOL    HW220255   2.228  -0.031   0.279
 6272SOL     OW20256   2.812   0.259   0.461
 6272SOL    HW120257   2.781   0.284   0.374
 6272SOL    HW220258   2.907   0.274   0.458
 6273SOL     OW20259   2.936   0.670   1.459
 6273SOL    HW120260   2.883   0.592   1.478
 6273SOL    HW220261   3.026   0.638   1.457
 6274SOL     OW20262   3.064   1.605   0.807
 6274SOL    HW120263   3.084   1.660   0.731
 6274SOL    HW220264   3.133   1.625   0.870
 6275SOL     OW20265   2.342   1.157   0.726
 6275SOL    HW120266   2.277   1.134   0.793
 6275SOL    HW220267   2.295   1.149   0.643
 6276SOL     OW20268   3.117   1.793   0.613
 6276SOL    HW120269   3.170   1.853   0.561
 6276SOL    HW220270   3.050   1.848   0.653
 6277SOL     OW20271   2.876   0.570   0.093
 6277SOL    HW120272   2.874   0.638   0.026
 6277SOL    HW220273   2.961   0.581   0.136
 6278SOL     OW20274   1.955   0.561   1.396
 6278SOL    HW120275   2.046   0.561   1.367
 6278SOL    HW220276   1.951   0.630   1.462
 6279SOL     OW20277   2.432   0.229   1.201
 6279SOL    HW120278   2.471   0.194   1.281
 6279SOL    HW220279   2.338   0.225   1.216
 6280SOL     OW20280   2.723   0.468   0.631
 6280SOL    HW120281   2.693   0.521   0.557
 6280SOL    HW220282   2.743   0.383   0.592
 6281SOL     OW20283   2.841   0.035   0.804
 6281SOL    HW120284   2.795   0.036   0.720
 6281SOL    HW220285   2.863  -0.056   0.819
 6282SOL     OW20286   3.302   1.158   0.858
 6282SOL    HW120287   3.237   1.088   0.852
 6282SOL    HW220288   3.336   1.167   0.768
 6283SOL     OW20289   3.329   0.610   0.954
 6283SOL    HW120290   3.269   0.535   0.959
 6283SOL    HW220291   3.383   0.604   1.033
 6284SOL     OW20292   3.693   0.827   0.438
 6284SOL    HW120293   3.747   0.762   0.483
 6284SOL    HW220294   3.652   0.780   0.367
 6285SOL     OW20295   2.355   1.402   0.171
 6285SOL    HW120296   2.288   1.359   0.225
 6285SOL    HW220297   2.305   1.445   0.102
 6286SOL     OW20298   3.535   1.267   0.656
 6286SOL    HW120299   3.630   1.263   0.665
 6286SOL    HW220300   3.513   1.358   0.672
 6287SOL     OW20301   3.265   0.548   0.081
 6287SOL    HW120302   3.211   0.546   0.160
 6287SOL    HW220303   3.318   0.469   0.087
 6288SOL     OW20304   2.372   0.259   0.308
 6288SOL    HW120305   2.407   0.212   0.233
 6288SOL    HW220306   2.351   0.346   0.274
 6289SOL     OW20307   3.603   1.238   1.557
 6289SOL    HW120308   3.676   1.190   1.595
 6289SOL    HW220309   3.620   1.330   1.577
 6290SOL     OW20310   2.902   1.351   1.321
 6290SOL    HW120311   2.826   1.325   1.374
 6290SOL    HW220312   2.978   1.319   1.370
 6291SOL     OW20313   3.464   1.625   1.656
 6291SOL    HW120314   3.463   1.665   1.569
 6291SOL    HW220315   3.545   1.574   1.657
 6292SOL     OW20316   3.003   1.212   1.108
 6292SOL    HW120317   2.948   1.250   1.176
 6292SOL    HW220318   2.949   1.217   1.029
 6293SOL     OW20319   3.489   1.099   1.074
 6293SOL    HW120320   3.482   1.161   1.146
 6293SOL    HW220321   3.412   1.117   1.019
 6294SOL     OW20322   2.778   0.125   1.397
 6294SOL    HW120323   2.797   0.112   1.304
 6294SOL    HW220324   2.864   0.126   1.439
 6295SOL     OW20325   2.844   1.117   1.717
 6295SOL    HW120326   2.754   1.131   1.747
 6295SOL    HW220327   2.840   1.035   1.668
 6296SOL     OW20328   2.573   1.062   0.374
 6296SOL    HW120329   2.558   1.038   0.465
 6296SOL    HW220330   2.652   1.013   0.349
 6297SOL     OW20331   2.283   0.823   1.249
 6297SOL    HW120332   2.345   0.839   1.319
 6297SOL    HW220333   2.251   0.734   1.265
 6298SOL     OW20334   3.132   0.381   1.284
 6298SOL    HW120335   3.161   0.461   1.329
 6298SOL    HW220336   3.044   0.402   1.252
 6299SOL     OW20337   1.938   1.573   1.361
 6299SOL    HW120338   1.908   1.647   1.308
 6299SOL    HW220339   2.033   1.573   1.352
 6300SOL     OW20340   2.197   1.131   0.496
 6300SOL    HW120341   2.186   1.208   0.440
 6300SOL    HW220342   2.201   1.057   0.436
 6301SOL     OW20343   2.417   0.513   0.850
 6301SOL    HW120344   2.424   0.576   0.779
 6301SOL    HW220345   2.479   0.545   0.916
 6302SOL     OW20346   3.106   1.349   0.394
 6302SOL    HW120347   3.161   1.420   0.427
 6302SOL    HW220348   3.018   1.371   0.425
 6303SOL     OW20349   3.155   1.459   1.150
 6303SOL    HW120350   3.210   1.470   1.228
 6303SOL    HW220351   3.107   1.378   1.166
 6304SOL     OW20352   3.413   0.607   0.505
 6304SOL    HW120353   3.365   0.669   0.559
 6304SOL    HW220354   3.451   0.660   0.434
 6305SOL     OW20355   2.208   1.535   1.303
 6305SOL    HW120356   2.199   1.486   1.222
 6305SOL    HW220357   2.302   1.545   1.316
 6306SOL     OW20358   2.297   0.731   1.621
 6306SOL    HW120359   2.344   0.784   1.556
 6306SOL    HW220360   2.360   0.665   1.649
 6307SOL     OW20361   3.480   0.783   1.690
 6307SOL    HW120362   3.393   0.822   1.686
 6307SOL    HW220363   3.530   0.827   1.621
 6308SOL     OW20364   2.908   0.068   1.735
 6308SOL    HW120365   2.918   0.162   1.721
 6308SOL    HW220366   2.814   0.053   1.730
 6309SOL     OW20367   2.369   0.028   1.733
 6309SOL    HW120368   2.347  -0.028   1.658
 6309SOL    HW220369   2.300   0.095   1.734
 6310SOL     OW20370   2.449   0.873   1.035
 6310SOL    HW120371   2.480   0.963   1.040
 6310SOL    HW220372   2.390   0.863   1.110
 6311SOL     OW20373   3.195   0.855   1.012
 6311SOL    HW120374   3.106   0.834   0.983
 6311SOL    HW220375   3.245   0.774   1.000
 6312SOL     OW20376   3.082   0.533   0.283
 6312SOL    HW120377   3.089   0.455   0.338
 6312SOL    HW220378   3.030   0.595   0.334
 6313SOL     OW20379   2.162   0.200   1.235
 6313SOL    HW120380   2.114   0.218   1.316
 6313SOL    HW220381   2.140   0.110   1.214
 6314SOL     OW20382   1.916   1.313   1.270
 6314SOL    HW120383   1.942   1.256   1.343
 6314SOL    HW220384   1.914   1.401   1.309
 6315SOL     OW20385   2.574   0.623   1.044
 6315SOL    HW120386   2.654   0.617   0.991
 6315SOL    HW220387   2.545   0.714   1.034
 6316SOL     OW20388   3.603   0.965   1.862
 6316SOL    HW120389   3.560   0.893   1.816
 6316SOL    HW220390   3.544   0.985   1.935
 6317SOL     OW20391   2.273   0.078   0.669
 6317SOL    HW120392   2.218   0.153   0.692
 6317SOL    HW220393   2.215   0.002   0.680
 6318SOL     OW20394   3.494   0.384   0.366
 6318SOL    HW120395   3.502   0.303   0.417
 6318SOL    HW220396   3.453   0.446   0.426
 6319SOL     OW20397   2.894   0.762   0.964
 6319SOL    HW120398   2.879   0.774   1.058
 6319SOL    HW220399   2.863   0.673   0.946
 6320SOL     OW20400   2.841   1.569   1.728
 6320SOL    HW120401   2.835   1.612   1.642
 6320SOL    HW220402   2.881   1.484   1.709
 6321SOL     OW20403   3.705   1.491   1.604
 6321SOL    HW120404   3.728   1.529   1.519
 6321SOL    HW220405   3.780   1.512   1.660
 6322SOL     OW20406   2.214   0.921   1.806
 6322SOL    HW120407   2.289   0.941   1.863
 6322SOL    HW220408   2.246   0.851   1.749
 6323SOL     OW20409   3.374   0.271   0.147
 6323SOL    HW120410   3.420   0.188   0.152
 6323SOL    HW220411   3.412   0.325   0.217
 6324SOL     OW20412   3.154   0.805   0.059
 6324SOL    HW120413   3.206   0.726   0.047
 6324SOL    HW220414   3.193   0.868  -0.002
 6325SOL     OW20415   2.926   1.358   0.821
 6325SOL    HW120416   2.930   1.271   0.781
 6325SOL    HW220417   3.010   1.398   0.797
 6326SOL     OW20418   2.173   0.811   0.944
 6326SOL    HW120419   2.266   0.832   0.939
 6326SOL    HW220420   2.171   0.723   0.980
 6327SOL     OW20421   2.202   0.540   1.014
 6327SOL    HW120422   2.157   0.456   1.000
 6327SOL    HW220423   2.276   0.537   0.954
 6328SOL     OW20424   3.029   0.363   1.704
 6328SOL    HW120425   2.969   0.419   1.753
 6328SOL    HW220426   3.108   0.416   1.693
 6329SOL     OW20427   3.029   0.217   1.476
 6329SOL    HW120428   3.035   0.268   1.557
 6329SOL    HW220429   3.066   0.274   1.409
 6330SOL     OW20430   1.948   1.776   0.945
 6330SOL    HW120431   1.918   1.700   0.896
 6330SOL    HW220432   2.037   1.792   0.912
 6331SOL     OW20433   2.371   1.595   0.900
 6331SOL    HW120434   2.449   1.647   0.918
 6331SOL    HW220435   2.401   1.525   0.842
 6332SOL     OW20436   2.824   0.781   1.230
 6332SOL    HW120437   2.886   0.755   1.298
 6332SOL    HW220438   2.738   0.753   1.263
 6333SOL     OW20439   1.896   0.556   1.120
 6333SOL    HW120440   1.975   0.537   1.069
 6333SOL    HW220441   1.926   0.554   1.212
 6334SOL     OW20442   2.048   0.531   1.734
 6334SOL    HW120443   2.137   0.530   1.696
 6334SOL    HW220444   2.005   0.603   1.688
 6335SOL     OW20445   3.249   0.926   1.655
 6335SOL    HW120446   3.266   1.021   1.653
 6335SOL    HW220447   3.245   0.900   1.563
 6336SOL     OW20448   2.675   0.579   0.378
 6336SOL    HW120449   2.686   0.505   0.319
 6336SOL    HW220450   2.599   0.626   0.343
 6337SOL     OW20451   3.498   0.609   1.169
 6337SOL    HW120452   3.490   0.556   1.247
 6337SOL    HW220453   3.587   0.593   1.137
 6338SOL     OW20454   2.098   1.546   1.719
 6338SOL    HW120455   2.078   1.612   1.784
 6338SOL    HW220456   2.108   1.465   1.769
 6339SOL     OW20457   2.600   0.448   1.250
 6339SOL    HW120458   2.535   0.379   1.237
 6339SOL    HW220459   2.582   0.511   1.180
 6340SOL     OW20460   2.798   1.676   1.468
 6340SOL    HW120461   2.709   1.656   1.437
 6340SOL    HW220462   2.806   1.771   1.459
 6341SOL     OW20463   2.317   0.488   0.190
 6341SOL    HW120464   2.367   0.567   0.213
 6341SOL    HW220465   2.251   0.519   0.129
 6342SOL     OW20466   2.000   1.145   1.476
 6342SOL    HW120467   2.002   1.101   1.561
 6342SOL    HW220468   2.018   1.076   1.412
 6343SOL     OW20469   3.186   1.040   1.213
 6343SOL    HW120470   3.200   0.976   1.143
 6343SOL    HW220471   3.122   1.101   1.176
 6344SOL     OW20472   3.163   0.844   0.332
 6344SOL    HW120473   3.086   0.807   0.373
 6344SOL    HW220474   3.155   0.819   0.239
 6345SOL     OW20475   3.630   1.727   1.154
 6345SOL    HW120476   3.695   1.755   1.089
 6345SOL    HW220477   3.609   1.637   1.129
 6346SOL     OW20478   3.089   1.718   1.077
 6346SOL    HW120479   3.174   1.755   1.052
 6346SOL    HW220480   3.111   1.633   1.115
 6347SOL     OW20481   1.961   1.261   1.010
 6347SOL    HW120482   1.940   1.278   1.102
 6347SOL    HW220483   1.887   1.209   0.978
 6348SOL     OW20484   2.542   1.675   1.749
 6348SOL    HW120485   2.483   1.750   1.739
 6348SOL    HW220486   2.625   1.706   1.714
 6349SOL     OW20487   2.814   0.075   0.047
 6349SOL    HW120488   2.889   0.124   0.081
 6349SOL    HW220489   2.755   0.066   0.122
 6350SOL     OW20490   3.529   0.140   0.498
 6350SOL    HW120491   3.621   0.120   0.481
 6350SOL    HW220492   3.509   0.093   0.579
 6351SOL     OW20493   3.255   1.566   0.501
 6351SOL    HW120494   3.317   1.597   0.434
 6351SOL    HW220495   3.205   1.644   0.525
 6352SOL     OW20496   2.014   1.792   1.843
 6352SOL    HW120497   1.962   1.727   1.891
 6352SOL    HW220498   2.059   1.841   1.911
 6353SOL     OW20499   3.136   0.937   0.674
 6353SOL    HW120500   3.210   0.877   0.687
 6353SOL    HW220501   3.169   1.004   0.614
 6354SOL     OW20502   2.650   1.282   1.414
 6354SOL    HW120503   2.627   1.327   1.495
 6354SOL    HW220504   2.570   1.284   1.362
 6355SOL     OW20505   2.527   1.610   0.199
 6355SOL    HW120506   2.582   1.619   0.121
 6355SOL    HW220507   2.480   1.527   0.185
 6356SOL     OW20508   3.476   1.733   1.390
 6356SOL    HW120509   3.528   1.738   1.310
 6356SOL    HW220510   3.464   1.824   1.417
 6357SOL     OW20511   3.720   0.163   0.937
 6357SOL    HW120512   3.713   0.079   0.982
 6357SOL    HW220513   3.631   0.182   0.907
 6358SOL     OW20514   2.110   0.293   0.715
 6358SOL    HW120515   2.034   0.346   0.692
 6358SOL    HW220516   2.117   0.303   0.810
 6359SOL     OW20517   3.063   1.607   0.071
 6359SOL    HW120518   3.057   1.512   0.084
 6359SOL    HW220519   3.026   1.621  -0.017
 6360SOL     OW20520   2.686   1.011   1.381
 6360SOL    HW120521   2.733   1.000   1.299
 6360SOL    HW220522   2.682   1.105   1.395
 6361SOL     OW20523   2.794   0.928   0.299
 6361SOL    HW120524   2.849   0.949   0.224
 6361SOL    HW220525   2.837   0.853   0.340
 6362SOL     OW20526   3.325   1.582   0.010
 6362SOL    HW120527   3.237   1.607   0.039
 6362SOL    HW220528   3.376   1.663   0.014
 6363SOL     OW20529   2.231   1.304   1.485
 6363SOL    HW120530   2.209   1.383   1.437
 6363SOL    HW220531   2.152   1.249   1.477
 6364SOL     OW20532   3.477   1.292   1.282
 6364SOL    HW120533   3.525   1.266   1.361
 6364SOL    HW220534   3.414   1.358   1.313
 6365SOL     OW20535   2.924   1.109   0.729
 6365SOL    HW120536   2.852   1.054   0.758
 6365SOL    HW220537   2.991   1.047   0.700
 6366SOL     OW20538   2.896   0.269   0.949
 6366SOL    HW120539   2.880   0.213   0.873
 6366SOL    HW220540   2.899   0.209   1.023
 6367SOL     OW20541   2.477   1.482   0.485
 6367SOL    HW120542   2.520   1.435   0.413
 6367SOL    HW220543   2.401   1.523   0.444
 6368SOL     OW20544   3.582   0.432   1.374
 6368SOL    HW120545   3.659   0.488   1.384
 6368SOL    HW220546   3.613   0.359   1.320
 6369SOL     OW20547   2.128   1.331   0.313
 6369SOL    HW120548   2.052   1.354   0.260
 6369SOL    HW220549   2.116   1.379   0.395
 6370SOL     OW20550   1.976   1.034   1.724
 6370SOL    HW120551   1.901   1.009   1.778
 6370SOL    HW220552   2.051   0.993   1.767
 6371SOL     OW20553   2.536   0.222   1.492
 6371SOL    HW120554   2.611   0.168   1.468
 6371SOL    HW220555   2.548   0.240   1.585
 6372SOL     OW20556   3.287   0.857   1.393
 6372SOL    HW120557   3.238   0.919   1.338
 6372SOL    HW220558   3.376   0.859   1.357
 6373SOL     OW20559   1.956   0.200   0.252
 6373SOL    HW120560   1.925   0.273   0.306
 6373SOL    HW220561   2.023   0.158   0.306
 6374SOL     OW20562   3.055   1.333   0.115
 6374SOL    HW120563   2.960   1.328   0.105
 6374SOL    HW220564   3.069   1.324   0.209
 6375SOL     OW20565   2.468   0.853   1.440
 6375SOL    HW120566   2.529   0.926   1.429
 6375SOL    HW220567   2.524   0.775   1.441
 6376SOL     OW20568   3.342   1.789   0.982
 6376SOL    HW120569   3.365   1.864   0.927
 6376SOL    HW220570   3.423   1.767   1.027
 6377SOL     OW20571   2.558   0.576   1.696
 6377SOL    HW120572   2.614   0.627   1.754
 6377SOL    HW220573   2.569   0.485   1.724
 6378SOL     OW20574   3.327   1.192   1.625
 6378SOL    HW120575   3.314   1.207   1.719
 6378SOL    HW220576   3.419   1.215   1.611
 6379SOL     OW20577   2.229   1.738   1.561
 6379SOL    HW120578   2.147   1.787   1.549
 6379SOL    HW220579   2.202   1.658   1.605
 6380SOL     OW20580   3.525   0.880   1.251
 6380SOL    HW120581   3.519   0.795   1.208
 6380SOL    HW220582   3.516   0.944   1.181
 6381SOL     OW20583   3.083   0.314   0.444
 6381SOL    HW120584   3.144   0.240   0.441
 6381SOL    HW220585   3.106   0.360   0.525
 6382SOL     OW20586   2.443   0.730   0.679
 6382SOL    HW120587   2.485   0.814   0.664
 6382SOL    HW220588   2.379   0.722   0.608
 6383SOL     OW20589   3.616   0.379   1.639
 6383SOL    HW120590   3.596   0.396   1.547
 6383SOL    HW220591   3.552   0.314   1.666
 6384SOL     OW20592   3.610   0.938   1.505
 6384SOL    HW120593   3.590   1.031   1.514
 6384SOL    HW220594   3.591   0.917   1.414
 6385SOL     OW20595   2.783   1.372   0.068
 6385SOL    HW120596   2.723   1.354   0.140
 6385SOL    HW220597   2.764   1.462   0.042
 6386SOL     OW20598   2.581   1.797   0.931
 6386SOL    HW120599   2.521   1.868   0.908
 6386SOL    HW220600   2.631   1.830   1.004
 6387SOL     OW20601   2.728   0.968   0.859
 6387SOL    HW120602   2.779   0.895   0.895
 6387SOL    HW220603   2.684   1.006   0.935
 6388SOL     OW20604   2.949   0.986   0.075
 6388SOL    HW120605   2.990   1.059   0.029
 6388SOL    HW220606   3.019   0.921   0.084
 6389SOL     OW20607   3.700   1.553   0.843
 6389SOL    HW120608   3.624   1.545   0.785
 6389SOL    HW220609   3.675   1.505   0.921
 6390SOL     OW20610   2.098   1.299   1.855
 6390SOL    HW120611   2.030   1.236   1.829
 6390SOL    HW220612   2.085   1.311   1.949
 6391SOL     OW20613   1.949   1.230   0.670
 6391SOL    HW120614   1.963   1.182   0.752
 6391SOL    HW220615   2.013   1.194   0.609
 6392SOL     OW20616   2.544   1.423   1.623
 6392SOL    HW120617   2.473   1.373   1.664
 6392SOL    HW220618   2.545   1.506   1.669
 6393SOL     OW20619   3.683   0.236   1.222
 6393SOL    HW120620   3.629   0.158   1.230
 6393SOL    HW220621   3.704   0.240   1.128
 6394SOL     OW20622   2.294   0.418   0.533
 6394SOL    HW120623   2.318   0.354   0.466
 6394SOL    HW220624   2.234   0.370   0.592
 6395SOL     OW20625   3.560   1.473   1.077
 6395SOL    HW120626   3.478   1.459   1.030
 6395SOL    HW220627   3.558   1.411   1.150
 6396SOL     OW20628   2.203   0.566   1.292
 6396SOL    HW120629   2.252   0.503   1.346
 6396SOL    HW220630   2.220   0.538   1.202
 6397SOL     OW20631   2.719   1.593   0.697
 6397SOL    HW120632   2.717   1.667   0.637
 6397SOL    HW220633   2.639   1.544   0.678
 6398SOL     OW20634   3.292   0.227   1.116
 6398SOL    HW120635   3.350   0.167   1.162
 6398SOL    HW220636   3.243   0.271   1.185
 6399SOL     OW20637   2.879   0.077   1.136
 6399SOL    HW120638   2.801   0.029   1.108
 6399SOL    HW220639   2.942   0.009   1.161
 6400SOL     OW20640   2.649   1.323   0.311
 6400SOL    HW120641   2.613   1.235   0.326
 6400SOL    HW220642   2.725   1.328   0.370
 6401SOL     OW20643   2.492   1.562   1.274
 6401SOL    HW120644   2.484   1.640   1.329
 6401SOL    HW220645   2.578   1.572   1.232
 6402SOL     OW20646   3.196  -0.008   0.141
 6402SOL    HW120647   3.281   0.032   0.122
 6402SOL    HW220648   3.136   0.066   0.148
 6403SOL     OW20649   3.139   0.458   0.668
 6403SOL    HW120650   3.093   0.542   0.674
 6403SOL    HW220651   3.153   0.432   0.759
 6404SOL     OW20652   3.470   0.221   0.864
 6404SOL    HW120653   3.394   0.218   0.922
 6404SOL    HW220654   3.460   0.302   0.815
 6405SOL     OW20655   1.900   1.078   0.339
 6405SOL    HW120656   1.992   1.083   0.315
 6405SOL    HW220657   1.890   0.991   0.379
 6406SOL     OW20658   2.737   1.652   0.373
 6406SOL    HW120659   2.661   1.633   0.318
 6406SOL    HW220660   2.714   1.732   0.419
 6407SOL     OW20661   2.070   0.635   1.998
 6407SOL    HW120662   1.985   0.622   2.039
 6407SOL    HW220663   2.056   0.608   1.907
 6408SOL     OW20664   2.083   0.303   2.851
 6408SOL    HW120665   2.115   0.262   2.931
 6408SOL    HW220666   1.997   0.263   2.836
 6409SOL     OW20667   1.868   0.400   2.497
 6409SOL    HW120668   1.781   0.422   2.530
 6409SOL    HW220669   1.860   0.309   2.467
 6410SOL     OW20670   2.430   1.302   3.048
 6410SOL    HW120671   2.345   1.312   3.006
 6410SOL    HW220672   2.450   1.390   3.082
 6411SOL     OW20673   3.435   1.515   2.575
 6411SOL    HW120674   3.393   1.495   2.659
 6411SOL    HW220675   3.363   1.520   2.512
 6412SOL     OW20676   2.996   0.698   2.555
 6412SOL    HW120677   3.043   0.781   2.542
 6412SOL    HW220678   2.950   0.709   2.637
 6413SOL     OW20679   3.667   0.591   2.080
 6413SOL    HW120680   3.630   0.587   1.992
 6413SOL    HW220681   3.620   0.524   2.129
 6414SOL     OW20682   2.593   1.131   2.908
 6414SOL    HW120683   2.531   1.171   2.968
 6414SOL    HW220684   2.640   1.205   2.869
 6415SOL     OW20685   2.742   0.749   3.686
 6415SOL    HW120686   2.742   0.814   3.756
 6415SOL    HW220687   2.763   0.799   3.607
 6416SOL     OW20688   2.547   0.991   2.506
 6416SOL    HW120689   2.615   0.987   2.573
 6416SOL    HW220690   2.480   1.049   2.542
 6417SOL     OW20691   2.576   1.148   3.683
 6417SOL    HW120692   2.623   1.223   3.718
 6417SOL    HW220693   2.497   1.185   3.643
 6418SOL     OW20694   2.196   1.412   2.928
 6418SOL    HW120695   2.120   1.374   2.884
 6418SOL    HW220696   2.238   1.466   2.862
 6419SOL     OW20697   3.324   1.508   3.225
 6419SOL    HW120698   3.379   1.585   3.237
 6419SOL    HW220699   3.254   1.518   3.290
 6420SOL     OW20700   2.311   0.380   3.318
 6420SOL    HW120701   2.392   0.333   3.335
 6420SOL    HW220702   2.241   0.321   3.346
 6421SOL     OW20703   3.467   0.457   2.590
 6421SOL    HW120704   3.391   0.472   2.533
 6421SOL    HW220705   3.463   0.528   2.654
 6422SOL     OW20706   2.081   1.718   2.329
 6422SOL    HW120707   2.102   1.790   2.388
 6422SOL    HW220708   2.159   1.708   2.274
 6423SOL     OW20709   2.999   1.345   3.556
 6423SOL    HW120710   3.044   1.338   3.640
 6423SOL    HW220711   2.947   1.265   3.550
 6424SOL     OW20712   2.091   1.446   2.392
 6424SOL    HW120713   2.075   1.540   2.397
 6424SOL    HW220714   2.040   1.409   2.465
 6425SOL     OW20715   2.130   1.092   2.745
 6425SOL    HW120716   2.132   1.004   2.783
 6425SOL    HW220717   2.078   1.144   2.807
 6426SOL     OW20718   2.449   1.798   3.273
 6426SOL    HW120719   2.375   1.777   3.330
 6426SOL    HW220720   2.485   1.879   3.309
 6427SOL     OW20721   2.433   0.990   2.007
 6427SOL    HW120722   2.486   1.029   1.937
 6427SOL    HW220723   2.473   1.021   2.088
 6428SOL     OW20724   3.518   0.123   3.344
 6428SOL    HW120725   3.480   0.185   3.282
 6428SOL    HW220726   3.474   0.141   3.427
 6429SOL     OW20727   1.983   0.660   2.424
 6429SOL    HW120728   1.952   0.572   2.445
 6429SOL    HW220729   1.975   0.709   2.506
 6430SOL     OW20730   3.708   1.746   2.182
 6430SOL    HW120731   3.774   1.722   2.248
 6430SOL    HW220732   3.720   1.840   2.169
 6431SOL     OW20733   1.904   1.586   1.978
 6431SOL    HW120734   1.886   1.494   1.999
 6431SOL    HW220735   1.878   1.634   2.056
 6432SOL     OW20736   3.548   0.915   2.504
 6432SOL    HW120737   3.637   0.882   2.492
 6432SOL    HW220738   3.533   0.971   2.427
 6433SOL     OW20739   3.518   1.104   2.291
 6433SOL    HW120740   3.605   1.102   2.251
 6433SOL    HW220741   3.525   1.168   2.362
 6434SOL     OW20742   1.999   0.754   3.446
 6434SOL    HW120743   2.092   0.776   3.453
 6434SOL    HW220744   1.954   0.837   3.466
 6435SOL     OW20745   2.482   1.394   2.594
 6435SOL    HW120746   2.439   1.309   2.603
 6435SOL    HW220747   2.466   1.420   2.503
 6436SOL     OW20748   3.146   1.232   3.278
 6436SOL    HW120749   3.180   1.165   3.219
 6436SOL    HW220750   3.204   1.229   3.354
 6437SOL     OW20751   2.703   0.031   2.412
 6437SOL    HW120752   2.751   0.106   2.376
 6437SOL    HW220753   2.615   0.066   2.430
 6438SOL     OW20754   2.047   0.961   3.140
 6438SOL    HW120755   2.135   0.926   3.128
 6438SOL    HW220756   1.991   0.907   3.085
 6439SOL     OW20757   3.396   1.006   2.063
 6439SOL    HW120758   3.326   0.949   2.095
 6439SOL    HW220759   3.438   1.039   2.142
 6440SOL     OW20760   3.037   1.817   3.484
 6440SOL    HW120761   3.052   1.885   3.419
 6440SOL    HW220762   3.075   1.737   3.446
 6441SOL     OW20763   2.170   0.228   3.635
 6441SOL    HW120764   2.241   0.281   3.671
 6441SOL    HW220765   2.094   0.250   3.688
 6442SOL     OW20766   3.330   1.415   2.813
 6442SOL    HW120767   3.264   1.432   2.880
 6442SOL    HW220768   3.313   1.324   2.786
 6443SOL     OW20769   3.518   1.758   2.436
 6443SOL    HW120770   3.492   1.719   2.353
 6443SOL    HW220771   3.500   1.691   2.501
 6444SOL     OW20772   2.455   0.716   2.136
 6444SOL    HW120773   2.460   0.804   2.099
 6444SOL    HW220774   2.391   0.723   2.207
 6445SOL     OW20775   3.155   0.374   2.794
 6445SOL    HW120776   3.064   0.346   2.798
 6445SOL    HW220777   3.200   0.319   2.857
 6446SOL     OW20778   3.441   1.672   2.174
 6446SOL    HW120779   3.533   1.696   2.167
 6446SOL    HW220780   3.414   1.656   2.083
 6447SOL     OW20781   2.634   0.641   3.300
 6447SOL    HW120782   2.622   0.611   3.390
 6447SOL    HW220783   2.624   0.563   3.247
 6448SOL     OW20784   3.281   0.492   3.543
 6448SOL    HW120785   3.276   0.536   3.628
 6448SOL    HW220786   3.356   0.434   3.550
 6449SOL     OW20787   2.809   0.882   3.449
 6449SOL    HW120788   2.862   0.814   3.409
 6449SOL    HW220789   2.761   0.921   3.376
 6450SOL     OW20790   2.870   0.411   3.075
 6450SOL    HW120791   2.784   0.435   3.109
 6450SOL    HW220792   2.852   0.371   2.990
 6451SOL     OW20793   2.916   0.701   2.287
 6451SOL    HW120794   2.937   0.696   2.380
 6451SOL    HW220795   2.832   0.656   2.279
 6452SOL     OW20796   1.950   0.828   2.640
 6452SOL    HW120797   2.032   0.819   2.689
 6452SOL    HW220798   1.906   0.902   2.680
 6453SOL     OW20799   1.971   1.829   3.439
 6453SOL    HW120800   1.981   1.814   3.533
 6453SOL    HW220801   1.900   1.892   3.432
 6454SOL     OW20802   2.748   0.351   2.073
 6454SOL    HW120803   2.799   0.393   2.004
 6454SOL    HW220804   2.746   0.259   2.048
 6455SOL     OW20805   3.569   0.567   3.692
 6455SOL    HW120806   3.534   0.644   3.647
 6455SOL    HW220807   3.594   0.507   3.622
 6456SOL     OW20808   3.246   1.143   2.402
 6456SOL    HW120809   3.328   1.138   2.352
 6456SOL    HW220810   3.194   1.207   2.354
 6457SOL     OW20811   2.404   0.248   2.777
 6457SOL    HW120812   2.395   0.257   2.872
 6457SOL    HW220813   2.406   0.338   2.745
 6458SOL     OW20814   2.855   1.444   2.325
 6458SOL    HW120815   2.832   1.523   2.277
 6458SOL    HW220816   2.833   1.464   2.416
 6459SOL     OW20817   2.214   1.817   2.740
 6459SOL    HW120818   2.262   1.735   2.745
 6459SOL    HW220819   2.280   1.885   2.759
 6460SOL     OW20820   3.659   1.040   2.737
 6460SOL    HW120821   3.601   1.032   2.662
 6460SOL    HW220822   3.600   1.055   2.811
 6461SOL     OW20823   3.088   1.544   3.372
 6461SOL    HW120824   3.076   1.471   3.433
 6461SOL    HW220825   3.001   1.557   3.333
 6462SOL     OW20826   2.169   0.962   2.120
 6462SOL    HW120827   2.253   0.980   2.078
 6462SOL    HW220828   2.144   0.875   2.090
 6463SOL     OW20829   3.341   0.753   2.579
 6463SOL    HW120830   3.339   0.717   2.667
 6463SOL    HW220831   3.418   0.810   2.577
 6464SOL     OW20832   2.336   1.268   3.599
 6464SOL    HW120833   2.311   1.271   3.507
 6464SOL    HW220834   2.253   1.266   3.647
 6465SOL     OW20835   2.987   1.786   2.078
 6465SOL    HW120836   2.913   1.749   2.127
 6465SOL    HW220837   3.013   1.716   2.018
 6466SOL     OW20838   2.051   0.256   3.365
 6466SOL    HW120839   1.991   0.330   3.359
 6466SOL    HW220840   2.071   0.249   3.458
 6467SOL     OW20841   3.490   1.379   1.943
 6467SOL    HW120842   3.449   1.465   1.938
 6467SOL    HW220843   3.418   1.317   1.926
 6468SOL     OW20844   2.324   1.731   2.184
 6468SOL    HW120845   2.367   1.789   2.247
 6468SOL    HW220846   2.394   1.699   2.128
 6469SOL     OW20847   3.282   0.129   2.264
 6469SOL    HW120848   3.314   0.108   2.176
 6469SOL    HW220849   3.362   0.147   2.315
 6470SOL     OW20850   2.107   1.787   3.096
 6470SOL    HW120851   2.164   1.731   3.148
 6470SOL    HW220852   2.124   1.761   3.005
 6471SOL     OW20853   2.803   1.702   2.761
 6471SOL    HW120854   2.883   1.659   2.792
 6471SOL    HW220855   2.771   1.645   2.690
 6472SOL     OW20856   2.258   0.689   2.333
 6472SOL    HW120857   2.275   0.597   2.351
 6472SOL    HW220858   2.165   0.701   2.351
 6473SOL     OW20859   3.411   0.203   3.586
 6473SOL    HW120860   3.414   0.237   3.675
 6473SOL    HW220861   3.335   0.145   3.585
 6474SOL     OW20862   2.468   0.152   1.957
 6474SOL    HW120863   2.535   0.106   2.006
 6474SOL    HW220864   2.434   0.087   1.895
 6475SOL     OW20865   2.576   0.303   3.620
 6475SOL    HW120866   2.670   0.296   3.638
 6475SOL    HW220867   2.534   0.266   3.698
 6476SOL     OW20868   2.734   1.518   3.054
 6476SOL    HW120869   2.717   1.477   2.969
 6476SOL    HW220870   2.805   1.465   3.092
 6477SOL     OW20871   3.202   0.596   3.299
 6477SOL    HW120872   3.240   0.570   3.383
 6477SOL    HW220873   3.236   0.684   3.284
 6478SOL     OW20874   2.684   1.378   2.811
 6478SOL    HW120875   2.771   1.371   2.771
 6478SOL    HW220876   2.624   1.392   2.737
 6479SOL     OW20877   2.787   0.521   2.753
 6479SOL    HW120878   2.756   0.511   2.663
 6479SOL    HW220879   2.825   0.435   2.775
 6480SOL     OW20880   2.427   0.020   2.269
 6480SOL    HW120881   2.360  -0.014   2.329
 6480SOL    HW220882   2.423   0.115   2.280
 6481SOL     OW20883   3.284   1.200   1.897
 6481SOL    HW120884   3.317   1.128   1.952
 6481SOL    HW220885   3.202   1.226   1.938
 6482SOL     OW20886   2.168   0.046   2.078
 6482SOL    HW120887   2.237   0.112   2.088
 6482SOL    HW220888   2.185  -0.017   2.148
 6483SOL     OW20889   2.819   0.263   2.327
 6483SOL    HW120890   2.785   0.297   2.244
 6483SOL    HW220891   2.913   0.281   2.324
 6484SOL     OW20892   2.939   0.676   3.321
 6484SOL    HW120893   2.886   0.599   3.342
 6484SOL    HW220894   3.029   0.642   3.319
 6485SOL     OW20895   3.085   1.571   2.653
 6485SOL    HW120896   3.097   1.639   2.586
 6485SOL    HW220897   3.136   1.601   2.728
 6486SOL     OW20898   2.337   1.156   2.581
 6486SOL    HW120899   2.273   1.136   2.649
 6486SOL    HW220900   2.288   1.146   2.499
 6487SOL     OW20901   3.122   1.790   2.474
 6487SOL    HW120902   3.173   1.856   2.426
 6487SOL    HW220903   3.054   1.840   2.519
 6488SOL     OW20904   2.888   0.514   1.885
 6488SOL    HW120905   2.843   0.597   1.869
 6488SOL    HW220906   2.948   0.532   1.958
 6489SOL     OW20907   1.954   0.561   3.260
 6489SOL    HW120908   2.045   0.561   3.230
 6489SOL    HW220909   1.951   0.632   3.325
 6490SOL     OW20910   2.430   0.229   3.059
 6490SOL    HW120911   2.470   0.192   3.137
 6490SOL    HW220912   2.336   0.225   3.075
 6491SOL     OW20913   2.712   0.460   2.497
 6491SOL    HW120914   2.685   0.517   2.425
 6491SOL    HW220915   2.743   0.381   2.454
 6492SOL     OW20916   2.826   0.038   2.656
 6492SOL    HW120917   2.785   0.037   2.570
 6492SOL    HW220918   2.851  -0.053   2.672
 6493SOL     OW20919   3.301   1.154   2.722
 6493SOL    HW120920   3.231   1.089   2.732
 6493SOL    HW220921   3.312   1.163   2.627
 6494SOL     OW20922   3.325   0.612   2.819
 6494SOL    HW120923   3.268   0.535   2.824
 6494SOL    HW220924   3.381   0.606   2.896
 6495SOL     OW20925   3.704   0.806   2.244
 6495SOL    HW120926   3.761   0.761   2.307
 6495SOL    HW220927   3.686   0.740   2.177
 6496SOL     OW20928   2.353   1.422   2.014
 6496SOL    HW120929   2.276   1.396   2.064
 6496SOL    HW220930   2.351   1.366   1.936
 6497SOL     OW20931   3.548   1.268   2.498
 6497SOL    HW120932   3.641   1.266   2.519
 6497SOL    HW220933   3.518   1.354   2.528
 6498SOL     OW20934   3.257   0.578   1.936
 6498SOL    HW120935   3.188   0.552   1.996
 6498SOL    HW220936   3.338   0.548   1.978
 6499SOL     OW20937   2.355   0.280   2.168
 6499SOL    HW120938   2.410   0.238   2.102
 6499SOL    HW220939   2.333   0.365   2.130
 6500SOL     OW20940   3.606   1.243   3.408
 6500SOL    HW120941   3.694   1.208   3.397
 6500SOL    HW220942   3.619   1.331   3.443
 6501SOL     OW20943   2.917   1.342   3.177
 6501SOL    HW120944   2.841   1.319   3.230
 6501SOL    HW220945   2.992   1.309   3.228
 6502SOL     OW20946   3.466   1.619   3.516
 6502SOL    HW120947   3.465   1.666   3.432
 6502SOL    HW220948   3.550   1.574   3.517
 6503SOL     OW20949   2.984   1.191   2.955
 6503SOL    HW120950   2.945   1.243   3.026
 6503SOL    HW220951   2.967   1.243   2.876
 6504SOL     OW20952   3.484   1.099   2.939
 6504SOL    HW120953   3.479   1.163   3.010
 6504SOL    HW220954   3.411   1.120   2.882
 6505SOL     OW20955   2.776   0.124   3.255
 6505SOL    HW120956   2.801   0.117   3.163
 6505SOL    HW220957   2.859   0.124   3.302
 6506SOL     OW20958   2.845   1.118   3.582
 6506SOL    HW120959   2.755   1.134   3.610
 6506SOL    HW220960   2.840   1.037   3.531
 6507SOL     OW20961   2.574   1.062   2.235
 6507SOL    HW120962   2.560   1.041   2.327
 6507SOL    HW220963   2.648   1.007   2.208
 6508SOL     OW20964   2.283   0.825   3.113
 6508SOL    HW120965   2.347   0.840   3.182
 6508SOL    HW220966   2.252   0.735   3.129
 6509SOL     OW20967   3.131   0.382   3.145
 6509SOL    HW120968   3.161   0.462   3.189
 6509SOL    HW220969   3.042   0.403   3.116
 6510SOL     OW20970   1.944   1.568   3.217
 6510SOL    HW120971   1.932   1.659   3.190
 6510SOL    HW220972   2.039   1.555   3.217
 6511SOL     OW20973   2.183   1.127   2.351
 6511SOL    HW120974   2.189   1.202   2.292
 6511SOL    HW220975   2.184   1.050   2.294
 6512SOL     OW20976   2.416   0.516   2.713
 6512SOL    HW120977   2.424   0.577   2.639
 6512SOL    HW220978   2.477   0.550   2.778
 6513SOL     OW20979   3.108   1.354   2.253
 6513SOL    HW120980   3.163   1.424   2.288
 6513SOL    HW220981   3.021   1.373   2.288
 6514SOL     OW20982   3.154   1.462   3.020
 6514SOL    HW120983   3.217   1.476   3.091
 6514SOL    HW220984   3.085   1.410   3.060
 6515SOL     OW20985   3.432   0.637   2.342
 6515SOL    HW120986   3.383   0.673   2.416
 6515SOL    HW220987   3.479   0.713   2.307
 6516SOL     OW20988   2.210   1.519   3.175
 6516SOL    HW120989   2.200   1.478   3.089
 6516SOL    HW220990   2.303   1.536   3.183
 6517SOL     OW20991   2.299   0.732   3.481
 6517SOL    HW120992   2.346   0.785   3.417
 6517SOL    HW220993   2.363   0.668   3.512
 6518SOL     OW20994   3.476   0.780   3.554
 6518SOL    HW120995   3.389   0.821   3.549
 6518SOL    HW220996   3.527   0.824   3.486
 6519SOL     OW20997   2.908   0.063   3.587
 6519SOL    HW120998   2.921   0.156   3.604
 6519SOL    HW220999   2.813   0.051   3.588
 6520SOL     OW21000   2.367   0.024   3.596
 6520SOL    HW121001   2.347  -0.030   3.519
 6520SOL    HW221002   2.302   0.094   3.594
 6521SOL     OW21003   2.447   0.878   2.895
 6521SOL    HW121004   2.488   0.964   2.899
 6521SOL    HW221005   2.392   0.873   2.974
 6522SOL     OW21006   3.195   0.858   2.866
 6522SOL    HW121007   3.104   0.837   2.845
 6522SOL    HW221008   3.242   0.775   2.858
 6523SOL     OW21009   3.049   0.533   2.111
 6523SOL    HW121010   3.065   0.453   2.161
 6523SOL    HW221011   3.011   0.594   2.175
 6524SOL     OW21012   2.161   0.199   3.098
 6524SOL    HW121013   2.113   0.218   3.179
 6524SOL    HW221014   2.141   0.108   3.078
 6525SOL     OW21015   1.890   1.312   3.134
 6525SOL    HW121016   1.930   1.257   3.201
 6525SOL    HW221017   1.907   1.402   3.164
 6526SOL     OW21018   2.571   0.627   2.906
 6526SOL    HW121019   2.653   0.622   2.858
 6526SOL    HW221020   2.543   0.718   2.897
 6527SOL     OW21021   3.607   0.958   3.727
 6527SOL    HW121022   3.559   0.891   3.678
 6527SOL    HW221023   3.547   0.983   3.798
 6528SOL     OW21024   2.274   0.080   2.541
 6528SOL    HW121025   2.221   0.157   2.559
 6528SOL    HW221026   2.213   0.006   2.547
 6529SOL     OW21027   3.498   0.409   2.212
 6529SOL    HW121028   3.507   0.336   2.273
 6529SOL    HW221029   3.466   0.482   2.266
 6530SOL     OW21030   2.896   0.761   2.823
 6530SOL    HW121031   2.881   0.775   2.917
 6530SOL    HW221032   2.864   0.672   2.807
 6531SOL     OW21033   2.837   1.565   3.586
 6531SOL    HW121034   2.827   1.608   3.502
 6531SOL    HW221035   2.882   1.483   3.567
 6532SOL     OW21036   3.711   1.493   3.466
 6532SOL    HW121037   3.733   1.528   3.380
 6532SOL    HW221038   3.787   1.513   3.520
 6533SOL     OW21039   2.214   0.920   3.669
 6533SOL    HW121040   2.288   0.945   3.724
 6533SOL    HW221041   2.249   0.852   3.611
 6534SOL     OW21042   3.462   0.282   1.974
 6534SOL    HW121043   3.464   0.194   2.011
 6534SOL    HW221044   3.467   0.340   2.051
 6535SOL     OW21045   3.142   0.823   1.886
 6535SOL    HW121046   3.186   0.739   1.897
 6535SOL    HW221047   3.179   0.860   1.805
 6536SOL     OW21048   2.936   1.344   2.719
 6536SOL    HW121049   2.944   1.272   2.656
 6536SOL    HW221050   2.994   1.412   2.686
 6537SOL     OW21051   2.175   0.815   2.804
 6537SOL    HW121052   2.268   0.838   2.806
 6537SOL    HW221053   2.171   0.726   2.839
 6538SOL     OW21054   2.198   0.542   2.874
 6538SOL    HW121055   2.156   0.457   2.860
 6538SOL    HW221056   2.273   0.541   2.815
 6539SOL     OW21057   3.039   0.367   3.566
 6539SOL    HW121058   2.977   0.423   3.612
 6539SOL    HW221059   3.116   0.422   3.554
 6540SOL     OW21060   3.028   0.219   3.338
 6540SOL    HW121061   3.038   0.267   3.420
 6540SOL    HW221062   3.065   0.277   3.271
 6541SOL     OW21063   1.868   1.312   2.053
 6541SOL    HW121064   1.780   1.330   2.018
 6541SOL    HW221065   1.862   1.223   2.088
 6542SOL     OW21066   1.947   1.781   2.799
 6542SOL    HW121067   1.921   1.702   2.751
 6542SOL    HW221068   2.038   1.795   2.774
 6543SOL     OW21069   2.350   1.573   2.763
 6543SOL    HW121070   2.419   1.636   2.785
 6543SOL    HW221071   2.393   1.509   2.706
 6544SOL     OW21072   2.825   0.776   3.088
 6544SOL    HW121073   2.889   0.754   3.156
 6544SOL    HW221074   2.740   0.757   3.127
 6545SOL     OW21075   1.899   0.560   2.982
 6545SOL    HW121076   1.978   0.544   2.931
 6545SOL    HW221077   1.928   0.555   3.073
 6546SOL     OW21078   2.050   0.530   3.595
 6546SOL    HW121079   2.140   0.528   3.562
 6546SOL    HW221080   2.009   0.603   3.549
 6547SOL     OW21081   3.248   0.926   3.516
 6547SOL    HW121082   3.268   1.020   3.515
 6547SOL    HW221083   3.243   0.902   3.423
 6548SOL     OW21084   2.679   0.572   2.236
 6548SOL    HW121085   2.686   0.498   2.177
 6548SOL    HW221086   2.604   0.622   2.203
 6549SOL     OW21087   3.499   0.605   3.029
 6549SOL    HW121088   3.489   0.555   3.110
 6549SOL    HW221089   3.588   0.586   3.000
 6550SOL     OW21090   2.093   1.543   3.583
 6550SOL    HW121091   2.080   1.611   3.648
 6550SOL    HW221092   2.108   1.463   3.635
 6551SOL     OW21093   2.596   0.449   3.111
 6551SOL    HW121094   2.531   0.380   3.096
 6551SOL    HW221095   2.578   0.513   3.042
 6552SOL     OW21096   2.801   1.668   3.326
 6552SOL    HW121097   2.759   1.639   3.246
 6552SOL    HW221098   2.797   1.764   3.321
 6553SOL     OW21099   2.311   0.507   2.026
 6553SOL    HW121100   2.373   0.574   2.056
 6553SOL    HW221101   2.227   0.551   2.024
 6554SOL     OW21102   1.991   1.143   3.333
 6554SOL    HW121103   1.997   1.097   3.417
 6554SOL    HW221104   2.013   1.077   3.268
 6555SOL     OW21105   3.178   1.037   3.072
 6555SOL    HW121106   3.198   0.976   3.001
 6555SOL    HW221107   3.109   1.093   3.037
 6556SOL     OW21108   3.184   0.861   2.161
 6556SOL    HW121109   3.116   0.829   2.221
 6556SOL    HW221110   3.149   0.843   2.074
 6557SOL     OW21111   3.614   1.737   3.000
 6557SOL    HW121112   3.686   1.762   2.942
 6557SOL    HW221113   3.605   1.642   2.988
 6558SOL     OW21114   3.096   1.720   2.931
 6558SOL    HW121115   3.183   1.755   2.909
 6558SOL    HW221116   3.114   1.635   2.972
 6559SOL     OW21117   1.955   1.259   2.874
 6559SOL    HW121118   1.930   1.277   2.964
 6559SOL    HW221119   1.884   1.204   2.840
 6560SOL     OW21120   2.541   1.673   3.608
 6560SOL    HW121121   2.486   1.751   3.601
 6560SOL    HW221122   2.626   1.700   3.572
 6561SOL     OW21123   3.536   0.170   2.364
 6561SOL    HW121124   3.621   0.150   2.325
 6561SOL    HW221125   3.539   0.129   2.451
 6562SOL     OW21126   3.252   1.570   2.353
 6562SOL    HW121127   3.312   1.607   2.288
 6562SOL    HW221128   3.203   1.645   2.387
 6563SOL     OW21129   2.008   1.793   3.705
 6563SOL    HW121130   1.958   1.729   3.755
 6563SOL    HW221131   2.058   1.841   3.772
 6564SOL     OW21132   3.137   0.929   2.524
 6564SOL    HW121133   3.212   0.871   2.541
 6564SOL    HW221134   3.174   1.002   2.475
 6565SOL     OW21135   2.664   1.282   3.282
 6565SOL    HW121136   2.639   1.325   3.364
 6565SOL    HW221137   2.592   1.301   3.222
 6566SOL     OW21138   2.528   1.628   2.022
 6566SOL    HW121139   2.540   1.643   1.928
 6566SOL    HW221140   2.475   1.549   2.027
 6567SOL     OW21141   3.478   1.734   3.250
 6567SOL    HW121142   3.528   1.741   3.168
 6567SOL    HW221143   3.466   1.825   3.278
 6568SOL     OW21144   3.718   0.169   2.811
 6568SOL    HW121145   3.711   0.081   2.847
 6568SOL    HW221146   3.632   0.187   2.774
 6569SOL     OW21147   2.115   0.299   2.577
 6569SOL    HW121148   2.036   0.346   2.552
 6569SOL    HW221149   2.118   0.305   2.672
 6570SOL     OW21150   3.071   1.595   1.896
 6570SOL    HW121151   3.059   1.505   1.928
 6570SOL    HW221152   3.000   1.608   1.833
 6571SOL     OW21153   2.688   1.013   3.237
 6571SOL    HW121154   2.734   1.010   3.154
 6571SOL    HW221155   2.682   1.106   3.258
 6572SOL     OW21156   2.775   0.906   2.148
 6572SOL    HW121157   2.836   0.942   2.083
 6572SOL    HW221158   2.828   0.843   2.198
 6573SOL     OW21159   3.349   1.627   1.909
 6573SOL    HW121160   3.255   1.617   1.896
 6573SOL    HW221161   3.385   1.634   1.821
 6574SOL     OW21162   2.226   1.298   3.355
 6574SOL    HW121163   2.218   1.376   3.300
 6574SOL    HW221164   2.145   1.250   3.340
 6575SOL     OW21165   3.470   1.288   3.143
 6575SOL    HW121166   3.525   1.269   3.219
 6575SOL    HW221167   3.411   1.357   3.173
 6576SOL     OW21168   2.929   1.113   2.573
 6576SOL    HW121169   2.857   1.065   2.613
 6576SOL    HW221170   2.994   1.046   2.551
 6577SOL     OW21171   2.894   0.266   2.807
 6577SOL    HW121172   2.874   0.210   2.731
 6577SOL    HW221173   2.897   0.205   2.881
 6578SOL     OW21174   2.466   1.482   2.337
 6578SOL    HW121175   2.516   1.435   2.271
 6578SOL    HW221176   2.394   1.522   2.288
 6579SOL     OW21177   3.583   0.424   3.240
 6579SOL    HW121178   3.656   0.485   3.249
 6579SOL    HW221179   3.616   0.355   3.183
 6580SOL     OW21180   2.121   1.344   2.148
 6580SOL    HW121181   2.029   1.337   2.125
 6580SOL    HW221182   2.122   1.386   2.234
 6581SOL     OW21183   1.973   1.017   3.575
 6581SOL    HW121184   1.900   1.002   3.636
 6581SOL    HW221185   2.050   0.988   3.623
 6582SOL     OW21186   2.533   0.219   3.354
 6582SOL    HW121187   2.608   0.165   3.329
 6582SOL    HW221188   2.547   0.238   3.446
 6583SOL     OW21189   1.942   0.328   1.891
 6583SOL    HW121190   1.846   0.329   1.889
 6583SOL    HW221191   1.968   0.405   1.840
 6584SOL     OW21192   3.284   0.857   3.252
 6584SOL    HW121193   3.234   0.919   3.199
 6584SOL    HW221194   3.374   0.864   3.220
 6585SOL     OW21195   1.927   0.180   2.148
 6585SOL    HW121196   1.932   0.249   2.082
 6585SOL    HW221197   2.004   0.126   2.132
 6586SOL     OW21198   3.040   1.330   1.984
 6586SOL    HW121199   2.952   1.293   1.989
 6586SOL    HW221200   3.068   1.336   2.075
 6587SOL     OW21201   2.473   0.851   3.300
 6587SOL    HW121202   2.532   0.925   3.287
 6587SOL    HW221203   2.530   0.775   3.303
 6588SOL     OW21204   3.355   1.787   2.847
 6588SOL    HW121205   3.374   1.865   2.795
 6588SOL    HW221206   3.434   1.773   2.899
 6589SOL     OW21207   2.549   0.581   3.558
 6589SOL    HW121208   2.608   0.630   3.615
 6589SOL    HW221209   2.559   0.490   3.586
 6590SOL     OW21210   3.334   1.188   3.487
 6590SOL    HW121211   3.321   1.206   3.580
 6590SOL    HW221212   3.424   1.214   3.470
 6591SOL     OW21213   2.226   1.735   3.421
 6591SOL    HW121214   2.139   1.774   3.411
 6591SOL    HW221215   2.209   1.651   3.464
 6592SOL     OW21216   3.524   0.882   3.113
 6592SOL    HW121217   3.518   0.799   3.066
 6592SOL    HW221218   3.514   0.949   3.046
 6593SOL     OW21219   3.084   0.326   2.307
 6593SOL    HW121220   3.149   0.257   2.291
 6593SOL    HW221221   3.117   0.372   2.385
 6594SOL     OW21222   2.444   0.728   2.537
 6594SOL    HW121223   2.486   0.813   2.527
 6594SOL    HW221224   2.381   0.724   2.466
 6595SOL     OW21225   3.614   0.376   3.506
 6595SOL    HW121226   3.597   0.392   3.413
 6595SOL    HW221227   3.553   0.306   3.530
 6596SOL     OW21228   3.605   0.933   3.372
 6596SOL    HW121229   3.597   1.027   3.388
 6596SOL    HW221230   3.588   0.923   3.279
 6597SOL     OW21231   2.715   1.362   1.910
 6597SOL    HW121232   2.687   1.373   2.001
 6597SOL    HW221233   2.734   1.451   1.879
 6598SOL     OW21234   2.525   1.777   2.784
 6598SOL    HW121235   2.507   1.871   2.779
 6598SOL    HW221236   2.620   1.772   2.792
 6599SOL     OW21237   2.734   0.974   2.714
 6599SOL    HW121238   2.787   0.904   2.754
 6599SOL    HW221239   2.691   1.017   2.789
 6600SOL     OW21240   2.935   0.989   1.947
 6600SOL    HW121241   2.917   1.041   1.868
 6600SOL    HW221242   3.009   0.934   1.922
 6601SOL     OW21243   3.699   1.544   2.700
 6601SOL    HW121244   3.618   1.542   2.649
 6601SOL    HW221245   3.675   1.507   2.784
 6602SOL     OW21246   2.099   1.299   3.726
 6602SOL    HW121247   2.020   1.248   3.710
 6602SOL    HW221248   2.101   1.312   3.821
 6603SOL     OW21249   1.960   1.218   2.526
 6603SOL    HW121250   1.985   1.181   2.611
 6603SOL    HW221251   2.026   1.185   2.465
 6604SOL     OW21252   2.546   1.415   3.489
 6604SOL    HW121253   2.471   1.373   3.531
 6604SOL    HW221254   2.548   1.503   3.528
 6605SOL     OW21255   3.685   0.230   3.088
 6605SOL    HW121256   3.623   0.157   3.088
 6605SOL    HW221257   3.708   0.242   2.996
 6606SOL     OW21258   2.290   0.430   2.396
 6606SOL    HW121259   2.316   0.364   2.332
 6606SOL    HW221260   2.235   0.382   2.458
 6607SOL     OW21261   3.571   1.471   2.937
 6607SOL    HW121262   3.485   1.456   2.899
 6607SOL    HW221263   3.574   1.412   3.012
 6608SOL     OW21264   2.201   0.565   3.153
 6608SOL    HW121265   2.251   0.504   3.207
 6608SOL    HW221266   2.219   0.540   3.063
 6609SOL     OW21267   2.701   1.577   2.535
 6609SOL    HW121268   2.672   1.652   2.481
 6609SOL    HW221269   2.623   1.522   2.542
 6610SOL     OW21270   3.290   0.226   2.979
 6610SOL    HW121271   3.349   0.167   3.026
 6610SOL    HW221272   3.241   0.272   3.047
 6611SOL     OW21273   2.885   0.075   2.995
 6611SOL    HW121274   2.811   0.016   2.979
 6611SOL    HW221275   2.957   0.017   3.021
 6612SOL     OW21276   2.643   1.331   2.179
 6612SOL    HW121277   2.618   1.240   2.197
 6612SOL    HW221278   2.719   1.347   2.235
 6613SOL     OW21279   2.481   1.558   3.146
 6613SOL    HW121280   2.478   1.643   3.191
 6613SOL    HW221281   2.571   1.552   3.113
 6614SOL     OW21282   3.211   7.992   1.962
 6614SOL    HW121283   3.290   7.947   1.994
 6614SOL    HW221284   3.149   7.986   2.035
 6615SOL     OW21285   3.162   0.466   2.533
 6615SOL    HW121286   3.109   0.545   2.536
 6615SOL    HW221287   3.161   0.433   2.623
 6616SOL     OW21288   3.470   0.220   2.725
 6616SOL    HW121289   3.394   0.219   2.784
 6616SOL    HW221290   3.462   0.301   2.676
 6617SOL     OW21291   1.901   1.059   2.169
 6617SOL    HW121292   1.995   1.051   2.152
 6617SOL    HW221293   1.873   0.971   2.191
 6618SOL     OW21294   2.756   1.667   2.192
 6618SOL    HW121295   2.677   1.651   2.140
 6618SOL    HW221296   2.731   1.734   2.255
 6619SOL     OW21297   2.069   0.633   3.860
 6619SOL    HW121298   1.984   0.620   3.901
 6619SOL    HW221299   2.056   0.608   3.769
 6620SOL     OW21300   2.080   0.307   4.713
 6620SOL    HW121301   2.114   0.263   4.791
 6620SOL    HW221302   1.995   0.265   4.698
 6621SOL     OW21303   1.868   0.398   4.361
 6621SOL    HW121304   1.780   0.421   4.393
 6621SOL    HW221305   1.861   0.306   4.336
 6622SOL     OW21306   2.428   1.301   4.909
 6622SOL    HW121307   2.344   1.314   4.864
 6622SOL    HW221308   2.450   1.387   4.944
 6623SOL     OW21309   3.433   1.510   4.433
 6623SOL    HW121310   3.390   1.496   4.517
 6623SOL    HW221311   3.361   1.520   4.370
 6624SOL     OW21312   2.996   0.699   4.417
 6624SOL    HW121313   3.044   0.781   4.403
 6624SOL    HW221314   2.951   0.712   4.500
 6625SOL     OW21315   3.669   0.585   3.941
 6625SOL    HW121316   3.629   0.585   3.854
 6625SOL    HW221317   3.616   0.522   3.991
 6626SOL     OW21318   2.592   1.130   4.770
 6626SOL    HW121319   2.530   1.172   4.830
 6626SOL    HW221320   2.639   1.203   4.729
 6627SOL     OW21321   2.742   0.751   5.545
 6627SOL    HW121322   2.744   0.817   5.614
 6627SOL    HW221323   2.762   0.799   5.465
 6628SOL     OW21324   2.546   0.989   4.369
 6628SOL    HW121325   2.615   0.986   4.436
 6628SOL    HW221326   2.480   1.048   4.405
 6629SOL     OW21327   2.576   1.150   5.549
 6629SOL    HW121328   2.625   1.225   5.582
 6629SOL    HW221329   2.499   1.188   5.506
 6630SOL     OW21330   2.197   1.412   4.790
 6630SOL    HW121331   2.121   1.375   4.744
 6630SOL    HW221332   2.240   1.467   4.724
 6631SOL     OW21333   3.325   1.507   5.089
 6631SOL    HW121334   3.380   1.585   5.097
 6631SOL    HW221335   3.256   1.519   5.155
 6632SOL     OW21336   2.309   0.380   5.185
 6632SOL    HW121337   2.391   0.333   5.198
 6632SOL    HW221338   2.241   0.316   5.205
 6633SOL     OW21339   3.468   0.460   4.454
 6633SOL    HW121340   3.394   0.477   4.396
 6633SOL    HW221341   3.467   0.531   4.517
 6634SOL     OW21342   2.085   1.715   4.189
 6634SOL    HW121343   2.105   1.787   4.249
 6634SOL    HW221344   2.165   1.705   4.137
 6635SOL     OW21345   2.999   1.344   5.418
 6635SOL    HW121346   3.047   1.335   5.500
 6635SOL    HW221347   2.948   1.263   5.411
 6636SOL     OW21348   2.083   1.444   4.251
 6636SOL    HW121349   2.077   1.540   4.252
 6636SOL    HW221350   2.038   1.416   4.330
 6637SOL     OW21351   2.125   1.092   4.604
 6637SOL    HW121352   2.130   1.005   4.643
 6637SOL    HW221353   2.075   1.144   4.666
 6638SOL     OW21354   2.449   1.795   5.135
 6638SOL    HW121355   2.374   1.778   5.192
 6638SOL    HW221356   2.485   1.878   5.168
 6639SOL     OW21357   2.432   0.992   3.869
 6639SOL    HW121358   2.485   1.032   3.800
 6639SOL    HW221359   2.473   1.022   3.951
 6640SOL     OW21360   3.509   0.128   5.205
 6640SOL    HW121361   3.497   0.203   5.147
 6640SOL    HW221362   3.459   0.150   5.284
 6641SOL     OW21363   1.980   0.660   4.286
 6641SOL    HW121364   1.951   0.572   4.308
 6641SOL    HW221365   1.973   0.709   4.368
 6642SOL     OW21366   3.709   1.749   4.046
 6642SOL    HW121367   3.776   1.726   4.110
 6642SOL    HW221368   3.720   1.843   4.032
 6643SOL     OW21369   1.895   1.589   3.842
 6643SOL    HW121370   1.884   1.497   3.865
 6643SOL    HW221371   1.875   1.636   3.924
 6644SOL     OW21372   3.542   0.903   4.353
 6644SOL    HW121373   3.636   0.885   4.355
 6644SOL    HW221374   3.531   0.966   4.282
 6645SOL     OW21375   3.517   1.106   4.156
 6645SOL    HW121376   3.604   1.106   4.116
 6645SOL    HW221377   3.524   1.167   4.229
 6646SOL     OW21378   1.995   0.754   5.309
 6646SOL    HW121379   2.087   0.780   5.313
 6646SOL    HW221380   1.946   0.835   5.322
 6647SOL     OW21381   2.477   1.394   4.456
 6647SOL    HW121382   2.436   1.308   4.463
 6647SOL    HW221383   2.462   1.420   4.365
 6648SOL     OW21384   3.145   1.228   5.144
 6648SOL    HW121385   3.179   1.164   5.081
 6648SOL    HW221386   3.207   1.227   5.216
 6649SOL     OW21387   2.702   0.033   4.274
 6649SOL    HW121388   2.750   0.107   4.237
 6649SOL    HW221389   2.615   0.068   4.294
 6650SOL     OW21390   2.046   0.959   5.006
 6650SOL    HW121391   2.134   0.924   4.994
 6650SOL    HW221392   1.993   0.914   4.940
 6651SOL     OW21393   3.395   1.005   3.926
 6651SOL    HW121394   3.327   0.948   3.960
 6651SOL    HW221395   3.438   1.040   4.004
 6652SOL     OW21396   3.032   1.815   5.349
 6652SOL    HW121397   3.047   1.886   5.287
 6652SOL    HW221398   3.074   1.739   5.309
 6653SOL     OW21399   2.169   0.227   5.495
 6653SOL    HW121400   2.240   0.283   5.526
 6653SOL    HW221401   2.094   0.249   5.550
 6654SOL     OW21402   3.328   1.417   4.675
 6654SOL    HW121403   3.262   1.434   4.742
 6654SOL    HW221404   3.313   1.325   4.650
 6655SOL     OW21405   3.525   1.751   4.299
 6655SOL    HW121406   3.498   1.719   4.213
 6655SOL    HW221407   3.499   1.682   4.360
 6656SOL     OW21408   2.457   0.716   3.997
 6656SOL    HW121409   2.465   0.804   3.960
 6656SOL    HW221410   2.392   0.725   4.068
 6657SOL     OW21411   3.155   0.373   4.657
 6657SOL    HW121412   3.063   0.345   4.661
 6657SOL    HW221413   3.200   0.318   4.720
 6658SOL     OW21414   3.444   1.666   4.036
 6658SOL    HW121415   3.534   1.696   4.029
 6658SOL    HW221416   3.415   1.654   3.946
 6659SOL     OW21417   2.638   0.639   5.164
 6659SOL    HW121418   2.622   0.608   5.253
 6659SOL    HW221419   2.623   0.563   5.108
 6660SOL     OW21420   3.281   0.492   5.401
 6660SOL    HW121421   3.282   0.537   5.486
 6660SOL    HW221422   3.343   0.420   5.412
 6661SOL     OW21423   2.807   0.884   5.310
 6661SOL    HW121424   2.863   0.817   5.269
 6661SOL    HW221425   2.761   0.924   5.236
 6662SOL     OW21426   2.867   0.410   4.942
 6662SOL    HW121427   2.779   0.435   4.970
 6662SOL    HW221428   2.855   0.375   4.854
 6663SOL     OW21429   2.916   0.698   4.149
 6663SOL    HW121430   2.937   0.695   4.243
 6663SOL    HW221431   2.832   0.654   4.141
 6664SOL     OW21432   1.948   0.828   4.503
 6664SOL    HW121433   2.031   0.820   4.550
 6664SOL    HW221434   1.904   0.901   4.544
 6665SOL     OW21435   1.971   1.833   5.301
 6665SOL    HW121436   1.980   1.818   5.395
 6665SOL    HW221437   1.887   1.878   5.292
 6666SOL     OW21438   2.752   0.350   3.929
 6666SOL    HW121439   2.808   0.396   3.866
 6666SOL    HW221440   2.765   0.257   3.909
 6667SOL     OW21441   3.564   0.569   5.556
 6667SOL    HW121442   3.532   0.646   5.510
 6667SOL    HW221443   3.591   0.508   5.487
 6668SOL     OW21444   3.243   1.141   4.257
 6668SOL    HW121445   3.326   1.138   4.210
 6668SOL    HW221446   3.192   1.208   4.212
 6669SOL     OW21447   2.394   0.248   4.639
 6669SOL    HW121448   2.395   0.256   4.734
 6669SOL    HW221449   2.401   0.338   4.606
 6670SOL     OW21450   2.854   1.443   4.188
 6670SOL    HW121451   2.830   1.521   4.138
 6670SOL    HW221452   2.835   1.465   4.279
 6671SOL     OW21453   2.214   1.819   4.605
 6671SOL    HW121454   2.265   1.737   4.609
 6671SOL    HW221455   2.279   1.888   4.620
 6672SOL     OW21456   3.654   1.027   4.601
 6672SOL    HW121457   3.600   1.052   4.526
 6672SOL    HW221458   3.600   1.047   4.677
 6673SOL     OW21459   3.089   1.542   5.236
 6673SOL    HW121460   3.076   1.468   5.295
 6673SOL    HW221461   3.006   1.552   5.190
 6674SOL     OW21462   2.170   0.964   3.982
 6674SOL    HW121463   2.255   0.982   3.942
 6674SOL    HW221464   2.147   0.877   3.950
 6675SOL     OW21465   3.338   0.749   4.440
 6675SOL    HW121466   3.339   0.718   4.530
 6675SOL    HW221467   3.415   0.805   4.432
 6676SOL     OW21468   2.335   1.268   5.463
 6676SOL    HW121469   2.310   1.271   5.371
 6676SOL    HW221470   2.251   1.267   5.510
 6677SOL     OW21471   2.985   1.782   3.944
 6677SOL    HW121472   2.910   1.743   3.990
 6677SOL    HW221473   3.012   1.715   3.881
 6678SOL     OW21474   2.047   0.252   5.225
 6678SOL    HW121475   1.995   0.331   5.212
 6678SOL    HW221476   2.067   0.252   5.318
 6679SOL     OW21477   3.491   1.375   3.810
 6679SOL    HW121478   3.453   1.463   3.802
 6679SOL    HW221479   3.418   1.316   3.789
 6680SOL     OW21480   2.330   1.724   4.051
 6680SOL    HW121481   2.370   1.789   4.109
 6680SOL    HW221482   2.399   1.703   3.987
 6681SOL     OW21483   3.277   0.129   4.130
 6681SOL    HW121484   3.305   0.116   4.039
 6681SOL    HW221485   3.359   0.143   4.178
 6682SOL     OW21486   2.107   1.785   4.955
 6682SOL    HW121487   2.166   1.729   5.006
 6682SOL    HW221488   2.128   1.765   4.864
 6683SOL     OW21489   2.804   1.700   4.625
 6683SOL    HW121490   2.889   1.662   4.647
 6683SOL    HW221491   2.772   1.645   4.554
 6684SOL     OW21492   2.258   0.691   4.194
 6684SOL    HW121493   2.275   0.598   4.213
 6684SOL    HW221494   2.165   0.702   4.212
 6685SOL     OW21495   3.397   0.214   5.446
 6685SOL    HW121496   3.401   0.239   5.538
 6685SOL    HW221497   3.335   0.141   5.444
 6686SOL     OW21498   2.462   0.148   3.821
 6686SOL    HW121499   2.533   0.104   3.869
 6686SOL    HW221500   2.433   0.083   3.756
 6687SOL     OW21501   2.575   0.302   5.486
 6687SOL    HW121502   2.671   0.302   5.486
 6687SOL    HW221503   2.551   0.275   5.574
 6688SOL     OW21504   2.731   1.511   4.918
 6688SOL    HW121505   2.717   1.475   4.830
 6688SOL    HW221506   2.807   1.463   4.951
 6689SOL     OW21507   3.202   0.596   5.159
 6689SOL    HW121508   3.242   0.570   5.242
 6689SOL    HW221509   3.236   0.684   5.143
 6690SOL     OW21510   2.683   1.376   4.670
 6690SOL    HW121511   2.771   1.371   4.632
 6690SOL    HW221512   2.626   1.394   4.596
 6691SOL     OW21513   2.785   0.519   4.616
 6691SOL    HW121514   2.754   0.510   4.526
 6691SOL    HW221515   2.824   0.433   4.636
 6692SOL     OW21516   2.423   0.021   4.134
 6692SOL    HW121517   2.358  -0.007   4.199
 6692SOL    HW221518   2.421   0.117   4.137
 6693SOL     OW21519   3.284   1.199   3.758
 6693SOL    HW121520   3.315   1.129   3.815
 6693SOL    HW221521   3.202   1.228   3.799
 6694SOL     OW21522   2.165   0.044   3.939
 6694SOL    HW121523   2.240   0.104   3.940
 6694SOL    HW221524   2.184  -0.017   4.010
 6695SOL     OW21525   2.816   0.265   4.187
 6695SOL    HW121526   2.783   0.298   4.104
 6695SOL    HW221527   2.910   0.282   4.184
 6696SOL     OW21528   2.942   0.681   5.184
 6696SOL    HW121529   2.887   0.604   5.201
 6696SOL    HW221530   3.031   0.646   5.179
 6697SOL     OW21531   3.080   1.576   4.517
 6697SOL    HW121532   3.094   1.641   4.448
 6697SOL    HW221533   3.134   1.607   4.590
 6698SOL     OW21534   2.336   1.154   4.443
 6698SOL    HW121535   2.271   1.135   4.511
 6698SOL    HW221536   2.288   1.144   4.360
 6699SOL     OW21537   3.122   1.791   4.337
 6699SOL    HW121538   3.175   1.854   4.287
 6699SOL    HW221539   3.058   1.844   4.382
 6700SOL     OW21540   2.891   0.518   3.744
 6700SOL    HW121541   2.845   0.600   3.728
 6700SOL    HW221542   2.949   0.537   3.818
 6701SOL     OW21543   1.956   0.556   5.127
 6701SOL    HW121544   2.046   0.558   5.094
 6701SOL    HW221545   1.952   0.629   5.189
 6702SOL     OW21546   2.433   0.230   4.919
 6702SOL    HW121547   2.473   0.188   4.995
 6702SOL    HW221548   2.339   0.225   4.935
 6703SOL     OW21549   2.710   0.459   4.359
 6703SOL    HW121550   2.683   0.517   4.287
 6703SOL    HW221551   2.743   0.380   4.316
 6704SOL     OW21552   2.823   0.038   4.520
 6704SOL    HW121553   2.783   0.038   4.433
 6704SOL    HW221554   2.852  -0.053   4.533
 6705SOL     OW21555   3.307   1.155   4.584
 6705SOL    HW121556   3.233   1.095   4.582
 6705SOL    HW221557   3.331   1.168   4.492
 6706SOL     OW21558   3.325   0.611   4.682
 6706SOL    HW121559   3.269   0.534   4.687
 6706SOL    HW221560   3.382   0.605   4.759
 6707SOL     OW21561   3.707   0.803   4.102
 6707SOL    HW121562   3.763   0.759   4.166
 6707SOL    HW221563   3.690   0.736   4.035
 6708SOL     OW21564   2.355   1.420   3.869
 6708SOL    HW121565   2.279   1.394   3.922
 6708SOL    HW221566   2.353   1.361   3.794
 6709SOL     OW21567   3.542   1.256   4.377
 6709SOL    HW121568   3.637   1.257   4.389
 6709SOL    HW221569   3.515   1.346   4.395
 6710SOL     OW21570   3.256   0.578   3.798
 6710SOL    HW121571   3.187   0.557   3.861
 6710SOL    HW221572   3.337   0.566   3.847
 6711SOL     OW21573   2.360   0.282   4.033
 6711SOL    HW121574   2.411   0.237   3.966
 6711SOL    HW221575   2.338   0.367   3.995
 6712SOL     OW21576   3.608   1.242   5.278
 6712SOL    HW121577   3.696   1.209   5.261
 6712SOL    HW221578   3.621   1.332   5.308
 6713SOL     OW21579   2.921   1.342   5.041
 6713SOL    HW121580   2.844   1.320   5.093
 6713SOL    HW221581   2.995   1.307   5.090
 6714SOL     OW21582   3.468   1.617   5.379
 6714SOL    HW121583   3.464   1.668   5.298
 6714SOL    HW221584   3.554   1.576   5.377
 6715SOL     OW21585   2.979   1.189   4.817
 6715SOL    HW121586   2.945   1.244   4.888
 6715SOL    HW221587   2.967   1.241   4.738
 6716SOL     OW21588   3.482   1.097   4.802
 6716SOL    HW121589   3.475   1.163   4.871
 6716SOL    HW221590   3.411   1.118   4.741
 6717SOL     OW21591   2.772   0.128   5.113
 6717SOL    HW121592   2.798   0.119   5.021
 6717SOL    HW221593   2.855   0.130   5.161
 6718SOL     OW21594   2.845   1.116   5.447
 6718SOL    HW121595   2.755   1.134   5.473
 6718SOL    HW221596   2.840   1.037   5.393
 6719SOL     OW21597   2.571   1.059   4.099
 6719SOL    HW121598   2.558   1.039   4.191
 6719SOL    HW221599   2.646   1.005   4.072
 6720SOL     OW21600   2.282   0.825   4.977
 6720SOL    HW121601   2.349   0.840   5.044
 6720SOL    HW221602   2.252   0.735   4.992
 6721SOL     OW21603   3.130   0.381   5.008
 6721SOL    HW121604   3.161   0.461   5.050
 6721SOL    HW221605   3.041   0.402   4.979
 6722SOL     OW21606   1.945   1.568   5.078
 6722SOL    HW121607   1.933   1.658   5.048
 6722SOL    HW221608   2.040   1.555   5.077
 6723SOL     OW21609   2.182   1.127   4.213
 6723SOL    HW121610   2.195   1.203   4.157
 6723SOL    HW221611   2.184   1.052   4.154
 6724SOL     OW21612   2.416   0.516   4.575
 6724SOL    HW121613   2.423   0.576   4.501
 6724SOL    HW221614   2.478   0.550   4.640
 6725SOL     OW21615   3.107   1.354   4.115
 6725SOL    HW121616   3.163   1.425   4.147
 6725SOL    HW221617   3.020   1.374   4.149
 6726SOL     OW21618   3.154   1.462   4.885
 6726SOL    HW121619   3.218   1.476   4.954
 6726SOL    HW221620   3.083   1.412   4.927
 6727SOL     OW21621   3.437   0.639   4.201
 6727SOL    HW121622   3.383   0.672   4.273
 6727SOL    HW221623   3.491   0.714   4.175
 6728SOL     OW21624   2.210   1.517   5.038
 6728SOL    HW121625   2.201   1.478   4.951
 6728SOL    HW221626   2.304   1.535   5.046
 6729SOL     OW21627   2.300   0.733   5.343
 6729SOL    HW121628   2.346   0.786   5.278
 6729SOL    HW221629   2.364   0.669   5.372
 6730SOL     OW21630   3.475   0.783   5.417
 6730SOL    HW121631   3.389   0.824   5.410
 6730SOL    HW221632   3.527   0.825   5.348
 6731SOL     OW21633   2.909   0.059   5.450
 6731SOL    HW121634   2.925   0.149   5.477
 6731SOL    HW221635   2.813   0.051   5.449
 6732SOL     OW21636   2.368   0.025   5.456
 6732SOL    HW121637   2.348  -0.030   5.380
 6732SOL    HW221638   2.303   0.096   5.452
 6733SOL     OW21639   2.447   0.879   4.757
 6733SOL    HW121640   2.489   0.965   4.759
 6733SOL    HW221641   2.392   0.876   4.835
 6734SOL     OW21642   3.197   0.856   4.733
 6734SOL    HW121643   3.108   0.837   4.705
 6734SOL    HW221644   3.244   0.773   4.722
 6735SOL     OW21645   3.050   0.533   3.974
 6735SOL    HW121646   3.062   0.451   4.023
 6735SOL    HW221647   3.013   0.594   4.037
 6736SOL     OW21648   2.164   0.198   4.957
 6736SOL    HW121649   2.111   0.210   5.035
 6736SOL    HW221650   2.147   0.108   4.930
 6737SOL     OW21651   1.890   1.313   4.997
 6737SOL    HW121652   1.930   1.258   5.065
 6737SOL    HW221653   1.907   1.402   5.026
 6738SOL     OW21654   2.570   0.628   4.769
 6738SOL    HW121655   2.653   0.623   4.720
 6738SOL    HW221656   2.543   0.719   4.759
 6739SOL     OW21657   3.608   0.955   5.593
 6739SOL    HW121658   3.560   0.892   5.539
 6739SOL    HW221659   3.546   0.981   5.660
 6740SOL     OW21660   2.268   0.080   4.398
 6740SOL    HW121661   2.218   0.159   4.420
 6740SOL    HW221662   2.209   0.008   4.420
 6741SOL     OW21663   3.492   0.409   4.071
 6741SOL    HW121664   3.502   0.337   4.134
 6741SOL    HW221665   3.464   0.484   4.124
 6742SOL     OW21666   2.895   0.760   4.683
 6742SOL    HW121667   2.881   0.774   4.777
 6742SOL    HW221668   2.862   0.671   4.668
 6743SOL     OW21669   2.835   1.560   5.448
 6743SOL    HW121670   2.825   1.607   5.365
 6743SOL    HW221671   2.885   1.482   5.425
 6744SOL     OW21672   3.715   1.495   5.326
 6744SOL    HW121673   3.732   1.531   5.239
 6744SOL    HW221674   3.792   1.517   5.377
 6745SOL     OW21675   2.213   0.914   5.536
 6745SOL    HW121676   2.289   0.943   5.586
 6745SOL    HW221677   2.248   0.850   5.474
 6746SOL     OW21678   3.435   0.274   3.841
 6746SOL    HW121679   3.454   0.187   3.878
 6746SOL    HW221680   3.447   0.334   3.914
 6747SOL     OW21681   3.141   0.825   3.747
 6747SOL    HW121682   3.187   0.741   3.756
 6747SOL    HW221683   3.178   0.863   3.667
 6748SOL     OW21684   2.938   1.344   4.584
 6748SOL    HW121685   2.947   1.275   4.519
 6748SOL    HW221686   2.994   1.415   4.551
 6749SOL     OW21687   2.174   0.816   4.666
 6749SOL    HW121688   2.267   0.839   4.666
 6749SOL    HW221689   2.171   0.727   4.701
 6750SOL     OW21690   2.199   0.543   4.737
 6750SOL    HW121691   2.157   0.458   4.723
 6750SOL    HW221692   2.275   0.542   4.678
 6751SOL     OW21693   3.038   0.373   5.427
 6751SOL    HW121694   2.976   0.430   5.473
 6751SOL    HW221695   3.115   0.428   5.414
 6752SOL     OW21696   3.025   0.220   5.201
 6752SOL    HW121697   3.039   0.267   5.283
 6752SOL    HW221698   3.064   0.276   5.134
 6753SOL     OW21699   1.865   1.314   3.918
 6753SOL    HW121700   1.777   1.331   3.883
 6753SOL    HW221701   1.860   1.225   3.952
 6754SOL     OW21702   1.947   1.781   4.659
 6754SOL    HW121703   1.923   1.701   4.612
 6754SOL    HW221704   2.038   1.796   4.637
 6755SOL     OW21705   2.351   1.573   4.626
 6755SOL    HW121706   2.420   1.636   4.648
 6755SOL    HW221707   2.394   1.510   4.567
 6756SOL     OW21708   2.826   0.774   4.948
 6756SOL    HW121709   2.891   0.757   5.016
 6756SOL    HW221710   2.742   0.757   4.990
 6757SOL     OW21711   1.898   0.556   4.846
 6757SOL    HW121712   1.975   0.543   4.791
 6757SOL    HW221713   1.931   0.553   4.936
 6758SOL     OW21714   2.054   0.531   5.457
 6758SOL    HW121715   2.143   0.529   5.421
 6758SOL    HW221716   2.011   0.604   5.411
 6759SOL     OW21717   3.246   0.927   5.378
 6759SOL    HW121718   3.268   1.020   5.376
 6759SOL    HW221719   3.241   0.902   5.285
 6760SOL     OW21720   2.678   0.570   4.097
 6760SOL    HW121721   2.685   0.497   4.035
 6760SOL    HW221722   2.605   0.622   4.064
 6761SOL     OW21723   3.499   0.600   4.892
 6761SOL    HW121724   3.491   0.552   4.974
 6761SOL    HW221725   3.589   0.583   4.863
 6762SOL     OW21726   2.094   1.543   5.445
 6762SOL    HW121727   2.079   1.613   5.509
 6762SOL    HW221728   2.108   1.465   5.498
 6763SOL     OW21729   2.593   0.451   4.974
 6763SOL    HW121730   2.531   0.380   4.956
 6763SOL    HW221731   2.577   0.515   4.905
 6764SOL     OW21732   2.791   1.671   5.192
 6764SOL    HW121733   2.756   1.641   5.109
 6764SOL    HW221734   2.794   1.766   5.185
 6765SOL     OW21735   2.312   0.507   3.890
 6765SOL    HW121736   2.374   0.574   3.918
 6765SOL    HW221737   2.227   0.552   3.887
 6766SOL     OW21738   1.991   1.143   5.196
 6766SOL    HW121739   1.998   1.098   5.281
 6766SOL    HW221740   2.013   1.076   5.132
 6767SOL     OW21741   3.175   1.036   4.936
 6767SOL    HW121742   3.198   0.977   4.865
 6767SOL    HW221743   3.106   1.092   4.900
 6768SOL     OW21744   3.185   0.856   4.022
 6768SOL    HW121745   3.114   0.831   4.081
 6768SOL    HW221746   3.149   0.844   3.934
 6769SOL     OW21747   3.620   1.730   4.868
 6769SOL    HW121748   3.689   1.761   4.809
 6769SOL    HW221749   3.610   1.638   4.846
 6770SOL     OW21750   3.096   1.719   4.793
 6770SOL    HW121751   3.181   1.756   4.770
 6770SOL    HW221752   3.117   1.634   4.833
 6771SOL     OW21753   1.955   1.257   4.738
 6771SOL    HW121754   1.930   1.277   4.828
 6771SOL    HW221755   1.883   1.205   4.704
 6772SOL     OW21756   2.541   1.672   5.469
 6772SOL    HW121757   2.485   1.749   5.463
 6772SOL    HW221758   2.622   1.698   5.425
 6773SOL     OW21759   3.535   0.167   4.216
 6773SOL    HW121760   3.616   0.153   4.168
 6773SOL    HW221761   3.552   0.132   4.303
 6774SOL     OW21762   3.252   1.570   4.214
 6774SOL    HW121763   3.313   1.605   4.149
 6774SOL    HW221764   3.204   1.647   4.246
 6775SOL     OW21765   2.005   1.792   5.566
 6775SOL    HW121766   1.957   1.727   5.616
 6775SOL    HW221767   2.056   1.840   5.632
 6776SOL     OW21768   3.138   0.929   4.386
 6776SOL    HW121769   3.212   0.871   4.401
 6776SOL    HW221770   3.173   1.002   4.335
 6777SOL     OW21771   2.668   1.282   5.147
 6777SOL    HW121772   2.641   1.323   5.229
 6777SOL    HW221773   2.602   1.310   5.083
 6778SOL     OW21774   2.533   1.622   3.884
 6778SOL    HW121775   2.543   1.644   3.791
 6778SOL    HW221776   2.476   1.544   3.883
 6779SOL     OW21777   3.477   1.732   5.111
 6779SOL    HW121778   3.530   1.739   5.031
 6779SOL    HW221779   3.464   1.822   5.140
 6780SOL     OW21780   3.715   0.176   4.678
 6780SOL    HW121781   3.710   0.086   4.710
 6780SOL    HW221782   3.630   0.192   4.636
 6781SOL     OW21783   2.119   0.305   4.440
 6781SOL    HW121784   2.037   0.349   4.415
 6781SOL    HW221785   2.120   0.309   4.535
 6782SOL     OW21786   3.071   1.597   3.756
 6782SOL    HW121787   3.058   1.507   3.785
 6782SOL    HW221788   3.002   1.613   3.692
 6783SOL     OW21789   2.688   1.014   5.097
 6783SOL    HW121790   2.733   1.012   5.013
 6783SOL    HW221791   2.682   1.107   5.120
 6784SOL     OW21792   2.773   0.903   4.014
 6784SOL    HW121793   2.831   0.938   3.947
 6784SOL    HW221794   2.827   0.841   4.063
 6785SOL     OW21795   3.352   1.619   3.770
 6785SOL    HW121796   3.257   1.616   3.757
 6785SOL    HW221797   3.388   1.629   3.682
 6786SOL     OW21798   2.226   1.298   5.219
 6786SOL    HW121799   2.221   1.375   5.162
 6786SOL    HW221800   2.145   1.250   5.202
 6787SOL     OW21801   3.467   1.289   4.999
 6787SOL    HW121802   3.534   1.277   5.067
 6787SOL    HW221803   3.410   1.358   5.033
 6788SOL     OW21804   2.930   1.114   4.436
 6788SOL    HW121805   2.857   1.065   4.475
 6788SOL    HW221806   2.994   1.047   4.412
 6789SOL     OW21807   2.892   0.265   4.671
 6789SOL    HW121808   2.873   0.211   4.594
 6789SOL    HW221809   2.896   0.203   4.744
 6790SOL     OW21810   2.461   1.482   4.199
 6790SOL    HW121811   2.515   1.436   4.135
 6790SOL    HW221812   2.406   1.541   4.147
 6791SOL     OW21813   3.584   0.421   5.108
 6791SOL    HW121814   3.656   0.484   5.116
 6791SOL    HW221815   3.617   0.355   5.047
 6792SOL     OW21816   2.120   1.345   4.005
 6792SOL    HW121817   2.027   1.338   3.986
 6792SOL    HW221818   2.123   1.385   4.092
 6793SOL     OW21819   1.975   1.019   5.441
 6793SOL    HW121820   1.902   1.002   5.500
 6793SOL    HW221821   2.052   0.987   5.488
 6794SOL     OW21822   2.528   0.213   5.217
 6794SOL    HW121823   2.604   0.163   5.189
 6794SOL    HW221824   2.546   0.236   5.309
 6795SOL     OW21825   1.942   0.328   3.752
 6795SOL    HW121826   1.846   0.331   3.748
 6795SOL    HW221827   1.970   0.405   3.702
 6796SOL     OW21828   3.283   0.856   5.114
 6796SOL    HW121829   3.233   0.918   5.061
 6796SOL    HW221830   3.372   0.864   5.082
 6797SOL     OW21831   1.923   0.175   4.012
 6797SOL    HW121832   1.929   0.247   3.949
 6797SOL    HW221833   2.002   0.123   3.995
 6798SOL     OW21834   3.041   1.330   3.845
 6798SOL    HW121835   2.949   1.302   3.849
 6798SOL    HW221836   3.068   1.337   3.936
 6799SOL     OW21837   2.475   0.850   5.161
 6799SOL    HW121838   2.533   0.924   5.147
 6799SOL    HW221839   2.534   0.774   5.166
 6800SOL     OW21840   3.352   1.787   4.704
 6800SOL    HW121841   3.367   1.866   4.652
 6800SOL    HW221842   3.429   1.780   4.760
 6801SOL     OW21843   2.547   0.582   5.421
 6801SOL    HW121844   2.608   0.632   5.475
 6801SOL    HW221845   2.560   0.491   5.448
 6802SOL     OW21846   3.337   1.186   5.348
 6802SOL    HW121847   3.325   1.207   5.441
 6802SOL    HW221848   3.427   1.213   5.329
 6803SOL     OW21849   2.225   1.737   5.283
 6803SOL    HW121850   2.139   1.777   5.272
 6803SOL    HW221851   2.206   1.652   5.325
 6804SOL     OW21852   3.522   0.882   4.977
 6804SOL    HW121853   3.518   0.800   4.927
 6804SOL    HW221854   3.512   0.951   4.911
 6805SOL     OW21855   3.081   0.325   4.171
 6805SOL    HW121856   3.145   0.255   4.157
 6805SOL    HW221857   3.113   0.372   4.248
 6806SOL     OW21858   2.443   0.727   4.400
 6806SOL    HW121859   2.486   0.813   4.391
 6806SOL    HW221860   2.381   0.724   4.328
 6807SOL     OW21861   3.613   0.372   5.375
 6807SOL    HW121862   3.600   0.392   5.282
 6807SOL    HW221863   3.542   0.311   5.396
 6808SOL     OW21864   3.607   0.934   5.235
 6808SOL    HW121865   3.599   1.028   5.250
 6808SOL    HW221866   3.590   0.923   5.142
 6809SOL     OW21867   2.721   1.362   3.772
 6809SOL    HW121868   2.688   1.383   3.860
 6809SOL    HW221869   2.737   1.447   3.731
 6810SOL     OW21870   2.526   1.777   4.650
 6810SOL    HW121871   2.508   1.870   4.641
 6810SOL    HW221872   2.621   1.771   4.656
 6811SOL     OW21873   2.734   0.973   4.576
 6811SOL    HW121874   2.788   0.904   4.616
 6811SOL    HW221875   2.693   1.017   4.651
 6812SOL     OW21876   2.927   0.980   3.808
 6812SOL    HW121877   2.912   1.039   3.735
 6812SOL    HW221878   3.005   0.929   3.783
 6813SOL     OW21879   3.705   1.537   4.557
 6813SOL    HW121880   3.625   1.545   4.505
 6813SOL    HW221881   3.674   1.507   4.643
 6814SOL     OW21882   2.096   1.299   5.586
 6814SOL    HW121883   2.018   1.248   5.565
 6814SOL    HW221884   2.092   1.310   5.681
 6815SOL     OW21885   1.958   1.210   4.388
 6815SOL    HW121886   1.991   1.174   4.470
 6815SOL    HW221887   2.024   1.186   4.323
 6816SOL     OW21888   2.548   1.412   5.355
 6816SOL    HW121889   2.470   1.373   5.395
 6816SOL    HW221890   2.551   1.501   5.391
 6817SOL     OW21891   3.681   0.230   4.952
 6817SOL    HW121892   3.622   0.156   4.949
 6817SOL    HW221893   3.707   0.245   4.860
 6818SOL     OW21894   2.290   0.432   4.259
 6818SOL    HW121895   2.318   0.366   4.195
 6818SOL    HW221896   2.236   0.383   4.321
 6819SOL     OW21897   3.573   1.467   4.791
 6819SOL    HW121898   3.485   1.457   4.754
 6819SOL    HW221899   3.572   1.411   4.869
 6820SOL     OW21900   2.201   0.565   5.016
 6820SOL    HW121901   2.252   0.503   5.069
 6820SOL    HW221902   2.220   0.541   4.926
 6821SOL     OW21903   2.701   1.584   4.395
 6821SOL    HW121904   2.683   1.661   4.342
 6821SOL    HW221905   2.620   1.533   4.393
 6822SOL     OW21906   3.289   0.223   4.841
 6822SOL    HW121907   3.351   0.166   4.887
 6822SOL    HW221908   3.242   0.269   4.910
 6823SOL     OW21909   2.893   0.073   4.858
 6823SOL    HW121910   2.832  -0.001   4.854
 6823SOL    HW221911   2.977   0.034   4.880
 6824SOL     OW21912   2.639   1.331   4.045
 6824SOL    HW121913   2.617   1.239   4.062
 6824SOL    HW221914   2.717   1.347   4.098
 6825SOL     OW21915   2.481   1.555   5.011
 6825SOL    HW121916   2.478   1.640   5.054
 6825SOL    HW221917   2.569   1.549   4.976
 6826SOL     OW21918   3.218   7.999   3.821
 6826SOL    HW121919   3.294   7.959   3.864
 6826SOL    HW221920   3.148   7.995   3.886
 6827SOL     OW21921   3.160   0.465   4.395
 6827SOL    HW121922   3.110   0.546   4.398
 6827SOL    HW221923   3.160   0.433   4.486
 6828SOL     OW21924   3.467   0.219   4.583
 6828SOL    HW121925   3.393   0.220   4.643
 6828SOL    HW221926   3.460   0.302   4.535
 6829SOL     OW21927   1.900   1.059   4.030
 6829SOL    HW121928   1.994   1.054   4.015
 6829SOL    HW221929   1.873   0.970   4.051
 6830SOL     OW21930   2.753   1.662   4.055
 6830SOL    HW121931   2.677   1.651   3.999
 6830SOL    HW221932   2.728   1.733   4.115
 6831SOL     OW21933   2.071   0.629   5.723
 6831SOL    HW121934   1.984   0.619   5.761
 6831SOL    HW221935   2.060   0.609   5.630
 6832SOL     OW21936   2.068   0.320   6.576
 6832SOL    HW121937   2.121   0.261   6.630
 6832SOL    HW221938   1.987   0.271   6.560
 6833SOL     OW21939   1.867   0.399   6.223
 6833SOL    HW121940   1.780   0.422   6.255
 6833SOL    HW221941   1.860   0.308   6.196
 6834SOL     OW21942   2.427   1.301   6.773
 6834SOL    HW121943   2.345   1.314   6.725
 6834SOL    HW221944   2.449   1.388   6.806
 6835SOL     OW21945   3.436   1.512   6.291
 6835SOL    HW121946   3.390   1.496   6.374
 6835SOL    HW221947   3.366   1.521   6.226
 6836SOL     OW21948   2.997   0.701   6.280
 6836SOL    HW121949   3.045   0.782   6.265
 6836SOL    HW221950   2.950   0.715   6.362
 6837SOL     OW21951   3.663   0.590   5.804
 6837SOL    HW121952   3.626   0.590   5.716
 6837SOL    HW221953   3.614   0.523   5.851
 6838SOL     OW21954   2.594   1.131   6.635
 6838SOL    HW121955   2.531   1.173   6.694
 6838SOL    HW221956   2.638   1.204   6.591
 6839SOL     OW21957   2.742   0.752   7.406
 6839SOL    HW121958   2.745   0.820   7.473
 6839SOL    HW221959   2.761   0.798   7.324
 6840SOL     OW21960   2.547   0.991   6.231
 6840SOL    HW121961   2.615   0.989   6.298
 6840SOL    HW221962   2.480   1.050   6.266
 6841SOL     OW21963   2.578   1.153   7.414
 6841SOL    HW121964   2.627   1.228   7.446
 6841SOL    HW221965   2.502   1.191   7.370
 6842SOL     OW21966   2.196   1.412   6.652
 6842SOL    HW121967   2.121   1.374   6.605
 6842SOL    HW221968   2.240   1.466   6.586
 6843SOL     OW21969   3.324   1.505   6.953
 6843SOL    HW121970   3.379   1.583   6.961
 6843SOL    HW221971   3.255   1.518   7.018
 6844SOL     OW21972   2.304   0.379   7.059
 6844SOL    HW121973   2.388   0.334   7.067
 6844SOL    HW221974   2.239   0.309   7.055
 6845SOL     OW21975   3.469   0.461   6.311
 6845SOL    HW121976   3.399   0.479   6.247
 6845SOL    HW221977   3.468   0.537   6.369
 6846SOL     OW21978   2.087   1.714   6.051
 6846SOL    HW121979   2.107   1.787   6.109
 6846SOL    HW221980   2.164   1.706   5.995
 6847SOL     OW21981   3.001   1.342   7.279
 6847SOL    HW121982   3.047   1.333   7.362
 6847SOL    HW221983   2.949   1.261   7.272
 6848SOL     OW21984   2.085   1.446   6.115
 6848SOL    HW121985   2.080   1.541   6.111
 6848SOL    HW221986   2.036   1.423   6.195
 6849SOL     OW21987   2.124   1.093   6.465
 6849SOL    HW121988   2.129   1.005   6.504
 6849SOL    HW221989   2.073   1.144   6.528
 6850SOL     OW21990   2.449   1.797   6.999
 6850SOL    HW121991   2.373   1.780   7.055
 6850SOL    HW221992   2.484   1.880   7.031
 6851SOL     OW21993   2.433   0.992   5.731
 6851SOL    HW121994   2.484   1.033   5.662
 6851SOL    HW221995   2.474   1.021   5.812
 6852SOL     OW21996   3.515   0.119   7.085
 6852SOL    HW121997   3.493   0.162   7.002
 6852SOL    HW221998   3.457   0.161   7.150
 6853SOL     OW21999   1.982   0.659   6.148
 6853SOL    HW122000   1.951   0.571   6.171
 6853SOL    HW222001   1.974   0.708   6.230
 6854SOL     OW22002   3.708   1.750   5.912
 6854SOL    HW122003   3.781   1.730   5.971
 6854SOL    HW222004   3.720   1.843   5.891
 6855SOL     OW22005   1.899   1.588   5.706
 6855SOL    HW122006   1.885   1.495   5.728
 6855SOL    HW222007   1.877   1.635   5.786
 6856SOL     OW22008   3.546   0.913   6.223
 6856SOL    HW122009   3.634   0.880   6.204
 6856SOL    HW222010   3.527   0.972   6.151
 6857SOL     OW22011   3.514   1.105   6.019
 6857SOL    HW122012   3.600   1.105   5.978
 6857SOL    HW222013   3.522   1.167   6.091
 6858SOL     OW22014   1.987   0.752   7.172
 6858SOL    HW122015   2.076   0.787   7.174
 6858SOL    HW222016   1.931   0.830   7.168
 6859SOL     OW22017   2.474   1.393   6.321
 6859SOL    HW122018   2.432   1.306   6.325
 6859SOL    HW222019   2.461   1.421   6.230
 6860SOL     OW22020   3.144   1.228   7.007
 6860SOL    HW122021   3.175   1.163   6.944
 6860SOL    HW222022   3.208   1.226   7.078
 6861SOL     OW22023   2.701   0.033   6.146
 6861SOL    HW122024   2.738   0.113   6.110
 6861SOL    HW222025   2.608   0.038   6.127
 6862SOL     OW22026   2.044   0.956   6.873
 6862SOL    HW122027   2.132   0.922   6.859
 6862SOL    HW222028   1.994   0.923   6.799
 6863SOL     OW22029   3.394   1.005   5.789
 6863SOL    HW122030   3.326   0.947   5.823
 6863SOL    HW222031   3.436   1.040   5.866
 6864SOL     OW22032   3.030   1.812   7.212
 6864SOL    HW122033   3.047   1.884   7.151
 6864SOL    HW222034   3.068   1.735   7.170
 6865SOL     OW22035   2.167   0.225   7.357
 6865SOL    HW122036   2.234   0.289   7.378
 6865SOL    HW222037   2.093   0.247   7.414
 6866SOL     OW22038   3.328   1.419   6.532
 6866SOL    HW122039   3.262   1.436   6.600
 6866SOL    HW222040   3.314   1.327   6.507
 6867SOL     OW22041   3.524   1.756   6.162
 6867SOL    HW122042   3.503   1.726   6.074
 6867SOL    HW222043   3.499   1.683   6.219
 6868SOL     OW22044   2.458   0.718   5.859
 6868SOL    HW122045   2.464   0.804   5.819
 6868SOL    HW222046   2.393   0.729   5.929
 6869SOL     OW22047   3.157   0.374   6.521
 6869SOL    HW122048   3.066   0.346   6.523
 6869SOL    HW222049   3.201   0.317   6.584
 6870SOL     OW22050   3.444   1.666   5.899
 6870SOL    HW122051   3.535   1.696   5.890
 6870SOL    HW222052   3.413   1.654   5.809
 6871SOL     OW22053   2.642   0.640   7.029
 6871SOL    HW122054   2.621   0.608   7.117
 6871SOL    HW222055   2.622   0.566   6.971
 6872SOL     OW22056   3.275   0.493   7.259
 6872SOL    HW122057   3.280   0.537   7.344
 6872SOL    HW222058   3.332   0.417   7.269
 6873SOL     OW22059   2.807   0.884   7.171
 6873SOL    HW122060   2.862   0.818   7.131
 6873SOL    HW222061   2.761   0.925   7.098
 6874SOL     OW22062   2.864   0.410   6.806
 6874SOL    HW122063   2.774   0.434   6.830
 6874SOL    HW222064   2.858   0.378   6.716
 6875SOL     OW22065   2.917   0.697   6.011
 6875SOL    HW122066   2.937   0.693   6.105
 6875SOL    HW222067   2.833   0.653   6.003
 6876SOL     OW22068   1.948   0.823   6.367
 6876SOL    HW122069   2.030   0.817   6.414
 6876SOL    HW222070   1.902   0.897   6.406
 6877SOL     OW22071   1.978   1.872   7.174
 6877SOL    HW122072   1.988   1.849   7.266
 6877SOL    HW222073   1.889   1.843   7.151
 6878SOL     OW22074   2.758   0.347   5.781
 6878SOL    HW122075   2.807   0.403   5.722
 6878SOL    HW222076   2.791   0.259   5.764
 6879SOL     OW22077   3.563   0.572   7.420
 6879SOL    HW122078   3.531   0.649   7.372
 6879SOL    HW222079   3.590   0.511   7.352
 6880SOL     OW22080   3.241   1.140   6.116
 6880SOL    HW122081   3.324   1.136   6.069
 6880SOL    HW222082   3.190   1.207   6.071
 6881SOL     OW22083   2.348   0.217   6.520
 6881SOL    HW122084   2.388   0.259   6.596
 6881SOL    HW222085   2.398   0.250   6.445
 6882SOL     OW22086   2.856   1.444   6.051
 6882SOL    HW122087   2.829   1.520   5.999
 6882SOL    HW222088   2.836   1.467   6.141
 6883SOL     OW22089   2.215   1.818   6.469
 6883SOL    HW122090   2.264   1.736   6.471
 6883SOL    HW222091   2.280   1.886   6.480
 6884SOL     OW22092   3.660   1.029   6.467
 6884SOL    HW122093   3.609   1.038   6.387
 6884SOL    HW222094   3.597   1.046   6.538
 6885SOL     OW22095   3.089   1.541   7.100
 6885SOL    HW122096   3.076   1.467   7.158
 6885SOL    HW222097   3.014   1.539   7.041
 6886SOL     OW22098   2.171   0.964   5.844
 6886SOL    HW122099   2.255   0.984   5.803
 6886SOL    HW222100   2.146   0.880   5.805
 6887SOL     OW22101   3.342   0.753   6.304
 6887SOL    HW122102   3.342   0.720   6.394
 6887SOL    HW222103   3.419   0.810   6.299
 6888SOL     OW22104   2.333   1.269   7.327
 6888SOL    HW122105   2.309   1.273   7.234
 6888SOL    HW222106   2.249   1.268   7.373
 6889SOL     OW22107   2.983   1.775   5.813
 6889SOL    HW122108   2.906   1.735   5.853
 6889SOL    HW222109   3.011   1.713   5.747
 6890SOL     OW22110   2.039   0.249   7.087
 6890SOL    HW122111   1.993   0.330   7.067
 6890SOL    HW222112   2.062   0.257   7.180
 6891SOL     OW22113   3.492   1.374   5.681
 6891SOL    HW122114   3.456   1.462   5.667
 6891SOL    HW222115   3.421   1.315   5.653
 6892SOL     OW22116   2.331   1.726   5.912
 6892SOL    HW122117   2.373   1.790   5.968
 6892SOL    HW222118   2.398   1.703   5.847
 6893SOL     OW22119   3.279   0.132   5.994
 6893SOL    HW122120   3.303   0.109   5.904
 6893SOL    HW222121   3.363   0.145   6.038
 6894SOL     OW22122   2.110   1.785   6.812
 6894SOL    HW122123   2.170   1.724   6.856
 6894SOL    HW222124   2.124   1.769   6.719
 6895SOL     OW22125   2.805   1.698   6.484
 6895SOL    HW122126   2.891   1.660   6.499
 6895SOL    HW222127   2.768   1.647   6.412
 6896SOL     OW22128   2.260   0.690   6.058
 6896SOL    HW122129   2.278   0.599   6.078
 6896SOL    HW222130   2.166   0.701   6.074
 6897SOL     OW22131   3.385   0.229   7.306
 6897SOL    HW122132   3.396   0.248   7.400
 6897SOL    HW222133   3.327   0.153   7.304
 6898SOL     OW22134   2.437   0.126   5.698
 6898SOL    HW122135   2.517   0.090   5.734
 6898SOL    HW222136   2.424   0.079   5.615
 6899SOL     OW22137   2.579   0.302   7.351
 6899SOL    HW122138   2.674   0.297   7.348
 6899SOL    HW222139   2.555   0.275   7.439
 6900SOL     OW22140   2.729   1.511   6.781
 6900SOL    HW122141   2.716   1.478   6.693
 6900SOL    HW222142   2.807   1.465   6.813
 6901SOL     OW22143   3.201   0.598   7.017
 6901SOL    HW122144   3.240   0.571   7.101
 6901SOL    HW222145   3.235   0.686   7.002
 6902SOL     OW22146   2.681   1.376   6.532
 6902SOL    HW122147   2.769   1.372   6.493
 6902SOL    HW222148   2.623   1.394   6.458
 6903SOL     OW22149   2.784   0.519   6.478
 6903SOL    HW122150   2.754   0.512   6.387
 6903SOL    HW222151   2.823   0.434   6.497
 6904SOL     OW22152   2.447   0.043   6.027
 6904SOL    HW122153   2.371   0.008   6.075
 6904SOL    HW222154   2.418   0.129   5.996
 6905SOL     OW22155   3.286   1.200   5.619
 6905SOL    HW122156   3.315   1.129   5.676
 6905SOL    HW222157   3.204   1.230   5.659
 6906SOL     OW22158   2.160   0.046   5.799
 6906SOL    HW122159   2.243   0.086   5.773
 6906SOL    HW222160   2.184  -0.014   5.869
 6907SOL     OW22161   2.807   0.265   6.046
 6907SOL    HW122162   2.778   0.297   5.961
 6907SOL    HW222163   2.902   0.279   6.045
 6908SOL     OW22164   2.943   0.683   7.047
 6908SOL    HW122165   2.887   0.607   7.059
 6908SOL    HW222166   3.031   0.647   7.039
 6909SOL     OW22167   3.076   1.582   6.383
 6909SOL    HW122168   3.089   1.643   6.311
 6909SOL    HW222169   3.140   1.608   6.449
 6910SOL     OW22170   2.335   1.153   6.304
 6910SOL    HW122171   2.269   1.134   6.371
 6910SOL    HW222172   2.289   1.144   6.221
 6911SOL     OW22173   3.122   1.792   6.201
 6911SOL    HW122174   3.176   1.852   6.149
 6911SOL    HW222175   3.058   1.849   6.243
 6912SOL     OW22176   2.890   0.522   5.608
 6912SOL    HW122177   2.846   0.605   5.589
 6912SOL    HW222178   2.950   0.543   5.680
 6913SOL     OW22179   1.961   0.549   6.994
 6913SOL    HW122180   2.050   0.555   6.958
 6913SOL    HW222181   1.954   0.623   7.054
 6914SOL     OW22182   2.442   0.232   6.788
 6914SOL    HW122183   2.480   0.185   6.862
 6914SOL    HW222184   2.348   0.223   6.798
 6915SOL     OW22185   2.716   0.466   6.218
 6915SOL    HW122186   2.686   0.521   6.146
 6915SOL    HW222187   2.747   0.386   6.175
 6916SOL     OW22188   2.813   0.037   6.392
 6916SOL    HW122189   2.772   0.040   6.306
 6916SOL    HW222190   2.855  -0.050   6.396
 6917SOL     OW22191   3.311   1.157   6.442
 6917SOL    HW122192   3.233   1.104   6.427
 6917SOL    HW222193   3.349   1.171   6.355
 6918SOL     OW22194   3.326   0.613   6.546
 6918SOL    HW122195   3.272   0.534   6.547
 6918SOL    HW222196   3.383   0.604   6.622
 6919SOL     OW22197   3.701   0.802   5.974
 6919SOL    HW122198   3.763   0.757   6.031
 6919SOL    HW222199   3.685   0.740   5.903
 6920SOL     OW22200   2.353   1.419   5.731
 6920SOL    HW122201   2.277   1.392   5.783
 6920SOL    HW222202   2.351   1.364   5.653
 6921SOL     OW22203   3.538   1.254   6.243
 6921SOL    HW122204   3.633   1.253   6.253
 6921SOL    HW222205   3.514   1.346   6.256
 6922SOL     OW22206   3.257   0.576   5.659
 6922SOL    HW122207   3.191   0.556   5.725
 6922SOL    HW222208   3.340   0.565   5.705
 6923SOL     OW22209   2.367   0.280   5.905
 6923SOL    HW122210   2.400   0.229   5.832
 6923SOL    HW222211   2.345   0.365   5.867
 6924SOL     OW22212   3.610   1.241   7.146
 6924SOL    HW122213   3.698   1.209   7.126
 6924SOL    HW222214   3.623   1.331   7.174
 6925SOL     OW22215   2.919   1.346   6.909
 6925SOL    HW122216   2.843   1.321   6.960
 6925SOL    HW222217   2.993   1.307   6.955
 6926SOL     OW22218   3.470   1.616   7.243
 6926SOL    HW122219   3.463   1.666   7.162
 6926SOL    HW222220   3.556   1.575   7.239
 6927SOL     OW22221   2.985   1.198   6.683
 6927SOL    HW122222   2.942   1.250   6.751
 6927SOL    HW222223   2.969   1.246   6.602
 6928SOL     OW22224   3.478   1.092   6.662
 6928SOL    HW122225   3.470   1.160   6.730
 6928SOL    HW222226   3.408   1.113   6.600
 6929SOL     OW22227   2.774   0.124   6.978
 6929SOL    HW122228   2.795   0.112   6.885
 6929SOL    HW222229   2.859   0.126   7.021
 6930SOL     OW22230   2.846   1.115   7.312
 6930SOL    HW122231   2.755   1.133   7.335
 6930SOL    HW222232   2.840   1.037   7.256
 6931SOL     OW22233   2.571   1.058   5.960
 6931SOL    HW122234   2.559   1.038   6.053
 6931SOL    HW222235   2.647   1.005   5.934
 6932SOL     OW22236   2.282   0.827   6.840
 6932SOL    HW122237   2.350   0.840   6.906
 6932SOL    HW222238   2.253   0.737   6.853
 6933SOL     OW22239   3.126   0.379   6.875
 6933SOL    HW122240   3.159   0.460   6.913
 6933SOL    HW222241   3.038   0.400   6.844
 6934SOL     OW22242   1.943   1.570   6.941
 6934SOL    HW122243   1.924   1.648   6.890
 6934SOL    HW222244   2.039   1.562   6.937
 6935SOL     OW22245   2.185   1.127   6.073
 6935SOL    HW122246   2.194   1.203   6.015
 6935SOL    HW222247   2.186   1.052   6.015
 6936SOL     OW22248   2.413   0.529   6.440
 6936SOL    HW122249   2.424   0.590   6.366
 6936SOL    HW222250   2.480   0.556   6.503
 6937SOL     OW22251   3.108   1.353   5.978
 6937SOL    HW122252   3.164   1.424   6.008
 6937SOL    HW222253   3.021   1.375   6.011
 6938SOL     OW22254   3.158   1.462   6.743
 6938SOL    HW122255   3.219   1.475   6.815
 6938SOL    HW222256   3.094   1.400   6.777
 6939SOL     OW22257   3.435   0.636   6.066
 6939SOL    HW122258   3.383   0.677   6.136
 6939SOL    HW222259   3.487   0.707   6.030
 6940SOL     OW22260   2.210   1.521   6.897
 6940SOL    HW122261   2.200   1.480   6.811
 6940SOL    HW222262   2.304   1.537   6.906
 6941SOL     OW22263   2.297   0.736   7.203
 6941SOL    HW122264   2.345   0.789   7.139
 6941SOL    HW222265   2.359   0.668   7.229
 6942SOL     OW22266   3.476   0.786   7.278
 6942SOL    HW122267   3.390   0.826   7.270
 6942SOL    HW222268   3.528   0.826   7.209
 6943SOL     OW22269   2.909   0.067   7.327
 6943SOL    HW122270   2.924   0.160   7.311
 6943SOL    HW222271   2.814   0.056   7.318
 6944SOL     OW22272   2.372   0.031   7.317
 6944SOL    HW122273   2.348  -0.027   7.245
 6944SOL    HW222274   2.304   0.099   7.316
 6945SOL     OW22275   2.450   0.878   6.620
 6945SOL    HW122276   2.490   0.965   6.622
 6945SOL    HW222277   2.392   0.877   6.697
 6946SOL     OW22278   3.199   0.854   6.604
 6946SOL    HW122279   3.113   0.841   6.564
 6946SOL    HW222280   3.245   0.772   6.588
 6947SOL     OW22281   3.053   0.530   5.838
 6947SOL    HW122282   3.062   0.450   5.888
 6947SOL    HW222283   3.016   0.593   5.900
 6948SOL     OW22284   2.174   0.193   6.822
 6948SOL    HW122285   2.101   0.201   6.882
 6948SOL    HW222286   2.157   0.113   6.773
 6949SOL     OW22287   1.887   1.312   6.863
 6949SOL    HW122288   1.930   1.258   6.929
 6949SOL    HW222289   1.906   1.402   6.890
 6950SOL     OW22290   2.577   0.630   6.637
 6950SOL    HW122291   2.655   0.622   6.582
 6950SOL    HW222292   2.547   0.720   6.623
 6951SOL     OW22293   3.611   0.954   7.456
 6951SOL    HW122294   3.564   0.892   7.400
 6951SOL    HW222295   3.546   0.980   7.521
 6952SOL     OW22296   2.263   0.086   6.248
 6952SOL    HW122297   2.214   0.163   6.277
 6952SOL    HW222298   2.211   0.011   6.279
 6953SOL     OW22299   3.488   0.408   5.930
 6953SOL    HW122300   3.502   0.336   5.992
 6953SOL    HW222301   3.461   0.482   5.985
 6954SOL     OW22302   2.892   0.761   6.543
 6954SOL    HW122303   2.880   0.775   6.637
 6954SOL    HW222304   2.860   0.672   6.528
 6955SOL     OW22305   2.834   1.557   7.309
 6955SOL    HW122306   2.822   1.606   7.227
 6955SOL    HW222307   2.887   1.481   7.283
 6956SOL     OW22308   3.717   1.496   7.188
 6956SOL    HW122309   3.733   1.531   7.100
 6956SOL    HW222310   3.796   1.518   7.237
 6957SOL     OW22311   2.211   0.910   7.401
 6957SOL    HW122312   2.290   0.941   7.446
 6957SOL    HW222313   2.244   0.848   7.336
 6958SOL     OW22314   3.414   0.267   5.708
 6958SOL    HW122315   3.448   0.183   5.739
 6958SOL    HW222316   3.434   0.329   5.778
 6959SOL     OW22317   3.145   0.825   5.610
 6959SOL    HW122318   3.190   0.741   5.616
 6959SOL    HW222319   3.179   0.864   5.530
 6960SOL     OW22320   2.938   1.346   6.449
 6960SOL    HW122321   2.945   1.276   6.384
 6960SOL    HW222322   2.992   1.417   6.414
 6961SOL     OW22323   2.174   0.817   6.529
 6961SOL    HW122324   2.267   0.838   6.523
 6961SOL    HW222325   2.172   0.728   6.565
 6962SOL     OW22326   2.204   0.545   6.605
 6962SOL    HW122327   2.157   0.464   6.588
 6962SOL    HW222328   2.278   0.543   6.545
 6963SOL     OW22329   3.038   0.364   7.298
 6963SOL    HW122330   2.972   0.422   7.338
 6963SOL    HW222331   3.112   0.421   7.280
 6964SOL     OW22332   3.025   0.217   7.068
 6964SOL    HW122333   3.038   0.268   7.148
 6964SOL    HW222334   3.062   0.272   6.999
 6965SOL     OW22335   1.864   1.314   5.782
 6965SOL    HW122336   1.777   1.332   5.748
 6965SOL    HW222337   1.859   1.225   5.816
 6966SOL     OW22338   1.948   1.779   6.526
 6966SOL    HW122339   1.922   1.702   6.476
 6966SOL    HW222340   2.039   1.795   6.499
 6967SOL     OW22341   2.351   1.573   6.490
 6967SOL    HW122342   2.420   1.635   6.512
 6967SOL    HW222343   2.393   1.511   6.430
 6968SOL     OW22344   2.828   0.776   6.809
 6968SOL    HW122345   2.892   0.761   6.879
 6968SOL    HW222346   2.744   0.754   6.849
 6969SOL     OW22347   1.895   0.551   6.709
 6969SOL    HW122348   1.964   0.524   6.648
 6969SOL    HW222349   1.937   0.550   6.795
 6970SOL     OW22350   2.060   0.530   7.317
 6970SOL    HW122351   2.144   0.524   7.271
 6970SOL    HW222352   2.015   0.603   7.274
 6971SOL     OW22353   3.246   0.929   7.240
 6971SOL    HW122354   3.268   1.022   7.237
 6971SOL    HW222355   3.240   0.902   7.148
 6972SOL     OW22356   2.678   0.569   5.956
 6972SOL    HW122357   2.684   0.498   5.892
 6972SOL    HW222358   2.606   0.623   5.924
 6973SOL     OW22359   3.498   0.600   6.758
 6973SOL    HW122360   3.490   0.549   6.840
 6973SOL    HW222361   3.587   0.582   6.728
 6974SOL     OW22362   2.093   1.547   7.304
 6974SOL    HW122363   2.079   1.616   7.369
 6974SOL    HW222364   2.106   1.467   7.355
 6975SOL     OW22365   2.592   0.454   6.841
 6975SOL    HW122366   2.534   0.381   6.821
 6975SOL    HW222367   2.577   0.516   6.770
 6976SOL     OW22368   2.780   1.674   7.059
 6976SOL    HW122369   2.753   1.641   6.973
 6976SOL    HW222370   2.786   1.769   7.048
 6977SOL     OW22371   2.314   0.504   5.762
 6977SOL    HW122372   2.375   0.574   5.786
 6977SOL    HW222373   2.229   0.548   5.755
 6978SOL     OW22374   1.993   1.144   7.061
 6978SOL    HW122375   2.000   1.102   7.146
 6978SOL    HW222376   2.013   1.075   6.997
 6979SOL     OW22377   3.172   1.038   6.802
 6979SOL    HW122378   3.195   0.976   6.732
 6979SOL    HW222379   3.106   1.095   6.763
 6980SOL     OW22380   3.184   0.852   5.885
 6980SOL    HW122381   3.109   0.828   5.939
 6980SOL    HW222382   3.153   0.844   5.795
 6981SOL     OW22383   3.638   1.731   6.744
 6981SOL    HW122384   3.701   1.760   6.678
 6981SOL    HW222385   3.614   1.642   6.717
 6982SOL     OW22386   3.097   1.724   6.669
 6982SOL    HW122387   3.180   1.758   6.638
 6982SOL    HW222388   3.117   1.635   6.700
 6983SOL     OW22389   1.954   1.256   6.602
 6983SOL    HW122390   1.926   1.275   6.692
 6983SOL    HW222391   1.882   1.203   6.566
 6984SOL     OW22392   2.541   1.672   7.330
 6984SOL    HW122393   2.484   1.749   7.326
 6984SOL    HW222394   2.619   1.698   7.281
 6985SOL     OW22395   3.542   0.171   6.071
 6985SOL    HW122396   3.608   0.156   6.003
 6985SOL    HW222397   3.582   0.136   6.151
 6986SOL     OW22398   3.255   1.569   6.078
 6986SOL    HW122399   3.315   1.603   6.011
 6986SOL    HW222400   3.206   1.646   6.107
 6987SOL     OW22401   2.007   1.791   7.430
 6987SOL    HW122402   1.957   1.725   7.479
 6987SOL    HW222403   2.055   1.839   7.497
 6988SOL     OW22404   3.139   0.931   6.252
 6988SOL    HW122405   3.214   0.873   6.265
 6988SOL    HW222406   3.173   1.002   6.198
 6989SOL     OW22407   2.667   1.282   7.011
 6989SOL    HW122408   2.638   1.323   7.092
 6989SOL    HW222409   2.604   1.312   6.945
 6990SOL     OW22410   2.533   1.620   5.745
 6990SOL    HW122411   2.544   1.643   5.653
 6990SOL    HW222412   2.475   1.544   5.744
 6991SOL     OW22413   3.477   1.730   6.976
 6991SOL    HW122414   3.534   1.737   6.899
 6991SOL    HW222415   3.463   1.821   7.004
 6992SOL     OW22416   3.715   0.177   6.546
 6992SOL    HW122417   3.711   0.083   6.560
 6992SOL    HW222418   3.632   0.199   6.503
 6993SOL     OW22419   2.118   0.310   6.301
 6993SOL    HW122420   2.035   0.352   6.277
 6993SOL    HW222421   2.122   0.319   6.397
 6994SOL     OW22422   3.071   1.601   5.619
 6994SOL    HW122423   3.058   1.508   5.641
 6994SOL    HW222424   3.006   1.617   5.550
 6995SOL     OW22425   2.687   1.014   6.959
 6995SOL    HW122426   2.728   1.011   6.873
 6995SOL    HW222427   2.681   1.108   6.980
 6996SOL     OW22428   2.776   0.904   5.881
 6996SOL    HW122429   2.832   0.937   5.810
 6996SOL    HW222430   2.830   0.841   5.927
 6997SOL     OW22431   3.355   1.615   5.632
 6997SOL    HW122432   3.260   1.617   5.619
 6997SOL    HW222433   3.392   1.627   5.545
 6998SOL     OW22434   2.225   1.302   7.083
 6998SOL    HW122435   2.222   1.378   7.023
 6998SOL    HW222436   2.146   1.253   7.063
 6999SOL     OW22437   3.465   1.289   6.856
 6999SOL    HW122438   3.539   1.281   6.915
 6999SOL    HW222439   3.409   1.356   6.895
 7000SOL     OW22440   2.930   1.116   6.303
 7000SOL    HW122441   2.857   1.066   6.338
 7000SOL    HW222442   2.994   1.049   6.276
 7001SOL     OW22443   2.893   0.269   6.536
 7001SOL    HW122444   2.870   0.216   6.460
 7001SOL    HW222445   2.897   0.206   6.608
 7002SOL     OW22446   2.465   1.488   6.067
 7002SOL    HW122447   2.517   1.438   6.004
 7002SOL    HW222448   2.408   1.542   6.013
 7003SOL     OW22449   3.589   0.420   6.972
 7003SOL    HW122450   3.662   0.481   6.977
 7003SOL    HW222451   3.619   0.351   6.913
 7004SOL     OW22452   2.120   1.342   5.871
 7004SOL    HW122453   2.027   1.337   5.850
 7004SOL    HW222454   2.124   1.384   5.957
 7005SOL     OW22455   1.979   1.035   7.315
 7005SOL    HW122456   1.904   1.007   7.366
 7005SOL    HW222457   2.054   0.990   7.355
 7006SOL     OW22458   2.530   0.216   7.082
 7006SOL    HW122459   2.608   0.168   7.053
 7006SOL    HW222460   2.548   0.237   7.174
 7007SOL     OW22461   1.943   0.331   5.614
 7007SOL    HW122462   1.849   0.329   5.593
 7007SOL    HW222463   1.976   0.408   5.568
 7008SOL     OW22464   3.283   0.858   6.978
 7008SOL    HW122465   3.232   0.919   6.925
 7008SOL    HW222466   3.372   0.864   6.942
 7009SOL     OW22467   1.922   0.176   5.881
 7009SOL    HW122468   1.923   0.249   5.819
 7009SOL    HW222469   2.001   0.126   5.861
 7010SOL     OW22470   3.042   1.329   5.705
 7010SOL    HW122471   2.949   1.307   5.707
 7010SOL    HW222472   3.067   1.336   5.797
 7011SOL     OW22473   2.476   0.849   7.024
 7011SOL    HW122474   2.533   0.924   7.008
 7011SOL    HW222475   2.536   0.774   7.029
 7012SOL     OW22476   3.344   1.787   6.559
 7012SOL    HW122477   3.358   1.864   6.504
 7012SOL    HW222478   3.425   1.781   6.611
 7013SOL     OW22479   2.550   0.578   7.282
 7013SOL    HW122480   2.610   0.629   7.337
 7013SOL    HW222481   2.563   0.488   7.311
 7014SOL     OW22482   3.339   1.186   7.210
 7014SOL    HW122483   3.327   1.209   7.302
 7014SOL    HW222484   3.429   1.212   7.190
 7015SOL     OW22485   2.223   1.743   7.147
 7015SOL    HW122486   2.140   1.790   7.136
 7015SOL    HW222487   2.199   1.659   7.186
 7016SOL     OW22488   3.522   0.880   6.841
 7016SOL    HW122489   3.518   0.798   6.792
 7016SOL    HW222490   3.510   0.948   6.774
 7017SOL     OW22491   3.077   0.322   6.035
 7017SOL    HW122492   3.143   0.254   6.021
 7017SOL    HW222493   3.108   0.370   6.111
 7018SOL     OW22494   2.445   0.734   6.260
 7018SOL    HW122495   2.487   0.819   6.249
 7018SOL    HW222496   2.382   0.728   6.188
 7019SOL     OW22497   3.613   0.373   7.242
 7019SOL    HW122498   3.607   0.391   7.148
 7019SOL    HW222499   3.538   0.317   7.260
 7020SOL     OW22500   3.615   0.932   7.097
 7020SOL    HW122501   3.602   1.026   7.112
 7020SOL    HW222502   3.594   0.920   7.004
 7021SOL     OW22503   2.726   1.364   5.635
 7021SOL    HW122504   2.688   1.397   5.717
 7021SOL    HW222505   2.743   1.443   5.583
 7022SOL     OW22506   2.527   1.774   6.519
 7022SOL    HW122507   2.510   1.867   6.504
 7022SOL    HW222508   2.623   1.768   6.518
 7023SOL     OW22509   2.733   0.974   6.439
 7023SOL    HW122510   2.786   0.903   6.477
 7023SOL    HW222511   2.693   1.017   6.514
 7024SOL     OW22512   2.926   0.975   5.671
 7024SOL    HW122513   2.911   1.037   5.599
 7024SOL    HW222514   3.005   0.927   5.645
 7025SOL     OW22515   3.703   1.545   6.424
 7025SOL    HW122516   3.627   1.547   6.365
 7025SOL    HW222517   3.669   1.511   6.506
 7026SOL     OW22518   2.088   1.296   7.439
 7026SOL    HW122519   2.027   1.231   7.403
 7026SOL    HW222520   2.060   1.307   7.530
 7027SOL     OW22521   1.956   1.211   6.251
 7027SOL    HW122522   1.994   1.173   6.331
 7027SOL    HW222523   2.020   1.192   6.183
 7028SOL     OW22524   2.550   1.410   7.222
 7028SOL    HW122525   2.468   1.374   7.258
 7028SOL    HW222526   2.553   1.500   7.254
 7029SOL     OW22527   3.688   0.225   6.819
 7029SOL    HW122528   3.627   0.152   6.816
 7029SOL    HW222529   3.711   0.240   6.727
 7030SOL     OW22530   2.296   0.431   6.125
 7030SOL    HW122531   2.313   0.367   6.056
 7030SOL    HW222532   2.237   0.387   6.186
 7031SOL     OW22533   3.566   1.477   6.657
 7031SOL    HW122534   3.481   1.465   6.614
 7031SOL    HW222535   3.565   1.414   6.729
 7032SOL     OW22536   2.203   0.565   6.881
 7032SOL    HW122537   2.255   0.503   6.931
 7032SOL    HW222538   2.220   0.543   6.789
 7033SOL     OW22539   2.699   1.589   6.254
 7033SOL    HW122540   2.687   1.666   6.199
 7033SOL    HW222541   2.619   1.538   6.241
 7034SOL     OW22542   3.281   0.219   6.708
 7034SOL    HW122543   3.349   0.169   6.754
 7034SOL    HW222544   3.236   0.267   6.778
 7035SOL     OW22545   2.891   0.074   6.721
 7035SOL    HW122546   2.827   0.005   6.706
 7035SOL    HW222547   2.973   0.028   6.736
 7036SOL     OW22548   2.634   1.332   5.914
 7036SOL    HW122549   2.614   1.238   5.925
 7036SOL    HW222550   2.717   1.344   5.961
 7037SOL     OW22551   2.480   1.555   6.876
 7037SOL    HW122552   2.478   1.641   6.919
 7037SOL    HW222553   2.568   1.549   6.839
 7038SOL     OW22554   3.228   7.993   5.684
 7038SOL    HW122555   3.283   7.923   5.721
 7038SOL    HW222556   3.151   7.995   5.741
 7039SOL     OW22557   3.154   0.465   6.257
 7039SOL    HW122558   3.105   0.547   6.261
 7039SOL    HW222559   3.160   0.435   6.348
 7040SOL     OW22560   3.471   0.227   6.450
 7040SOL    HW122561   3.386   0.219   6.494
 7040SOL    HW222562   3.463   0.306   6.397
 7041SOL     OW22563   1.899   1.060   5.895
 7041SOL    HW122564   1.994   1.054   5.878
 7041SOL    HW222565   1.873   0.970   5.916
 7042SOL     OW22566   2.750   1.661   5.920
 7042SOL    HW122567   2.675   1.649   5.862
 7042SOL    HW222568   2.725   1.734   5.977
 7043SOL     OW22569   2.073   0.628   7.584
 7043SOL    HW122570   1.984   0.620   7.617
 7043SOL    HW222571   2.066   0.610   7.490
 7044SOL     OW22572   2.082   0.309   8.431
 7044SOL    HW122573   2.125   0.257   8.499
 7044SOL    HW222574   1.997   0.267   8.419
 7045SOL     OW22575   1.866   0.402   8.077
 7045SOL    HW122576   1.780   0.418   8.116
 7045SOL    HW222577   1.853   0.329   8.017
 7046SOL     OW22578   2.425   1.299   8.635
 7046SOL    HW122579   2.345   1.315   8.584
 7046SOL    HW222580   2.448   1.385   8.669
 7047SOL     OW22581   3.435   1.509   8.151
 7047SOL    HW122582   3.387   1.496   8.233
 7047SOL    HW222583   3.366   1.520   8.085
 7048SOL     OW22584   3.000   0.700   8.143
 7048SOL    HW122585   3.047   0.781   8.126
 7048SOL    HW222586   2.950   0.717   8.224
 7049SOL     OW22587   3.657   0.596   7.669
 7049SOL    HW122588   3.623   0.596   7.579
 7049SOL    HW222589   3.610   0.525   7.712
 7050SOL     OW22590   2.598   1.132   8.503
 7050SOL    HW122591   2.533   1.175   8.559
 7050SOL    HW222592   2.641   1.203   8.456
 7051SOL     OW22593   2.743   0.755   9.268
 7051SOL    HW122594   2.741   0.822   9.336
 7051SOL    HW222595   2.766   0.802   9.188
 7052SOL     OW22596   2.547   0.990   8.093
 7052SOL    HW122597   2.615   0.990   8.160
 7052SOL    HW222598   2.480   1.050   8.126
 7053SOL     OW22599   2.578   1.152   9.275
 7053SOL    HW122600   2.628   1.227   9.307
 7053SOL    HW222601   2.503   1.191   9.231
 7054SOL     OW22602   2.196   1.413   8.513
 7054SOL    HW122603   2.124   1.375   8.464
 7054SOL    HW222604   2.242   1.468   8.449
 7055SOL     OW22605   3.325   1.502   8.818
 7055SOL    HW122606   3.379   1.580   8.823
 7055SOL    HW222607   3.254   1.517   8.880
 7056SOL     OW22608   2.301   0.380   8.932
 7056SOL    HW122609   2.386   0.336   8.932
 7056SOL    HW222610   2.238   0.310   8.917
 7057SOL     OW22611   3.465   0.457   8.169
 7057SOL    HW122612   3.385   0.463   8.118
 7057SOL    HW222613   3.487   0.547   8.191
 7058SOL     OW22614   2.089   1.712   7.911
 7058SOL    HW122615   2.108   1.786   7.969
 7058SOL    HW222616   2.165   1.707   7.853
 7059SOL     OW22617   3.001   1.342   9.142
 7059SOL    HW122618   3.042   1.334   9.228
 7059SOL    HW222619   2.950   1.262   9.133
 7060SOL     OW22620   2.080   1.448   7.985
 7060SOL    HW122621   2.081   1.543   7.970
 7060SOL    HW222622   2.032   1.437   8.067
 7061SOL     OW22623   2.123   1.091   8.324
 7061SOL    HW122624   2.130   1.003   8.361
 7061SOL    HW222625   2.074   1.141   8.389
 7062SOL     OW22626   2.457   1.790   8.871
 7062SOL    HW122627   2.376   1.777   8.921
 7062SOL    HW222628   2.487   1.877   8.897
 7063SOL     OW22629   2.435   0.991   7.593
 7063SOL    HW122630   2.484   1.034   7.523
 7063SOL    HW222631   2.476   1.021   7.674
 7064SOL     OW22632   3.510   0.117   8.947
 7064SOL    HW122633   3.465   0.136   8.865
 7064SOL    HW222634   3.456   0.156   9.015
 7065SOL     OW22635   1.984   0.657   8.012
 7065SOL    HW122636   1.951   0.569   8.031
 7065SOL    HW222637   1.975   0.705   8.095
 7066SOL     OW22638   3.707   1.751   7.775
 7066SOL    HW122639   3.779   1.732   7.834
 7066SOL    HW222640   3.718   1.844   7.753
 7067SOL     OW22641   1.901   1.587   7.570
 7067SOL    HW122642   1.885   1.495   7.592
 7067SOL    HW222643   1.877   1.635   7.649
 7068SOL     OW22644   3.547   0.912   8.083
 7068SOL    HW122645   3.630   0.874   8.052
 7068SOL    HW222646   3.523   0.974   8.014
 7069SOL     OW22647   3.512   1.107   7.884
 7069SOL    HW122648   3.598   1.107   7.842
 7069SOL    HW222649   3.521   1.169   7.956
 7070SOL     OW22650   2.010   0.755   9.032
 7070SOL    HW122651   2.105   0.759   9.029
 7070SOL    HW222652   1.983   0.838   9.072
 7071SOL     OW22653   2.470   1.390   8.188
 7071SOL    HW122654   2.428   1.304   8.186
 7071SOL    HW222655   2.461   1.423   8.098
 7072SOL     OW22656   3.143   1.225   8.875
 7072SOL    HW122657   3.175   1.165   8.808
 7072SOL    HW222658   3.212   1.226   8.941
 7073SOL     OW22659   2.703   0.038   8.015
 7073SOL    HW122660   2.739   0.117   7.975
 7073SOL    HW222661   2.611   0.038   7.989
 7074SOL     OW22662   2.036   0.952   8.723
 7074SOL    HW122663   2.126   0.918   8.721
 7074SOL    HW222664   1.998   0.925   8.639
 7075SOL     OW22665   3.394   1.004   7.652
 7075SOL    HW122666   3.326   0.946   7.686
 7075SOL    HW222667   3.436   1.041   7.730
 7076SOL     OW22668   3.035   1.816   9.080
 7076SOL    HW122669   3.043   1.886   9.016
 7076SOL    HW222670   3.066   1.738   9.034
 7077SOL     OW22671   2.167   0.230   9.223
 7077SOL    HW122672   2.233   0.294   9.249
 7077SOL    HW222673   2.092   0.248   9.280
 7078SOL     OW22674   3.328   1.418   8.394
 7078SOL    HW122675   3.261   1.435   8.461
 7078SOL    HW222676   3.313   1.327   8.368
 7079SOL     OW22677   3.528   1.752   8.026
 7079SOL    HW122678   3.506   1.728   7.936
 7079SOL    HW222679   3.498   1.678   8.078
 7080SOL     OW22680   2.459   0.721   7.722
 7080SOL    HW122681   2.463   0.806   7.678
 7080SOL    HW222682   2.393   0.733   7.791
 7081SOL     OW22683   3.163   0.376   8.394
 7081SOL    HW122684   3.073   0.343   8.391
 7081SOL    HW222685   3.207   0.319   8.457
 7082SOL     OW22686   3.444   1.664   7.761
 7082SOL    HW122687   3.533   1.696   7.751
 7082SOL    HW222688   3.411   1.655   7.672
 7083SOL     OW22689   2.662   0.645   8.903
 7083SOL    HW122690   2.630   0.613   8.988
 7083SOL    HW222691   2.636   0.577   8.841
 7084SOL     OW22692   3.267   0.490   9.113
 7084SOL    HW122693   3.270   0.526   9.202
 7084SOL    HW222694   3.308   0.404   9.121
 7085SOL     OW22695   2.822   0.883   9.029
 7085SOL    HW122696   2.880   0.818   8.989
 7085SOL    HW222697   2.775   0.921   8.955
 7086SOL     OW22698   2.860   0.408   8.656
 7086SOL    HW122699   2.772   0.428   8.687
 7086SOL    HW222700   2.848   0.378   8.566
 7087SOL     OW22701   2.918   0.694   7.874
 7087SOL    HW122702   2.936   0.690   7.968
 7087SOL    HW222703   2.832   0.652   7.864
 7088SOL     OW22704   1.948   0.812   8.235
 7088SOL    HW122705   2.031   0.813   8.282
 7088SOL    HW222706   1.901   0.889   8.267
 7089SOL     OW22707   1.974   1.849   9.027
 7089SOL    HW122708   1.980   1.829   9.121
 7089SOL    HW222709   1.880   1.861   9.012
 7090SOL     OW22710   2.757   0.348   7.646
 7090SOL    HW122711   2.803   0.407   7.586
 7090SOL    HW222712   2.789   0.261   7.623
 7091SOL     OW22713   3.563   0.582   9.278
 7091SOL    HW122714   3.532   0.653   9.223
 7091SOL    HW222715   3.587   0.512   9.217
 7092SOL     OW22716   3.239   1.139   7.978
 7092SOL    HW122717   3.321   1.135   7.929
 7092SOL    HW222718   3.188   1.207   7.932
 7093SOL     OW22719   2.394   0.207   8.390
 7093SOL    HW122720   2.390   0.293   8.431
 7093SOL    HW222721   2.423   0.225   8.300
 7094SOL     OW22722   2.857   1.446   7.913
 7094SOL    HW122723   2.829   1.519   7.859
 7094SOL    HW222724   2.834   1.471   8.002
 7095SOL     OW22725   2.216   1.820   8.333
 7095SOL    HW122726   2.268   1.740   8.334
 7095SOL    HW222727   2.280   1.890   8.342
 7096SOL     OW22728   3.660   1.027   8.332
 7096SOL    HW122729   3.615   1.039   8.249
 7096SOL    HW222730   3.593   1.045   8.398
 7097SOL     OW22731   3.089   1.542   8.963
 7097SOL    HW122732   3.074   1.467   9.019
 7097SOL    HW222733   3.015   1.542   8.902
 7098SOL     OW22734   2.172   0.962   7.704
 7098SOL    HW122735   2.256   0.985   7.664
 7098SOL    HW222736   2.144   0.883   7.657
 7099SOL     OW22737   3.344   0.754   8.171
 7099SOL    HW122738   3.348   0.721   8.260
 7099SOL    HW222739   3.421   0.811   8.163
 7100SOL     OW22740   2.331   1.269   9.188
 7100SOL    HW122741   2.306   1.273   9.096
 7100SOL    HW222742   2.248   1.267   9.236
 7101SOL     OW22743   2.985   1.769   7.681
 7101SOL    HW122744   2.905   1.731   7.716
 7101SOL    HW222745   3.012   1.710   7.611
 7102SOL     OW22746   2.040   0.241   8.960
 7102SOL    HW122747   1.985   0.318   8.942
 7102SOL    HW222748   2.071   0.254   9.050
 7103SOL     OW22749   3.496   1.375   7.548
 7103SOL    HW122750   3.460   1.462   7.533
 7103SOL    HW222751   3.427   1.315   7.519
 7104SOL     OW22752   2.333   1.726   7.774
 7104SOL    HW122753   2.376   1.792   7.829
 7104SOL    HW222754   2.399   1.704   7.708
 7105SOL     OW22755   3.280   0.129   7.867
 7105SOL    HW122756   3.290   0.106   7.775
 7105SOL    HW222757   3.370   0.140   7.899
 7106SOL     OW22758   2.107   1.781   8.671
 7106SOL    HW122759   2.169   1.719   8.709
 7106SOL    HW222760   2.117   1.770   8.576
 7107SOL     OW22761   2.805   1.696   8.343
 7107SOL    HW122762   2.893   1.659   8.349
 7107SOL    HW222763   2.764   1.648   8.271
 7108SOL     OW22764   2.262   0.690   7.923
 7108SOL    HW122765   2.279   0.597   7.941
 7108SOL    HW222766   2.168   0.700   7.935
 7109SOL     OW22767   3.372   0.232   9.165
 7109SOL    HW122768   3.394   0.251   9.257
 7109SOL    HW222769   3.326   0.148   9.169
 7110SOL     OW22770   2.438   0.123   7.562
 7110SOL    HW122771   2.520   0.087   7.596
 7110SOL    HW222772   2.428   0.082   7.477
 7111SOL     OW22773   2.593   0.293   9.222
 7111SOL    HW122774   2.655   0.220   9.221
 7111SOL    HW222775   2.539   0.278   9.299
 7112SOL     OW22776   2.727   1.507   8.644
 7112SOL    HW122777   2.715   1.478   8.554
 7112SOL    HW222778   2.809   1.465   8.672
 7113SOL     OW22779   2.680   1.375   8.393
 7113SOL    HW122780   2.768   1.373   8.353
 7113SOL    HW222781   2.621   1.393   8.319
 7114SOL     OW22782   2.783   0.516   8.339
 7114SOL    HW122783   2.754   0.510   8.248
 7114SOL    HW222784   2.826   0.432   8.355
 7115SOL     OW22785   2.454   0.045   7.894
 7115SOL    HW122786   2.378  -0.004   7.927
 7115SOL    HW222787   2.417   0.127   7.861
 7116SOL     OW22788   3.289   1.202   7.482
 7116SOL    HW122789   3.316   1.130   7.538
 7116SOL    HW222790   3.206   1.232   7.519
 7117SOL     OW22791   2.158   0.056   7.658
 7117SOL    HW122792   2.238   0.096   7.621
 7117SOL    HW222793   2.190  -0.017   7.710
 7118SOL     OW22794   2.808   0.267   7.908
 7118SOL    HW122795   2.779   0.297   7.822
 7118SOL    HW222796   2.903   0.279   7.907
 7119SOL     OW22797   2.943   0.644   8.907
 7119SOL    HW122798   2.850   0.632   8.925
 7119SOL    HW222799   2.973   0.559   8.875
 7120SOL     OW22800   3.073   1.589   8.250
 7120SOL    HW122801   3.085   1.646   8.174
 7120SOL    HW222802   3.141   1.616   8.312
 7121SOL     OW22803   2.335   1.151   8.164
 7121SOL    HW122804   2.266   1.132   8.228
 7121SOL    HW222805   2.291   1.144   8.079
 7122SOL     OW22806   3.123   1.794   8.064
 7122SOL    HW122807   3.176   1.852   8.010
 7122SOL    HW222808   3.057   1.852   8.103
 7123SOL     OW22809   2.885   0.522   7.473
 7123SOL    HW122810   2.843   0.605   7.450
 7123SOL    HW222811   2.950   0.545   7.540
 7124SOL     OW22812   1.963   0.554   8.853
 7124SOL    HW122813   2.052   0.556   8.819
 7124SOL    HW222814   1.959   0.629   8.913
 7125SOL     OW22815   2.436   0.254   8.675
 7125SOL    HW122816   2.473   0.184   8.729
 7125SOL    HW222817   2.343   0.234   8.670
 7126SOL     OW22818   2.718   0.468   8.079
 7126SOL    HW122819   2.687   0.523   8.007
 7126SOL    HW222820   2.749   0.388   8.036
 7127SOL     OW22821   2.813   0.036   8.258
 7127SOL    HW122822   2.772   0.043   8.172
 7127SOL    HW222823   2.852  -0.051   8.260
 7128SOL     OW22824   3.315   1.158   8.298
 7128SOL    HW122825   3.236   1.118   8.264
 7128SOL    HW222826   3.368   1.176   8.220
 7129SOL     OW22827   3.324   0.613   8.416
 7129SOL    HW122828   3.278   0.530   8.403
 7129SOL    HW222829   3.385   0.597   8.488
 7130SOL     OW22830   3.698   0.804   7.841
 7130SOL    HW122831   3.764   0.758   7.894
 7130SOL    HW222832   3.682   0.744   7.768
 7131SOL     OW22833   2.350   1.418   7.592
 7131SOL    HW122834   2.275   1.389   7.644
 7131SOL    HW222835   2.347   1.364   7.513
 7132SOL     OW22836   3.536   1.250   8.116
 7132SOL    HW122837   3.632   1.248   8.121
 7132SOL    HW222838   3.513   1.343   8.122
 7133SOL     OW22839   3.258   0.577   7.517
 7133SOL    HW122840   3.193   0.556   7.584
 7133SOL    HW222841   3.342   0.556   7.558
 7134SOL     OW22842   2.367   0.279   7.769
 7134SOL    HW122843   2.400   0.226   7.696
 7134SOL    HW222844   2.346   0.363   7.730
 7135SOL     OW22845   3.618   1.238   9.030
 7135SOL    HW122846   3.703   1.209   8.996
 7135SOL    HW222847   3.630   1.331   9.048
 7136SOL     OW22848   2.922   1.347   8.774
 7136SOL    HW122849   2.844   1.322   8.824
 7136SOL    HW222850   2.994   1.306   8.821
 7137SOL     OW22851   3.473   1.618   9.107
 7137SOL    HW122852   3.463   1.664   9.023
 7137SOL    HW222853   3.559   1.576   9.101
 7138SOL     OW22854   2.983   1.199   8.546
 7138SOL    HW122855   2.938   1.252   8.612
 7138SOL    HW222856   2.969   1.246   8.464
 7139SOL     OW22857   3.471   1.090   8.523
 7139SOL    HW122858   3.461   1.158   8.590
 7139SOL    HW222859   3.405   1.110   8.457
 7140SOL     OW22860   2.790   0.126   8.855
 7140SOL    HW122861   2.797   0.110   8.761
 7140SOL    HW222862   2.880   0.114   8.887
 7141SOL     OW22863   2.847   1.113   9.173
 7141SOL    HW122864   2.755   1.132   9.195
 7141SOL    HW222865   2.842   1.037   9.116
 7142SOL     OW22866   2.572   1.057   7.822
 7142SOL    HW122867   2.559   1.036   7.915
 7142SOL    HW222868   2.648   1.005   7.796
 7143SOL     OW22869   2.280   0.829   8.709
 7143SOL    HW122870   2.351   0.840   8.772
 7143SOL    HW222871   2.253   0.738   8.718
 7144SOL     OW22872   3.106   0.437   8.751
 7144SOL    HW122873   3.160   0.456   8.674
 7144SOL    HW222874   3.018   0.427   8.717
 7145SOL     OW22875   1.940   1.563   8.793
 7145SOL    HW122876   1.920   1.646   8.751
 7145SOL    HW222877   2.035   1.557   8.793
 7146SOL     OW22878   2.191   1.127   7.931
 7146SOL    HW122879   2.194   1.202   7.872
 7146SOL    HW222880   2.190   1.050   7.874
 7147SOL     OW22881   2.409   0.535   8.313
 7147SOL    HW122882   2.419   0.592   8.237
 7147SOL    HW222883   2.482   0.558   8.371
 7148SOL     OW22884   3.107   1.352   7.842
 7148SOL    HW122885   3.163   1.425   7.870
 7148SOL    HW222886   3.020   1.376   7.872
 7149SOL     OW22887   3.158   1.462   8.605
 7149SOL    HW122888   3.219   1.472   8.678
 7149SOL    HW222889   3.091   1.402   8.639
 7150SOL     OW22890   3.439   0.633   7.929
 7150SOL    HW122891   3.384   0.679   7.992
 7150SOL    HW222892   3.488   0.702   7.885
 7151SOL     OW22893   2.210   1.518   8.760
 7151SOL    HW122894   2.201   1.478   8.673
 7151SOL    HW222895   2.303   1.536   8.768
 7152SOL     OW22896   2.292   0.737   9.058
 7152SOL    HW122897   2.346   0.788   8.998
 7152SOL    HW222898   2.346   0.663   9.083
 7153SOL     OW22899   3.448   0.756   9.087
 7153SOL    HW122900   3.390   0.822   9.126
 7153SOL    HW222901   3.519   0.807   9.049
 7154SOL     OW22902   2.909   0.070   9.181
 7154SOL    HW122903   2.922   0.165   9.173
 7154SOL    HW222904   2.814   0.059   9.174
 7155SOL     OW22905   2.369   0.033   9.178
 7155SOL    HW122906   2.344  -0.028   9.109
 7155SOL    HW222907   2.297   0.096   9.181
 7156SOL     OW22908   2.455   0.877   8.489
 7156SOL    HW122909   2.492   0.965   8.485
 7156SOL    HW222910   2.392   0.880   8.560
 7157SOL     OW22911   3.197   0.847   8.478
 7157SOL    HW122912   3.124   0.851   8.416
 7157SOL    HW222913   3.244   0.767   8.457
 7158SOL     OW22914   3.056   0.533   7.698
 7158SOL    HW122915   3.063   0.448   7.742
 7158SOL    HW222916   3.017   0.591   7.763
 7159SOL     OW22917   2.169   0.193   8.683
 7159SOL    HW122918   2.088   0.198   8.733
 7159SOL    HW222919   2.160   0.113   8.631
 7160SOL     OW22920   1.851   1.313   8.729
 7160SOL    HW122921   1.906   1.256   8.784
 7160SOL    HW222922   1.882   1.402   8.749
 7161SOL     OW22923   2.584   0.632   8.505
 7161SOL    HW122924   2.658   0.622   8.445
 7161SOL    HW222925   2.552   0.721   8.488
 7162SOL     OW22926   3.599   0.960   9.306
 7162SOL    HW122927   3.554   1.009   9.238
 7162SOL    HW222928   3.540   0.964   9.382
 7163SOL     OW22929   2.268   0.077   8.132
 7163SOL    HW122930   2.211   0.153   8.141
 7163SOL    HW222931   2.212   0.011   8.090
 7164SOL     OW22932   3.497   0.403   7.797
 7164SOL    HW122933   3.503   0.329   7.858
 7164SOL    HW222934   3.466   0.476   7.850
 7165SOL     OW22935   2.886   0.760   8.399
 7165SOL    HW122936   2.883   0.772   8.494
 7165SOL    HW222937   2.856   0.671   8.385
 7166SOL     OW22938   2.837   1.559   9.172
 7166SOL    HW122939   2.822   1.607   9.090
 7166SOL    HW222940   2.888   1.483   9.145
 7167SOL     OW22941   3.717   1.496   9.048
 7167SOL    HW122942   3.733   1.531   8.960
 7167SOL    HW222943   3.797   1.517   9.096
 7168SOL     OW22944   2.212   0.919   9.257
 7168SOL    HW122945   2.289   0.946   9.307
 7168SOL    HW222946   2.245   0.854   9.195
 7169SOL     OW22947   3.419   0.266   7.570
 7169SOL    HW122948   3.448   0.181   7.602
 7169SOL    HW222949   3.442   0.327   7.640
 7170SOL     OW22950   3.150   0.828   7.475
 7170SOL    HW122951   3.192   0.742   7.478
 7170SOL    HW222952   3.181   0.867   7.393
 7171SOL     OW22953   2.940   1.348   8.314
 7171SOL    HW122954   2.946   1.279   8.248
 7171SOL    HW222955   2.992   1.420   8.278
 7172SOL     OW22956   2.174   0.820   8.395
 7172SOL    HW122957   2.267   0.835   8.378
 7172SOL    HW222958   2.171   0.730   8.430
 7173SOL     OW22959   2.194   0.546   8.468
 7173SOL    HW122960   2.153   0.462   8.449
 7173SOL    HW222961   2.271   0.548   8.411
 7174SOL     OW22962   3.025   0.356   9.162
 7174SOL    HW122963   2.958   0.411   9.203
 7174SOL    HW222964   3.096   0.415   9.141
 7175SOL     OW22965   3.053   0.223   8.921
 7175SOL    HW122966   3.033   0.264   9.006
 7175SOL    HW222967   3.065   0.296   8.861
 7176SOL     OW22968   1.869   1.314   7.645
 7176SOL    HW122969   1.782   1.333   7.610
 7176SOL    HW222970   1.863   1.225   7.679
 7177SOL     OW22971   1.951   1.779   8.389
 7177SOL    HW122972   1.925   1.703   8.337
 7177SOL    HW222973   2.041   1.797   8.361
 7178SOL     OW22974   2.353   1.574   8.356
 7178SOL    HW122975   2.422   1.637   8.376
 7178SOL    HW222976   2.394   1.513   8.295
 7179SOL     OW22977   2.842   0.768   8.669
 7179SOL    HW122978   2.900   0.741   8.740
 7179SOL    HW222979   2.753   0.756   8.705
 7180SOL     OW22980   1.898   0.556   8.566
 7180SOL    HW122981   1.969   0.541   8.504
 7180SOL    HW222982   1.941   0.550   8.652
 7181SOL     OW22983   2.055   0.526   9.181
 7181SOL    HW122984   2.135   0.510   9.131
 7181SOL    HW222985   2.013   0.600   9.137
 7182SOL     OW22986   3.243   0.938   9.102
 7182SOL    HW122987   3.267   1.030   9.114
 7182SOL    HW222988   3.233   0.929   9.007
 7183SOL     OW22989   2.676   0.571   7.819
 7183SOL    HW122990   2.683   0.500   7.756
 7183SOL    HW222991   2.605   0.626   7.787
 7184SOL     OW22992   3.496   0.584   8.629
 7184SOL    HW122993   3.505   0.524   8.703
 7184SOL    HW222994   3.582   0.584   8.587
 7185SOL     OW22995   2.095   1.547   9.168
 7185SOL    HW122996   2.078   1.619   9.228
 7185SOL    HW222997   2.110   1.471   9.225
 7186SOL     OW22998   2.596   0.465   8.716
 7186SOL    HW122999   2.537   0.391   8.701
 7186SOL    HW223000   2.582   0.522   8.640
 7187SOL     OW23001   2.783   1.674   8.921
 7187SOL    HW123002   2.754   1.638   8.837
 7187SOL    HW223003   2.785   1.769   8.907
 7188SOL     OW23004   2.315   0.504   7.632
 7188SOL    HW123005   2.375   0.576   7.652
 7188SOL    HW223006   2.230   0.547   7.620
 7189SOL     OW23007   1.986   1.137   8.913
 7189SOL    HW123008   2.001   1.091   8.996
 7189SOL    HW223009   2.011   1.073   8.846
 7190SOL     OW23010   3.165   1.037   8.667
 7190SOL    HW123011   3.188   0.975   8.598
 7190SOL    HW223012   3.101   1.096   8.626
 7191SOL     OW23013   3.184   0.850   7.750
 7191SOL    HW123014   3.106   0.825   7.798
 7191SOL    HW223015   3.159   0.843   7.658
 7192SOL     OW23016   3.641   1.730   8.608
 7192SOL    HW123017   3.703   1.761   8.543
 7192SOL    HW223018   3.614   1.643   8.576
 7193SOL     OW23019   3.100   1.727   8.542
 7193SOL    HW123020   3.182   1.760   8.505
 7193SOL    HW223021   3.119   1.636   8.565
 7194SOL     OW23022   1.954   1.244   8.473
 7194SOL    HW123023   1.913   1.268   8.556
 7194SOL    HW223024   1.886   1.197   8.425
 7195SOL     OW23025   2.540   1.674   9.191
 7195SOL    HW123026   2.479   1.747   9.187
 7195SOL    HW223027   2.611   1.699   9.131
 7196SOL     OW23028   3.549   0.165   7.939
 7196SOL    HW123029   3.599   0.140   7.861
 7196SOL    HW223030   3.598   0.129   8.012
 7197SOL     OW23031   3.256   1.570   7.941
 7197SOL    HW123032   3.315   1.602   7.873
 7197SOL    HW223033   3.205   1.647   7.967
 7198SOL     OW23034   2.004   1.787   9.290
 7198SOL    HW123035   1.955   1.722   9.340
 7198SOL    HW223036   2.051   1.838   9.356
 7199SOL     OW23037   3.141   0.932   8.118
 7199SOL    HW123038   3.216   0.874   8.129
 7199SOL    HW223039   3.172   1.001   8.060
 7200SOL     OW23040   2.669   1.281   8.876
 7200SOL    HW123041   2.638   1.321   8.957
 7200SOL    HW223042   2.612   1.317   8.808
 7201SOL     OW23043   2.534   1.616   7.606
 7201SOL    HW123044   2.545   1.640   7.514
 7201SOL    HW223045   2.474   1.541   7.604
 7202SOL     OW23046   3.478   1.727   8.839
 7202SOL    HW123047   3.534   1.733   8.762
 7202SOL    HW223048   3.464   1.818   8.866
 7203SOL     OW23049   3.723   0.141   8.383
 7203SOL    HW123050   3.747   0.111   8.295
 7203SOL    HW223051   3.635   0.178   8.372
 7204SOL     OW23052   2.113   0.302   8.155
 7204SOL    HW123053   2.030   0.344   8.130
 7204SOL    HW223054   2.117   0.311   8.250
 7205SOL     OW23055   3.071   1.602   7.481
 7205SOL    HW123056   3.058   1.509   7.498
 7205SOL    HW223057   3.011   1.622   7.410
 7206SOL     OW23058   2.692   1.013   8.820
 7206SOL    HW123059   2.721   1.016   8.728
 7206SOL    HW223060   2.684   1.105   8.845
 7207SOL     OW23061   2.781   0.907   7.748
 7207SOL    HW123062   2.834   0.939   7.675
 7207SOL    HW223063   2.835   0.840   7.790
 7208SOL     OW23064   3.356   1.613   7.496
 7208SOL    HW123065   3.262   1.618   7.482
 7208SOL    HW223066   3.394   1.625   7.409
 7209SOL     OW23067   2.221   1.300   8.945
 7209SOL    HW123068   2.222   1.376   8.887
 7209SOL    HW223069   2.142   1.252   8.919
 7210SOL     OW23070   3.461   1.283   8.716
 7210SOL    HW123071   3.549   1.289   8.753
 7210SOL    HW223072   3.412   1.352   8.760
 7211SOL     OW23073   2.931   1.118   8.169
 7211SOL    HW123074   2.856   1.068   8.201
 7211SOL    HW223075   2.992   1.051   8.137
 7212SOL     OW23076   2.903   0.266   8.398
 7212SOL    HW123077   2.876   0.213   8.323
 7212SOL    HW223078   2.905   0.205   8.472
 7213SOL     OW23079   2.469   1.494   7.936
 7213SOL    HW123080   2.518   1.440   7.874
 7213SOL    HW223081   2.411   1.547   7.881
 7214SOL     OW23082   3.588   0.417   8.833
 7214SOL    HW123083   3.665   0.474   8.842
 7214SOL    HW223084   3.617   0.346   8.777
 7215SOL     OW23085   2.124   1.338   7.744
 7215SOL    HW123086   2.032   1.336   7.717
 7215SOL    HW223087   2.123   1.383   7.828
 7216SOL     OW23088   1.966   0.998   9.155
 7216SOL    HW123089   1.895   0.993   9.219
 7216SOL    HW223090   2.046   0.983   9.206
 7217SOL     OW23091   2.534   0.223   8.955
 7217SOL    HW123092   2.610   0.171   8.927
 7217SOL    HW223093   2.553   0.245   9.046
 7218SOL     OW23094   1.942   0.334   7.477
 7218SOL    HW123095   1.853   0.326   7.443
 7218SOL    HW223096   1.978   0.411   7.432
 7219SOL     OW23097   3.282   0.857   8.833
 7219SOL    HW123098   3.225   0.915   8.783
 7219SOL    HW223099   3.369   0.871   8.797
 7220SOL     OW23100   1.935   0.191   7.761
 7220SOL    HW123101   1.922   0.257   7.692
 7220SOL    HW223102   2.009   0.139   7.730
 7221SOL     OW23103   3.041   1.328   7.565
 7221SOL    HW123104   2.947   1.312   7.565
 7221SOL    HW223105   3.065   1.334   7.658
 7222SOL     OW23106   2.481   0.846   8.888
 7222SOL    HW123107   2.535   0.924   8.870
 7222SOL    HW223108   2.545   0.774   8.895
 7223SOL     OW23109   3.343   1.786   8.419
 7223SOL    HW123110   3.351   1.860   8.360
 7223SOL    HW223111   3.426   1.783   8.466
 7224SOL     OW23112   2.567   0.566   9.145
 7224SOL    HW123113   2.618   0.623   9.203
 7224SOL    HW223114   2.582   0.478   9.179
 7225SOL     OW23115   3.345   1.192   9.077
 7225SOL    HW123116   3.331   1.221   9.167
 7225SOL    HW223117   3.434   1.219   9.057
 7226SOL     OW23118   2.226   1.741   9.010
 7226SOL    HW123119   2.142   1.785   8.994
 7226SOL    HW223120   2.202   1.657   9.048
 7227SOL     OW23121   3.520   0.884   8.702
 7227SOL    HW123122   3.531   0.805   8.650
 7227SOL    HW223123   3.510   0.954   8.638
 7228SOL     OW23124   3.077   0.319   7.905
 7228SOL    HW123125   3.143   0.252   7.888
 7228SOL    HW223126   3.111   0.369   7.979
 7229SOL     OW23127   2.440   0.736   8.129
 7229SOL    HW123128   2.485   0.819   8.114
 7229SOL    HW223129   2.381   0.726   8.055
 7230SOL     OW23130   3.604   0.374   9.108
 7230SOL    HW123131   3.606   0.383   9.012
 7230SOL    HW223132   3.528   0.319   9.125
 7231SOL     OW23133   3.596   0.946   8.965
 7231SOL    HW123134   3.600   1.041   8.977
 7231SOL    HW223135   3.589   0.933   8.870
 7232SOL     OW23136   2.732   1.369   7.499
 7232SOL    HW123137   2.687   1.410   7.573
 7232SOL    HW223138   2.750   1.441   7.439
 7233SOL     OW23139   2.527   1.778   8.385
 7233SOL    HW123140   2.508   1.870   8.367
 7233SOL    HW223141   2.623   1.772   8.379
 7234SOL     OW23142   2.731   0.975   8.301
 7234SOL    HW123143   2.784   0.903   8.336
 7234SOL    HW223144   2.694   1.018   8.379
 7235SOL     OW23145   2.927   0.973   7.534
 7235SOL    HW123146   2.911   1.035   7.463
 7235SOL    HW223147   3.007   0.928   7.508
 7236SOL     OW23148   3.706   1.546   8.284
 7236SOL    HW123149   3.632   1.550   8.223
 7236SOL    HW223150   3.667   1.513   8.365
 7237SOL     OW23151   2.094   1.302   9.315
 7237SOL    HW123152   2.005   1.270   9.298
 7237SOL    HW223153   2.098   1.311   9.410
 7238SOL     OW23154   1.951   1.208   8.116
 7238SOL    HW123155   2.000   1.167   8.187
 7238SOL    HW223156   2.010   1.204   8.040
 7239SOL     OW23157   2.551   1.408   9.087
 7239SOL    HW123158   2.468   1.374   9.120
 7239SOL    HW223159   2.553   1.499   9.118
 7240SOL     OW23160   3.685   0.223   8.670
 7240SOL    HW123161   3.619   0.155   8.670
 7240SOL    HW223162   3.713   0.230   8.579
 7241SOL     OW23163   2.298   0.429   7.989
 7241SOL    HW123164   2.314   0.369   7.917
 7241SOL    HW223165   2.235   0.383   8.045
 7242SOL     OW23166   3.565   1.480   8.516
 7242SOL    HW123167   3.481   1.467   8.472
 7242SOL    HW223168   3.566   1.415   8.586
 7243SOL     OW23169   2.208   0.566   8.744
 7243SOL    HW123170   2.258   0.500   8.792
 7243SOL    HW223171   2.220   0.542   8.652
 7244SOL     OW23172   2.696   1.596   8.111
 7244SOL    HW123173   2.693   1.677   8.059
 7244SOL    HW223174   2.618   1.548   8.084
 7245SOL     OW23175   3.278   0.233   8.597
 7245SOL    HW123176   3.355   0.176   8.605
 7245SOL    HW223177   3.235   0.227   8.683
 7246SOL     OW23178   2.865   0.074   8.587
 7246SOL    HW123179   2.780   0.061   8.545
 7246SOL    HW223180   2.895  -0.015   8.609
 7247SOL     OW23181   2.628   1.331   7.785
 7247SOL    HW123182   2.610   1.237   7.788
 7247SOL    HW223183   2.716   1.340   7.823
 7248SOL     OW23184   2.480   1.552   8.742
 7248SOL    HW123185   2.480   1.637   8.786
 7248SOL    HW223186   2.567   1.546   8.702
 7249SOL     OW23187   3.235   7.998   7.561
 7249SOL    HW123188   3.279   7.915   7.582
 7249SOL    HW223189   3.150   7.992   7.605
 7250SOL     OW23190   3.161   0.465   8.126
 7250SOL    HW123191   3.110   0.546   8.125
 7250SOL    HW223192   3.161   0.438   8.218
 7251SOL     OW23193   3.480   0.242   8.337
 7251SOL    HW123194   3.395   0.198   8.336
 7251SOL    HW223195   3.470   0.316   8.279
 7252SOL     OW23196   1.900   1.061   7.763
 7252SOL    HW123197   1.993   1.056   7.742
 7252SOL    HW223198   1.874   0.971   7.783
 7253SOL     OW23199   2.747   1.660   7.782
 7253SOL    HW123200   2.674   1.648   7.722
 7253SOL    HW223201   2.722   1.734   7.836
 7254SOL     OW23202   2.072   0.631   9.445
 7254SOL    HW123203   1.984   0.620   9.481
 7254SOL    HW223204   2.063   0.605   9.353
 7255SOL     OW23205   2.072   0.316  10.297
 7255SOL    HW123206   2.125   0.257  10.350
 7255SOL    HW223207   1.991   0.268  10.282
 7256SOL     OW23208   1.867   0.405   9.942
 7256SOL    HW123209   1.781   0.425   9.979
 7256SOL    HW223210   1.852   0.328   9.887
 7257SOL     OW23211   2.429   1.302  10.500
 7257SOL    HW123212   2.347   1.312  10.451
 7257SOL    HW223213   2.449   1.390  10.531
 7258SOL     OW23214   3.439   1.514  10.014
 7258SOL    HW123215   3.392   1.493  10.095
 7258SOL    HW223216   3.371   1.522   9.948
 7259SOL     OW23217   2.999   0.700  10.005
 7259SOL    HW123218   3.045   0.783   9.990
 7259SOL    HW223219   2.950   0.715  10.086
 7260SOL     OW23220   3.660   0.596   9.529
 7260SOL    HW123221   3.624   0.598   9.440
 7260SOL    HW223222   3.612   0.526   9.573
 7261SOL     OW23223   2.597   1.133  10.362
 7261SOL    HW123224   2.534   1.175  10.421
 7261SOL    HW223225   2.639   1.206  10.316
 7262SOL     OW23226   2.742   0.754  11.131
 7262SOL    HW123227   2.739   0.823  11.198
 7262SOL    HW223228   2.763   0.801  11.050
 7263SOL     OW23229   2.548   0.992   9.954
 7263SOL    HW123230   2.615   0.990  10.022
 7263SOL    HW223231   2.480   1.051   9.989
 7264SOL     OW23232   2.577   1.151  11.137
 7264SOL    HW123233   2.627   1.226  11.168
 7264SOL    HW223234   2.501   1.189  11.094
 7265SOL     OW23235   2.196   1.411  10.376
 7265SOL    HW123236   2.122   1.371  10.331
 7265SOL    HW223237   2.239   1.465  10.310
 7266SOL     OW23238   3.321   1.503  10.678
 7266SOL    HW123239   3.375   1.582  10.686
 7266SOL    HW223240   3.250   1.516  10.741
 7267SOL     OW23241   2.305   0.380  10.786
 7267SOL    HW123242   2.388   0.333  10.792
 7267SOL    HW223243   2.239   0.311  10.778
 7268SOL     OW23244   3.467   0.461  10.033
 7268SOL    HW123245   3.397   0.476   9.970
 7268SOL    HW223246   3.468   0.540  10.087
 7269SOL     OW23247   2.088   1.713   9.773
 7269SOL    HW123248   2.108   1.787   9.831
 7269SOL    HW223249   2.163   1.708   9.714
 7270SOL     OW23250   3.001   1.342  11.004
 7270SOL    HW123251   3.043   1.333  11.089
 7270SOL    HW223252   2.949   1.262  10.995
 7271SOL     OW23253   2.089   1.446   9.841
 7271SOL    HW123254   2.082   1.542   9.834
 7271SOL    HW223255   2.036   1.424   9.918
 7272SOL     OW23256   2.127   1.093  10.191
 7272SOL    HW123257   2.129   1.004  10.228
 7272SOL    HW223258   2.073   1.143  10.253
 7273SOL     OW23259   2.456   1.793  10.737
 7273SOL    HW123260   2.375   1.778  10.785
 7273SOL    HW223261   2.484   1.880  10.763
 7274SOL     OW23262   2.434   0.992   9.454
 7274SOL    HW123263   2.484   1.035   9.385
 7274SOL    HW223264   2.474   1.021   9.536
 7275SOL     OW23265   3.518   0.118  10.814
 7275SOL    HW123266   3.482   0.129  10.726
 7275SOL    HW223267   3.456   0.162  10.871
 7276SOL     OW23268   1.986   0.659   9.873
 7276SOL    HW123269   1.952   0.572   9.894
 7276SOL    HW223270   1.976   0.708   9.955
 7277SOL     OW23271   3.708   1.753   9.639
 7277SOL    HW123272   3.782   1.732   9.696
 7277SOL    HW223273   3.721   1.844   9.614
 7278SOL     OW23274   1.900   1.584   9.433
 7278SOL    HW123275   1.883   1.493   9.457
 7278SOL    HW223276   1.877   1.634   9.511
 7279SOL     OW23277   3.552   0.919   9.952
 7279SOL    HW123278   3.632   0.876   9.922
 7279SOL    HW223279   3.527   0.977   9.880
 7280SOL     OW23280   3.512   1.104   9.742
 7280SOL    HW123281   3.599   1.103   9.700
 7280SOL    HW223282   3.521   1.168   9.813
 7281SOL     OW23283   1.985   0.752  10.897
 7281SOL    HW123284   2.074   0.787  10.897
 7281SOL    HW223285   1.929   0.829  10.889
 7282SOL     OW23286   2.473   1.392  10.048
 7282SOL    HW123287   2.431   1.306  10.050
 7282SOL    HW223288   2.461   1.422   9.958
 7283SOL     OW23289   3.143   1.230  10.732
 7283SOL    HW123290   3.171   1.163  10.670
 7283SOL    HW223291   3.206   1.225  10.803
 7284SOL     OW23292   2.701   0.036   9.875
 7284SOL    HW123293   2.738   0.115   9.836
 7284SOL    HW223294   2.608   0.038   9.849
 7285SOL     OW23295   2.044   0.956  10.598
 7285SOL    HW123296   2.132   0.921  10.583
 7285SOL    HW223297   1.993   0.927  10.523
 7286SOL     OW23298   3.393   1.000   9.512
 7286SOL    HW123299   3.324   0.944   9.547
 7286SOL    HW223300   3.436   1.036   9.589
 7287SOL     OW23301   3.040   1.817  10.942
 7287SOL    HW123302   3.044   1.883  10.873
 7287SOL    HW223303   3.061   1.735  10.898
 7288SOL     OW23304   2.169   0.225  11.084
 7288SOL    HW123305   2.237   0.288  11.106
 7288SOL    HW223306   2.094   0.250  11.138
 7289SOL     OW23307   3.329   1.421  10.251
 7289SOL    HW123308   3.263   1.437  10.319
 7289SOL    HW223309   3.316   1.329  10.227
 7290SOL     OW23310   3.521   1.760   9.886
 7290SOL    HW123311   3.502   1.731   9.797
 7290SOL    HW223312   3.499   1.685   9.941
 7291SOL     OW23313   2.457   0.719   9.583
 7291SOL    HW123314   2.462   0.806   9.542
 7291SOL    HW223315   2.393   0.730   9.653
 7292SOL     OW23316   3.159   0.375  10.246
 7292SOL    HW123317   3.068   0.347  10.247
 7292SOL    HW223318   3.202   0.318  10.310
 7293SOL     OW23319   3.443   1.667   9.623
 7293SOL    HW123320   3.534   1.696   9.613
 7293SOL    HW223321   3.412   1.655   9.533
 7294SOL     OW23322   2.647   0.640  10.754
 7294SOL    HW123323   2.624   0.609  10.841
 7294SOL    HW223324   2.625   0.567  10.696
 7295SOL     OW23325   3.279   0.495  10.985
 7295SOL    HW123326   3.283   0.537  11.070
 7295SOL    HW223327   3.335   0.417  10.994
 7296SOL     OW23328   2.808   0.885  10.896
 7296SOL    HW123329   2.863   0.818  10.856
 7296SOL    HW223330   2.760   0.924  10.823
 7297SOL     OW23331   2.864   0.412  10.533
 7297SOL    HW123332   2.773   0.433  10.557
 7297SOL    HW223333   2.858   0.378  10.444
 7298SOL     OW23334   2.920   0.696   9.736
 7298SOL    HW123335   2.938   0.691   9.830
 7298SOL    HW223336   2.834   0.654   9.727
 7299SOL     OW23337   1.948   0.819  10.092
 7299SOL    HW123338   2.030   0.815  10.142
 7299SOL    HW223339   1.901   0.894  10.129
 7300SOL     OW23340   1.980   1.878  10.896
 7300SOL    HW123341   1.986   1.854  10.988
 7300SOL    HW223342   1.895   1.843  10.868
 7301SOL     OW23343   2.750   0.354   9.517
 7301SOL    HW123344   2.796   0.405   9.450
 7301SOL    HW223345   2.756   0.264   9.486
 7302SOL     OW23346   3.565   0.573  11.144
 7302SOL    HW123347   3.533   0.649  11.095
 7302SOL    HW223348   3.590   0.510  11.076
 7303SOL     OW23349   3.242   1.141   9.843
 7303SOL    HW123350   3.323   1.135   9.792
 7303SOL    HW223351   3.190   1.207   9.796
 7304SOL     OW23352   2.357   0.210  10.248
 7304SOL    HW123353   2.387   0.273  10.313
 7304SOL    HW223354   2.401   0.236  10.167
 7305SOL     OW23355   2.858   1.446   9.775
 7305SOL    HW123356   2.829   1.520   9.722
 7305SOL    HW223357   2.833   1.470   9.865
 7306SOL     OW23358   2.216   1.819  10.192
 7306SOL    HW123359   2.265   1.737  10.194
 7306SOL    HW223360   2.282   1.887  10.204
 7307SOL     OW23361   3.663   1.036  10.192
 7307SOL    HW123362   3.614   1.031  10.109
 7307SOL    HW223363   3.596   1.048  10.259
 7308SOL     OW23364   3.086   1.543  10.824
 7308SOL    HW123365   3.074   1.468  10.883
 7308SOL    HW223366   3.019   1.531  10.757
 7309SOL     OW23367   2.171   0.962   9.567
 7309SOL    HW123368   2.254   0.983   9.525
 7309SOL    HW223369   2.145   0.879   9.528
 7310SOL     OW23370   3.345   0.757  10.030
 7310SOL    HW123371   3.343   0.721  10.119
 7310SOL    HW223372   3.423   0.813  10.028
 7311SOL     OW23373   2.334   1.273  11.051
 7311SOL    HW123374   2.309   1.276  10.959
 7311SOL    HW223375   2.250   1.269  11.098
 7312SOL     OW23376   2.987   1.770   9.545
 7312SOL    HW123377   2.906   1.733   9.580
 7312SOL    HW223378   3.012   1.710   9.474
 7313SOL     OW23379   2.038   0.253  10.811
 7313SOL    HW123380   1.995   0.336  10.790
 7313SOL    HW223381   2.061   0.261  10.904
 7314SOL     OW23382   3.492   1.374   9.409
 7314SOL    HW123383   3.458   1.462   9.393
 7314SOL    HW223384   3.421   1.316   9.384
 7315SOL     OW23385   2.332   1.728   9.633
 7315SOL    HW123386   2.375   1.792   9.690
 7315SOL    HW223387   2.399   1.705   9.569
 7316SOL     OW23388   3.282   0.131   9.723
 7316SOL    HW123389   3.300   0.118   9.630
 7316SOL    HW223390   3.369   0.141   9.763
 7317SOL     OW23391   2.113   1.786  10.533
 7317SOL    HW123392   2.168   1.714  10.567
 7317SOL    HW223393   2.110   1.771  10.438
 7318SOL     OW23394   2.806   1.698  10.203
 7318SOL    HW123395   2.892   1.657  10.212
 7318SOL    HW223396   2.764   1.649  10.132
 7319SOL     OW23397   2.261   0.689   9.783
 7319SOL    HW123398   2.280   0.596   9.802
 7319SOL    HW223399   2.168   0.698   9.799
 7320SOL     OW23400   3.384   0.227  11.032
 7320SOL    HW123401   3.396   0.247  11.125
 7320SOL    HW223402   3.326   0.152  11.031
 7321SOL     OW23403   2.451   0.138   9.414
 7321SOL    HW123404   2.527   0.094   9.452
 7321SOL    HW223405   2.431   0.087   9.335
 7322SOL     OW23406   2.585   0.297  11.076
 7322SOL    HW123407   2.680   0.302  11.060
 7322SOL    HW223408   2.577   0.277  11.169
 7323SOL     OW23409   2.731   1.517  10.507
 7323SOL    HW123410   2.718   1.483  10.418
 7323SOL    HW223411   2.806   1.467  10.540
 7324SOL     OW23412   3.201   0.597  10.743
 7324SOL    HW123413   3.241   0.570  10.826
 7324SOL    HW223414   3.236   0.685  10.727
 7325SOL     OW23415   2.680   1.380  10.257
 7325SOL    HW123416   2.767   1.375  10.217
 7325SOL    HW223417   2.621   1.395  10.184
 7326SOL     OW23418   2.785   0.521  10.201
 7326SOL    HW123419   2.756   0.513  10.110
 7326SOL    HW223420   2.824   0.436  10.222
 7327SOL     OW23421   2.451   0.044   9.750
 7327SOL    HW123422   2.376   0.002   9.792
 7327SOL    HW223423   2.417   0.128   9.720
 7328SOL     OW23424   3.286   1.201   9.348
 7328SOL    HW123425   3.311   1.129   9.406
 7328SOL    HW223426   3.202   1.231   9.383
 7329SOL     OW23427   2.154   0.054   9.529
 7329SOL    HW123428   2.231   0.098   9.493
 7329SOL    HW223429   2.189  -0.014   9.586
 7330SOL     OW23430   2.810   0.266   9.773
 7330SOL    HW123431   2.782   0.299   9.687
 7330SOL    HW223432   2.905   0.278   9.773
 7331SOL     OW23433   2.943   0.686  10.770
 7331SOL    HW123434   2.884   0.611  10.779
 7331SOL    HW223435   3.030   0.647  10.763
 7332SOL     OW23436   3.072   1.586  10.111
 7332SOL    HW123437   3.085   1.645  10.037
 7332SOL    HW223438   3.145   1.604  10.170
 7333SOL     OW23439   2.335   1.153  10.028
 7333SOL    HW123440   2.269   1.133  10.094
 7333SOL    HW223441   2.290   1.144   9.945
 7334SOL     OW23442   3.122   1.793   9.926
 7334SOL    HW123443   3.175   1.851   9.872
 7334SOL    HW223444   3.054   1.850   9.963
 7335SOL     OW23445   2.884   0.521   9.335
 7335SOL    HW123446   2.842   0.605   9.316
 7335SOL    HW223447   2.947   0.541   9.404
 7336SOL     OW23448   1.963   0.545  10.721
 7336SOL    HW123449   2.051   0.553  10.684
 7336SOL    HW223450   1.955   0.620  10.781
 7337SOL     OW23451   2.443   0.236  10.519
 7337SOL    HW123452   2.478   0.186  10.593
 7337SOL    HW223453   2.348   0.224  10.525
 7338SOL     OW23454   2.719   0.468   9.942
 7338SOL    HW123455   2.688   0.523   9.870
 7338SOL    HW223456   2.749   0.387   9.900
 7339SOL     OW23457   2.813   0.037  10.119
 7339SOL    HW123458   2.772   0.043  10.033
 7339SOL    HW223459   2.855  -0.049  10.120
 7340SOL     OW23460   3.310   1.159  10.164
 7340SOL    HW123461   3.232   1.106  10.150
 7340SOL    HW223462   3.348   1.171  10.077
 7341SOL     OW23463   3.326   0.615  10.271
 7341SOL    HW123464   3.273   0.535  10.270
 7341SOL    HW223465   3.383   0.605  10.347
 7342SOL     OW23466   3.698   0.803   9.703
 7342SOL    HW123467   3.762   0.758   9.758
 7342SOL    HW223468   3.682   0.743   9.630
 7343SOL     OW23469   2.354   1.420   9.455
 7343SOL    HW123470   2.279   1.393   9.507
 7343SOL    HW223471   2.349   1.367   9.376
 7344SOL     OW23472   3.539   1.256   9.963
 7344SOL    HW123473   3.634   1.253   9.974
 7344SOL    HW223474   3.516   1.348   9.976
 7345SOL     OW23475   3.256   0.576   9.369
 7345SOL    HW123476   3.191   0.553   9.435
 7345SOL    HW223477   3.340   0.555   9.410
 7346SOL     OW23478   2.367   0.279   9.626
 7346SOL    HW123479   2.406   0.231   9.553
 7346SOL    HW223480   2.343   0.364   9.589
 7347SOL     OW23481   3.608   1.241  10.868
 7347SOL    HW123482   3.696   1.208  10.850
 7347SOL    HW223483   3.622   1.331  10.897
 7348SOL     OW23484   2.915   1.353  10.641
 7348SOL    HW123485   2.839   1.322  10.690
 7348SOL    HW223486   2.989   1.309  10.683
 7349SOL     OW23487   3.473   1.627  10.973
 7349SOL    HW123488   3.462   1.664  10.886
 7349SOL    HW223489   3.555   1.577  10.967
 7350SOL     OW23490   3.000   1.216  10.411
 7350SOL    HW123491   2.940   1.257  10.474
 7350SOL    HW223492   2.975   1.253  10.327
 7351SOL     OW23493   3.476   1.091  10.385
 7351SOL    HW123494   3.467   1.157  10.453
 7351SOL    HW223495   3.407   1.111  10.322
 7352SOL     OW23496   2.775   0.127  10.701
 7352SOL    HW123497   2.795   0.113  10.608
 7352SOL    HW223498   2.861   0.130  10.744
 7353SOL     OW23499   2.846   1.115  11.034
 7353SOL    HW123500   2.755   1.132  11.059
 7353SOL    HW223501   2.842   1.037  10.979
 7354SOL     OW23502   2.571   1.058   9.684
 7354SOL    HW123503   2.558   1.038   9.777
 7354SOL    HW223504   2.647   1.005   9.658
 7355SOL     OW23505   2.282   0.827  10.564
 7355SOL    HW123506   2.350   0.839  10.630
 7355SOL    HW223507   2.252   0.737  10.576
 7356SOL     OW23508   3.126   0.379  10.599
 7356SOL    HW123509   3.159   0.460  10.638
 7356SOL    HW223510   3.038   0.401  10.568
 7357SOL     OW23511   1.940   1.571  10.666
 7357SOL    HW123512   1.913   1.643  10.610
 7357SOL    HW223513   2.036   1.569  10.658
 7358SOL     OW23514   2.187   1.127   9.797
 7358SOL    HW123515   2.193   1.202   9.737
 7358SOL    HW223516   2.187   1.051   9.739
 7359SOL     OW23517   2.410   0.534  10.168
 7359SOL    HW123518   2.421   0.593  10.094
 7359SOL    HW223519   2.481   0.558  10.229
 7360SOL     OW23520   3.107   1.352   9.703
 7360SOL    HW123521   3.164   1.424   9.732
 7360SOL    HW223522   3.020   1.375   9.734
 7361SOL     OW23523   3.159   1.462  10.460
 7361SOL    HW123524   3.214   1.469  10.539
 7361SOL    HW223525   3.104   1.385  10.476
 7362SOL     OW23526   3.433   0.634   9.791
 7362SOL    HW123527   3.383   0.678   9.860
 7362SOL    HW223528   3.483   0.705   9.750
 7363SOL     OW23529   2.209   1.527  10.617
 7363SOL    HW123530   2.200   1.482  10.533
 7363SOL    HW223531   2.303   1.541  10.626
 7364SOL     OW23532   2.294   0.737  10.925
 7364SOL    HW123533   2.344   0.788  10.862
 7364SOL    HW223534   2.353   0.666  10.950
 7365SOL     OW23535   3.478   0.787  11.002
 7365SOL    HW123536   3.392   0.826  10.994
 7365SOL    HW223537   3.530   0.825  10.931
 7366SOL     OW23538   2.909   0.066  11.047
 7366SOL    HW123539   2.925   0.159  11.032
 7366SOL    HW223540   2.815   0.054  11.032
 7367SOL     OW23541   2.372   0.026  11.045
 7367SOL    HW123542   2.350  -0.029  10.970
 7367SOL    HW223543   2.307   0.096  11.044
 7368SOL     OW23544   2.453   0.877  10.346
 7368SOL    HW123545   2.489   0.965  10.347
 7368SOL    HW223546   2.392   0.875  10.420
 7369SOL     OW23547   3.197   0.855  10.330
 7369SOL    HW123548   3.112   0.841  10.288
 7369SOL    HW223549   3.245   0.773  10.315
 7370SOL     OW23550   3.055   0.536   9.555
 7370SOL    HW123551   3.066   0.450   9.597
 7370SOL    HW223552   3.018   0.591   9.623
 7371SOL     OW23553   2.175   0.192  10.548
 7371SOL    HW123554   2.099   0.200  10.605
 7371SOL    HW223555   2.158   0.113  10.496
 7372SOL     OW23556   1.887   1.312  10.589
 7372SOL    HW123557   1.931   1.257  10.655
 7372SOL    HW223558   1.906   1.402  10.617
 7373SOL     OW23559   2.581   0.630  10.362
 7373SOL    HW123560   2.656   0.621  10.305
 7373SOL    HW223561   2.550   0.720  10.347
 7374SOL     OW23562   3.610   0.959  11.177
 7374SOL    HW123563   3.566   0.893  11.123
 7374SOL    HW223564   3.545   0.981  11.245
 7375SOL     OW23565   2.269   0.084   9.980
 7375SOL    HW123566   2.213   0.159  10.001
 7375SOL    HW223567   2.208   0.010   9.974
 7376SOL     OW23568   3.492   0.407   9.656
 7376SOL    HW123569   3.503   0.334   9.716
 7376SOL    HW223570   3.462   0.480   9.710
 7377SOL     OW23571   2.892   0.762  10.267
 7377SOL    HW123572   2.880   0.776  10.361
 7377SOL    HW223573   2.860   0.673  10.251
 7378SOL     OW23574   2.840   1.562  11.035
 7378SOL    HW123575   2.823   1.608  10.953
 7378SOL    HW223576   2.888   1.483  11.009
 7379SOL     OW23577   3.712   1.497  10.911
 7379SOL    HW123578   3.733   1.527  10.823
 7379SOL    HW223579   3.793   1.511  10.961
 7380SOL     OW23580   2.213   0.913  11.123
 7380SOL    HW123581   2.291   0.937  11.171
 7380SOL    HW223582   2.243   0.849  11.059
 7381SOL     OW23583   3.446   0.277   9.420
 7381SOL    HW123584   3.466   0.189   9.454
 7381SOL    HW223585   3.454   0.334   9.496
 7382SOL     OW23586   3.146   0.828   9.336
 7382SOL    HW123587   3.189   0.743   9.340
 7382SOL    HW223588   3.180   0.869   9.256
 7383SOL     OW23589   2.936   1.346  10.173
 7383SOL    HW123590   2.943   1.275  10.109
 7383SOL    HW223591   2.989   1.417  10.136
 7384SOL     OW23592   2.173   0.817  10.254
 7384SOL    HW123593   2.266   0.835  10.242
 7384SOL    HW223594   2.171   0.728  10.290
 7385SOL     OW23595   2.201   0.545  10.331
 7385SOL    HW123596   2.155   0.464  10.313
 7385SOL    HW223597   2.276   0.545  10.271
 7386SOL     OW23598   3.040   0.368  11.019
 7386SOL    HW123599   2.975   0.425  11.060
 7386SOL    HW223600   3.115   0.424  11.003
 7387SOL     OW23601   3.025   0.218  10.792
 7387SOL    HW123602   3.039   0.269  10.872
 7387SOL    HW223603   3.061   0.272  10.722
 7388SOL     OW23604   1.863   1.313   9.507
 7388SOL    HW123605   1.776   1.329   9.472
 7388SOL    HW223606   1.859   1.223   9.540
 7389SOL     OW23607   1.953   1.777  10.256
 7389SOL    HW123608   1.923   1.701  10.205
 7389SOL    HW223609   2.041   1.795  10.224
 7390SOL     OW23610   2.352   1.575  10.216
 7390SOL    HW123611   2.422   1.637  10.238
 7390SOL    HW223612   2.393   1.513  10.156
 7391SOL     OW23613   2.829   0.779  10.533
 7391SOL    HW123614   2.891   0.764  10.605
 7391SOL    HW223615   2.745   0.750  10.568
 7392SOL     OW23616   1.895   0.550  10.433
 7392SOL    HW123617   1.962   0.526  10.369
 7392SOL    HW223618   1.941   0.548  10.517
 7393SOL     OW23619   2.057   0.531  11.042
 7393SOL    HW123620   2.141   0.522  10.996
 7393SOL    HW223621   2.014   0.605  10.999
 7394SOL     OW23622   3.247   0.928  10.964
 7394SOL    HW123623   3.268   1.022  10.960
 7394SOL    HW223624   3.240   0.901  10.873
 7395SOL     OW23625   2.678   0.573   9.684
 7395SOL    HW123626   2.686   0.501   9.622
 7395SOL    HW223627   2.605   0.626   9.650
 7396SOL     OW23628   3.499   0.603  10.484
 7396SOL    HW123629   3.491   0.548  10.563
 7396SOL    HW223630   3.587   0.585  10.452
 7397SOL     OW23631   2.095   1.547  11.029
 7397SOL    HW123632   2.076   1.613  11.095
 7397SOL    HW223633   2.105   1.466  11.078
 7398SOL     OW23634   2.593   0.455  10.567
 7398SOL    HW123635   2.535   0.381  10.549
 7398SOL    HW223636   2.578   0.516  10.495
 7399SOL     OW23637   2.777   1.677  10.787
 7399SOL    HW123638   2.755   1.636  10.703
 7399SOL    HW223639   2.777   1.771  10.768
 7400SOL     OW23640   2.313   0.505   9.489
 7400SOL    HW123641   2.373   0.575   9.511
 7400SOL    HW223642   2.228   0.548   9.479
 7401SOL     OW23643   1.995   1.145  10.786
 7401SOL    HW123644   2.002   1.103  10.871
 7401SOL    HW223645   2.014   1.076  10.723
 7402SOL     OW23646   3.174   1.040  10.527
 7402SOL    HW123647   3.194   0.977  10.458
 7402SOL    HW223648   3.112   1.101  10.487
 7403SOL     OW23649   3.181   0.854   9.612
 7403SOL    HW123650   3.108   0.823   9.666
 7403SOL    HW223651   3.150   0.844   9.522
 7404SOL     OW23652   3.648   1.727  10.476
 7404SOL    HW123653   3.707   1.757  10.407
 7404SOL    HW223654   3.616   1.642  10.446
 7405SOL     OW23655   3.103   1.731  10.413
 7405SOL    HW123656   3.184   1.759  10.371
 7405SOL    HW223657   3.116   1.639  10.432
 7406SOL     OW23658   1.954   1.254  10.328
 7406SOL    HW123659   1.925   1.273  10.417
 7406SOL    HW223660   1.882   1.203  10.290
 7407SOL     OW23661   2.544   1.676  11.053
 7407SOL    HW123662   2.481   1.748  11.044
 7407SOL    HW223663   2.613   1.696  10.990
 7408SOL     OW23664   3.550   0.169   9.793
 7408SOL    HW123665   3.612   0.155   9.721
 7408SOL    HW223666   3.594   0.134   9.870
 7409SOL     OW23667   3.258   1.569   9.805
 7409SOL    HW123668   3.316   1.601   9.736
 7409SOL    HW223669   3.206   1.645   9.830
 7410SOL     OW23670   2.003   1.792  11.152
 7410SOL    HW123671   1.954   1.724  11.199
 7410SOL    HW223672   2.050   1.840  11.221
 7411SOL     OW23673   3.140   0.932   9.979
 7411SOL    HW123674   3.215   0.874   9.990
 7411SOL    HW223675   3.173   1.002   9.923
 7412SOL     OW23676   2.662   1.281  10.734
 7412SOL    HW123677   2.635   1.323  10.815
 7412SOL    HW223678   2.596   1.306  10.670
 7413SOL     OW23679   2.536   1.620   9.466
 7413SOL    HW123680   2.546   1.642   9.374
 7413SOL    HW223681   2.477   1.545   9.466
 7414SOL     OW23682   3.480   1.728  10.706
 7414SOL    HW123683   3.535   1.731  10.627
 7414SOL    HW223684   3.465   1.819  10.728
 7415SOL     OW23685   3.714   0.178  10.270
 7415SOL    HW123686   3.721   0.087  10.242
 7415SOL    HW223687   3.629   0.207  10.236
 7416SOL     OW23688   2.114   0.307  10.021
 7416SOL    HW123689   2.031   0.348   9.996
 7416SOL    HW223690   2.119   0.318  10.116
 7417SOL     OW23691   3.073   1.603   9.343
 7417SOL    HW123692   3.058   1.510   9.362
 7417SOL    HW223693   3.012   1.624   9.272
 7418SOL     OW23694   2.685   1.013  10.685
 7418SOL    HW123695   2.724   1.008  10.597
 7418SOL    HW223696   2.680   1.107  10.703
 7419SOL     OW23697   2.778   0.906   9.609
 7419SOL    HW123698   2.833   0.940   9.538
 7419SOL    HW223699   2.832   0.840   9.652
 7420SOL     OW23700   3.356   1.616   9.357
 7420SOL    HW123701   3.262   1.618   9.343
 7420SOL    HW223702   3.394   1.627   9.270
 7421SOL     OW23703   2.226   1.306  10.806
 7421SOL    HW123704   2.220   1.380  10.746
 7421SOL    HW223705   2.148   1.254  10.788
 7422SOL     OW23706   3.464   1.287  10.581
 7422SOL    HW123707   3.533   1.275  10.645
 7422SOL    HW223708   3.406   1.353  10.620
 7423SOL     OW23709   2.931   1.116  10.030
 7423SOL    HW123710   2.856   1.066  10.062
 7423SOL    HW223711   2.993   1.049  10.000
 7424SOL     OW23712   2.896   0.271  10.260
 7424SOL    HW123713   2.872   0.218  10.184
 7424SOL    HW223714   2.900   0.208  10.332
 7425SOL     OW23715   2.468   1.493   9.796
 7425SOL    HW123716   2.518   1.440   9.733
 7425SOL    HW223717   2.408   1.544   9.742
 7426SOL     OW23718   3.590   0.420  10.693
 7426SOL    HW123719   3.666   0.478  10.698
 7426SOL    HW223720   3.619   0.348  10.636
 7427SOL     OW23721   2.120   1.341   9.597
 7427SOL    HW123722   2.027   1.337   9.576
 7427SOL    HW223723   2.124   1.384   9.682
 7428SOL     OW23724   1.981   1.041  11.042
 7428SOL    HW123725   1.905   1.011  11.091
 7428SOL    HW223726   2.055   0.993  11.080
 7429SOL     OW23727   2.529   0.212  10.808
 7429SOL    HW123728   2.606   0.164  10.779
 7429SOL    HW223729   2.545   0.229  10.901
 7430SOL     OW23730   1.939   0.331   9.344
 7430SOL    HW123731   1.846   0.321   9.321
 7430SOL    HW223732   1.968   0.406   9.293
 7431SOL     OW23733   3.284   0.858  10.702
 7431SOL    HW123734   3.232   0.919  10.649
 7431SOL    HW223735   3.371   0.862  10.665
 7432SOL     OW23736   1.927   0.186   9.622
 7432SOL    HW123737   1.919   0.254   9.555
 7432SOL    HW223738   2.002   0.133   9.595
 7433SOL     OW23739   3.039   1.329   9.426
 7433SOL    HW123740   2.945   1.313   9.426
 7433SOL    HW223741   3.062   1.334   9.519
 7434SOL     OW23742   2.477   0.847  10.749
 7434SOL    HW123743   2.534   0.922  10.733
 7434SOL    HW223744   2.537   0.772  10.753
 7435SOL     OW23745   3.342   1.792  10.288
 7435SOL    HW123746   3.355   1.865  10.227
 7435SOL    HW223747   3.430   1.768  10.316
 7436SOL     OW23748   2.557   0.578  11.005
 7436SOL    HW123749   2.614   0.632  11.061
 7436SOL    HW223750   2.571   0.489  11.035
 7437SOL     OW23751   3.338   1.187  10.935
 7437SOL    HW123752   3.328   1.208  11.028
 7437SOL    HW223753   3.428   1.211  10.915
 7438SOL     OW23754   2.225   1.745  10.877
 7438SOL    HW123755   2.144   1.793  10.860
 7438SOL    HW223756   2.196   1.662  10.914
 7439SOL     OW23757   3.522   0.879  10.565
 7439SOL    HW123758   3.518   0.795  10.520
 7439SOL    HW223759   3.510   0.945  10.496
 7440SOL     OW23760   3.078   0.320   9.763
 7440SOL    HW123761   3.145   0.254   9.747
 7440SOL    HW223762   3.112   0.371   9.837
 7441SOL     OW23763   2.444   0.736   9.987
 7441SOL    HW123764   2.486   0.820   9.972
 7441SOL    HW223765   2.382   0.727   9.914
 7442SOL     OW23766   3.612   0.374  10.964
 7442SOL    HW123767   3.604   0.391  10.870
 7442SOL    HW223768   3.540   0.314  10.983
 7443SOL     OW23769   3.620   0.930  10.819
 7443SOL    HW123770   3.603   1.023  10.833
 7443SOL    HW223771   3.597   0.916  10.727
 7444SOL     OW23772   2.737   1.367   9.362
 7444SOL    HW123773   2.690   1.404   9.437
 7444SOL    HW223774   2.751   1.441   9.303
 7445SOL     OW23775   2.528   1.778  10.248
 7445SOL    HW123776   2.508   1.869  10.229
 7445SOL    HW223777   2.623   1.771  10.240
 7446SOL     OW23778   2.732   0.975  10.164
 7446SOL    HW123779   2.784   0.903  10.201
 7446SOL    HW223780   2.691   1.016  10.240
 7447SOL     OW23781   2.928   0.979   9.399
 7447SOL    HW123782   2.911   1.039   9.326
 7447SOL    HW223783   3.006   0.931   9.372
 7448SOL     OW23784   3.701   1.553  10.151
 7448SOL    HW123785   3.628   1.547  10.090
 7448SOL    HW223786   3.671   1.507  10.230
 7449SOL     OW23787   2.085   1.295  11.160
 7449SOL    HW123788   2.033   1.225  11.120
 7449SOL    HW223789   2.045   1.307  11.247
 7450SOL     OW23790   1.955   1.215   9.975
 7450SOL    HW123791   1.991   1.174  10.054
 7450SOL    HW223792   2.019   1.195   9.907
 7451SOL     OW23793   2.552   1.410  10.948
 7451SOL    HW123794   2.470   1.372  10.981
 7451SOL    HW223795   2.551   1.500  10.981
 7452SOL     OW23796   3.695   0.220  10.543
 7452SOL    HW123797   3.628   0.152  10.547
 7452SOL    HW223798   3.714   0.229  10.450
 7453SOL     OW23799   2.299   0.428   9.849
 7453SOL    HW123800   2.314   0.365   9.778
 7453SOL    HW223801   2.236   0.384   9.907
 7454SOL     OW23802   3.560   1.481  10.389
 7454SOL    HW123803   3.479   1.467  10.340
 7454SOL    HW223804   3.560   1.414  10.456
 7455SOL     OW23805   2.203   0.566  10.605
 7455SOL    HW123806   2.256   0.503  10.655
 7455SOL    HW223807   2.219   0.543  10.514
 7456SOL     OW23808   2.696   1.592   9.976
 7456SOL    HW123809   2.688   1.669   9.920
 7456SOL    HW223810   2.618   1.540   9.957
 7457SOL     OW23811   3.279   0.217  10.435
 7457SOL    HW123812   3.349   0.171  10.482
 7457SOL    HW223813   3.232   0.265  10.503
 7458SOL     OW23814   2.881   0.075  10.443
 7458SOL    HW123815   2.803   0.030  10.410
 7458SOL    HW223816   2.944   0.005  10.461
 7459SOL     OW23817   2.631   1.332   9.643
 7459SOL    HW123818   2.610   1.238   9.649
 7459SOL    HW223819   2.717   1.340   9.685
 7460SOL     OW23820   2.481   1.556  10.603
 7460SOL    HW123821   2.481   1.640  10.649
 7460SOL    HW223822   2.569   1.551  10.564
 7461SOL     OW23823   3.221   7.997   9.412
 7461SOL    HW123824   3.292   7.941   9.443
 7461SOL    HW223825   3.150   7.983   9.474
 7462SOL     OW23826   3.159   0.467   9.983
 7462SOL    HW123827   3.107   0.547   9.986
 7462SOL    HW223828   3.162   0.436  10.073
 7463SOL     OW23829   3.470   0.235  10.182
 7463SOL    HW123830   3.381   0.221  10.216
 7463SOL    HW223831   3.462   0.311  10.124
 7464SOL     OW23832   1.900   1.060   9.620
 7464SOL    HW123833   1.994   1.053   9.601
 7464SOL    HW223834   1.874   0.970   9.642
 7465SOL     OW23835   2.748   1.662   9.645
 7465SOL    HW123836   2.675   1.649   9.585
 7465SOL    HW223837   2.722   1.736   9.700
 7466SOL     OW23838   2.075   0.629  11.309
 7466SOL    HW123839   1.987   0.617  11.345
 7466SOL    HW223840   2.066   0.609  11.216
 7467SOL     OW23841   2.085   0.299  12.162
 7467SOL    HW123842   2.116   0.255  12.241
 7467SOL    HW223843   2.001   0.257  12.143
 7468SOL     OW23844   1.870   0.400  11.809
 7468SOL    HW123845   1.782   0.422  11.840
 7468SOL    HW223846   1.863   0.308  11.781
 7469SOL     OW23847   2.404   1.251  12.334
 7469SOL    HW123848   2.327   1.289  12.292
 7469SOL    HW223849   2.417   1.305  12.412
 7470SOL     OW23850   3.443   1.518  11.883
 7470SOL    HW123851   3.399   1.494  11.965
 7470SOL    HW223852   3.372   1.523  11.818
 7471SOL     OW23853   2.995   0.699  11.867
 7471SOL    HW123854   3.041   0.782  11.855
 7471SOL    HW223855   2.946   0.711  11.948
 7472SOL     OW23856   3.659   0.596  11.393
 7472SOL    HW123857   3.625   0.594  11.304
 7472SOL    HW223858   3.615   0.524  11.437
 7473SOL     OW23859   2.620   1.133  12.233
 7473SOL    HW123860   2.539   1.165  12.271
 7473SOL    HW223861   2.654   1.207  12.182
 7474SOL     OW23862   2.546   0.989  11.818
 7474SOL    HW123863   2.613   0.987  11.886
 7474SOL    HW223864   2.479   1.048  11.852
 7475SOL     OW23865   2.197   1.408  12.228
 7475SOL    HW123866   2.118   1.373  12.189
 7475SOL    HW223867   2.236   1.463  12.159
 7476SOL     OW23868   3.471   0.453  11.896
 7476SOL    HW123869   3.403   0.471  11.831
 7476SOL    HW223870   3.472   0.530  11.952
 7477SOL     OW23871   2.083   1.716  11.636
 7477SOL    HW123872   2.105   1.791  11.692
 7477SOL    HW223873   2.157   1.709  11.575
 7478SOL     OW23874   2.094   1.449  11.711
 7478SOL    HW123875   2.078   1.543  11.706
 7478SOL    HW223876   2.035   1.418  11.780
 7479SOL     OW23877   2.131   1.094  12.059
 7479SOL    HW123878   2.132   1.006  12.095
 7479SOL    HW223879   2.078   1.145  12.120
 7480SOL     OW23880   2.435   0.989  11.317
 7480SOL    HW123881   2.485   1.032  11.248
 7480SOL    HW223882   2.475   1.020  11.399
 7481SOL     OW23883   1.982   0.661  11.735
 7481SOL    HW123884   1.953   0.572  11.756
 7481SOL    HW223885   1.974   0.710  11.817
 7482SOL     OW23886   3.706   1.751  11.499
 7482SOL    HW123887   3.778   1.729  11.558
 7482SOL    HW223888   3.719   1.843  11.477
 7483SOL     OW23889   1.904   1.585  11.292
 7483SOL    HW123890   1.887   1.494  11.314
 7483SOL    HW223891   1.877   1.634  11.370
 7484SOL     OW23892   3.553   0.921  11.820
 7484SOL    HW123893   3.633   0.876  11.793
 7484SOL    HW223894   3.529   0.975  11.744
 7485SOL     OW23895   3.513   1.103  11.605
 7485SOL    HW123896   3.599   1.102  11.564
 7485SOL    HW223897   3.521   1.167  11.675
 7486SOL     OW23898   2.034   0.750   0.219
 7486SOL    HW123899   2.015   0.723   0.309
 7486SOL    HW223900   1.955   0.795   0.191
 7487SOL     OW23901   2.473   1.396  11.901
 7487SOL    HW123902   2.430   1.310  11.907
 7487SOL    HW223903   2.457   1.424  11.811
 7488SOL     OW23904   2.686   0.048  11.708
 7488SOL    HW123905   2.739   0.122  11.681
 7488SOL    HW223906   2.607   0.087  11.745
 7489SOL     OW23907   2.056   0.997  12.415
 7489SOL    HW123908   2.136   0.944  12.413
 7489SOL    HW223909   1.986   0.935  12.436
 7490SOL     OW23910   3.394   1.004  11.374
 7490SOL    HW123911   3.325   0.946  11.406
 7490SOL    HW223912   3.436   1.037  11.453
 7491SOL     OW23913   3.338   1.414  12.120
 7491SOL    HW123914   3.268   1.430  12.183
 7491SOL    HW223915   3.321   1.325  12.089
 7492SOL     OW23916   3.514   1.766  11.746
 7492SOL    HW123917   3.494   1.730  11.659
 7492SOL    HW223918   3.501   1.693  11.806
 7493SOL     OW23919   2.458   0.719  11.449
 7493SOL    HW123920   2.460   0.805  11.405
 7493SOL    HW223921   2.393   0.729  11.518
 7494SOL     OW23922   3.156   0.373  12.109
 7494SOL    HW123923   3.065   0.343  12.107
 7494SOL    HW223924   3.200   0.316  12.172
 7495SOL     OW23925   3.440   1.671  11.486
 7495SOL    HW123926   3.532   1.696  11.476
 7495SOL    HW223927   3.409   1.657  11.397
 7496SOL     OW23928   2.855   0.375  12.369
 7496SOL    HW123929   2.779   0.412  12.413
 7496SOL    HW223930   2.823   0.350  12.282
 7497SOL     OW23931   2.917   0.696  11.597
 7497SOL    HW123932   2.936   0.691  11.691
 7497SOL    HW223933   2.832   0.653  11.588
 7498SOL     OW23934   1.946   0.828  11.952
 7498SOL    HW123935   2.030   0.822  11.998
 7498SOL    HW223936   1.902   0.902  11.993
 7499SOL     OW23937   2.762   0.345  11.363
 7499SOL    HW123938   2.806   0.407  11.305
 7499SOL    HW223939   2.801   0.260  11.342
 7500SOL     OW23940   3.243   1.141  11.707
 7500SOL    HW123941   3.323   1.131  11.655
 7500SOL    HW223942   3.190   1.205  11.658
 7501SOL     OW23943   2.398   0.255  12.064
 7501SOL    HW123944   2.392   0.248  12.159
 7501SOL    HW223945   2.395   0.349  12.047
 7502SOL     OW23946   2.859   1.448  11.639
 7502SOL    HW123947   2.830   1.522  11.586
 7502SOL    HW223948   2.831   1.470  11.728
 7503SOL     OW23949   2.217   1.818  12.042
 7503SOL    HW123950   2.262   1.734  12.050
 7503SOL    HW223951   2.284   1.883  12.063
 7504SOL     OW23952   3.662   1.049  12.052
 7504SOL    HW123953   3.613   1.031  11.972
 7504SOL    HW223954   3.596   1.056  12.120
 7505SOL     OW23955   2.170   0.962  11.429
 7505SOL    HW123956   2.254   0.983  11.388
 7505SOL    HW223957   2.144   0.879  11.388
 7506SOL     OW23958   3.343   0.757  11.890
 7506SOL    HW123959   3.340   0.717  11.977
 7506SOL    HW223960   3.421   0.812  11.891
 7507SOL     OW23961   2.989   1.773  11.404
 7507SOL    HW123962   2.910   1.736  11.442
 7507SOL    HW223963   3.014   1.712  11.335
 7508SOL     OW23964   3.496   1.382  11.272
 7508SOL    HW123965   3.457   1.468  11.255
 7508SOL    HW223966   3.428   1.320  11.246
 7509SOL     OW23967   2.326   1.736  11.489
 7509SOL    HW123968   2.373   1.792  11.551
 7509SOL    HW223969   2.394   1.703  11.431
 7510SOL     OW23970   3.284   0.132  11.580
 7510SOL    HW123971   3.303   0.112  11.489
 7510SOL    HW223972   3.370   0.144  11.621
 7511SOL     OW23973   2.103   1.782  12.394
 7511SOL    HW123974   2.103   1.705  12.451
 7511SOL    HW223975   2.062   1.752  12.313
 7512SOL     OW23976   2.809   1.694  12.067
 7512SOL    HW123977   2.893   1.647  12.073
 7512SOL    HW223978   2.761   1.647  11.999
 7513SOL     OW23979   2.261   0.691  11.647
 7513SOL    HW123980   2.275   0.598  11.663
 7513SOL    HW223981   2.167   0.704  11.661
 7514SOL     OW23982   2.439   0.119  11.291
 7514SOL    HW123983   2.514   0.077  11.333
 7514SOL    HW223984   2.431   0.075  11.206
 7515SOL     OW23985   2.674   1.359  12.100
 7515SOL    HW123986   2.762   1.370  12.063
 7515SOL    HW223987   2.616   1.380  12.027
 7516SOL     OW23988   2.786   0.517  12.056
 7516SOL    HW123989   2.749   0.506  11.969
 7516SOL    HW223990   2.827   0.432  12.076
 7517SOL     OW23991   2.346   0.028  11.604
 7517SOL    HW123992   2.316   0.047  11.693
 7517SOL    HW223993   2.382   0.111  11.573
 7518SOL     OW23994   3.293   1.206  11.209
 7518SOL    HW123995   3.320   1.130  11.261
 7518SOL    HW223996   3.207   1.230  11.243
 7519SOL     OW23997   2.164   0.052  11.383
 7519SOL    HW123998   2.230   0.096  11.329
 7519SOL    HW223999   2.211   0.022  11.460
 7520SOL     OW24000   2.815   0.270  11.627
 7520SOL    HW124001   2.787   0.300  11.541
 7520SOL    HW224002   2.910   0.282  11.627
 7521SOL     OW24003   3.077   1.587  11.973
 7521SOL    HW124004   3.088   1.645  11.898
 7521SOL    HW224005   3.153   1.605  12.028
 7522SOL     OW24006   2.336   1.154  11.891
 7522SOL    HW124007   2.271   1.134  11.958
 7522SOL    HW224008   2.289   1.145  11.808
 7523SOL     OW24009   3.120   1.792  11.785
 7523SOL    HW124010   3.171   1.852  11.732
 7523SOL    HW224011   3.050   1.845  11.822
 7524SOL     OW24012   2.887   0.524  11.195
 7524SOL    HW124013   2.845   0.607  11.175
 7524SOL    HW224014   2.950   0.545  11.264
 7525SOL     OW24015   2.417   0.238  12.348
 7525SOL    HW124016   2.454   0.194  12.425
 7525SOL    HW224017   2.323   0.239  12.363
 7526SOL     OW24018   2.699   0.450  11.802
 7526SOL    HW124019   2.672   0.511  11.734
 7526SOL    HW224020   2.746   0.381  11.755
 7527SOL     OW24021   2.849   0.037  11.936
 7527SOL    HW124022   2.794   0.034  11.858
 7527SOL    HW224023   2.854  -0.054  11.965
 7528SOL     OW24024   3.302   1.157  12.023
 7528SOL    HW124025   3.230   1.095  12.011
 7528SOL    HW224026   3.337   1.170  11.935
 7529SOL     OW24027   3.322   0.614  12.128
 7529SOL    HW124028   3.270   0.534  12.131
 7529SOL    HW224029   3.385   0.604  12.200
 7530SOL     OW24030   3.699   0.805  11.564
 7530SOL    HW124031   3.762   0.759  11.620
 7530SOL    HW224032   3.681   0.744  11.493
 7531SOL     OW24033   2.352   1.422  11.321
 7531SOL    HW124034   2.276   1.392  11.372
 7531SOL    HW224035   2.349   1.370  11.241
 7532SOL     OW24036   3.540   1.262  11.820
 7532SOL    HW124037   3.635   1.258  11.832
 7532SOL    HW224038   3.518   1.353  11.837
 7533SOL     OW24039   3.259   0.577  11.244
 7533SOL    HW124040   3.192   0.555  11.309
 7533SOL    HW224041   3.342   0.552  11.286
 7534SOL     OW24042   2.381   0.285  11.493
 7534SOL    HW124043   2.409   0.229  11.420
 7534SOL    HW224044   2.356   0.367  11.451
 7535SOL     OW24045   2.968   1.241  12.286
 7535SOL    HW124046   2.884   1.259  12.328
 7535SOL    HW224047   2.956   1.270  12.195
 7536SOL     OW24048   3.466   1.092  12.243
 7536SOL    HW124049   3.432   1.133  12.323
 7536SOL    HW224050   3.400   1.113  12.176
 7537SOL     OW24051   2.573   1.061  11.546
 7537SOL    HW124052   2.558   1.038  11.638
 7537SOL    HW224053   2.649   1.008  11.520
 7538SOL     OW24054   2.294   0.832  12.443
 7538SOL    HW124055   2.341   0.868  12.518
 7538SOL    HW224056   2.279   0.741  12.465
 7539SOL     OW24057   3.114   0.360  12.437
 7539SOL    HW124058   3.145   0.446  12.466
 7539SOL    HW224059   3.023   0.375  12.411
 7540SOL     OW24060   2.187   1.127  11.659
 7540SOL    HW124061   2.188   1.201  11.598
 7540SOL    HW224062   2.188   1.049  11.603
 7541SOL     OW24063   2.409   0.526  12.034
 7541SOL    HW124064   2.420   0.585  11.960
 7541SOL    HW224065   2.471   0.557  12.100
 7542SOL     OW24066   3.107   1.351  11.566
 7542SOL    HW124067   3.164   1.422  11.597
 7542SOL    HW224068   3.020   1.374  11.597
 7543SOL     OW24069   3.153   1.447  12.318
 7543SOL    HW124070   3.207   1.441  12.397
 7543SOL    HW224071   3.093   1.372  12.324
 7544SOL     OW24072   3.432   0.631  11.657
 7544SOL    HW124073   3.382   0.676  11.725
 7544SOL    HW224074   3.477   0.701  11.610
 7545SOL     OW24075   2.244   1.534  12.463
 7545SOL    HW124076   2.214   1.481  12.389
 7545SOL    HW224077   2.292   1.606  12.423
 7546SOL     OW24078   2.440   0.874  12.211
 7546SOL    HW124079   2.469   0.965  12.208
 7546SOL    HW224080   2.387   0.868  12.290
 7547SOL     OW24081   3.186   0.854  12.175
 7547SOL    HW124082   3.100   0.830  12.139
 7547SOL    HW224083   3.239   0.775  12.166
 7548SOL     OW24084   3.055   0.533  11.422
 7548SOL    HW124085   3.065   0.449  11.468
 7548SOL    HW224086   3.015   0.591  11.487
 7549SOL     OW24087   2.154   0.212  12.414
 7549SOL    HW124088   2.116   0.268  12.481
 7549SOL    HW224089   2.127   0.123  12.439
 7550SOL     OW24090   1.926   1.325  12.433
 7550SOL    HW124091   1.964   1.249  12.477
 7550SOL    HW224092   1.925   1.394  12.499
 7551SOL     OW24093   2.577   0.632  12.223
 7551SOL    HW124094   2.653   0.625  12.164
 7551SOL    HW224095   2.544   0.721  12.209
 7552SOL     OW24096   2.221   0.053  11.846
 7552SOL    HW124097   2.205   0.146  11.865
 7552SOL    HW224098   2.193   0.007  11.925
 7553SOL     OW24099   3.492   0.406  11.518
 7553SOL    HW124100   3.507   0.332  11.577
 7553SOL    HW224101   3.463   0.477  11.575
 7554SOL     OW24102   2.891   0.756  12.138
 7554SOL    HW124103   2.883   0.764  12.233
 7554SOL    HW224104   2.860   0.667  12.119
 7555SOL     OW24105   3.418   0.268  11.294
 7555SOL    HW124106   3.451   0.183  11.323
 7555SOL    HW224107   3.440   0.327  11.367
 7556SOL     OW24108   3.149   0.826  11.198
 7556SOL    HW124109   3.191   0.740  11.203
 7556SOL    HW224110   3.181   0.864  11.116
 7557SOL     OW24111   2.939   1.348  12.031
 7557SOL    HW124112   2.945   1.275  11.969
 7557SOL    HW224113   2.994   1.416  11.994
 7558SOL     OW24114   2.173   0.820  12.110
 7558SOL    HW124115   2.268   0.836  12.113
 7558SOL    HW224116   2.164   0.729  12.139
 7559SOL     OW24117   2.172   0.551  12.164
 7559SOL    HW124118   2.143   0.459  12.165
 7559SOL    HW224119   2.256   0.549  12.119
 7560SOL     OW24120   3.032   0.206   0.148
 7560SOL    HW124121   3.022   0.265   0.223
 7560SOL    HW224122   3.065   0.262   0.078
 7561SOL     OW24123   1.874   1.312  11.365
 7561SOL    HW124124   1.786   1.330  11.332
 7561SOL    HW224125   1.868   1.223  11.401
 7562SOL     OW24126   1.957   1.779  12.120
 7562SOL    HW124127   1.926   1.703  12.070
 7562SOL    HW224128   2.045   1.795  12.086
 7563SOL     OW24129   2.356   1.581  12.074
 7563SOL    HW124130   2.427   1.639  12.099
 7563SOL    HW224131   2.398   1.517  12.016
 7564SOL     OW24132   2.837   0.787  12.411
 7564SOL    HW124133   2.882   0.857  12.459
 7564SOL    HW224134   2.744   0.804  12.426
 7565SOL     OW24135   1.931   0.558  12.310
 7565SOL    HW124136   2.002   0.569  12.247
 7565SOL    HW224137   1.926   0.464  12.324
 7566SOL     OW24138   2.678   0.568  11.542
 7566SOL    HW124139   2.681   0.497  11.479
 7566SOL    HW224140   2.605   0.623  11.512
 7567SOL     OW24141   3.515   0.607  12.324
 7567SOL    HW124142   3.509   0.562  12.408
 7567SOL    HW224143   3.608   0.604  12.302
 7568SOL     OW24144   2.594   0.445  12.424
 7568SOL    HW124145   2.521   0.388  12.402
 7568SOL    HW224146   2.585   0.520  12.366
 7569SOL     OW24147   2.748   1.656   0.027
 7569SOL    HW124148   2.763   1.708  -0.051
 7569SOL    HW224149   2.787   1.708   0.098
 7570SOL     OW24150   2.318   0.504  11.348
 7570SOL    HW124151   2.377   0.575  11.373
 7570SOL    HW224152   2.232   0.546  11.341
 7571SOL     OW24153   3.143   1.038  12.371
 7571SOL    HW124154   3.166   0.980  12.298
 7571SOL    HW224155   3.092   1.108  12.330
 7572SOL     OW24156   3.182   0.855  11.473
 7572SOL    HW124157   3.108   0.822  11.524
 7572SOL    HW224158   3.155   0.844  11.382
 7573SOL     OW24159   3.622   1.751  12.311
 7573SOL    HW124160   3.689   1.769  12.245
 7573SOL    HW224161   3.605   1.657  12.302
 7574SOL     OW24162   3.110   1.717  12.282
 7574SOL    HW124163   3.187   1.755  12.240
 7574SOL    HW224164   3.127   1.623  12.285
 7575SOL     OW24165   1.951   1.276  12.169
 7575SOL    HW124166   1.936   1.293  12.262
 7575SOL    HW224167   1.885   1.210  12.147
 7576SOL     OW24168   3.550   0.169  11.657
 7576SOL    HW124169   3.622   0.161  11.594
 7576SOL    HW224170   3.584   0.131  11.738
 7577SOL     OW24171   3.258   1.568  11.670
 7577SOL    HW124172   3.315   1.600  11.600
 7577SOL    HW224173   3.205   1.643  11.695
 7578SOL     OW24174   3.138   0.932  11.843
 7578SOL    HW124175   3.212   0.872  11.854
 7578SOL    HW224176   3.172   1.001  11.786
 7579SOL     OW24177   2.531   1.627  11.328
 7579SOL    HW124178   2.545   1.643  11.235
 7579SOL    HW224179   2.475   1.550  11.331
 7580SOL     OW24180   3.486   1.795   0.044
 7580SOL    HW124181   3.538   1.779  -0.034
 7580SOL    HW224182   3.513   1.882   0.073
 7581SOL     OW24183   3.721   0.173  12.120
 7581SOL    HW124184   3.718   0.082  12.149
 7581SOL    HW224185   3.634   0.189  12.084
 7582SOL     OW24186   2.120   0.303  11.887
 7582SOL    HW124187   2.040   0.349  11.862
 7582SOL    HW224188   2.123   0.309  11.983
 7583SOL     OW24189   3.072   1.599  11.207
 7583SOL    HW124190   3.059   1.507  11.229
 7583SOL    HW224191   3.008   1.616  11.137
 7584SOL     OW24192   2.654   1.014  12.482
 7584SOL    HW124193   2.651   1.057  12.397
 7584SOL    HW224194   2.730   1.051  12.527
 7585SOL     OW24195   2.781   0.910  11.470
 7585SOL    HW124196   2.837   0.942  11.399
 7585SOL    HW224197   2.833   0.842  11.512
 7586SOL     OW24198   3.352   1.628  11.221
 7586SOL    HW124199   3.258   1.619  11.205
 7586SOL    HW224200   3.391   1.635  11.134
 7587SOL     OW24201   2.930   1.116  11.892
 7587SOL    HW124202   2.855   1.065  11.924
 7587SOL    HW224203   2.992   1.049  11.863
 7588SOL     OW24204   2.894   0.258  12.101
 7588SOL    HW124205   2.878   0.203  12.024
 7588SOL    HW224206   2.902   0.196  12.173
 7589SOL     OW24207   2.468   1.494  11.649
 7589SOL    HW124208   2.519   1.441  11.588
 7589SOL    HW224209   2.395   1.527  11.596
 7590SOL     OW24210   3.605   0.456   0.043
 7590SOL    HW124211   3.671   0.449   0.112
 7590SOL    HW224212   3.622   0.380  -0.014
 7591SOL     OW24213   2.129   1.339  11.471
 7591SOL    HW124214   2.038   1.336  11.442
 7591SOL    HW224215   2.126   1.384  11.555
 7592SOL     OW24216   1.941   0.333  11.199
 7592SOL    HW124217   1.853   0.323  11.163
 7592SOL    HW224218   1.976   0.411  11.155
 7593SOL     OW24219   1.911   0.167  11.453
 7593SOL    HW124220   1.916   0.243  11.394
 7593SOL    HW224221   1.994   0.122  11.440
 7594SOL     OW24222   3.040   1.329  11.289
 7594SOL    HW124223   2.947   1.307  11.288
 7594SOL    HW224224   3.063   1.331  11.382
 7595SOL     OW24225   3.347   1.786  12.153
 7595SOL    HW124226   3.367   1.860  12.096
 7595SOL    HW224227   3.430   1.766  12.197
 7596SOL     OW24228   3.546   0.875  12.403
 7596SOL    HW124229   3.521   0.792  12.364
 7596SOL    HW224230   3.519   0.941  12.339
 7597SOL     OW24231   3.082   0.322  11.623
 7597SOL    HW124232   3.147   0.254  11.607
 7597SOL    HW224233   3.114   0.370  11.699
 7598SOL     OW24234   2.445   0.729  11.852
 7598SOL    HW124235   2.486   0.814  11.838
 7598SOL    HW224236   2.382   0.720  11.781
 7599SOL     OW24237   3.679   0.888   0.135
 7599SOL    HW124238   3.664   0.975   0.171
 7599SOL    HW224239   3.625   0.884   0.057
 7600SOL     OW24240   2.735   1.365  11.223
 7600SOL    HW124241   2.691   1.398  11.301
 7600SOL    HW224242   2.748   1.442  11.168
 7601SOL     OW24243   2.528   1.791  12.122
 7601SOL    HW124244   2.510   1.880  12.090
 7601SOL    HW224245   2.622   1.780  12.109
 7602SOL     OW24246   2.734   0.971  12.028
 7602SOL    HW124247   2.783   0.898  12.066
 7602SOL    HW224248   2.697   1.017  12.104
 7603SOL     OW24249   2.932   0.980  11.259
 7603SOL    HW124250   2.914   1.037  11.185
 7603SOL    HW224251   3.009   0.930  11.233
 7604SOL     OW24252   3.705   1.557  12.013
 7604SOL    HW124253   3.625   1.546  11.962
 7604SOL    HW224254   3.696   1.495  12.086
 7605SOL     OW24255   1.954   1.220  11.836
 7605SOL    HW124256   1.981   1.184  11.921
 7605SOL    HW224257   2.021   1.189  11.775
 7606SOL     OW24258   3.692   0.249  12.389
 7606SOL    HW124259   3.630   0.179  12.411
 7606SOL    HW224260   3.709   0.237  12.296
 7607SOL     OW24261   2.291   0.432  11.709
 7607SOL    HW124262   2.325   0.368  11.646
 7607SOL    HW224263   2.239   0.381  11.770
 7608SOL     OW24264   3.569   1.489  12.271
 7608SOL    HW124265   3.489   1.457  12.229
 7608SOL    HW224266   3.585   1.428  12.343
 7609SOL     OW24267   2.691   1.589  11.845
 7609SOL    HW124268   2.675   1.659  11.781
 7609SOL    HW224269   2.615   1.531  11.836
 7610SOL     OW24270   3.296   0.217  12.290
 7610SOL    HW124271   3.367   0.176  12.340
 7610SOL    HW224272   3.240   0.258  12.355
 7611SOL     OW24273   2.890   0.058  12.285
 7611SOL    HW124274   2.858   0.072  12.375
 7611SOL    HW224275   2.967   0.003  12.296
 7612SOL     OW24276   2.634   1.333  11.501
 7612SOL    HW124277   2.610   1.241  11.507
 7612SOL    HW224278   2.719   1.339  11.546
 7613SOL     OW24279   3.228   7.999  11.271
 7613SOL    HW124280   3.289   7.933  11.306
 7613SOL    HW224281   3.151   7.993  11.328
 7614SOL     OW24282   3.158   0.465  11.845
 7614SOL    HW124283   3.106   0.545  11.850
 7614SOL    HW224284   3.160   0.433  11.936
 7615SOL     OW24285   3.471   0.223  12.043
 7615SOL    HW124286   3.391   0.222  12.096
 7615SOL    HW224287   3.462   0.299  11.986
 7616SOL     OW24288   1.902   1.059  11.482
 7616SOL    HW124289   1.996   1.051  11.463
 7616SOL    HW224290   1.874   0.970  11.503
 7617SOL     OW24291   2.750   1.665  11.508
 7617SOL    HW124292   2.675   1.650  11.450
 7617SOL    HW224293   2.723   1.738  11.564
 7618SOL     OW24294   2.087   2.425   0.032
 7618SOL    HW124295   2.067   2.486   0.102
 7618SOL    HW224296   2.118   2.480  -0.040
 7619SOL     OW24297   2.087   2.144   0.991
 7619SOL    HW124298   2.112   2.113   1.078
 7619SOL    HW224299   1.997   2.113   0.980
 7620SOL     OW24300   1.856   2.247   0.639
 7620SOL    HW124301   1.781   2.277   0.689
 7620SOL    HW224302   1.826   2.167   0.594
 7621SOL     OW24303   2.432   3.164   1.189
 7621SOL    HW124304   2.345   3.171   1.149
 7621SOL    HW224305   2.451   3.253   1.221
 7622SOL     OW24306   3.437   3.382   0.716
 7622SOL    HW124307   3.394   3.358   0.798
 7622SOL    HW224308   3.367   3.381   0.651
 7623SOL     OW24309   2.993   2.565   0.692
 7623SOL    HW124310   3.043   2.646   0.679
 7623SOL    HW224311   2.948   2.578   0.776
 7624SOL     OW24312   3.589   2.476   0.276
 7624SOL    HW124313   3.596   2.488   0.181
 7624SOL    HW224314   3.566   2.384   0.287
 7625SOL     OW24315   2.594   2.993   1.046
 7625SOL    HW124316   2.533   3.033   1.108
 7625SOL    HW224317   2.641   3.067   1.008
 7626SOL     OW24318   2.738   2.616   1.827
 7626SOL    HW124319   2.738   2.679   1.899
 7626SOL    HW224320   2.760   2.668   1.750
 7627SOL     OW24321   2.546   2.852   0.645
 7627SOL    HW124322   2.614   2.848   0.712
 7627SOL    HW224323   2.480   2.910   0.682
 7628SOL     OW24324   2.574   3.008   1.818
 7628SOL    HW124325   2.620   3.083   1.854
 7628SOL    HW224326   2.494   3.044   1.780
 7629SOL     OW24327   2.196   3.275   1.067
 7629SOL    HW124328   2.121   3.234   1.024
 7629SOL    HW224329   2.238   3.326   0.998
 7630SOL     OW24330   3.323   3.370   1.363
 7630SOL    HW124331   3.378   3.447   1.376
 7630SOL    HW224332   3.254   3.378   1.430
 7631SOL     OW24333   2.318   2.241   1.455
 7631SOL    HW124334   2.392   2.188   1.484
 7631SOL    HW224335   2.241   2.196   1.489
 7632SOL     OW24336   3.469   2.304   0.752
 7632SOL    HW124337   3.432   2.341   0.671
 7632SOL    HW224338   3.447   2.368   0.819
 7633SOL     OW24339   2.999   3.209   1.697
 7633SOL    HW124340   3.044   3.201   1.781
 7633SOL    HW224341   2.947   3.128   1.690
 7634SOL     OW24342   2.035   3.363   0.587
 7634SOL    HW124343   1.980   3.398   0.657
 7634SOL    HW224344   2.033   3.268   0.599
 7635SOL     OW24345   2.134   2.953   0.887
 7635SOL    HW124346   2.133   2.865   0.924
 7635SOL    HW224347   2.077   3.004   0.945
 7636SOL     OW24348   2.446   3.663   1.411
 7636SOL    HW124349   2.373   3.640   1.468
 7636SOL    HW224350   2.482   3.744   1.447
 7637SOL     OW24351   2.441   2.825   0.152
 7637SOL    HW124352   2.508   2.842   0.086
 7637SOL    HW224353   2.472   2.870   0.230
 7638SOL     OW24354   3.455   1.995   1.462
 7638SOL    HW124355   3.491   2.074   1.421
 7638SOL    HW224356   3.432   2.022   1.551
 7639SOL     OW24357   1.980   2.511   0.564
 7639SOL    HW124358   1.949   2.424   0.588
 7639SOL    HW224359   1.973   2.561   0.645
 7640SOL     OW24360   3.718   3.600   0.310
 7640SOL    HW124361   3.785   3.575   0.374
 7640SOL    HW224362   3.732   3.694   0.296
 7641SOL     OW24363   1.899   3.368   0.142
 7641SOL    HW124364   1.811   3.331   0.136
 7641SOL    HW224365   1.885   3.463   0.149
 7642SOL     OW24366   3.542   2.795   0.649
 7642SOL    HW124367   3.611   2.749   0.601
 7642SOL    HW224368   3.509   2.860   0.587
 7643SOL     OW24369   3.506   2.979   0.434
 7643SOL    HW124370   3.591   2.977   0.391
 7643SOL    HW224371   3.517   3.042   0.505
 7644SOL     OW24372   1.997   2.612   1.581
 7644SOL    HW124373   2.089   2.637   1.588
 7644SOL    HW224374   1.949   2.693   1.599
 7645SOL     OW24375   2.480   3.255   0.731
 7645SOL    HW124376   2.440   3.169   0.743
 7645SOL    HW224377   2.465   3.276   0.639
 7646SOL     OW24378   3.146   3.096   1.415
 7646SOL    HW124379   3.179   3.027   1.358
 7646SOL    HW224380   3.202   3.092   1.493
 7647SOL     OW24381   2.681   1.870   0.525
 7647SOL    HW124382   2.719   1.952   0.494
 7647SOL    HW224383   2.587   1.885   0.526
 7648SOL     OW24384   2.050   2.825   1.278
 7648SOL    HW124385   2.137   2.787   1.266
 7648SOL    HW224386   1.991   2.767   1.229
 7649SOL     OW24387   3.355   2.876   0.227
 7649SOL    HW124388   3.295   2.815   0.268
 7649SOL    HW224389   3.412   2.906   0.299
 7650SOL     OW24390   3.032   3.679   1.623
 7650SOL    HW124391   3.050   3.742   1.553
 7650SOL    HW224392   3.066   3.596   1.589
 7651SOL     OW24393   2.218   2.117   1.830
 7651SOL    HW124394   2.256   2.193   1.873
 7651SOL    HW224395   2.124   2.124   1.849
 7652SOL     OW24396   3.326   3.281   0.949
 7652SOL    HW124397   3.262   3.296   1.018
 7652SOL    HW224398   3.313   3.190   0.923
 7653SOL     OW24399   3.510   3.628   0.583
 7653SOL    HW124400   3.490   3.588   0.499
 7653SOL    HW224401   3.498   3.558   0.647
 7654SOL     OW24402   2.439   2.569   0.274
 7654SOL    HW124403   2.450   2.657   0.239
 7654SOL    HW224404   2.377   2.580   0.346
 7655SOL     OW24405   3.146   2.238   0.940
 7655SOL    HW124406   3.057   2.202   0.945
 7655SOL    HW224407   3.197   2.182   0.998
 7656SOL     OW24408   3.453   3.535   0.328
 7656SOL    HW124409   3.548   3.547   0.322
 7656SOL    HW224410   3.422   3.540   0.238
 7657SOL     OW24411   2.653   2.478   1.441
 7657SOL    HW124412   2.628   2.454   1.530
 7657SOL    HW224413   2.619   2.407   1.387
 7658SOL     OW24414   3.254   2.334   1.682
 7658SOL    HW124415   3.257   2.381   1.765
 7658SOL    HW224416   3.314   2.261   1.694
 7659SOL     OW24417   2.808   2.747   1.589
 7659SOL    HW124418   2.867   2.684   1.549
 7659SOL    HW224419   2.761   2.787   1.515
 7660SOL     OW24420   2.854   2.248   1.229
 7660SOL    HW124421   2.768   2.277   1.260
 7660SOL    HW224422   2.848   2.251   1.134
 7661SOL     OW24423   2.917   2.564   0.424
 7661SOL    HW124424   2.934   2.561   0.518
 7661SOL    HW224425   2.831   2.523   0.414
 7662SOL     OW24426   1.956   2.681   0.777
 7662SOL    HW124427   2.036   2.677   0.830
 7662SOL    HW224428   1.909   2.757   0.809
 7663SOL     OW24429   1.980   3.729   1.588
 7663SOL    HW124430   1.991   3.707   1.681
 7663SOL    HW224431   1.888   3.712   1.570
 7664SOL     OW24432   2.753   2.220   0.224
 7664SOL    HW124433   2.786   2.287   0.164
 7664SOL    HW224434   2.743   2.142   0.169
 7665SOL     OW24435   3.558   2.419   1.829
 7665SOL    HW124436   3.526   2.497   1.783
 7665SOL    HW224437   3.591   2.363   1.760
 7666SOL     OW24438   3.243   3.003   0.534
 7666SOL    HW124439   3.325   2.999   0.486
 7666SOL    HW224440   3.189   3.065   0.485
 7667SOL     OW24441   2.407   2.016   0.910
 7667SOL    HW124442   2.410   2.048   1.000
 7667SOL    HW224443   2.403   2.096   0.857
 7668SOL     OW24444   2.858   3.290   0.474
 7668SOL    HW124445   2.814   3.368   0.440
 7668SOL    HW224446   2.850   3.297   0.569
 7669SOL     OW24447   2.213   3.676   0.867
 7669SOL    HW124448   2.262   3.594   0.878
 7669SOL    HW224449   2.275   3.745   0.890
 7670SOL     OW24450   3.667   2.901   0.878
 7670SOL    HW124451   3.613   2.884   0.800
 7670SOL    HW224452   3.603   2.915   0.948
 7671SOL     OW24453   3.089   3.406   1.514
 7671SOL    HW124454   3.078   3.336   1.578
 7671SOL    HW224455   3.006   3.406   1.465
 7672SOL     OW24456   2.174   2.849   0.260
 7672SOL    HW124457   2.255   2.856   0.210
 7672SOL    HW224458   2.139   2.763   0.237
 7673SOL     OW24459   3.342   2.620   0.720
 7673SOL    HW124460   3.343   2.579   0.807
 7673SOL    HW224461   3.418   2.677   0.719
 7674SOL     OW24462   2.337   3.129   1.735
 7674SOL    HW124463   2.310   3.132   1.643
 7674SOL    HW224464   2.255   3.128   1.784
 7675SOL     OW24465   2.917   3.634   0.224
 7675SOL    HW124466   2.928   3.612   0.317
 7675SOL    HW224467   2.987   3.585   0.180
 7676SOL     OW24468   2.065   2.131   1.505
 7676SOL    HW124469   1.993   2.188   1.530
 7676SOL    HW224470   2.043   2.046   1.544
 7677SOL     OW24471   3.518   3.272   0.083
 7677SOL    HW124472   3.452   3.335   0.055
 7677SOL    HW224473   3.472   3.188   0.085
 7678SOL     OW24474   2.328   3.573   0.361
 7678SOL    HW124475   2.373   3.645   0.405
 7678SOL    HW224476   2.387   3.548   0.290
 7679SOL     OW24477   3.265   1.958   0.450
 7679SOL    HW124478   3.259   1.927   0.360
 7679SOL    HW224479   3.359   1.970   0.465
 7680SOL     OW24480   2.112   3.650   1.236
 7680SOL    HW124481   2.166   3.599   1.297
 7680SOL    HW224482   2.129   3.612   1.150
 7681SOL     OW24483   2.798   3.565   0.896
 7681SOL    HW124484   2.876   3.518   0.924
 7681SOL    HW224485   2.762   3.512   0.824
 7682SOL     OW24486   2.250   2.554   0.478
 7682SOL    HW124487   2.270   2.461   0.489
 7682SOL    HW224488   2.160   2.564   0.508
 7683SOL     OW24489   3.389   2.084   1.722
 7683SOL    HW124490   3.406   2.105   1.814
 7683SOL    HW224491   3.316   2.022   1.725
 7684SOL     OW24492   2.492   1.985   0.118
 7684SOL    HW124493   2.585   1.963   0.119
 7684SOL    HW224494   2.478   2.029   0.034
 7685SOL     OW24495   2.617   2.137   1.751
 7685SOL    HW124496   2.701   2.091   1.751
 7685SOL    HW224497   2.578   2.115   1.836
 7686SOL     OW24498   2.736   3.384   1.194
 7686SOL    HW124499   2.717   3.342   1.110
 7686SOL    HW224500   2.805   3.329   1.233
 7687SOL     OW24501   3.199   2.451   1.437
 7687SOL    HW124502   3.231   2.421   1.522
 7687SOL    HW224503   3.237   2.538   1.426
 7688SOL     OW24504   2.683   3.242   0.952
 7688SOL    HW124505   2.770   3.234   0.912
 7688SOL    HW224506   2.624   3.255   0.877
 7689SOL     OW24507   2.795   2.367   0.899
 7689SOL    HW124508   2.765   2.363   0.808
 7689SOL    HW224509   2.826   2.278   0.917
 7690SOL     OW24510   2.415   1.919   0.505
 7690SOL    HW124511   2.332   1.919   0.554
 7690SOL    HW224512   2.409   1.997   0.449
 7691SOL     OW24513   3.323   3.081   0.049
 7691SOL    HW124514   3.336   3.002   0.102
 7691SOL    HW224515   3.232   3.105   0.065
 7692SOL     OW24516   2.172   1.939   0.206
 7692SOL    HW124517   2.253   1.988   0.193
 7692SOL    HW224518   2.202   1.852   0.235
 7693SOL     OW24519   2.812   2.106   0.466
 7693SOL    HW124520   2.781   2.144   0.384
 7693SOL    HW224521   2.906   2.123   0.466
 7694SOL     OW24522   2.945   2.554   1.451
 7694SOL    HW124523   2.884   2.483   1.471
 7694SOL    HW224524   3.031   2.512   1.453
 7695SOL     OW24525   3.080   3.432   0.792
 7695SOL    HW124526   3.093   3.500   0.726
 7695SOL    HW224527   3.142   3.453   0.861
 7696SOL     OW24528   2.339   3.019   0.723
 7696SOL    HW124529   2.275   2.996   0.790
 7696SOL    HW224530   2.292   3.010   0.641
 7697SOL     OW24531   3.117   3.650   0.610
 7697SOL    HW124532   3.170   3.716   0.564
 7697SOL    HW224533   3.049   3.701   0.655
 7698SOL     OW24534   2.878   2.415   0.076
 7698SOL    HW124535   2.871   2.493   0.021
 7698SOL    HW224536   2.954   2.432   0.132
 7699SOL     OW24537   1.947   2.421   1.391
 7699SOL    HW124538   2.039   2.418   1.367
 7699SOL    HW224539   1.942   2.490   1.457
 7700SOL     OW24540   2.416   2.081   1.182
 7700SOL    HW124541   2.456   2.040   1.259
 7700SOL    HW224542   2.323   2.084   1.202
 7701SOL     OW24543   2.726   2.318   0.638
 7701SOL    HW124544   2.685   2.377   0.575
 7701SOL    HW224545   2.751   2.241   0.587
 7702SOL     OW24546   2.866   1.913   0.743
 7702SOL    HW124547   2.839   1.936   0.654
 7702SOL    HW224548   2.787   1.878   0.784
 7703SOL     OW24549   3.303   3.021   0.861
 7703SOL    HW124550   3.234   2.955   0.861
 7703SOL    HW224551   3.329   3.028   0.769
 7704SOL     OW24552   3.328   2.471   0.958
 7704SOL    HW124553   3.266   2.398   0.968
 7704SOL    HW224554   3.384   2.466   1.035
 7705SOL     OW24555   3.693   2.687   0.432
 7705SOL    HW124556   3.744   2.622   0.479
 7705SOL    HW224557   3.649   2.638   0.363
 7706SOL     OW24558   2.346   3.266   0.168
 7706SOL    HW124559   2.288   3.224   0.231
 7706SOL    HW224560   2.286   3.303   0.102
 7707SOL     OW24561   3.540   3.129   0.651
 7707SOL    HW124562   3.634   3.124   0.665
 7707SOL    HW224563   3.517   3.219   0.674
 7708SOL     OW24564   3.256   2.411   0.079
 7708SOL    HW124565   3.204   2.405   0.160
 7708SOL    HW224566   3.321   2.341   0.088
 7709SOL     OW24567   2.394   2.122   0.329
 7709SOL    HW124568   2.442   2.074   0.261
 7709SOL    HW224569   2.366   2.203   0.286
 7710SOL     OW24570   3.604   3.106   1.546
 7710SOL    HW124571   3.692   3.068   1.542
 7710SOL    HW224572   3.617   3.193   1.582
 7711SOL     OW24573   2.915   3.207   1.319
 7711SOL    HW124574   2.839   3.181   1.371
 7711SOL    HW224575   2.990   3.172   1.368
 7712SOL     OW24576   3.464   3.490   1.654
 7712SOL    HW124577   3.465   3.527   1.566
 7712SOL    HW224578   3.545   3.439   1.659
 7713SOL     OW24579   2.986   3.058   1.096
 7713SOL    HW124580   2.944   3.108   1.166
 7713SOL    HW224581   2.967   3.107   1.017
 7714SOL     OW24582   3.485   2.961   1.075
 7714SOL    HW124583   3.478   3.023   1.147
 7714SOL    HW224584   3.411   2.982   1.018
 7715SOL     OW24585   2.794   1.956   1.386
 7715SOL    HW124586   2.798   2.007   1.305
 7715SOL    HW224587   2.870   1.985   1.436
 7716SOL     OW24588   2.844   2.983   1.719
 7716SOL    HW124589   2.754   2.999   1.748
 7716SOL    HW224590   2.839   2.901   1.670
 7717SOL     OW24591   2.572   2.923   0.376
 7717SOL    HW124592   2.559   2.900   0.468
 7717SOL    HW224593   2.650   2.874   0.350
 7718SOL     OW24594   2.285   2.684   1.254
 7718SOL    HW124595   2.352   2.695   1.321
 7718SOL    HW224596   2.251   2.596   1.270
 7719SOL     OW24597   3.125   2.236   1.285
 7719SOL    HW124598   3.155   2.314   1.331
 7719SOL    HW224599   3.033   2.253   1.265
 7720SOL     OW24600   1.944   3.434   1.360
 7720SOL    HW124601   1.930   3.520   1.321
 7720SOL    HW224602   2.039   3.421   1.356
 7721SOL     OW24603   2.190   2.998   0.493
 7721SOL    HW124604   2.182   3.075   0.436
 7721SOL    HW224605   2.196   2.924   0.433
 7722SOL     OW24606   2.403   2.386   0.857
 7722SOL    HW124607   2.416   2.444   0.782
 7722SOL    HW224608   2.469   2.412   0.921
 7723SOL     OW24609   3.108   3.210   0.393
 7723SOL    HW124610   3.163   3.280   0.428
 7723SOL    HW224611   3.020   3.229   0.426
 7724SOL     OW24612   3.154   3.326   1.157
 7724SOL    HW124613   3.216   3.339   1.229
 7724SOL    HW224614   3.089   3.265   1.192
 7725SOL     OW24615   3.420   2.452   0.511
 7725SOL    HW124616   3.376   2.518   0.565
 7725SOL    HW224617   3.461   2.503   0.441
 7726SOL     OW24618   2.209   3.383   1.314
 7726SOL    HW124619   2.199   3.341   1.229
 7726SOL    HW224620   2.303   3.400   1.322
 7727SOL     OW24621   2.291   2.603   1.611
 7727SOL    HW124622   2.349   2.649   1.550
 7727SOL    HW224623   2.342   2.529   1.642
 7728SOL     OW24624   3.471   2.635   1.690
 7728SOL    HW124625   3.386   2.679   1.688
 7728SOL    HW224626   3.523   2.681   1.624
 7729SOL     OW24627   2.854   1.999   1.744
 7729SOL    HW124628   2.912   2.074   1.734
 7729SOL    HW224629   2.909   1.923   1.725
 7730SOL     OW24630   2.361   1.894   1.747
 7730SOL    HW124631   2.308   1.844   1.686
 7730SOL    HW224632   2.309   1.972   1.767
 7731SOL     OW24633   2.447   2.738   1.035
 7731SOL    HW124634   2.487   2.825   1.038
 7731SOL    HW224635   2.392   2.734   1.113
 7732SOL     OW24636   3.199   2.720   1.007
 7732SOL    HW124637   3.110   2.700   0.979
 7732SOL    HW224638   3.246   2.637   0.998
 7733SOL     OW24639   3.073   2.386   0.283
 7733SOL    HW124640   3.085   2.313   0.344
 7733SOL    HW224641   3.026   2.452   0.334
 7734SOL     OW24642   2.151   2.060   1.245
 7734SOL    HW124643   2.117   2.093   1.329
 7734SOL    HW224644   2.133   1.966   1.247
 7735SOL     OW24645   1.913   3.176   1.263
 7735SOL    HW124646   1.939   3.118   1.335
 7735SOL    HW224647   1.915   3.264   1.302
 7736SOL     OW24648   2.573   2.489   1.045
 7736SOL    HW124649   2.654   2.485   0.995
 7736SOL    HW224650   2.542   2.579   1.036
 7737SOL     OW24651   3.601   2.825   1.857
 7737SOL    HW124652   3.554   2.752   1.817
 7737SOL    HW224653   3.548   2.847   1.934
 7738SOL     OW24654   2.169   1.921   0.627
 7738SOL    HW124655   2.144   2.011   0.646
 7738SOL    HW224656   2.174   1.879   0.713
 7739SOL     OW24657   3.472   2.226   0.365
 7739SOL    HW124658   3.510   2.162   0.424
 7739SOL    HW224659   3.442   2.297   0.421
 7740SOL     OW24660   2.892   2.617   0.955
 7740SOL    HW124661   2.879   2.634   1.048
 7740SOL    HW224662   2.865   2.526   0.943
 7741SOL     OW24663   2.837   3.430   1.725
 7741SOL    HW124664   2.828   3.471   1.639
 7741SOL    HW224665   2.881   3.346   1.707
 7742SOL     OW24666   3.706   3.359   1.604
 7742SOL    HW124667   3.735   3.390   1.518
 7742SOL    HW224668   3.782   3.373   1.661
 7743SOL     OW24669   2.213   2.784   1.809
 7743SOL    HW124670   2.288   2.805   1.865
 7743SOL    HW224671   2.247   2.719   1.746
 7744SOL     OW24672   3.377   2.127   0.126
 7744SOL    HW124673   3.321   2.055   0.156
 7744SOL    HW224674   3.415   2.162   0.206
 7745SOL     OW24675   3.148   2.668   0.058
 7745SOL    HW124676   3.199   2.588   0.046
 7745SOL    HW224677   3.187   2.731  -0.003
 7746SOL     OW24678   2.933   3.205   0.859
 7746SOL    HW124679   2.943   3.133   0.797
 7746SOL    HW224680   2.992   3.273   0.826
 7747SOL     OW24681   2.176   2.673   0.944
 7747SOL    HW124682   2.269   2.694   0.947
 7747SOL    HW224683   2.170   2.584   0.977
 7748SOL     OW24684   2.183   2.394   1.012
 7748SOL    HW124685   2.147   2.306   1.001
 7748SOL    HW224686   2.259   2.396   0.955
 7749SOL     OW24687   2.998   2.232   1.690
 7749SOL    HW124688   2.951   2.286   1.754
 7749SOL    HW224689   3.086   2.271   1.686
 7750SOL     OW24690   3.031   2.059   1.478
 7750SOL    HW124691   3.018   2.120   1.550
 7750SOL    HW224692   3.075   2.111   1.410
 7751SOL     OW24693   1.944   3.640   0.931
 7751SOL    HW124694   1.922   3.560   0.884
 7751SOL    HW224695   2.037   3.655   0.910
 7752SOL     OW24696   2.348   3.435   0.896
 7752SOL    HW124697   2.417   3.496   0.922
 7752SOL    HW224698   2.393   3.370   0.841
 7753SOL     OW24699   2.827   2.638   1.218
 7753SOL    HW124700   2.890   2.625   1.288
 7753SOL    HW224701   2.742   2.616   1.257
 7754SOL     OW24702   1.902   2.417   1.118
 7754SOL    HW124703   1.986   2.417   1.071
 7754SOL    HW224704   1.926   2.418   1.210
 7755SOL     OW24705   2.045   2.390   1.735
 7755SOL    HW124706   2.120   2.360   1.684
 7755SOL    HW224707   2.013   2.467   1.688
 7756SOL     OW24708   3.246   2.788   1.654
 7756SOL    HW124709   3.267   2.881   1.654
 7756SOL    HW224710   3.245   2.764   1.561
 7757SOL     OW24711   2.674   2.440   0.380
 7757SOL    HW124712   2.685   2.364   0.323
 7757SOL    HW224713   2.597   2.485   0.346
 7758SOL     OW24714   3.501   2.460   1.168
 7758SOL    HW124715   3.492   2.410   1.249
 7758SOL    HW224716   3.591   2.444   1.139
 7759SOL     OW24717   2.095   3.407   1.720
 7759SOL    HW124718   2.078   3.473   1.787
 7759SOL    HW224719   2.109   3.326   1.769
 7760SOL     OW24720   2.581   2.303   1.243
 7760SOL    HW124721   2.515   2.237   1.223
 7760SOL    HW224722   2.570   2.370   1.176
 7761SOL     OW24723   2.792   3.533   1.467
 7761SOL    HW124724   2.756   3.500   1.384
 7761SOL    HW224725   2.789   3.628   1.458
 7762SOL     OW24726   2.315   2.335   0.188
 7762SOL    HW124727   2.363   2.415   0.210
 7762SOL    HW224728   2.240   2.365   0.136
 7763SOL     OW24729   1.994   3.006   1.472
 7763SOL    HW124730   1.997   2.960   1.556
 7763SOL    HW224731   2.016   2.939   1.407
 7764SOL     OW24732   3.179   2.900   1.213
 7764SOL    HW124733   3.200   2.839   1.142
 7764SOL    HW224734   3.110   2.956   1.176
 7765SOL     OW24735   3.166   2.703   0.330
 7765SOL    HW124736   3.087   2.669   0.373
 7765SOL    HW224737   3.154   2.680   0.237
 7766SOL     OW24738   3.621   3.599   1.143
 7766SOL    HW124739   3.691   3.622   1.081
 7766SOL    HW224740   3.607   3.505   1.129
 7767SOL     OW24741   3.099   3.589   1.082
 7767SOL    HW124742   3.186   3.618   1.053
 7767SOL    HW224743   3.113   3.501   1.116
 7768SOL     OW24744   1.953   3.134   0.999
 7768SOL    HW124745   1.935   3.148   1.092
 7768SOL    HW224746   1.886   3.073   0.970
 7769SOL     OW24747   2.544   3.535   1.745
 7769SOL    HW124748   2.491   3.614   1.733
 7769SOL    HW224749   2.629   3.558   1.706
 7770SOL     OW24750   2.765   1.963   0.099
 7770SOL    HW124751   2.805   1.978   0.014
 7770SOL    HW224752   2.835   1.928   0.153
 7771SOL     OW24753   3.590   2.021   0.507
 7771SOL    HW124754   3.659   1.999   0.444
 7771SOL    HW224755   3.570   1.937   0.550
 7772SOL     OW24756   3.254   3.428   0.496
 7772SOL    HW124757   3.317   3.462   0.433
 7772SOL    HW224758   3.206   3.505   0.527
 7773SOL     OW24759   2.014   3.657   1.845
 7773SOL    HW124760   1.963   3.592   1.893
 7773SOL    HW224761   2.061   3.705   1.913
 7774SOL     OW24762   3.137   2.793   0.667
 7774SOL    HW124763   3.212   2.735   0.681
 7774SOL    HW224764   3.172   2.863   0.611
 7775SOL     OW24765   2.661   3.141   1.418
 7775SOL    HW124766   2.637   3.185   1.500
 7775SOL    HW224767   2.587   3.156   1.360
 7776SOL     OW24768   2.521   3.474   0.196
 7776SOL    HW124769   2.588   3.483   0.128
 7776SOL    HW224770   2.479   3.390   0.179
 7777SOL     OW24771   3.480   3.596   1.389
 7777SOL    HW124772   3.530   3.601   1.308
 7777SOL    HW224773   3.466   3.687   1.415
 7778SOL     OW24774   3.705   2.027   0.961
 7778SOL    HW124775   3.732   1.938   0.939
 7778SOL    HW224776   3.617   2.035   0.924
 7779SOL     OW24777   2.113   2.171   0.714
 7779SOL    HW124778   2.027   2.206   0.691
 7779SOL    HW224779   2.114   2.170   0.809
 7780SOL     OW24780   3.064   3.471   0.066
 7780SOL    HW124781   3.058   3.377   0.082
 7780SOL    HW224782   3.043   3.482  -0.026
 7781SOL     OW24783   2.688   2.872   1.375
 7781SOL    HW124784   2.734   2.871   1.291
 7781SOL    HW224785   2.681   2.965   1.397
 7782SOL     OW24786   2.789   2.786   0.295
 7782SOL    HW124787   2.847   2.811   0.223
 7782SOL    HW224788   2.836   2.716   0.340
 7783SOL     OW24789   3.326   3.440   0.009
 7783SOL    HW124790   3.239   3.467   0.040
 7783SOL    HW224791   3.378   3.521   0.010
 7784SOL     OW24792   2.227   3.160   1.491
 7784SOL    HW124793   2.216   3.239   1.438
 7784SOL    HW224794   2.146   3.111   1.479
 7785SOL     OW24795   3.469   3.149   1.282
 7785SOL    HW124796   3.523   3.127   1.359
 7785SOL    HW224797   3.410   3.217   1.313
 7786SOL     OW24798   2.928   2.977   0.713
 7786SOL    HW124799   2.856   2.926   0.751
 7786SOL    HW224800   2.994   2.911   0.690
 7787SOL     OW24801   2.893   2.103   0.954
 7787SOL    HW124802   2.895   2.056   0.871
 7787SOL    HW224803   2.879   2.035   1.020
 7788SOL     OW24804   2.457   3.327   0.472
 7788SOL    HW124805   2.513   3.280   0.410
 7788SOL    HW224806   2.416   3.396   0.420
 7789SOL     OW24807   3.587   2.256   1.373
 7789SOL    HW124808   3.660   2.317   1.379
 7789SOL    HW224809   3.618   2.187   1.315
 7790SOL     OW24810   2.118   3.217   0.333
 7790SOL    HW124811   2.047   3.214   0.269
 7790SOL    HW224812   2.082   3.268   0.406
 7791SOL     OW24813   1.973   2.879   1.713
 7791SOL    HW124814   1.899   2.864   1.773
 7791SOL    HW224815   2.050   2.851   1.762
 7792SOL     OW24816   2.544   2.046   1.495
 7792SOL    HW124817   2.633   2.028   1.465
 7792SOL    HW224818   2.555   2.079   1.584
 7793SOL     OW24819   3.284   2.715   1.391
 7793SOL    HW124820   3.235   2.778   1.337
 7793SOL    HW224821   3.374   2.722   1.361
 7794SOL     OW24822   1.926   2.006   0.307
 7794SOL    HW124823   1.922   2.100   0.295
 7794SOL    HW224824   2.013   1.981   0.276
 7795SOL     OW24825   3.054   3.199   0.117
 7795SOL    HW124826   2.959   3.189   0.109
 7795SOL    HW224827   3.071   3.190   0.210
 7796SOL     OW24828   2.486   2.694   1.434
 7796SOL    HW124829   2.542   2.770   1.423
 7796SOL    HW224830   2.546   2.620   1.441
 7797SOL     OW24831   3.354   3.652   0.988
 7797SOL    HW124832   3.378   3.726   0.932
 7797SOL    HW224833   3.435   3.629   1.034
 7798SOL     OW24834   2.576   2.424   1.695
 7798SOL    HW124835   2.622   2.484   1.754
 7798SOL    HW224836   2.591   2.337   1.732
 7799SOL     OW24837   3.331   3.052   1.626
 7799SOL    HW124838   3.318   3.067   1.719
 7799SOL    HW224839   3.423   3.074   1.611
 7800SOL     OW24840   2.223   3.601   1.560
 7800SOL    HW124841   2.140   3.648   1.556
 7800SOL    HW224842   2.202   3.519   1.604
 7801SOL     OW24843   3.524   2.743   1.248
 7801SOL    HW124844   3.520   2.660   1.201
 7801SOL    HW224845   3.514   2.810   1.180
 7802SOL     OW24846   3.082   2.171   0.456
 7802SOL    HW124847   3.146   2.100   0.454
 7802SOL    HW224848   3.104   2.221   0.535
 7803SOL     OW24849   2.447   2.590   0.674
 7803SOL    HW124850   2.487   2.676   0.663
 7803SOL    HW224851   2.381   2.585   0.604
 7804SOL     OW24852   3.617   2.223   1.643
 7804SOL    HW124853   3.597   2.241   1.552
 7804SOL    HW224854   3.544   2.169   1.673
 7805SOL     OW24855   3.594   2.793   1.509
 7805SOL    HW124856   3.595   2.888   1.526
 7805SOL    HW224857   3.583   2.786   1.414
 7806SOL     OW24858   2.777   3.229   0.068
 7806SOL    HW124859   2.720   3.211   0.142
 7806SOL    HW224860   2.763   3.321   0.048
 7807SOL     OW24861   2.522   3.640   0.926
 7807SOL    HW124862   2.507   3.734   0.918
 7807SOL    HW224863   2.617   3.630   0.928
 7808SOL     OW24864   2.734   2.835   0.852
 7808SOL    HW124865   2.785   2.764   0.890
 7808SOL    HW224866   2.692   2.877   0.927
 7809SOL     OW24867   2.945   2.850   0.074
 7809SOL    HW124868   2.987   2.923   0.028
 7809SOL    HW224869   3.015   2.785   0.084
 7810SOL     OW24870   3.701   3.410   0.839
 7810SOL    HW124871   3.619   3.403   0.789
 7810SOL    HW224872   3.683   3.363   0.921
 7811SOL     OW24873   2.100   3.164   1.862
 7811SOL    HW124874   2.021   3.111   1.847
 7811SOL    HW224875   2.102   3.178   1.956
 7812SOL     OW24876   1.977   3.098   0.655
 7812SOL    HW124877   1.987   3.058   0.741
 7812SOL    HW224878   2.031   3.044   0.597
 7813SOL     OW24879   2.544   3.278   1.623
 7813SOL    HW124880   2.472   3.233   1.667
 7813SOL    HW224881   2.548   3.364   1.666
 7814SOL     OW24882   3.665   2.042   1.231
 7814SOL    HW124883   3.698   1.955   1.252
 7814SOL    HW224884   3.680   2.052   1.137
 7815SOL     OW24885   2.283   2.294   0.526
 7815SOL    HW124886   2.324   2.225   0.474
 7815SOL    HW224887   2.236   2.247   0.595
 7816SOL     OW24888   3.566   3.337   1.080
 7816SOL    HW124889   3.481   3.320   1.039
 7816SOL    HW224890   3.571   3.274   1.152
 7817SOL     OW24891   2.200   2.425   1.292
 7817SOL    HW124892   2.252   2.364   1.344
 7817SOL    HW224893   2.213   2.397   1.201
 7818SOL     OW24894   2.695   3.432   0.681
 7818SOL    HW124895   2.687   3.470   0.593
 7818SOL    HW224896   2.618   3.376   0.691
 7819SOL     OW24897   3.293   2.096   1.123
 7819SOL    HW124898   3.340   2.033   1.178
 7819SOL    HW224899   3.239   2.145   1.184
 7820SOL     OW24900   2.851   1.851   1.098
 7820SOL    HW124901   2.821   1.816   1.182
 7820SOL    HW224902   2.940   1.819   1.089
 7821SOL     OW24903   2.647   3.184   0.314
 7821SOL    HW124904   2.616   3.095   0.332
 7821SOL    HW224905   2.723   3.195   0.371
 7822SOL     OW24906   2.480   3.423   1.282
 7822SOL    HW124907   2.477   3.507   1.328
 7822SOL    HW224908   2.571   3.416   1.251
 7823SOL     OW24909   3.229   1.893   0.187
 7823SOL    HW124910   3.238   1.852   0.101
 7823SOL    HW224911   3.144   1.936   0.185
 7824SOL     OW24912   3.134   2.319   0.674
 7824SOL    HW124913   3.092   2.405   0.679
 7824SOL    HW224914   3.147   2.294   0.766
 7825SOL     OW24915   3.441   2.052   0.887
 7825SOL    HW124916   3.389   2.080   0.963
 7825SOL    HW224917   3.443   2.128   0.830
 7826SOL     OW24918   1.904   2.935   0.340
 7826SOL    HW124919   1.995   2.931   0.309
 7826SOL    HW224920   1.887   2.849   0.378
 7827SOL     OW24921   2.711   3.506   0.403
 7827SOL    HW124922   2.648   3.501   0.330
 7827SOL    HW224923   2.708   3.597   0.431
 7828SOL     OW24924   2.075   2.480   1.999
 7828SOL    HW124925   1.988   2.476   2.039
 7828SOL    HW224926   2.059   2.463   1.906
 7829SOL     OW24927   2.086   2.145   2.855
 7829SOL    HW124928   2.114   2.114   2.941
 7829SOL    HW224929   1.996   2.114   2.846
 7830SOL     OW24930   1.859   2.249   2.501
 7830SOL    HW124931   1.780   2.275   2.548
 7830SOL    HW224932   1.832   2.172   2.450
 7831SOL     OW24933   2.420   3.157   3.035
 7831SOL    HW124934   2.337   3.187   2.999
 7831SOL    HW224935   2.454   3.234   3.083
 7832SOL     OW24936   3.423   3.358   2.547
 7832SOL    HW124937   3.379   3.345   2.631
 7832SOL    HW224938   3.351   3.366   2.484
 7833SOL     OW24939   2.990   2.561   2.552
 7833SOL    HW124940   3.042   2.640   2.537
 7833SOL    HW224941   2.949   2.575   2.637
 7834SOL     OW24942   3.666   2.438   2.076
 7834SOL    HW124943   3.624   2.438   1.990
 7834SOL    HW224944   3.609   2.384   2.131
 7835SOL     OW24945   2.590   2.990   2.902
 7835SOL    HW124946   2.527   3.030   2.962
 7835SOL    HW224947   2.640   3.064   2.868
 7836SOL     OW24948   2.734   2.625   3.684
 7836SOL    HW124949   2.749   2.688   3.755
 7836SOL    HW224950   2.760   2.672   3.605
 7837SOL     OW24951   2.546   2.852   2.507
 7837SOL    HW124952   2.616   2.848   2.573
 7837SOL    HW224953   2.480   2.910   2.544
 7838SOL     OW24954   2.563   2.999   3.678
 7838SOL    HW124955   2.610   3.073   3.717
 7838SOL    HW224956   2.484   3.037   3.640
 7839SOL     OW24957   2.194   3.281   2.927
 7839SOL    HW124958   2.120   3.243   2.880
 7839SOL    HW224959   2.239   3.334   2.862
 7840SOL     OW24960   3.345   3.335   3.218
 7840SOL    HW124961   3.409   3.392   3.262
 7840SOL    HW224962   3.277   3.320   3.283
 7841SOL     OW24963   2.324   2.241   3.316
 7841SOL    HW124964   2.403   2.193   3.339
 7841SOL    HW224965   2.253   2.191   3.357
 7842SOL     OW24966   3.462   2.303   2.618
 7842SOL    HW124967   3.388   2.328   2.562
 7842SOL    HW224968   3.463   2.368   2.687
 7843SOL     OW24969   2.082   3.580   2.329
 7843SOL    HW124970   2.103   3.652   2.389
 7843SOL    HW224971   2.162   3.570   2.277
 7844SOL     OW24972   2.983   3.230   3.560
 7844SOL    HW124973   3.017   3.232   3.649
 7844SOL    HW224974   2.936   3.146   3.554
 7845SOL     OW24975   2.082   3.306   2.388
 7845SOL    HW124976   2.074   3.402   2.394
 7845SOL    HW224977   2.039   3.274   2.468
 7846SOL     OW24978   2.122   2.954   2.739
 7846SOL    HW124979   2.132   2.868   2.781
 7846SOL    HW224980   2.077   3.007   2.805
 7847SOL     OW24981   2.440   3.681   3.253
 7847SOL    HW124982   2.376   3.651   3.317
 7847SOL    HW224983   2.487   3.751   3.297
 7848SOL     OW24984   2.433   2.852   2.006
 7848SOL    HW124985   2.486   2.893   1.938
 7848SOL    HW224986   2.474   2.881   2.088
 7849SOL     OW24987   3.454   1.995   3.323
 7849SOL    HW124988   3.489   2.075   3.285
 7849SOL    HW224989   3.435   2.019   3.414
 7850SOL     OW24990   1.977   2.526   2.424
 7850SOL    HW124991   1.954   2.436   2.449
 7850SOL    HW224992   1.971   2.576   2.505
 7851SOL     OW24993   3.707   3.605   2.185
 7851SOL    HW124994   3.774   3.578   2.248
 7851SOL    HW224995   3.720   3.700   2.176
 7852SOL     OW24996   1.902   3.449   1.977
 7852SOL    HW124997   1.886   3.357   1.998
 7852SOL    HW224998   1.878   3.496   2.057
 7853SOL     OW24999   3.545   2.740   2.473
 7853SOL    HW125000   3.615   2.758   2.536
 7853SOL    HW225001   3.544   2.815   2.415
 7854SOL     OW25002   3.522   2.982   2.304
 7854SOL    HW125003   3.606   2.967   2.260
 7854SOL    HW225004   3.540   3.053   2.366
 7855SOL     OW25005   2.012   2.615   3.442
 7855SOL    HW125006   2.107   2.626   3.443
 7855SOL    HW225007   1.977   2.698   3.474
 7856SOL     OW25008   2.481   3.257   2.592
 7856SOL    HW125009   2.439   3.171   2.602
 7856SOL    HW225010   2.463   3.281   2.501
 7857SOL     OW25011   3.127   3.061   3.268
 7857SOL    HW125012   3.175   3.002   3.210
 7857SOL    HW225013   3.182   3.069   3.346
 7858SOL     OW25014   2.683   1.864   2.372
 7858SOL    HW125015   2.725   1.947   2.352
 7858SOL    HW225016   2.590   1.885   2.378
 7859SOL     OW25017   2.047   2.823   3.136
 7859SOL    HW125018   2.137   2.790   3.132
 7859SOL    HW225019   1.999   2.768   3.074
 7860SOL     OW25020   3.398   2.872   2.066
 7860SOL    HW125021   3.331   2.813   2.099
 7860SOL    HW225022   3.443   2.904   2.145
 7861SOL     OW25023   2.204   2.116   3.662
 7861SOL    HW125024   2.259   2.180   3.707
 7861SOL    HW225025   2.118   2.124   3.703
 7862SOL     OW25026   3.275   3.290   2.770
 7862SOL    HW125027   3.248   3.309   2.860
 7862SOL    HW225028   3.294   3.197   2.770
 7863SOL     OW25029   3.515   3.612   2.440
 7863SOL    HW125030   3.495   3.569   2.357
 7863SOL    HW225031   3.506   3.542   2.505
 7864SOL     OW25032   2.454   2.567   2.132
 7864SOL    HW125033   2.467   2.655   2.097
 7864SOL    HW225034   2.390   2.578   2.202
 7865SOL     OW25035   3.144   2.228   2.795
 7865SOL    HW125036   3.054   2.197   2.808
 7865SOL    HW225037   3.196   2.176   2.857
 7866SOL     OW25038   3.440   3.535   2.171
 7866SOL    HW125039   3.533   3.558   2.169
 7866SOL    HW225040   3.418   3.517   2.080
 7867SOL     OW25041   2.646   2.479   3.305
 7867SOL    HW125042   2.621   2.455   3.395
 7867SOL    HW225043   2.612   2.407   3.252
 7868SOL     OW25044   3.252   2.332   3.546
 7868SOL    HW125045   3.254   2.383   3.627
 7868SOL    HW225046   3.324   2.269   3.555
 7869SOL     OW25047   2.809   2.742   3.448
 7869SOL    HW125048   2.872   2.684   3.405
 7869SOL    HW225049   2.766   2.788   3.376
 7870SOL     OW25050   2.860   2.269   3.096
 7870SOL    HW125051   2.779   2.301   3.134
 7870SOL    HW225052   2.836   2.240   3.008
 7871SOL     OW25053   2.914   2.559   2.284
 7871SOL    HW125054   2.936   2.559   2.377
 7871SOL    HW225055   2.830   2.513   2.279
 7872SOL     OW25056   1.947   2.692   2.641
 7872SOL    HW125057   2.030   2.684   2.687
 7872SOL    HW225058   1.902   2.765   2.683
 7873SOL     OW25059   1.963   3.680   3.435
 7873SOL    HW125060   1.969   3.667   3.530
 7873SOL    HW225061   1.947   3.774   3.426
 7874SOL     OW25062   2.761   2.209   2.054
 7874SOL    HW125063   2.799   2.275   1.996
 7874SOL    HW225064   2.798   2.126   2.023
 7875SOL     OW25065   3.560   2.417   3.692
 7875SOL    HW125066   3.526   2.493   3.646
 7875SOL    HW225067   3.597   2.362   3.623
 7876SOL     OW25068   3.252   3.007   2.409
 7876SOL    HW125069   3.334   3.000   2.360
 7876SOL    HW225070   3.200   3.072   2.361
 7877SOL     OW25071   2.410   2.034   2.768
 7877SOL    HW125072   2.413   2.058   2.860
 7877SOL    HW225073   2.415   2.117   2.721
 7878SOL     OW25074   2.854   3.302   2.322
 7878SOL    HW125075   2.835   3.384   2.277
 7878SOL    HW225076   2.837   3.320   2.415
 7879SOL     OW25077   2.216   3.679   2.737
 7879SOL    HW125078   2.264   3.597   2.744
 7879SOL    HW225079   2.281   3.747   2.758
 7880SOL     OW25080   3.647   2.863   2.729
 7880SOL    HW125081   3.657   2.955   2.704
 7880SOL    HW225082   3.595   2.865   2.810
 7881SOL     OW25083   3.073   3.342   3.327
 7881SOL    HW125084   3.057   3.308   3.414
 7881SOL    HW225085   2.994   3.320   3.277
 7882SOL     OW25086   2.172   2.828   2.122
 7882SOL    HW125087   2.257   2.845   2.081
 7882SOL    HW225088   2.150   2.739   2.095
 7883SOL     OW25089   3.334   2.599   2.572
 7883SOL    HW125090   3.337   2.573   2.664
 7883SOL    HW225091   3.413   2.650   2.559
 7884SOL     OW25092   2.326   3.112   3.598
 7884SOL    HW125093   2.302   3.118   3.505
 7884SOL    HW225094   2.243   3.119   3.645
 7885SOL     OW25095   2.986   3.654   2.072
 7885SOL    HW125096   2.917   3.615   2.125
 7885SOL    HW225097   3.014   3.583   2.014
 7886SOL     OW25098   2.065   2.135   3.376
 7886SOL    HW125099   2.009   2.211   3.392
 7886SOL    HW225100   2.081   2.098   3.462
 7887SOL     OW25101   3.483   3.239   1.938
 7887SOL    HW125102   3.443   3.326   1.935
 7887SOL    HW225103   3.410   3.179   1.923
 7888SOL     OW25104   2.325   3.590   2.185
 7888SOL    HW125105   2.367   3.649   2.248
 7888SOL    HW225106   2.396   3.562   2.127
 7889SOL     OW25107   3.265   1.970   2.312
 7889SOL    HW125108   3.264   1.947   2.219
 7889SOL    HW225109   3.357   1.986   2.332
 7890SOL     OW25110   2.116   3.654   3.108
 7890SOL    HW125111   2.172   3.616   3.176
 7890SOL    HW225112   2.143   3.612   3.027
 7891SOL     OW25113   2.803   3.564   2.758
 7891SOL    HW125114   2.881   3.536   2.805
 7891SOL    HW225115   2.789   3.496   2.692
 7892SOL     OW25116   2.254   2.558   2.326
 7892SOL    HW125117   2.267   2.464   2.342
 7892SOL    HW225118   2.163   2.574   2.349
 7893SOL     OW25119   3.395   2.083   3.585
 7893SOL    HW125120   3.415   2.101   3.677
 7893SOL    HW225121   3.310   2.039   3.588
 7894SOL     OW25122   2.505   1.978   1.966
 7894SOL    HW125123   2.563   1.906   1.991
 7894SOL    HW225124   2.455   1.944   1.892
 7895SOL     OW25125   2.624   2.127   3.624
 7895SOL    HW125126   2.704   2.076   3.610
 7895SOL    HW225127   2.631   2.160   3.713
 7896SOL     OW25128   2.739   3.379   3.052
 7896SOL    HW125129   2.716   3.339   2.967
 7896SOL    HW225130   2.800   3.317   3.091
 7897SOL     OW25131   3.205   2.452   3.299
 7897SOL    HW125132   3.235   2.424   3.386
 7897SOL    HW225133   3.243   2.540   3.288
 7898SOL     OW25134   2.681   3.240   2.811
 7898SOL    HW125135   2.768   3.229   2.772
 7898SOL    HW225136   2.623   3.253   2.736
 7899SOL     OW25137   2.792   2.366   2.764
 7899SOL    HW125138   2.763   2.357   2.673
 7899SOL    HW225139   2.826   2.279   2.787
 7900SOL     OW25140   2.415   1.924   2.353
 7900SOL    HW125141   2.339   1.925   2.412
 7900SOL    HW225142   2.404   2.002   2.299
 7901SOL     OW25143   3.279   3.058   1.897
 7901SOL    HW125144   3.316   2.990   1.953
 7901SOL    HW225145   3.199   3.086   1.941
 7902SOL     OW25146   2.155   1.909   2.052
 7902SOL    HW125147   2.215   1.981   2.034
 7902SOL    HW225148   2.209   1.843   2.096
 7903SOL     OW25149   2.804   2.108   2.315
 7903SOL    HW125150   2.778   2.153   2.234
 7903SOL    HW225151   2.897   2.126   2.324
 7904SOL     OW25152   2.950   2.551   3.306
 7904SOL    HW125153   2.897   2.479   3.339
 7904SOL    HW225154   3.040   2.519   3.310
 7905SOL     OW25155   3.069   3.414   2.632
 7905SOL    HW125156   3.096   3.495   2.588
 7905SOL    HW225157   3.146   3.389   2.684
 7906SOL     OW25158   2.335   3.018   2.580
 7906SOL    HW125159   2.273   2.998   2.650
 7906SOL    HW225160   2.285   3.006   2.499
 7907SOL     OW25161   3.125   3.652   2.471
 7907SOL    HW125162   3.178   3.720   2.429
 7907SOL    HW225163   3.058   3.701   2.520
 7908SOL     OW25164   2.888   2.390   1.889
 7908SOL    HW125165   2.845   2.473   1.872
 7908SOL    HW225166   2.951   2.408   1.959
 7909SOL     OW25167   1.948   2.421   3.259
 7909SOL    HW125168   2.039   2.416   3.230
 7909SOL    HW225169   1.947   2.494   3.321
 7910SOL     OW25170   2.412   2.082   3.039
 7910SOL    HW125171   2.459   2.030   3.105
 7910SOL    HW225172   2.322   2.083   3.070
 7911SOL     OW25173   2.721   2.310   2.504
 7911SOL    HW125174   2.683   2.372   2.442
 7911SOL    HW225175   2.747   2.236   2.450
 7912SOL     OW25176   2.891   1.910   2.604
 7912SOL    HW125177   2.825   1.910   2.535
 7912SOL    HW225178   2.862   1.841   2.664
 7913SOL     OW25179   3.306   3.012   2.707
 7913SOL    HW125180   3.263   2.933   2.740
 7913SOL    HW225181   3.282   3.016   2.615
 7914SOL     OW25182   3.324   2.473   2.824
 7914SOL    HW125183   3.263   2.400   2.836
 7914SOL    HW225184   3.383   2.468   2.899
 7915SOL     OW25185   3.723   2.671   2.215
 7915SOL    HW125186   3.766   2.632   2.291
 7915SOL    HW225187   3.697   2.596   2.160
 7916SOL     OW25188   2.355   3.286   2.013
 7916SOL    HW125189   2.278   3.260   2.063
 7916SOL    HW225190   2.356   3.225   1.939
 7917SOL     OW25191   3.252   2.438   1.934
 7917SOL    HW125192   3.192   2.416   2.005
 7917SOL    HW225193   3.339   2.428   1.973
 7918SOL     OW25194   2.379   2.122   2.167
 7918SOL    HW125195   2.436   2.082   2.102
 7918SOL    HW225196   2.354   2.206   2.129
 7919SOL     OW25197   3.585   3.061   3.450
 7919SOL    HW125198   3.680   3.053   3.441
 7919SOL    HW225199   3.573   3.125   3.521
 7920SOL     OW25200   2.908   3.179   3.165
 7920SOL    HW125201   2.830   3.158   3.217
 7920SOL    HW225202   2.980   3.137   3.211
 7921SOL     OW25203   2.978   3.035   2.941
 7921SOL    HW125204   2.944   3.086   3.014
 7921SOL    HW225205   2.966   3.091   2.864
 7922SOL     OW25206   3.469   2.924   2.935
 7922SOL    HW125207   3.475   2.986   3.008
 7922SOL    HW225208   3.432   2.974   2.863
 7923SOL     OW25209   2.786   1.948   3.254
 7923SOL    HW125210   2.809   1.938   3.161
 7923SOL    HW225211   2.862   1.992   3.293
 7924SOL     OW25212   2.816   3.008   3.537
 7924SOL    HW125213   2.746   3.008   3.602
 7924SOL    HW225214   2.840   2.916   3.526
 7925SOL     OW25215   2.572   2.921   2.236
 7925SOL    HW125216   2.560   2.902   2.329
 7925SOL    HW225217   2.646   2.866   2.210
 7926SOL     OW25218   2.282   2.682   3.118
 7926SOL    HW125219   2.352   2.695   3.182
 7926SOL    HW225220   2.251   2.593   3.135
 7927SOL     OW25221   3.127   2.239   3.146
 7927SOL    HW125222   3.160   2.315   3.193
 7927SOL    HW225223   3.036   2.259   3.127
 7928SOL     OW25224   1.949   3.430   3.216
 7928SOL    HW125225   1.943   3.525   3.209
 7928SOL    HW225226   2.043   3.412   3.215
 7929SOL     OW25227   2.178   2.990   2.352
 7929SOL    HW125228   2.194   3.066   2.298
 7929SOL    HW225229   2.182   2.916   2.291
 7930SOL     OW25230   2.402   2.384   2.713
 7930SOL    HW125231   2.418   2.443   2.639
 7930SOL    HW225232   2.466   2.410   2.779
 7931SOL     OW25233   3.108   3.211   2.252
 7931SOL    HW125234   3.161   3.285   2.282
 7931SOL    HW225235   3.021   3.228   2.289
 7932SOL     OW25236   3.157   3.325   3.020
 7932SOL    HW125237   3.226   3.323   3.087
 7932SOL    HW225238   3.086   3.273   3.057
 7933SOL     OW25239   3.445   2.492   2.338
 7933SOL    HW125240   3.383   2.517   2.406
 7933SOL    HW225241   3.508   2.564   2.334
 7934SOL     OW25242   2.213   3.370   3.181
 7934SOL    HW125243   2.204   3.337   3.092
 7934SOL    HW225244   2.306   3.391   3.190
 7935SOL     OW25245   2.300   2.592   3.474
 7935SOL    HW125246   2.351   2.644   3.411
 7935SOL    HW225247   2.363   2.531   3.511
 7936SOL     OW25248   3.463   2.622   3.545
 7936SOL    HW125249   3.379   2.668   3.544
 7936SOL    HW225250   3.519   2.674   3.486
 7937SOL     OW25251   2.858   1.994   3.604
 7937SOL    HW125252   2.914   2.071   3.596
 7937SOL    HW225253   2.914   1.921   3.580
 7938SOL     OW25254   2.361   1.891   3.604
 7938SOL    HW125255   2.309   1.840   3.542
 7938SOL    HW225256   2.310   1.971   3.617
 7939SOL     OW25257   2.441   2.743   2.893
 7939SOL    HW125258   2.488   2.827   2.895
 7939SOL    HW225259   2.394   2.740   2.977
 7940SOL     OW25260   3.203   2.731   2.830
 7940SOL    HW125261   3.110   2.709   2.836
 7940SOL    HW225262   3.249   2.648   2.843
 7941SOL     OW25263   3.053   2.386   2.120
 7941SOL    HW125264   3.066   2.311   2.178
 7941SOL    HW225265   3.016   2.454   2.176
 7942SOL     OW25266   2.144   2.058   3.112
 7942SOL    HW125267   2.116   2.090   3.198
 7942SOL    HW225268   2.129   1.963   3.116
 7943SOL     OW25269   1.880   3.179   3.134
 7943SOL    HW125270   1.919   3.121   3.200
 7943SOL    HW225271   1.903   3.267   3.164
 7944SOL     OW25272   2.567   2.486   2.903
 7944SOL    HW125273   2.654   2.479   2.864
 7944SOL    HW225274   2.545   2.579   2.896
 7945SOL     OW25275   3.601   2.833   3.721
 7945SOL    HW125276   3.539   2.766   3.693
 7945SOL    HW225277   3.573   2.857   3.809
 7946SOL     OW25278   2.174   1.920   2.490
 7946SOL    HW125279   2.149   2.010   2.509
 7946SOL    HW225280   2.182   1.879   2.576
 7947SOL     OW25281   3.485   2.254   2.214
 7947SOL    HW125282   3.509   2.189   2.281
 7947SOL    HW225283   3.462   2.332   2.263
 7948SOL     OW25284   2.893   2.616   2.816
 7948SOL    HW125285   2.880   2.634   2.909
 7948SOL    HW225286   2.866   2.524   2.806
 7949SOL     OW25287   2.769   3.406   3.551
 7949SOL    HW125288   2.782   3.447   3.465
 7949SOL    HW225289   2.846   3.351   3.562
 7950SOL     OW25290   2.212   2.778   3.670
 7950SOL    HW125291   2.281   2.812   3.727
 7950SOL    HW225292   2.256   2.718   3.611
 7951SOL     OW25293   3.399   2.127   1.985
 7951SOL    HW125294   3.334   2.064   2.019
 7951SOL    HW225295   3.429   2.174   2.063
 7952SOL     OW25296   3.133   2.681   1.879
 7952SOL    HW125297   3.181   2.599   1.892
 7952SOL    HW225298   3.173   2.721   1.802
 7953SOL     OW25299   2.926   3.194   2.712
 7953SOL    HW125300   2.938   3.125   2.647
 7953SOL    HW225301   2.979   3.267   2.679
 7954SOL     OW25302   2.175   2.677   2.803
 7954SOL    HW125303   2.267   2.701   2.812
 7954SOL    HW225304   2.171   2.586   2.835
 7955SOL     OW25305   2.181   2.396   2.869
 7955SOL    HW125306   2.148   2.307   2.860
 7955SOL    HW225307   2.259   2.399   2.813
 7956SOL     OW25308   2.998   2.232   3.555
 7956SOL    HW125309   2.952   2.289   3.618
 7956SOL    HW225310   3.086   2.269   3.550
 7957SOL     OW25311   3.025   2.060   3.337
 7957SOL    HW125312   3.013   2.122   3.410
 7957SOL    HW225313   3.070   2.111   3.270
 7958SOL     OW25314   1.864   3.175   2.050
 7958SOL    HW125315   1.776   3.193   2.017
 7958SOL    HW225316   1.859   3.087   2.087
 7959SOL     OW25317   1.946   3.644   2.792
 7959SOL    HW125318   1.923   3.563   2.747
 7959SOL    HW225319   2.039   3.657   2.774
 7960SOL     OW25320   2.351   3.436   2.761
 7960SOL    HW125321   2.420   3.497   2.785
 7960SOL    HW225322   2.395   3.371   2.706
 7961SOL     OW25323   2.826   2.639   3.078
 7961SOL    HW125324   2.891   2.617   3.145
 7961SOL    HW225325   2.742   2.638   3.125
 7962SOL     OW25326   1.907   2.418   2.980
 7962SOL    HW125327   1.990   2.419   2.931
 7962SOL    HW225328   1.934   2.421   3.072
 7963SOL     OW25329   2.051   2.391   3.589
 7963SOL    HW125330   2.143   2.382   3.563
 7963SOL    HW225331   2.020   2.468   3.542
 7964SOL     OW25332   3.239   2.775   3.519
 7964SOL    HW125333   3.241   2.868   3.542
 7964SOL    HW225334   3.243   2.774   3.424
 7965SOL     OW25335   2.678   2.424   2.233
 7965SOL    HW125336   2.683   2.354   2.168
 7965SOL    HW225337   2.604   2.478   2.204
 7966SOL     OW25338   3.502   2.454   3.027
 7966SOL    HW125339   3.492   2.407   3.110
 7966SOL    HW225340   3.592   2.436   3.000
 7967SOL     OW25341   2.088   3.404   3.585
 7967SOL    HW125342   2.090   3.474   3.650
 7967SOL    HW225343   2.110   3.325   3.634
 7968SOL     OW25344   2.573   2.305   3.107
 7968SOL    HW125345   2.512   2.235   3.082
 7968SOL    HW225346   2.564   2.371   3.038
 7969SOL     OW25347   2.810   3.534   3.313
 7969SOL    HW125348   2.794   3.521   3.220
 7969SOL    HW225349   2.885   3.593   3.316
 7970SOL     OW25350   2.315   2.349   2.025
 7970SOL    HW125351   2.377   2.416   2.054
 7970SOL    HW225352   2.230   2.392   2.026
 7971SOL     OW25353   1.976   2.999   3.329
 7971SOL    HW125354   1.991   2.955   3.412
 7971SOL    HW225355   2.006   2.936   3.263
 7972SOL     OW25356   3.177   2.883   3.062
 7972SOL    HW125357   3.219   2.844   2.984
 7972SOL    HW225358   3.106   2.936   3.027
 7973SOL     OW25359   3.187   2.724   2.157
 7973SOL    HW125360   3.123   2.702   2.226
 7973SOL    HW225361   3.140   2.707   2.075
 7974SOL     OW25362   3.066   3.581   2.943
 7974SOL    HW125363   3.139   3.641   2.957
 7974SOL    HW225364   3.099   3.495   2.969
 7975SOL     OW25365   1.956   3.119   2.877
 7975SOL    HW125366   1.932   3.141   2.967
 7975SOL    HW225367   1.883   3.067   2.845
 7976SOL     OW25368   2.525   3.521   3.596
 7976SOL    HW125369   2.509   3.616   3.594
 7976SOL    HW225370   2.620   3.512   3.588
 7977SOL     OW25371   3.573   2.021   2.359
 7977SOL    HW125372   3.647   2.006   2.300
 7977SOL    HW225373   3.561   1.937   2.403
 7978SOL     OW25374   3.242   3.433   2.338
 7978SOL    HW125375   3.308   3.473   2.282
 7978SOL    HW225376   3.199   3.507   2.381
 7979SOL     OW25377   2.006   3.659   3.706
 7979SOL    HW125378   1.956   3.596   3.757
 7979SOL    HW225379   2.061   3.704   3.771
 7980SOL     OW25380   3.137   2.783   2.508
 7980SOL    HW125381   3.210   2.728   2.535
 7980SOL    HW225382   3.178   2.860   2.469
 7981SOL     OW25383   2.678   3.131   3.305
 7981SOL    HW125384   2.713   3.122   3.394
 7981SOL    HW225385   2.601   3.187   3.314
 7982SOL     OW25386   2.527   3.494   2.019
 7982SOL    HW125387   2.542   3.507   1.925
 7982SOL    HW225388   2.475   3.414   2.024
 7983SOL     OW25389   3.705   2.029   2.820
 7983SOL    HW125390   3.731   1.939   2.800
 7983SOL    HW225391   3.616   2.036   2.786
 7984SOL     OW25392   2.116   2.171   2.575
 7984SOL    HW125393   2.031   2.208   2.555
 7984SOL    HW225394   2.120   2.169   2.671
 7985SOL     OW25395   3.070   3.458   1.894
 7985SOL    HW125396   3.058   3.369   1.928
 7985SOL    HW225397   2.998   3.470   1.833
 7986SOL     OW25398   2.689   2.869   3.229
 7986SOL    HW125399   2.745   2.874   3.151
 7986SOL    HW225400   2.678   2.960   3.256
 7987SOL     OW25401   2.769   2.759   2.144
 7987SOL    HW125402   2.830   2.798   2.082
 7987SOL    HW225403   2.823   2.701   2.198
 7988SOL     OW25404   3.348   3.492   1.907
 7988SOL    HW125405   3.254   3.482   1.893
 7988SOL    HW225406   3.385   3.498   1.819
 7989SOL     OW25407   2.215   3.148   3.356
 7989SOL    HW125408   2.221   3.228   3.304
 7989SOL    HW225409   2.129   3.112   3.335
 7990SOL     OW25410   3.481   3.110   3.127
 7990SOL    HW125411   3.571   3.126   3.155
 7990SOL    HW225412   3.433   3.187   3.158
 7991SOL     OW25413   2.927   2.967   2.559
 7991SOL    HW125414   2.858   2.920   2.607
 7991SOL    HW225415   2.994   2.900   2.543
 7992SOL     OW25416   2.890   2.105   2.821
 7992SOL    HW125417   2.894   2.054   2.741
 7992SOL    HW225418   2.884   2.040   2.891
 7993SOL     OW25419   2.457   3.337   2.333
 7993SOL    HW125420   2.513   3.293   2.269
 7993SOL    HW225421   2.395   3.387   2.279
 7994SOL     OW25422   3.582   2.256   3.233
 7994SOL    HW125423   3.655   2.317   3.241
 7994SOL    HW225424   3.615   2.187   3.176
 7995SOL     OW25425   2.118   3.210   2.142
 7995SOL    HW125426   2.025   3.201   2.121
 7995SOL    HW225427   2.120   3.249   2.229
 7996SOL     OW25428   1.969   2.861   3.568
 7996SOL    HW125429   1.899   2.855   3.632
 7996SOL    HW225430   2.050   2.845   3.617
 7997SOL     OW25431   2.542   2.049   3.363
 7997SOL    HW125432   2.628   2.030   3.327
 7997SOL    HW225433   2.559   2.076   3.453
 7998SOL     OW25434   1.949   2.181   1.886
 7998SOL    HW125435   1.860   2.165   1.854
 7998SOL    HW225436   1.976   2.262   1.844
 7999SOL     OW25437   3.287   2.714   3.250
 7999SOL    HW125438   3.241   2.774   3.191
 7999SOL    HW225439   3.380   2.724   3.227
 8000SOL     OW25440   1.919   2.011   2.156
 8000SOL    HW125441   1.909   2.092   2.105
 8000SOL    HW225442   2.005   1.978   2.133
 8001SOL     OW25443   3.039   3.193   1.986
 8001SOL    HW125444   2.949   3.159   1.993
 8001SOL    HW225445   3.069   3.200   2.076
 8002SOL     OW25446   2.485   2.696   3.294
 8002SOL    HW125447   2.541   2.773   3.283
 8002SOL    HW225448   2.545   2.623   3.303
 8003SOL     OW25449   2.563   2.439   3.564
 8003SOL    HW125450   2.613   2.505   3.612
 8003SOL    HW225451   2.588   2.356   3.604
 8004SOL     OW25452   3.302   3.054   3.478
 8004SOL    HW125453   3.288   3.059   3.573
 8004SOL    HW225454   3.397   3.058   3.468
 8005SOL     OW25455   2.224   3.599   3.410
 8005SOL    HW125456   2.132   3.625   3.413
 8005SOL    HW225457   2.226   3.513   3.454
 8006SOL     OW25458   3.534   2.728   3.114
 8006SOL    HW125459   3.526   2.645   3.069
 8006SOL    HW225460   3.515   2.794   3.047
 8007SOL     OW25461   3.075   2.179   2.315
 8007SOL    HW125462   3.138   2.107   2.315
 8007SOL    HW225463   3.098   2.232   2.392
 8008SOL     OW25464   2.449   2.586   2.527
 8008SOL    HW125465   2.490   2.672   2.525
 8008SOL    HW225466   2.383   2.589   2.458
 8009SOL     OW25467   3.619   2.223   3.502
 8009SOL    HW125468   3.596   2.241   3.411
 8009SOL    HW225469   3.548   2.168   3.535
 8010SOL     OW25470   3.595   2.787   3.377
 8010SOL    HW125471   3.587   2.880   3.398
 8010SOL    HW225472   3.589   2.783   3.281
 8011SOL     OW25473   2.713   3.223   1.909
 8011SOL    HW125474   2.687   3.236   2.000
 8011SOL    HW225475   2.734   3.310   1.877
 8012SOL     OW25476   2.529   3.638   2.781
 8012SOL    HW125477   2.517   3.732   2.779
 8012SOL    HW225478   2.624   3.626   2.787
 8013SOL     OW25479   2.735   2.833   2.712
 8013SOL    HW125480   2.789   2.765   2.753
 8013SOL    HW225481   2.695   2.879   2.786
 8014SOL     OW25482   2.928   2.845   1.945
 8014SOL    HW125483   2.914   2.904   1.871
 8014SOL    HW225484   3.003   2.791   1.919
 8015SOL     OW25485   2.094   3.161   3.728
 8015SOL    HW125486   2.005   3.125   3.728
 8015SOL    HW225487   2.113   3.180   3.820
 8016SOL     OW25488   1.959   3.068   2.526
 8016SOL    HW125489   1.994   3.036   2.609
 8016SOL    HW225490   2.024   3.043   2.460
 8017SOL     OW25491   2.495   3.284   3.450
 8017SOL    HW125492   2.448   3.233   3.516
 8017SOL    HW225493   2.521   3.365   3.494
 8018SOL     OW25494   3.662   2.044   3.090
 8018SOL    HW125495   3.688   1.954   3.110
 8018SOL    HW225496   3.681   2.054   2.996
 8019SOL     OW25497   2.274   2.296   2.378
 8019SOL    HW125498   2.317   2.224   2.331
 8019SOL    HW225499   2.234   2.254   2.454
 8020SOL     OW25500   2.197   2.419   3.154
 8020SOL    HW125501   2.253   2.363   3.207
 8020SOL    HW225502   2.218   2.396   3.064
 8021SOL     OW25503   2.703   3.428   2.531
 8021SOL    HW125504   2.671   3.508   2.489
 8021SOL    HW225505   2.624   3.376   2.548
 8022SOL     OW25506   3.295   2.096   2.986
 8022SOL    HW125507   3.348   2.041   3.044
 8022SOL    HW225508   3.240   2.147   3.046
 8023SOL     OW25509   2.874   1.880   2.991
 8023SOL    HW125510   2.817   1.814   2.949
 8023SOL    HW225511   2.961   1.841   2.988
 8024SOL     OW25512   2.643   3.193   2.178
 8024SOL    HW125513   2.621   3.102   2.199
 8024SOL    HW225514   2.718   3.213   2.234
 8025SOL     OW25515   2.480   3.426   3.139
 8025SOL    HW125516   2.479   3.511   3.181
 8025SOL    HW225517   2.572   3.412   3.116
 8026SOL     OW25518   3.227   1.913   2.040
 8026SOL    HW125519   3.264   1.835   1.997
 8026SOL    HW225520   3.136   1.889   2.058
 8027SOL     OW25521   3.146   2.322   2.535
 8027SOL    HW125522   3.102   2.407   2.542
 8027SOL    HW225523   3.149   2.289   2.625
 8028SOL     OW25524   3.440   2.051   2.751
 8028SOL    HW125525   3.389   2.078   2.828
 8028SOL    HW225526   3.442   2.129   2.696
 8029SOL     OW25527   1.900   2.923   2.167
 8029SOL    HW125528   1.994   2.918   2.154
 8029SOL    HW225529   1.873   2.834   2.186
 8030SOL     OW25530   2.759   3.528   2.190
 8030SOL    HW125531   2.679   3.514   2.139
 8030SOL    HW225532   2.734   3.595   2.255
 8031SOL     OW25533   2.074   2.471   3.862
 8031SOL    HW125534   1.987   2.477   3.900
 8031SOL    HW225535   2.059   2.470   3.767
 8032SOL     OW25536   2.086   2.146   4.719
 8032SOL    HW125537   2.115   2.114   4.804
 8032SOL    HW225538   1.996   2.114   4.710
 8033SOL     OW25539   1.863   2.252   4.365
 8033SOL    HW125540   1.781   2.274   4.411
 8033SOL    HW225541   1.841   2.175   4.313
 8034SOL     OW25542   2.409   3.153   4.904
 8034SOL    HW125543   2.337   3.189   4.852
 8034SOL    HW225544   2.452   3.230   4.942
 8035SOL     OW25545   3.434   3.373   4.455
 8035SOL    HW125546   3.387   3.406   4.531
 8035SOL    HW225547   3.370   3.376   4.384
 8036SOL     OW25548   2.990   2.564   4.417
 8036SOL    HW125549   3.044   2.641   4.398
 8036SOL    HW225550   2.949   2.583   4.501
 8037SOL     OW25551   3.667   2.394   3.943
 8037SOL    HW125552   3.629   2.414   3.858
 8037SOL    HW225553   3.592   2.378   4.000
 8038SOL     OW25554   2.575   2.988   4.760
 8038SOL    HW125555   2.521   3.033   4.824
 8038SOL    HW225556   2.621   3.058   4.713
 8039SOL     OW25557   2.739   2.632   5.539
 8039SOL    HW125558   2.771   2.695   5.603
 8039SOL    HW225559   2.755   2.673   5.454
 8040SOL     OW25560   2.544   2.844   4.376
 8040SOL    HW125561   2.617   2.844   4.438
 8040SOL    HW225562   2.482   2.907   4.412
 8041SOL     OW25563   2.566   3.006   5.543
 8041SOL    HW125564   2.613   3.085   5.573
 8041SOL    HW225565   2.487   3.039   5.501
 8042SOL     OW25566   2.196   3.286   4.779
 8042SOL    HW125567   2.125   3.261   4.720
 8042SOL    HW225568   2.253   3.342   4.726
 8043SOL     OW25569   2.317   2.255   5.205
 8043SOL    HW125570   2.399   2.207   5.210
 8043SOL    HW225571   2.249   2.190   5.223
 8044SOL     OW25572   3.469   2.307   4.477
 8044SOL    HW125573   3.403   2.347   4.420
 8044SOL    HW225574   3.479   2.369   4.549
 8045SOL     OW25575   2.090   3.577   4.187
 8045SOL    HW125576   2.110   3.646   4.249
 8045SOL    HW225577   2.170   3.569   4.134
 8046SOL     OW25578   2.982   3.220   5.438
 8046SOL    HW125579   3.043   3.203   5.509
 8046SOL    HW225580   2.941   3.135   5.420
 8047SOL     OW25581   2.060   3.311   4.246
 8047SOL    HW125582   2.075   3.405   4.233
 8047SOL    HW225583   2.091   3.295   4.335
 8048SOL     OW25584   2.110   2.950   4.606
 8048SOL    HW125585   2.133   2.861   4.632
 8048SOL    HW225586   2.102   2.997   4.689
 8049SOL     OW25587   2.417   3.688   5.111
 8049SOL    HW125588   2.362   3.654   5.181
 8049SOL    HW225589   2.471   3.755   5.153
 8050SOL     OW25590   2.425   2.858   3.869
 8050SOL    HW125591   2.480   2.895   3.801
 8050SOL    HW225592   2.470   2.880   3.951
 8051SOL     OW25593   3.450   1.989   5.192
 8051SOL    HW125594   3.492   2.067   5.156
 8051SOL    HW225595   3.434   2.010   5.284
 8052SOL     OW25596   1.969   2.528   4.286
 8052SOL    HW125597   1.955   2.437   4.313
 8052SOL    HW225598   1.968   2.577   4.369
 8053SOL     OW25599   3.710   3.701   4.146
 8053SOL    HW125600   3.674   3.654   4.221
 8053SOL    HW225601   3.800   3.719   4.170
 8054SOL     OW25602   1.886   3.462   3.853
 8054SOL    HW125603   1.882   3.368   3.868
 8054SOL    HW225604   1.873   3.501   3.940
 8055SOL     OW25605   3.546   2.772   4.313
 8055SOL    HW125606   3.582   2.803   4.397
 8055SOL    HW225607   3.561   2.844   4.253
 8056SOL     OW25608   2.012   2.613   5.305
 8056SOL    HW125609   2.107   2.626   5.303
 8056SOL    HW225610   1.977   2.697   5.335
 8057SOL     OW25611   2.430   3.267   4.438
 8057SOL    HW125612   2.422   3.173   4.452
 8057SOL    HW225613   2.431   3.277   4.343
 8058SOL     OW25614   3.084   3.028   5.168
 8058SOL    HW125615   3.115   2.964   5.104
 8058SOL    HW225616   3.152   3.096   5.170
 8059SOL     OW25617   2.682   1.860   4.237
 8059SOL    HW125618   2.725   1.942   4.213
 8059SOL    HW225619   2.589   1.883   4.242
 8060SOL     OW25620   2.044   2.825   4.989
 8060SOL    HW125621   2.134   2.792   4.992
 8060SOL    HW225622   2.001   2.770   4.924
 8061SOL     OW25623   3.408   2.881   3.939
 8061SOL    HW125624   3.396   2.822   4.013
 8061SOL    HW225625   3.464   2.952   3.973
 8062SOL     OW25626   2.204   2.109   5.538
 8062SOL    HW125627   2.255   2.183   5.572
 8062SOL    HW225628   2.115   2.125   5.570
 8063SOL     OW25629   3.329   3.264   4.708
 8063SOL    HW125630   3.250   3.274   4.762
 8063SOL    HW225631   3.315   3.183   4.660
 8064SOL     OW25632   3.541   3.602   4.332
 8064SOL    HW125633   3.497   3.569   4.253
 8064SOL    HW225634   3.514   3.541   4.401
 8065SOL     OW25635   2.459   2.564   3.994
 8065SOL    HW125636   2.489   2.649   3.963
 8065SOL    HW225637   2.395   2.585   4.062
 8066SOL     OW25638   3.148   2.228   4.661
 8066SOL    HW125639   3.058   2.196   4.671
 8066SOL    HW225640   3.200   2.177   4.723
 8067SOL     OW25641   3.445   3.563   4.078
 8067SOL    HW125642   3.527   3.599   4.046
 8067SOL    HW225643   3.386   3.565   4.002
 8068SOL     OW25644   2.648   2.471   5.168
 8068SOL    HW125645   2.618   2.452   5.257
 8068SOL    HW225646   2.601   2.409   5.112
 8069SOL     OW25647   3.252   2.330   5.405
 8069SOL    HW125648   3.249   2.378   5.487
 8069SOL    HW225649   3.344   2.302   5.397
 8070SOL     OW25650   2.800   2.750   5.300
 8070SOL    HW125651   2.866   2.689   5.267
 8070SOL    HW225652   2.771   2.799   5.223
 8071SOL     OW25653   2.855   2.272   4.959
 8071SOL    HW125654   2.786   2.328   4.996
 8071SOL    HW225655   2.837   2.271   4.865
 8072SOL     OW25656   2.885   2.562   4.158
 8072SOL    HW125657   2.922   2.562   4.247
 8072SOL    HW225658   2.816   2.496   4.161
 8073SOL     OW25659   1.945   2.693   4.506
 8073SOL    HW125660   2.030   2.683   4.549
 8073SOL    HW225661   1.905   2.768   4.550
 8074SOL     OW25662   1.963   3.691   5.287
 8074SOL    HW125663   1.963   3.676   5.382
 8074SOL    HW225664   1.972   3.786   5.278
 8075SOL     OW25665   2.743   2.202   3.872
 8075SOL    HW125666   2.791   2.274   3.831
 8075SOL    HW225667   2.811   2.140   3.897
 8076SOL     OW25668   3.539   2.430   5.553
 8076SOL    HW125669   3.520   2.508   5.500
 8076SOL    HW225670   3.589   2.373   5.493
 8077SOL     OW25671   3.276   2.977   4.250
 8077SOL    HW125672   3.365   3.011   4.253
 8077SOL    HW225673   3.223   3.051   4.219
 8078SOL     OW25674   2.407   2.032   4.625
 8078SOL    HW125675   2.412   2.057   4.717
 8078SOL    HW225676   2.419   2.114   4.577
 8079SOL     OW25677   2.847   3.288   4.188
 8079SOL    HW125678   2.817   3.377   4.169
 8079SOL    HW225679   2.904   3.298   4.265
 8080SOL     OW25680   2.223   3.686   4.612
 8080SOL    HW125681   2.277   3.608   4.616
 8080SOL    HW225682   2.284   3.759   4.618
 8081SOL     OW25683   3.625   2.865   4.563
 8081SOL    HW125684   3.652   2.947   4.523
 8081SOL    HW225685   3.598   2.889   4.652
 8082SOL     OW25686   2.172   2.829   3.985
 8082SOL    HW125687   2.257   2.852   3.946
 8082SOL    HW225688   2.160   2.737   3.963
 8083SOL     OW25689   3.355   2.605   4.429
 8083SOL    HW125690   3.366   2.583   4.521
 8083SOL    HW225691   3.427   2.666   4.410
 8084SOL     OW25692   2.329   3.121   5.467
 8084SOL    HW125693   2.303   3.128   5.376
 8084SOL    HW225694   2.247   3.128   5.516
 8085SOL     OW25695   2.891   3.619   3.954
 8085SOL    HW125696   2.951   3.550   3.984
 8085SOL    HW225697   2.949   3.689   3.923
 8086SOL     OW25698   2.062   2.134   5.227
 8086SOL    HW125699   2.011   2.214   5.240
 8086SOL    HW225700   2.061   2.091   5.313
 8087SOL     OW25701   2.324   3.596   4.045
 8087SOL    HW125702   2.372   3.654   4.103
 8087SOL    HW225703   2.390   3.560   3.986
 8088SOL     OW25704   3.266   1.967   4.176
 8088SOL    HW125705   3.264   1.950   4.081
 8088SOL    HW225706   3.356   1.995   4.193
 8089SOL     OW25707   2.126   3.645   4.949
 8089SOL    HW125708   2.183   3.599   5.011
 8089SOL    HW225709   2.169   3.634   4.864
 8090SOL     OW25710   2.781   3.515   4.679
 8090SOL    HW125711   2.870   3.539   4.704
 8090SOL    HW225712   2.787   3.495   4.585
 8091SOL     OW25713   2.250   2.562   4.184
 8091SOL    HW125714   2.262   2.468   4.200
 8091SOL    HW225715   2.159   2.579   4.209
 8092SOL     OW25716   3.399   2.075   5.449
 8092SOL    HW125717   3.412   2.089   5.542
 8092SOL    HW225718   3.304   2.078   5.438
 8093SOL     OW25719   2.473   1.959   3.850
 8093SOL    HW125720   2.569   1.961   3.845
 8093SOL    HW225721   2.445   1.935   3.761
 8094SOL     OW25722   2.623   2.121   5.486
 8094SOL    HW125723   2.706   2.074   5.477
 8094SOL    HW225724   2.626   2.158   5.574
 8095SOL     OW25725   2.728   3.375   4.931
 8095SOL    HW125726   2.747   3.410   4.843
 8095SOL    HW225727   2.805   3.322   4.952
 8096SOL     OW25728   3.198   2.446   5.153
 8096SOL    HW125729   3.233   2.426   5.240
 8096SOL    HW225730   3.236   2.531   5.131
 8097SOL     OW25731   2.675   3.212   4.638
 8097SOL    HW125732   2.769   3.204   4.627
 8097SOL    HW225733   2.651   3.292   4.591
 8098SOL     OW25734   2.786   2.352   4.638
 8098SOL    HW125735   2.757   2.351   4.547
 8098SOL    HW225736   2.827   2.266   4.651
 8099SOL     OW25737   2.412   1.922   4.219
 8099SOL    HW125738   2.336   1.924   4.277
 8099SOL    HW225739   2.405   2.002   4.167
 8100SOL     OW25740   3.227   2.980   3.743
 8100SOL    HW125741   3.284   2.947   3.812
 8100SOL    HW225742   3.165   3.038   3.789
 8101SOL     OW25743   2.162   1.904   3.913
 8101SOL    HW125744   2.227   1.972   3.895
 8101SOL    HW225745   2.211   1.835   3.957
 8102SOL     OW25746   2.800   2.106   4.178
 8102SOL    HW125747   2.766   2.178   4.126
 8102SOL    HW225748   2.894   2.121   4.183
 8103SOL     OW25749   2.948   2.552   5.187
 8103SOL    HW125750   2.892   2.475   5.190
 8103SOL    HW225751   3.037   2.517   5.179
 8104SOL     OW25752   3.052   3.414   4.486
 8104SOL    HW125753   3.094   3.474   4.424
 8104SOL    HW225754   3.065   3.454   4.571
 8105SOL     OW25755   2.328   3.005   4.443
 8105SOL    HW125756   2.263   2.989   4.512
 8105SOL    HW225757   2.280   2.994   4.361
 8106SOL     OW25758   3.121   3.634   4.306
 8106SOL    HW125759   3.159   3.710   4.261
 8106SOL    HW225760   3.049   3.670   4.357
 8107SOL     OW25761   2.887   2.397   3.751
 8107SOL    HW125762   2.850   2.483   3.734
 8107SOL    HW225763   2.950   2.411   3.822
 8108SOL     OW25764   1.952   2.416   5.125
 8108SOL    HW125765   2.042   2.413   5.093
 8108SOL    HW225766   1.950   2.490   5.185
 8109SOL     OW25767   2.414   2.078   4.896
 8109SOL    HW125768   2.464   2.030   4.962
 8109SOL    HW225769   2.323   2.077   4.928
 8110SOL     OW25770   2.711   2.305   4.376
 8110SOL    HW125771   2.673   2.363   4.311
 8110SOL    HW225772   2.750   2.233   4.325
 8111SOL     OW25773   2.891   1.911   4.470
 8111SOL    HW125774   2.828   1.915   4.398
 8111SOL    HW225775   2.859   1.840   4.526
 8112SOL     OW25776   3.322   3.012   4.588
 8112SOL    HW125777   3.254   2.998   4.522
 8112SOL    HW225778   3.399   3.041   4.540
 8113SOL     OW25779   3.330   2.468   4.680
 8113SOL    HW125780   3.267   2.397   4.689
 8113SOL    HW225781   3.387   2.459   4.756
 8114SOL     OW25782   3.730   2.655   4.037
 8114SOL    HW125783   3.754   2.670   4.129
 8114SOL    HW225784   3.719   2.560   4.031
 8115SOL     OW25785   2.357   3.265   3.857
 8115SOL    HW125786   2.290   3.240   3.920
 8115SOL    HW225787   2.351   3.199   3.788
 8116SOL     OW25788   3.520   3.111   4.439
 8116SOL    HW125789   3.600   3.103   4.387
 8116SOL    HW225790   3.495   3.203   4.430
 8117SOL     OW25791   3.254   2.439   3.794
 8117SOL    HW125792   3.195   2.420   3.867
 8117SOL    HW225793   3.340   2.444   3.834
 8118SOL     OW25794   2.376   2.126   4.041
 8118SOL    HW125795   2.422   2.074   3.976
 8118SOL    HW225796   2.358   2.209   3.996
 8119SOL     OW25797   2.912   3.197   5.044
 8119SOL    HW125798   2.836   3.175   5.099
 8119SOL    HW225799   2.986   3.156   5.089
 8120SOL     OW25800   2.919   3.031   4.813
 8120SOL    HW125801   2.923   3.092   4.886
 8120SOL    HW225802   2.937   3.084   4.735
 8121SOL     OW25803   3.497   2.961   4.809
 8121SOL    HW125804   3.527   3.044   4.846
 8121SOL    HW225805   3.427   2.986   4.749
 8122SOL     OW25806   2.785   1.947   5.115
 8122SOL    HW125807   2.806   1.937   5.023
 8122SOL    HW225808   2.861   1.992   5.152
 8123SOL     OW25809   2.838   2.983   5.448
 8123SOL    HW125810   2.744   2.989   5.468
 8123SOL    HW225811   2.846   2.909   5.389
 8124SOL     OW25812   2.564   2.903   4.103
 8124SOL    HW125813   2.560   2.889   4.197
 8124SOL    HW225814   2.640   2.852   4.074
 8125SOL     OW25815   2.278   2.686   4.991
 8125SOL    HW125816   2.354   2.698   5.048
 8125SOL    HW225817   2.252   2.595   5.004
 8126SOL     OW25818   3.122   2.227   5.010
 8126SOL    HW125819   3.157   2.305   5.051
 8126SOL    HW225820   3.032   2.250   4.987
 8127SOL     OW25821   1.955   3.436   5.085
 8127SOL    HW125822   1.957   3.531   5.096
 8127SOL    HW225823   2.047   3.411   5.075
 8128SOL     OW25824   2.181   2.992   4.212
 8128SOL    HW125825   2.223   3.065   4.167
 8128SOL    HW225826   2.182   2.921   4.148
 8129SOL     OW25827   2.401   2.388   4.578
 8129SOL    HW125828   2.415   2.446   4.503
 8129SOL    HW225829   2.467   2.414   4.642
 8130SOL     OW25830   3.125   3.184   4.165
 8130SOL    HW125831   3.183   3.257   4.185
 8130SOL    HW225832   3.047   3.224   4.126
 8131SOL     OW25833   3.122   3.275   4.881
 8131SOL    HW125834   3.186   3.259   4.951
 8131SOL    HW225835   3.037   3.272   4.925
 8132SOL     OW25836   3.466   2.503   4.189
 8132SOL    HW125837   3.406   2.532   4.258
 8132SOL    HW225838   3.526   2.576   4.177
 8133SOL     OW25839   2.212   3.366   5.038
 8133SOL    HW125840   2.204   3.334   4.948
 8133SOL    HW225841   2.305   3.389   5.047
 8134SOL     OW25842   2.300   2.601   5.331
 8134SOL    HW125843   2.354   2.652   5.271
 8134SOL    HW225844   2.360   2.533   5.363
 8135SOL     OW25845   3.469   2.635   5.390
 8135SOL    HW125846   3.383   2.675   5.380
 8135SOL    HW225847   3.527   2.689   5.337
 8136SOL     OW25848   2.863   1.996   5.482
 8136SOL    HW125849   2.917   2.073   5.464
 8136SOL    HW225850   2.915   1.922   5.450
 8137SOL     OW25851   2.357   1.888   5.473
 8137SOL    HW125852   2.308   1.839   5.407
 8137SOL    HW225853   2.308   1.968   5.485
 8138SOL     OW25854   2.432   2.750   4.752
 8138SOL    HW125855   2.487   2.828   4.743
 8138SOL    HW225856   2.398   2.754   4.841
 8139SOL     OW25857   3.189   2.698   4.754
 8139SOL    HW125858   3.165   2.736   4.669
 8139SOL    HW225859   3.246   2.625   4.732
 8140SOL     OW25860   3.051   2.386   3.978
 8140SOL    HW125861   3.062   2.323   4.049
 8140SOL    HW225862   3.056   2.471   4.022
 8141SOL     OW25863   2.148   2.055   4.974
 8141SOL    HW125864   2.116   2.088   5.058
 8141SOL    HW225865   2.131   1.961   4.977
 8142SOL     OW25866   1.881   3.186   4.993
 8142SOL    HW125867   1.916   3.121   5.053
 8142SOL    HW225868   1.909   3.270   5.029
 8143SOL     OW25869   2.568   2.490   4.766
 8143SOL    HW125870   2.656   2.478   4.730
 8143SOL    HW225871   2.552   2.584   4.757
 8144SOL     OW25872   3.590   2.812   5.602
 8144SOL    HW125873   3.536   2.783   5.529
 8144SOL    HW225874   3.527   2.831   5.672
 8145SOL     OW25875   2.168   1.916   4.354
 8145SOL    HW125876   2.148   2.008   4.371
 8145SOL    HW225877   2.180   1.877   4.440
 8146SOL     OW25878   3.456   2.249   4.089
 8146SOL    HW125879   3.496   2.193   4.156
 8146SOL    HW225880   3.448   2.334   4.131
 8147SOL     OW25881   2.878   2.610   4.668
 8147SOL    HW125882   2.886   2.631   4.761
 8147SOL    HW225883   2.860   2.516   4.667
 8148SOL     OW25884   2.817   3.437   5.407
 8148SOL    HW125885   2.813   3.468   5.316
 8148SOL    HW225886   2.875   3.361   5.403
 8149SOL     OW25887   3.808   3.475   5.294
 8149SOL    HW125888   3.745   3.445   5.228
 8149SOL    HW225889   3.861   3.398   5.314
 8150SOL     OW25890   2.211   2.773   5.537
 8150SOL    HW125891   2.285   2.809   5.586
 8150SOL    HW225892   2.252   2.716   5.471
 8151SOL     OW25893   3.404   2.119   3.851
 8151SOL    HW125894   3.334   2.062   3.882
 8151SOL    HW225895   3.427   2.172   3.927
 8152SOL     OW25896   3.123   2.677   3.744
 8152SOL    HW125897   3.174   2.597   3.759
 8152SOL    HW225898   3.165   2.718   3.669
 8153SOL     OW25899   2.938   3.184   4.579
 8153SOL    HW125900   2.943   3.123   4.506
 8153SOL    HW225901   2.984   3.262   4.549
 8154SOL     OW25902   2.176   2.681   4.665
 8154SOL    HW125903   2.268   2.706   4.677
 8154SOL    HW225904   2.172   2.590   4.695
 8155SOL     OW25905   2.178   2.399   4.729
 8155SOL    HW125906   2.148   2.309   4.722
 8155SOL    HW225907   2.257   2.402   4.675
 8156SOL     OW25908   2.998   2.231   5.421
 8156SOL    HW125909   2.953   2.292   5.479
 8156SOL    HW225910   3.086   2.267   5.411
 8157SOL     OW25911   3.023   2.057   5.205
 8157SOL    HW125912   3.013   2.122   5.274
 8157SOL    HW225913   3.068   2.103   5.134
 8158SOL     OW25914   1.859   3.181   3.914
 8158SOL    HW125915   1.770   3.197   3.883
 8158SOL    HW225916   1.856   3.093   3.952
 8159SOL     OW25917   1.953   3.664   4.600
 8159SOL    HW125918   1.939   3.570   4.590
 8159SOL    HW225919   2.048   3.674   4.603
 8160SOL     OW25920   2.358   3.445   4.630
 8160SOL    HW125921   2.431   3.502   4.653
 8160SOL    HW225922   2.393   3.386   4.564
 8161SOL     OW25923   2.833   2.624   4.940
 8161SOL    HW125924   2.908   2.621   5.000
 8161SOL    HW225925   2.760   2.651   4.995
 8162SOL     OW25926   1.909   2.417   4.843
 8162SOL    HW125927   1.990   2.420   4.792
 8162SOL    HW225928   1.938   2.418   4.934
 8163SOL     OW25929   2.061   2.388   5.450
 8163SOL    HW125930   2.148   2.374   5.413
 8163SOL    HW225931   2.027   2.465   5.404
 8164SOL     OW25932   3.218   2.747   5.362
 8164SOL    HW125933   3.246   2.839   5.368
 8164SOL    HW225934   3.219   2.728   5.269
 8165SOL     OW25935   2.665   2.390   4.094
 8165SOL    HW125936   2.677   2.347   4.009
 8165SOL    HW225937   2.604   2.461   4.076
 8166SOL     OW25938   3.498   2.429   4.885
 8166SOL    HW125939   3.497   2.425   4.981
 8166SOL    HW225940   3.590   2.417   4.862
 8167SOL     OW25941   2.087   3.402   5.450
 8167SOL    HW125942   2.089   3.469   5.518
 8167SOL    HW225943   2.109   3.321   5.495
 8168SOL     OW25944   2.534   2.319   4.974
 8168SOL    HW125945   2.499   2.240   4.934
 8168SOL    HW225946   2.544   2.381   4.902
 8169SOL     OW25947   2.784   3.553   5.149
 8169SOL    HW125948   2.765   3.504   5.069
 8169SOL    HW225949   2.844   3.622   5.121
 8170SOL     OW25950   2.320   2.348   3.888
 8170SOL    HW125951   2.381   2.416   3.916
 8170SOL    HW225952   2.234   2.390   3.890
 8171SOL     OW25953   1.973   2.998   5.185
 8171SOL    HW125954   1.993   2.955   5.269
 8171SOL    HW225955   2.003   2.935   5.119
 8172SOL     OW25956   3.157   2.886   4.945
 8172SOL    HW125957   3.175   2.822   4.876
 8172SOL    HW225958   3.125   2.963   4.898
 8173SOL     OW25959   3.157   2.651   4.028
 8173SOL    HW125960   3.153   2.719   4.096
 8173SOL    HW225961   3.153   2.699   3.946
 8174SOL     OW25962   3.589   3.590   4.818
 8174SOL    HW125963   3.663   3.618   4.764
 8174SOL    HW225964   3.599   3.495   4.825
 8175SOL     OW25965   3.058   3.510   4.739
 8175SOL    HW125966   3.096   3.593   4.767
 8175SOL    HW225967   3.105   3.444   4.790
 8176SOL     OW25968   1.918   3.162   4.716
 8176SOL    HW125969   1.912   3.159   4.811
 8176SOL    HW225970   1.888   3.077   4.686
 8177SOL     OW25971   2.557   3.529   5.469
 8177SOL    HW125972   2.529   3.617   5.445
 8177SOL    HW225973   2.649   3.525   5.442
 8178SOL     OW25974   3.574   2.019   4.225
 8178SOL    HW125975   3.646   2.008   4.164
 8178SOL    HW225976   3.565   1.934   4.268
 8179SOL     OW25977   3.264   3.410   4.236
 8179SOL    HW125978   3.334   3.434   4.175
 8179SOL    HW225979   3.214   3.491   4.248
 8180SOL     OW25980   1.999   3.665   5.562
 8180SOL    HW125981   1.951   3.597   5.611
 8180SOL    HW225982   2.054   3.707   5.628
 8181SOL     OW25983   3.149   2.780   4.378
 8181SOL    HW125984   3.223   2.722   4.395
 8181SOL    HW225985   3.186   2.855   4.332
 8182SOL     OW25986   2.660   3.141   5.145
 8182SOL    HW125987   2.620   3.180   5.223
 8182SOL    HW225988   2.642   3.205   5.075
 8183SOL     OW25989   2.503   3.488   3.872
 8183SOL    HW125990   2.519   3.502   3.778
 8183SOL    HW225991   2.463   3.402   3.877
 8184SOL     OW25992   3.608   3.623   5.091
 8184SOL    HW125993   3.569   3.605   5.005
 8184SOL    HW225994   3.620   3.718   5.092
 8185SOL     OW25995   3.698   2.027   4.686
 8185SOL    HW125996   3.726   1.940   4.660
 8185SOL    HW225997   3.612   2.038   4.646
 8186SOL     OW25998   2.118   2.167   4.441
 8186SOL    HW125999   2.035   2.210   4.421
 8186SOL    HW226000   2.123   2.167   4.536
 8187SOL     OW26001   2.699   2.877   5.076
 8187SOL    HW126002   2.752   2.889   4.997
 8187SOL    HW226003   2.682   2.966   5.107
 8188SOL     OW26004   2.759   2.747   3.999
 8188SOL    HW126005   2.820   2.788   3.939
 8188SOL    HW226006   2.814   2.693   4.056
 8189SOL     OW26007   2.211   3.156   5.229
 8189SOL    HW126008   2.227   3.227   5.167
 8189SOL    HW226009   2.134   3.111   5.194
 8190SOL     OW26010   2.918   2.961   4.414
 8190SOL    HW126011   2.855   2.912   4.467
 8190SOL    HW226012   2.990   2.899   4.399
 8191SOL     OW26013   2.895   2.102   4.682
 8191SOL    HW126014   2.901   2.047   4.604
 8191SOL    HW226015   2.886   2.040   4.755
 8192SOL     OW26016   2.444   3.317   4.172
 8192SOL    HW126017   2.508   3.268   4.120
 8192SOL    HW226018   2.467   3.409   4.157
 8193SOL     OW26019   3.587   2.232   5.128
 8193SOL    HW126020   3.650   2.304   5.124
 8193SOL    HW226021   3.612   2.174   5.056
 8194SOL     OW26022   2.117   3.210   3.998
 8194SOL    HW126023   2.023   3.205   3.981
 8194SOL    HW226024   2.124   3.249   4.085
 8195SOL     OW26025   1.971   2.861   5.429
 8195SOL    HW126026   1.901   2.855   5.494
 8195SOL    HW226027   2.051   2.845   5.479
 8196SOL     OW26028   2.540   2.046   5.224
 8196SOL    HW126029   2.626   2.030   5.186
 8196SOL    HW226030   2.558   2.074   5.313
 8197SOL     OW26031   1.945   2.184   3.744
 8197SOL    HW126032   1.865   2.173   3.693
 8197SOL    HW226033   1.981   2.267   3.713
 8198SOL     OW26034   3.282   2.699   5.101
 8198SOL    HW126035   3.232   2.767   5.055
 8198SOL    HW226036   3.373   2.716   5.076
 8199SOL     OW26037   1.921   2.011   4.016
 8199SOL    HW126038   1.912   2.090   3.963
 8199SOL    HW226039   2.010   1.979   3.998
 8200SOL     OW26040   3.015   3.153   3.835
 8200SOL    HW126041   2.924   3.153   3.865
 8200SOL    HW226042   3.056   3.228   3.879
 8201SOL     OW26043   2.494   2.700   5.153
 8201SOL    HW126044   2.549   2.776   5.137
 8201SOL    HW226045   2.555   2.627   5.162
 8202SOL     OW26046   3.387   3.617   4.626
 8202SOL    HW126047   3.393   3.708   4.599
 8202SOL    HW226048   3.440   3.611   4.705
 8203SOL     OW26049   2.564   2.443   5.428
 8203SOL    HW126050   2.613   2.512   5.472
 8203SOL    HW226051   2.600   2.362   5.463
 8204SOL     OW26052   3.324   2.989   5.359
 8204SOL    HW126053   3.291   3.010   5.446
 8204SOL    HW226054   3.341   3.075   5.319
 8205SOL     OW26055   2.224   3.596   5.286
 8205SOL    HW126056   2.133   3.626   5.282
 8205SOL    HW226057   2.218   3.508   5.324
 8206SOL     OW26058   3.525   2.752   4.983
 8206SOL    HW126059   3.550   2.686   4.918
 8206SOL    HW226060   3.514   2.832   4.932
 8207SOL     OW26061   3.067   2.174   4.181
 8207SOL    HW126062   3.136   2.107   4.178
 8207SOL    HW226063   3.090   2.228   4.256
 8208SOL     OW26064   2.442   2.584   4.390
 8208SOL    HW126065   2.487   2.669   4.392
 8208SOL    HW226066   2.380   2.593   4.317
 8209SOL     OW26067   3.636   2.212   5.402
 8209SOL    HW126068   3.631   2.225   5.307
 8209SOL    HW226069   3.561   2.156   5.422
 8210SOL     OW26070   3.623   2.806   5.245
 8210SOL    HW126071   3.683   2.880   5.251
 8210SOL    HW226072   3.598   2.803   5.153
 8211SOL     OW26073   2.696   3.212   3.771
 8211SOL    HW126074   2.678   3.226   3.864
 8211SOL    HW226075   2.721   3.298   3.737
 8212SOL     OW26076   2.537   3.644   4.678
 8212SOL    HW126077   2.557   3.734   4.651
 8212SOL    HW226078   2.623   3.602   4.687
 8213SOL     OW26079   2.733   2.826   4.576
 8213SOL    HW126080   2.788   2.757   4.613
 8213SOL    HW226081   2.710   2.882   4.650
 8214SOL     OW26082   2.914   2.841   3.794
 8214SOL    HW126083   2.948   2.929   3.786
 8214SOL    HW226084   2.989   2.784   3.776
 8215SOL     OW26085   3.692   3.399   4.586
 8215SOL    HW126086   3.626   3.386   4.517
 8215SOL    HW226087   3.649   3.368   4.666
 8216SOL     OW26088   2.092   3.160   5.593
 8216SOL    HW126089   2.004   3.122   5.590
 8216SOL    HW226090   2.108   3.174   5.687
 8217SOL     OW26091   1.948   3.060   4.394
 8217SOL    HW126092   1.995   3.024   4.469
 8217SOL    HW226093   2.011   3.057   4.322
 8218SOL     OW26094   2.523   3.278   5.337
 8218SOL    HW126095   2.465   3.233   5.398
 8218SOL    HW226096   2.544   3.361   5.380
 8219SOL     OW26097   3.649   2.038   4.953
 8219SOL    HW126098   3.692   1.955   4.973
 8219SOL    HW226099   3.670   2.055   4.861
 8220SOL     OW26100   2.264   2.299   4.238
 8220SOL    HW126101   2.313   2.232   4.190
 8220SOL    HW226102   2.233   2.254   4.316
 8221SOL     OW26103   3.567   3.311   4.824
 8221SOL    HW126104   3.479   3.303   4.789
 8221SOL    HW226105   3.555   3.316   4.919
 8222SOL     OW26106   2.198   2.419   5.018
 8222SOL    HW126107   2.257   2.369   5.075
 8222SOL    HW226108   2.226   2.397   4.929
 8223SOL     OW26109   2.673   3.434   4.420
 8223SOL    HW126110   2.698   3.480   4.340
 8223SOL    HW226111   2.606   3.372   4.393
 8224SOL     OW26112   3.298   2.092   4.850
 8224SOL    HW126113   3.369   2.060   4.906
 8224SOL    HW226114   3.239   2.138   4.910
 8225SOL     OW26115   2.870   1.874   4.853
 8225SOL    HW126116   2.820   1.812   4.800
 8225SOL    HW226117   2.959   1.840   4.853
 8226SOL     OW26118   2.646   3.177   4.044
 8226SOL    HW126119   2.634   3.087   4.072
 8226SOL    HW226120   2.720   3.209   4.096
 8227SOL     OW26121   2.474   3.428   5.006
 8227SOL    HW126122   2.474   3.518   5.039
 8227SOL    HW226123   2.563   3.413   4.976
 8228SOL     OW26124   3.220   1.917   3.905
 8228SOL    HW126125   3.254   1.846   3.850
 8228SOL    HW226126   3.130   1.890   3.925
 8229SOL     OW26127   3.133   2.320   4.398
 8229SOL    HW126128   3.095   2.408   4.405
 8229SOL    HW226129   3.146   2.293   4.489
 8230SOL     OW26130   3.436   2.054   4.607
 8230SOL    HW126131   3.387   2.082   4.684
 8230SOL    HW226132   3.441   2.132   4.552
 8231SOL     OW26133   1.896   2.927   4.030
 8231SOL    HW126134   1.991   2.927   4.020
 8231SOL    HW226135   1.874   2.835   4.049
 8232SOL     OW26136   2.683   3.511   4.130
 8232SOL    HW126137   2.708   3.522   4.038
 8232SOL    HW226138   2.697   3.597   4.169
 8233SOL     OW26139   2.077   2.472   5.722
 8233SOL    HW126140   1.987   2.481   5.754
 8233SOL    HW226141   2.068   2.469   5.626
 8234SOL     OW26142   2.082   2.152   6.582
 8234SOL    HW126143   2.112   2.116   6.666
 8234SOL    HW226144   1.993   2.118   6.572
 8235SOL     OW26145   1.861   2.246   6.227
 8235SOL    HW126146   1.780   2.272   6.272
 8235SOL    HW226147   1.835   2.172   6.173
 8236SOL     OW26148   2.398   3.125   6.767
 8236SOL    HW126149   2.335   3.184   6.724
 8236SOL    HW226150   2.447   3.182   6.826
 8237SOL     OW26151   2.988   2.565   6.280
 8237SOL    HW126152   3.042   2.643   6.263
 8237SOL    HW226153   2.946   2.584   6.364
 8238SOL     OW26154   3.651   2.431   5.800
 8238SOL    HW126155   3.615   2.442   5.712
 8238SOL    HW226156   3.595   2.365   5.841
 8239SOL     OW26157   2.597   3.003   6.630
 8239SOL    HW126158   2.533   3.049   6.685
 8239SOL    HW226159   2.652   3.073   6.594
 8240SOL     OW26160   2.738   2.633   7.398
 8240SOL    HW126161   2.774   2.695   7.461
 8240SOL    HW226162   2.752   2.675   7.313
 8241SOL     OW26163   2.543   2.850   6.236
 8241SOL    HW126164   2.612   2.847   6.302
 8241SOL    HW226165   2.482   2.916   6.268
 8242SOL     OW26166   2.565   3.003   7.406
 8242SOL    HW126167   2.612   3.082   7.435
 8242SOL    HW226168   2.485   3.037   7.364
 8243SOL     OW26169   2.197   3.285   6.650
 8243SOL    HW126170   2.130   3.251   6.591
 8243SOL    HW226171   2.251   3.342   6.595
 8244SOL     OW26172   2.302   2.266   7.063
 8244SOL    HW126173   2.384   2.216   7.068
 8244SOL    HW226174   2.233   2.201   7.080
 8245SOL     OW26175   3.469   2.307   6.334
 8245SOL    HW126176   3.427   2.347   6.258
 8245SOL    HW226177   3.459   2.372   6.404
 8246SOL     OW26178   2.089   3.574   6.050
 8246SOL    HW126179   2.106   3.645   6.111
 8246SOL    HW226180   2.170   3.567   5.998
 8247SOL     OW26181   2.995   3.199   7.282
 8247SOL    HW126182   3.050   3.206   7.360
 8247SOL    HW226183   2.955   3.112   7.288
 8248SOL     OW26184   2.063   3.309   6.116
 8248SOL    HW126185   2.075   3.402   6.099
 8248SOL    HW226186   2.043   3.303   6.209
 8249SOL     OW26187   2.112   2.948   6.457
 8249SOL    HW126188   2.122   2.862   6.499
 8249SOL    HW226189   2.064   3.000   6.521
 8250SOL     OW26190   2.442   3.668   6.967
 8250SOL    HW126191   2.388   3.664   7.046
 8250SOL    HW226192   2.524   3.708   6.997
 8251SOL     OW26193   2.430   2.856   5.730
 8251SOL    HW126194   2.483   2.896   5.661
 8251SOL    HW226195   2.474   2.881   5.812
 8252SOL     OW26196   3.454   1.988   7.053
 8252SOL    HW126197   3.493   2.069   7.021
 8252SOL    HW226198   3.433   2.006   7.144
 8253SOL     OW26199   1.971   2.521   6.147
 8253SOL    HW126200   1.953   2.431   6.172
 8253SOL    HW226201   1.967   2.570   6.229
 8254SOL     OW26202   1.889   3.459   5.706
 8254SOL    HW126203   1.884   3.366   5.727
 8254SOL    HW226204   1.875   3.503   5.790
 8255SOL     OW26205   3.536   2.755   6.201
 8255SOL    HW126206   3.632   2.747   6.203
 8255SOL    HW226207   3.520   2.832   6.146
 8256SOL     OW26208   3.495   2.987   6.046
 8256SOL    HW126209   3.584   2.975   6.012
 8256SOL    HW226210   3.502   3.058   6.109
 8257SOL     OW26211   2.010   2.614   7.167
 8257SOL    HW126212   2.104   2.633   7.173
 8257SOL    HW226213   1.967   2.694   7.197
 8258SOL     OW26214   2.472   3.259   6.311
 8258SOL    HW126215   2.435   3.171   6.321
 8258SOL    HW226216   2.455   3.282   6.220
 8259SOL     OW26217   3.130   3.012   7.057
 8259SOL    HW126218   3.157   3.043   6.970
 8259SOL    HW226219   3.194   3.052   7.117
 8260SOL     OW26220   2.683   1.861   6.104
 8260SOL    HW126221   2.726   1.942   6.078
 8260SOL    HW226222   2.590   1.883   6.106
 8261SOL     OW26223   2.113   2.799   6.843
 8261SOL    HW126224   2.119   2.875   6.785
 8261SOL    HW226225   2.026   2.762   6.826
 8262SOL     OW26226   3.394   2.864   5.804
 8262SOL    HW126227   3.338   2.798   5.844
 8262SOL    HW226228   3.434   2.910   5.879
 8263SOL     OW26229   2.979   3.672   7.180
 8263SOL    HW126230   3.032   3.737   7.134
 8263SOL    HW226231   3.022   3.589   7.161
 8264SOL     OW26232   2.211   2.107   7.428
 8264SOL    HW126233   2.256   2.186   7.455
 8264SOL    HW226234   2.118   2.127   7.440
 8265SOL     OW26235   2.459   2.569   5.856
 8265SOL    HW126236   2.481   2.653   5.816
 8265SOL    HW226237   2.395   2.591   5.924
 8266SOL     OW26238   3.146   2.232   6.528
 8266SOL    HW126239   3.058   2.197   6.534
 8266SOL    HW226240   3.198   2.178   6.589
 8267SOL     OW26241   2.626   2.478   7.030
 8267SOL    HW126242   2.608   2.453   7.120
 8267SOL    HW226243   2.587   2.408   6.977
 8268SOL     OW26244   3.261   2.313   7.275
 8268SOL    HW126245   3.251   2.360   7.358
 8268SOL    HW226246   3.344   2.345   7.240
 8269SOL     OW26247   2.795   2.745   7.154
 8269SOL    HW126248   2.860   2.683   7.121
 8269SOL    HW226249   2.775   2.801   7.078
 8270SOL     OW26250   2.863   2.276   6.821
 8270SOL    HW126251   2.800   2.344   6.845
 8270SOL    HW226252   2.841   2.253   6.731
 8271SOL     OW26253   2.908   2.553   6.014
 8271SOL    HW126254   2.933   2.555   6.106
 8271SOL    HW226255   2.826   2.504   6.012
 8272SOL     OW26256   1.943   2.678   6.370
 8272SOL    HW126257   2.027   2.682   6.417
 8272SOL    HW226258   1.891   2.749   6.407
 8273SOL     OW26259   1.964   3.692   7.155
 8273SOL    HW126260   1.962   3.683   7.250
 8273SOL    HW226261   1.978   3.786   7.140
 8274SOL     OW26262   2.757   2.200   5.751
 8274SOL    HW126263   2.795   2.276   5.707
 8274SOL    HW226264   2.823   2.131   5.741
 8275SOL     OW26265   3.556   2.466   7.435
 8275SOL    HW126266   3.543   2.560   7.423
 8275SOL    HW226267   3.578   2.434   7.347
 8276SOL     OW26268   3.221   2.977   6.084
 8276SOL    HW126269   3.315   2.987   6.066
 8276SOL    HW226270   3.182   3.060   6.057
 8277SOL     OW26271   2.407   2.027   6.484
 8277SOL    HW126272   2.413   2.057   6.575
 8277SOL    HW226273   2.419   2.107   6.433
 8278SOL     OW26274   2.855   3.291   6.058
 8278SOL    HW126275   2.823   3.369   6.013
 8278SOL    HW226276   2.853   3.314   6.151
 8279SOL     OW26277   2.214   3.683   6.472
 8279SOL    HW126278   2.270   3.605   6.475
 8279SOL    HW226279   2.275   3.756   6.480
 8280SOL     OW26280   3.627   2.886   6.479
 8280SOL    HW126281   3.660   2.922   6.397
 8280SOL    HW226282   3.609   2.963   6.533
 8281SOL     OW26283   3.065   3.424   7.107
 8281SOL    HW126284   3.083   3.341   7.150
 8281SOL    HW226285   3.138   3.436   7.045
 8282SOL     OW26286   2.175   2.829   5.843
 8282SOL    HW126287   2.261   2.851   5.807
 8282SOL    HW226288   2.152   2.746   5.800
 8283SOL     OW26289   3.337   2.609   6.303
 8283SOL    HW126290   3.351   2.574   6.391
 8283SOL    HW226291   3.415   2.662   6.285
 8284SOL     OW26292   2.326   3.112   7.336
 8284SOL    HW126293   2.308   3.122   7.242
 8284SOL    HW226294   2.240   3.123   7.377
 8285SOL     OW26295   2.930   3.662   5.804
 8285SOL    HW126296   2.885   3.609   5.869
 8285SOL    HW226297   2.982   3.600   5.753
 8286SOL     OW26298   2.064   2.122   7.088
 8286SOL    HW126299   1.999   2.185   7.119
 8286SOL    HW226300   2.038   2.039   7.127
 8287SOL     OW26301   2.328   3.585   5.910
 8287SOL    HW126302   2.367   3.651   5.967
 8287SOL    HW226303   2.397   3.562   5.848
 8288SOL     OW26304   3.265   1.966   6.038
 8288SOL    HW126305   3.257   1.946   5.945
 8288SOL    HW226306   3.356   1.993   6.050
 8289SOL     OW26307   2.131   3.647   6.819
 8289SOL    HW126308   2.205   3.619   6.872
 8289SOL    HW226309   2.162   3.639   6.729
 8290SOL     OW26310   2.783   3.556   6.505
 8290SOL    HW126311   2.865   3.513   6.529
 8290SOL    HW226312   2.757   3.514   6.423
 8291SOL     OW26313   2.255   2.559   6.054
 8291SOL    HW126314   2.268   2.465   6.068
 8291SOL    HW226315   2.162   2.573   6.068
 8292SOL     OW26316   3.401   2.070   7.311
 8292SOL    HW126317   3.415   2.076   7.405
 8292SOL    HW226318   3.326   2.128   7.294
 8293SOL     OW26319   2.475   1.957   5.714
 8293SOL    HW126320   2.570   1.958   5.705
 8293SOL    HW226321   2.442   1.933   5.627
 8294SOL     OW26322   2.625   2.121   7.350
 8294SOL    HW126323   2.707   2.073   7.340
 8294SOL    HW226324   2.631   2.160   7.437
 8295SOL     OW26325   2.711   3.309   6.794
 8295SOL    HW126326   2.717   3.298   6.699
 8295SOL    HW226327   2.801   3.297   6.825
 8296SOL     OW26328   3.207   2.460   7.018
 8296SOL    HW126329   3.251   2.450   7.102
 8296SOL    HW226330   3.232   2.548   6.988
 8297SOL     OW26331   2.696   3.235   6.517
 8297SOL    HW126332   2.784   3.233   6.479
 8297SOL    HW226333   2.639   3.261   6.444
 8298SOL     OW26334   2.781   2.349   6.492
 8298SOL    HW126335   2.759   2.348   6.399
 8298SOL    HW226336   2.825   2.265   6.507
 8299SOL     OW26337   2.414   1.922   6.082
 8299SOL    HW126338   2.336   1.923   6.137
 8299SOL    HW226339   2.408   2.002   6.029
 8300SOL     OW26340   3.236   3.002   5.615
 8300SOL    HW126341   3.289   2.963   5.684
 8300SOL    HW226342   3.176   3.061   5.661
 8301SOL     OW26343   2.158   1.904   5.773
 8301SOL    HW126344   2.219   1.969   5.738
 8301SOL    HW226345   2.214   1.840   5.816
 8302SOL     OW26346   2.801   2.103   6.039
 8302SOL    HW126347   2.772   2.152   5.962
 8302SOL    HW226348   2.895   2.121   6.045
 8303SOL     OW26349   2.947   2.544   7.041
 8303SOL    HW126350   2.909   2.459   7.065
 8303SOL    HW226351   3.041   2.528   7.039
 8304SOL     OW26352   2.332   3.014   6.305
 8304SOL    HW126353   2.263   2.996   6.370
 8304SOL    HW226354   2.288   3.004   6.221
 8305SOL     OW26355   2.882   2.399   5.614
 8305SOL    HW126356   2.848   2.485   5.590
 8305SOL    HW226357   2.952   2.418   5.677
 8306SOL     OW26358   1.968   2.425   6.972
 8306SOL    HW126359   2.061   2.426   6.950
 8306SOL    HW226360   1.958   2.493   7.039
 8307SOL     OW26361   2.416   2.079   6.754
 8307SOL    HW126362   2.465   2.023   6.815
 8307SOL    HW226363   2.326   2.076   6.786
 8308SOL     OW26364   2.714   2.306   6.228
 8308SOL    HW126365   2.682   2.366   6.161
 8308SOL    HW226366   2.750   2.232   6.179
 8309SOL     OW26367   2.884   1.917   6.335
 8309SOL    HW126368   2.826   1.917   6.258
 8309SOL    HW226369   2.855   1.842   6.387
 8310SOL     OW26370   3.255   3.059   6.408
 8310SOL    HW126371   3.257   2.971   6.369
 8310SOL    HW226372   3.338   3.098   6.383
 8311SOL     OW26373   3.330   2.465   6.542
 8311SOL    HW126374   3.267   2.394   6.553
 8311SOL    HW226375   3.385   2.461   6.621
 8312SOL     OW26376   3.705   2.644   5.964
 8312SOL    HW126377   3.767   2.602   6.023
 8312SOL    HW226378   3.690   2.578   5.896
 8313SOL     OW26379   2.348   3.288   5.729
 8313SOL    HW126380   2.280   3.249   5.784
 8313SOL    HW226381   2.374   3.218   5.670
 8314SOL     OW26382   3.535   3.158   6.263
 8314SOL    HW126383   3.618   3.114   6.278
 8314SOL    HW226384   3.554   3.251   6.273
 8315SOL     OW26385   3.252   2.436   5.652
 8315SOL    HW126386   3.204   2.416   5.733
 8315SOL    HW226387   3.344   2.438   5.678
 8316SOL     OW26388   2.378   2.126   5.905
 8316SOL    HW126389   2.420   2.071   5.839
 8316SOL    HW226390   2.359   2.208   5.860
 8317SOL     OW26391   2.945   3.208   6.899
 8317SOL    HW126392   2.943   3.184   6.992
 8317SOL    HW226393   3.035   3.237   6.884
 8318SOL     OW26394   3.454   3.464   7.222
 8318SOL    HW126395   3.430   3.508   7.140
 8318SOL    HW226396   3.536   3.420   7.202
 8319SOL     OW26397   2.930   3.037   6.686
 8319SOL    HW126398   2.937   3.094   6.763
 8319SOL    HW226399   2.957   3.092   6.612
 8320SOL     OW26400   2.784   1.948   6.977
 8320SOL    HW126401   2.805   1.935   6.884
 8320SOL    HW226402   2.861   1.992   7.013
 8321SOL     OW26403   2.839   2.970   7.318
 8321SOL    HW126404   2.746   2.989   7.328
 8321SOL    HW226405   2.842   2.902   7.251
 8322SOL     OW26406   2.565   2.910   5.963
 8322SOL    HW126407   2.558   2.895   6.057
 8322SOL    HW226408   2.642   2.859   5.936
 8323SOL     OW26409   3.128   2.233   6.881
 8323SOL    HW126410   3.163   2.313   6.921
 8323SOL    HW226411   3.039   2.256   6.856
 8324SOL     OW26412   1.953   3.431   6.936
 8324SOL    HW126413   1.949   3.524   6.915
 8324SOL    HW226414   2.047   3.411   6.935
 8325SOL     OW26415   2.188   2.988   6.072
 8325SOL    HW126416   2.212   3.064   6.020
 8325SOL    HW226417   2.189   2.915   6.010
 8326SOL     OW26418   2.406   2.405   6.456
 8326SOL    HW126419   2.412   2.459   6.378
 8326SOL    HW226420   2.481   2.432   6.510
 8327SOL     OW26421   3.115   3.217   5.995
 8327SOL    HW126422   3.166   3.296   6.015
 8327SOL    HW226423   3.026   3.239   6.021
 8328SOL     OW26424   3.457   2.481   6.075
 8328SOL    HW126425   3.396   2.533   6.127
 8328SOL    HW226426   3.521   2.544   6.043
 8329SOL     OW26427   2.213   3.357   6.909
 8329SOL    HW126428   2.200   3.333   6.818
 8329SOL    HW226429   2.304   3.384   6.914
 8330SOL     OW26430   2.303   2.609   7.187
 8330SOL    HW126431   2.365   2.662   7.137
 8330SOL    HW226432   2.355   2.536   7.220
 8331SOL     OW26433   3.420   2.579   7.200
 8331SOL    HW126434   3.358   2.646   7.229
 8331SOL    HW226435   3.496   2.628   7.170
 8332SOL     OW26436   2.864   1.996   7.346
 8332SOL    HW126437   2.918   2.072   7.327
 8332SOL    HW226438   2.915   1.922   7.312
 8333SOL     OW26439   2.357   1.887   7.339
 8333SOL    HW126440   2.308   1.843   7.271
 8333SOL    HW226441   2.309   1.969   7.354
 8334SOL     OW26442   2.426   2.778   6.658
 8334SOL    HW126443   2.484   2.747   6.589
 8334SOL    HW226444   2.455   2.867   6.677
 8335SOL     OW26445   3.188   2.704   6.600
 8335SOL    HW126446   3.158   2.730   6.513
 8335SOL    HW226447   3.244   2.628   6.584
 8336SOL     OW26448   3.054   2.381   5.846
 8336SOL    HW126449   3.066   2.311   5.910
 8336SOL    HW226450   3.029   2.457   5.899
 8337SOL     OW26451   2.152   2.055   6.833
 8337SOL    HW126452   2.120   2.087   6.917
 8337SOL    HW226453   2.134   1.961   6.834
 8338SOL     OW26454   1.875   3.176   6.872
 8338SOL    HW126455   1.919   3.121   6.937
 8338SOL    HW226456   1.903   3.265   6.894
 8339SOL     OW26457   2.602   2.492   6.635
 8339SOL    HW126458   2.666   2.446   6.580
 8339SOL    HW226459   2.652   2.563   6.675
 8340SOL     OW26460   3.532   2.746   7.446
 8340SOL    HW126461   3.559   2.813   7.384
 8340SOL    HW226462   3.500   2.795   7.522
 8341SOL     OW26463   2.170   1.915   6.215
 8341SOL    HW126464   2.147   2.007   6.233
 8341SOL    HW226465   2.181   1.876   6.302
 8342SOL     OW26466   3.472   2.243   5.943
 8342SOL    HW126467   3.511   2.185   6.008
 8342SOL    HW226468   3.457   2.325   5.991
 8343SOL     OW26469   2.878   2.610   6.532
 8343SOL    HW126470   2.893   2.631   6.624
 8343SOL    HW226471   2.862   2.516   6.530
 8344SOL     OW26472   2.794   3.387   7.269
 8344SOL    HW126473   2.803   3.438   7.189
 8344SOL    HW226474   2.875   3.335   7.274
 8345SOL     OW26475   2.211   2.771   7.401
 8345SOL    HW126476   2.282   2.810   7.452
 8345SOL    HW226477   2.255   2.718   7.334
 8346SOL     OW26478   3.394   2.116   5.713
 8346SOL    HW126479   3.324   2.061   5.748
 8346SOL    HW226480   3.424   2.168   5.788
 8347SOL     OW26481   3.134   2.679   5.613
 8347SOL    HW126482   3.182   2.596   5.618
 8347SOL    HW226483   3.162   2.718   5.530
 8348SOL     OW26484   2.950   3.200   6.419
 8348SOL    HW126485   2.937   3.121   6.367
 8348SOL    HW226486   3.045   3.212   6.422
 8349SOL     OW26487   2.167   2.681   6.550
 8349SOL    HW126488   2.259   2.706   6.540
 8349SOL    HW226489   2.169   2.586   6.560
 8350SOL     OW26490   2.184   2.400   6.601
 8350SOL    HW126491   2.148   2.312   6.590
 8350SOL    HW226492   2.262   2.402   6.547
 8351SOL     OW26493   2.996   2.232   7.282
 8351SOL    HW126494   2.954   2.294   7.341
 8351SOL    HW226495   3.086   2.263   7.275
 8352SOL     OW26496   3.022   2.057   7.067
 8352SOL    HW126497   3.012   2.121   7.137
 8352SOL    HW226498   3.069   2.103   6.998
 8353SOL     OW26499   1.860   3.182   5.782
 8353SOL    HW126500   1.771   3.199   5.749
 8353SOL    HW226501   1.856   3.093   5.817
 8354SOL     OW26502   1.945   3.647   6.518
 8354SOL    HW126503   1.927   3.565   6.471
 8354SOL    HW226504   2.039   3.662   6.503
 8355SOL     OW26505   2.353   3.435   6.488
 8355SOL    HW126506   2.420   3.500   6.512
 8355SOL    HW226507   2.398   3.376   6.428
 8356SOL     OW26508   2.816   2.625   6.805
 8356SOL    HW126509   2.889   2.603   6.863
 8356SOL    HW226510   2.767   2.692   6.853
 8357SOL     OW26511   1.898   2.410   6.704
 8357SOL    HW126512   1.977   2.413   6.650
 8357SOL    HW226513   1.932   2.416   6.794
 8358SOL     OW26514   2.057   2.388   7.315
 8358SOL    HW126515   2.137   2.363   7.269
 8358SOL    HW226516   2.025   2.465   7.268
 8359SOL     OW26517   3.253   2.800   7.239
 8359SOL    HW126518   3.290   2.887   7.251
 8359SOL    HW226519   3.226   2.797   7.148
 8360SOL     OW26520   2.670   2.412   5.961
 8360SOL    HW126521   2.683   2.356   5.885
 8360SOL    HW226522   2.604   2.476   5.933
 8361SOL     OW26523   3.495   2.443   6.754
 8361SOL    HW126524   3.490   2.424   6.847
 8361SOL    HW226525   3.585   2.423   6.730
 8362SOL     OW26526   2.082   3.399   7.315
 8362SOL    HW126527   2.115   3.469   7.371
 8362SOL    HW226528   2.104   3.318   7.361
 8363SOL     OW26529   2.519   2.323   6.834
 8363SOL    HW126530   2.491   2.241   6.794
 8363SOL    HW226531   2.544   2.378   6.760
 8364SOL     OW26532   2.759   3.560   7.057
 8364SOL    HW126533   2.779   3.565   6.963
 8364SOL    HW226534   2.827   3.614   7.098
 8365SOL     OW26535   2.320   2.349   5.759
 8365SOL    HW126536   2.381   2.418   5.784
 8365SOL    HW226537   2.234   2.392   5.756
 8366SOL     OW26538   1.987   2.986   7.054
 8366SOL    HW126539   1.991   2.950   7.142
 8366SOL    HW226540   2.047   2.931   7.003
 8367SOL     OW26541   3.185   2.903   6.787
 8367SOL    HW126542   3.189   2.839   6.716
 8367SOL    HW226543   3.130   2.974   6.752
 8368SOL     OW26544   3.189   2.688   5.885
 8368SOL    HW126545   3.120   2.733   5.935
 8368SOL    HW226546   3.162   2.696   5.794
 8369SOL     OW26547   1.957   3.090   6.623
 8369SOL    HW126548   1.931   3.132   6.706
 8369SOL    HW226549   1.874   3.074   6.578
 8370SOL     OW26550   2.560   3.536   7.329
 8370SOL    HW126551   2.543   3.625   7.300
 8370SOL    HW226552   2.649   3.517   7.298
 8371SOL     OW26553   3.587   2.025   6.088
 8371SOL    HW126554   3.654   2.013   6.020
 8371SOL    HW226555   3.575   1.938   6.126
 8372SOL     OW26556   3.249   3.454   6.051
 8372SOL    HW126557   3.316   3.482   5.989
 8372SOL    HW226558   3.238   3.529   6.110
 8373SOL     OW26559   1.981   3.673   7.430
 8373SOL    HW126560   1.941   3.597   7.474
 8373SOL    HW226561   2.045   3.706   7.493
 8374SOL     OW26562   3.139   2.789   6.255
 8374SOL    HW126563   3.215   2.732   6.262
 8374SOL    HW226564   3.164   2.856   6.192
 8375SOL     OW26565   2.636   3.124   7.001
 8375SOL    HW126566   2.596   3.175   7.072
 8375SOL    HW226567   2.679   3.189   6.946
 8376SOL     OW26568   2.525   3.491   5.743
 8376SOL    HW126569   2.547   3.507   5.651
 8376SOL    HW226570   2.472   3.411   5.741
 8377SOL     OW26571   3.700   2.027   6.549
 8377SOL    HW126572   3.728   1.940   6.519
 8377SOL    HW226573   3.615   2.041   6.509
 8378SOL     OW26574   2.116   2.166   6.303
 8378SOL    HW126575   2.032   2.205   6.280
 8378SOL    HW226576   2.118   2.168   6.398
 8379SOL     OW26577   3.019   3.448   5.645
 8379SOL    HW126578   3.111   3.442   5.617
 8379SOL    HW226579   2.970   3.465   5.564
 8380SOL     OW26580   2.706   2.877   6.923
 8380SOL    HW126581   2.767   2.901   6.853
 8380SOL    HW226582   2.677   2.960   6.959
 8381SOL     OW26583   2.767   2.754   5.883
 8381SOL    HW126584   2.819   2.788   5.810
 8381SOL    HW226585   2.826   2.695   5.929
 8382SOL     OW26586   2.221   3.144   7.089
 8382SOL    HW126587   2.242   3.221   7.036
 8382SOL    HW226588   2.130   3.123   7.066
 8383SOL     OW26589   2.910   2.961   6.296
 8383SOL    HW126590   2.847   2.901   6.338
 8383SOL    HW226591   2.987   2.907   6.279
 8384SOL     OW26592   2.893   2.102   6.548
 8384SOL    HW126593   2.896   2.051   6.467
 8384SOL    HW226594   2.886   2.036   6.618
 8385SOL     OW26595   2.443   3.331   6.053
 8385SOL    HW126596   2.508   3.286   5.998
 8385SOL    HW226597   2.412   3.403   5.998
 8386SOL     OW26598   3.596   2.235   6.987
 8386SOL    HW126599   3.660   2.307   6.980
 8386SOL    HW226600   3.622   2.173   6.919
 8387SOL     OW26601   2.117   3.203   5.871
 8387SOL    HW126602   2.024   3.202   5.849
 8387SOL    HW226603   2.121   3.243   5.957
 8388SOL     OW26604   1.971   2.863   7.298
 8388SOL    HW126605   1.900   2.856   7.362
 8388SOL    HW226606   2.051   2.845   7.348
 8389SOL     OW26607   2.539   2.047   7.087
 8389SOL    HW126608   2.626   2.031   7.049
 8389SOL    HW226609   2.558   2.076   7.176
 8390SOL     OW26610   1.943   2.188   5.605
 8390SOL    HW126611   1.866   2.177   5.550
 8390SOL    HW226612   1.983   2.269   5.574
 8391SOL     OW26613   3.269   2.716   6.962
 8391SOL    HW126614   3.226   2.789   6.918
 8391SOL    HW226615   3.362   2.727   6.941
 8392SOL     OW26616   1.921   2.012   5.875
 8392SOL    HW126617   1.910   2.088   5.819
 8392SOL    HW226618   2.009   1.980   5.855
 8393SOL     OW26619   3.055   3.178   5.728
 8393SOL    HW126620   3.030   3.268   5.708
 8393SOL    HW226621   3.079   3.179   5.821
 8394SOL     OW26622   2.490   2.707   6.995
 8394SOL    HW126623   2.549   2.782   6.986
 8394SOL    HW226624   2.548   2.633   7.012
 8395SOL     OW26625   2.565   2.441   7.293
 8395SOL    HW126626   2.615   2.512   7.336
 8395SOL    HW226627   2.602   2.361   7.329
 8396SOL     OW26628   3.362   3.058   7.218
 8396SOL    HW126629   3.345   3.077   7.311
 8396SOL    HW226630   3.435   3.116   7.196
 8397SOL     OW26631   2.230   3.604   7.149
 8397SOL    HW126632   2.137   3.624   7.141
 8397SOL    HW226633   2.232   3.510   7.166
 8398SOL     OW26634   3.522   2.733   6.846
 8398SOL    HW126635   3.522   2.660   6.784
 8398SOL    HW226636   3.547   2.809   6.793
 8399SOL     OW26637   3.068   2.171   6.044
 8399SOL    HW126638   3.137   2.105   6.041
 8399SOL    HW226639   3.091   2.226   6.120
 8400SOL     OW26640   2.423   2.604   6.271
 8400SOL    HW126641   2.475   2.683   6.256
 8400SOL    HW226642   2.370   2.596   6.191
 8401SOL     OW26643   3.643   2.201   7.259
 8401SOL    HW126644   3.630   2.222   7.166
 8401SOL    HW226645   3.563   2.154   7.285
 8402SOL     OW26646   3.612   2.751   7.106
 8402SOL    HW126647   3.662   2.830   7.126
 8402SOL    HW226648   3.580   2.765   7.017
 8403SOL     OW26649   2.674   3.242   5.615
 8403SOL    HW126650   2.693   3.257   5.708
 8403SOL    HW226651   2.735   3.298   5.568
 8404SOL     OW26652   2.519   3.642   6.521
 8404SOL    HW126653   2.514   3.737   6.515
 8404SOL    HW226654   2.613   3.623   6.532
 8405SOL     OW26655   2.714   2.819   6.450
 8405SOL    HW126656   2.777   2.756   6.485
 8405SOL    HW226657   2.700   2.882   6.521
 8406SOL     OW26658   2.909   2.821   5.665
 8406SOL    HW126659   2.905   2.900   5.611
 8406SOL    HW226660   2.994   2.782   5.646
 8407SOL     OW26661   2.086   3.155   7.454
 8407SOL    HW126662   1.996   3.122   7.456
 8407SOL    HW226663   2.108   3.170   7.546
 8408SOL     OW26664   1.946   3.055   6.251
 8408SOL    HW126665   1.999   3.015   6.320
 8408SOL    HW226666   2.007   3.065   6.178
 8409SOL     OW26667   2.511   3.276   7.191
 8409SOL    HW126668   2.468   3.245   7.271
 8409SOL    HW226669   2.557   3.356   7.218
 8410SOL     OW26670   3.660   2.035   6.818
 8410SOL    HW126671   3.675   1.940   6.826
 8410SOL    HW226672   3.677   2.054   6.726
 8411SOL     OW26673   2.273   2.296   6.108
 8411SOL    HW126674   2.315   2.230   6.052
 8411SOL    HW226675   2.233   2.245   6.179
 8412SOL     OW26676   2.232   2.459   6.874
 8412SOL    HW126677   2.273   2.396   6.933
 8412SOL    HW226678   2.230   2.415   6.790
 8413SOL     OW26679   2.693   3.457   6.261
 8413SOL    HW126680   2.686   3.514   6.185
 8413SOL    HW226681   2.616   3.400   6.256
 8414SOL     OW26682   3.294   2.093   6.715
 8414SOL    HW126683   3.359   2.049   6.770
 8414SOL    HW226684   3.239   2.142   6.776
 8415SOL     OW26685   2.868   1.873   6.715
 8415SOL    HW126686   2.820   1.811   6.660
 8415SOL    HW226687   2.957   1.838   6.717
 8416SOL     OW26688   2.634   3.187   5.918
 8416SOL    HW126689   2.622   3.092   5.927
 8416SOL    HW226690   2.718   3.204   5.960
 8417SOL     OW26691   2.470   3.414   6.866
 8417SOL    HW126692   2.478   3.505   6.896
 8417SOL    HW226693   2.560   3.387   6.846
 8418SOL     OW26694   3.213   1.915   5.774
 8418SOL    HW126695   3.244   1.864   5.699
 8418SOL    HW226696   3.126   1.881   5.792
 8419SOL     OW26697   3.129   2.318   6.262
 8419SOL    HW126698   3.096   2.408   6.266
 8419SOL    HW226699   3.148   2.295   6.352
 8420SOL     OW26700   3.438   2.056   6.470
 8420SOL    HW126701   3.386   2.086   6.545
 8420SOL    HW226702   3.442   2.132   6.412
 8421SOL     OW26703   1.897   2.928   5.895
 8421SOL    HW126704   1.992   2.928   5.883
 8421SOL    HW226705   1.875   2.836   5.912
 8422SOL     OW26706   2.731   3.501   5.937
 8422SOL    HW126707   2.669   3.494   5.864
 8422SOL    HW226708   2.707   3.582   5.982
 8423SOL     OW26709   2.077   2.472   7.585
 8423SOL    HW126710   1.986   2.483   7.614
 8423SOL    HW226711   2.070   2.466   7.489
 8424SOL     OW26712   2.084   2.149   8.444
 8424SOL    HW126713   2.113   2.113   8.527
 8424SOL    HW226714   1.994   2.116   8.434
 8425SOL     OW26715   1.862   2.244   8.091
 8425SOL    HW126716   1.780   2.270   8.133
 8425SOL    HW226717   1.837   2.171   8.034
 8426SOL     OW26718   2.417   3.159   8.630
 8426SOL    HW126719   2.341   3.185   8.578
 8426SOL    HW226720   2.451   3.242   8.666
 8427SOL     OW26721   2.989   2.560   8.149
 8427SOL    HW126722   3.043   2.636   8.127
 8427SOL    HW226723   2.946   2.583   8.231
 8428SOL     OW26724   3.660   2.438   7.679
 8428SOL    HW126725   3.627   2.455   7.591
 8428SOL    HW226726   3.598   2.374   7.715
 8429SOL     OW26727   2.591   2.992   8.497
 8429SOL    HW126728   2.529   3.037   8.554
 8429SOL    HW226729   2.637   3.063   8.451
 8430SOL     OW26730   2.737   2.625   9.266
 8430SOL    HW126731   2.758   2.693   9.330
 8430SOL    HW226732   2.755   2.666   9.181
 8431SOL     OW26733   2.539   2.844   8.097
 8431SOL    HW126734   2.610   2.842   8.161
 8431SOL    HW226735   2.478   2.909   8.130
 8432SOL     OW26736   2.573   3.015   9.279
 8432SOL    HW126737   2.623   3.090   9.309
 8432SOL    HW226738   2.500   3.052   9.229
 8433SOL     OW26739   2.194   3.283   8.508
 8433SOL    HW126740   2.123   3.251   8.453
 8433SOL    HW226741   2.247   3.337   8.450
 8434SOL     OW26742   3.339   3.378   8.793
 8434SOL    HW126743   3.374   3.452   8.745
 8434SOL    HW226744   3.354   3.398   8.885
 8435SOL     OW26745   2.315   2.260   8.941
 8435SOL    HW126746   2.392   2.203   8.941
 8435SOL    HW226747   2.241   2.200   8.944
 8436SOL     OW26748   3.467   2.311   8.194
 8436SOL    HW126749   3.416   2.343   8.119
 8436SOL    HW226750   3.473   2.385   8.253
 8437SOL     OW26751   2.093   3.573   7.911
 8437SOL    HW126752   2.113   3.645   7.971
 8437SOL    HW226753   2.172   3.565   7.857
 8438SOL     OW26754   3.006   3.200   9.153
 8438SOL    HW126755   3.076   3.175   9.214
 8438SOL    HW226756   2.951   3.122   9.147
 8439SOL     OW26757   2.062   3.309   7.972
 8439SOL    HW126758   2.078   3.402   7.956
 8439SOL    HW226759   2.056   3.302   8.068
 8440SOL     OW26760   2.112   2.952   8.323
 8440SOL    HW126761   2.130   2.867   8.362
 8440SOL    HW226762   2.074   3.004   8.394
 8441SOL     OW26763   2.430   3.677   8.843
 8441SOL    HW126764   2.366   3.651   8.909
 8441SOL    HW226765   2.475   3.752   8.881
 8442SOL     OW26766   2.424   2.856   7.589
 8442SOL    HW126767   2.478   2.897   7.521
 8442SOL    HW226768   2.469   2.877   7.671
 8443SOL     OW26769   3.458   1.986   8.916
 8443SOL    HW126770   3.498   2.060   8.872
 8443SOL    HW226771   3.437   2.018   9.004
 8444SOL     OW26772   1.970   2.524   8.011
 8444SOL    HW126773   1.956   2.433   8.036
 8444SOL    HW226774   1.969   2.572   8.095
 8445SOL     OW26775   3.708   3.619   7.796
 8445SOL    HW126776   3.785   3.589   7.845
 8445SOL    HW226777   3.730   3.707   7.767
 8446SOL     OW26778   1.878   3.462   7.577
 8446SOL    HW126779   1.882   3.368   7.592
 8446SOL    HW226780   1.878   3.500   7.665
 8447SOL     OW26781   3.527   2.762   8.040
 8447SOL    HW126782   3.623   2.761   8.043
 8447SOL    HW226783   3.505   2.842   7.992
 8448SOL     OW26784   3.510   2.991   7.893
 8448SOL    HW126785   3.596   3.000   7.853
 8448SOL    HW226786   3.497   3.072   7.942
 8449SOL     OW26787   1.997   2.609   9.034
 8449SOL    HW126788   2.088   2.637   9.031
 8449SOL    HW226789   1.947   2.691   9.039
 8450SOL     OW26790   2.462   3.253   8.189
 8450SOL    HW126791   2.427   3.164   8.187
 8450SOL    HW226792   2.455   3.284   8.099
 8451SOL     OW26793   3.141   3.095   8.878
 8451SOL    HW126794   3.167   3.030   8.813
 8451SOL    HW226795   3.210   3.091   8.945
 8452SOL     OW26796   2.683   1.860   7.969
 8452SOL    HW126797   2.726   1.940   7.940
 8452SOL    HW226798   2.590   1.882   7.970
 8453SOL     OW26799   2.040   2.821   8.725
 8453SOL    HW126800   2.129   2.786   8.723
 8453SOL    HW226801   1.999   2.787   8.645
 8454SOL     OW26802   3.388   2.869   7.672
 8454SOL    HW126803   3.347   2.802   7.727
 8454SOL    HW226804   3.435   2.925   7.733
 8455SOL     OW26805   3.023   3.659   9.057
 8455SOL    HW126806   3.038   3.711   8.978
 8455SOL    HW226807   3.038   3.568   9.030
 8456SOL     OW26808   2.207   2.102   9.292
 8456SOL    HW126809   2.253   2.185   9.303
 8456SOL    HW226810   2.114   2.124   9.303
 8457SOL     OW26811   2.460   2.568   7.718
 8457SOL    HW126812   2.484   2.651   7.677
 8457SOL    HW226813   2.396   2.592   7.785
 8458SOL     OW26814   3.149   2.235   8.391
 8458SOL    HW126815   3.060   2.202   8.392
 8458SOL    HW226816   3.197   2.178   8.451
 8459SOL     OW26817   3.482   3.461   7.727
 8459SOL    HW126818   3.554   3.512   7.763
 8459SOL    HW226819   3.440   3.519   7.663
 8460SOL     OW26820   2.649   2.481   8.888
 8460SOL    HW126821   2.621   2.455   8.976
 8460SOL    HW226822   2.613   2.413   8.831
 8461SOL     OW26823   3.247   2.336   9.125
 8461SOL    HW126824   3.250   2.385   9.207
 8461SOL    HW226825   3.330   2.288   9.122
 8462SOL     OW26826   2.803   2.748   9.031
 8462SOL    HW126827   2.862   2.680   8.997
 8462SOL    HW226828   2.766   2.789   8.953
 8463SOL     OW26829   2.852   2.264   8.680
 8463SOL    HW126830   2.762   2.291   8.702
 8463SOL    HW226831   2.852   2.257   8.584
 8464SOL     OW26832   2.896   2.555   7.887
 8464SOL    HW126833   2.924   2.552   7.978
 8464SOL    HW226834   2.818   2.499   7.883
 8465SOL     OW26835   1.947   2.683   8.236
 8465SOL    HW126836   2.034   2.680   8.277
 8465SOL    HW226837   1.905   2.760   8.273
 8466SOL     OW26838   1.975   3.735   9.037
 8466SOL    HW126839   1.984   3.715   9.130
 8466SOL    HW226840   1.896   3.688   9.010
 8467SOL     OW26841   2.757   2.199   7.610
 8467SOL    HW126842   2.795   2.277   7.568
 8467SOL    HW226843   2.824   2.132   7.600
 8468SOL     OW26844   3.550   2.430   9.282
 8468SOL    HW126845   3.520   2.505   9.230
 8468SOL    HW226846   3.595   2.373   9.218
 8469SOL     OW26847   3.221   3.003   7.998
 8469SOL    HW126848   3.301   3.053   8.016
 8469SOL    HW226849   3.172   3.057   7.937
 8470SOL     OW26850   2.408   2.030   8.347
 8470SOL    HW126851   2.414   2.065   8.436
 8470SOL    HW226852   2.418   2.107   8.291
 8471SOL     OW26853   2.850   3.306   7.919
 8471SOL    HW126854   2.803   3.376   7.874
 8471SOL    HW226855   2.903   3.351   7.985
 8472SOL     OW26856   2.215   3.682   8.338
 8472SOL    HW126857   2.268   3.602   8.336
 8472SOL    HW226858   2.279   3.753   8.343
 8473SOL     OW26859   3.624   2.834   8.320
 8473SOL    HW126860   3.646   2.896   8.251
 8473SOL    HW226861   3.557   2.878   8.372
 8474SOL     OW26862   3.063   3.404   8.959
 8474SOL    HW126863   3.069   3.322   9.008
 8474SOL    HW226864   3.103   3.385   8.875
 8475SOL     OW26865   2.172   2.827   7.706
 8475SOL    HW126866   2.256   2.853   7.670
 8475SOL    HW226867   2.152   2.743   7.664
 8476SOL     OW26868   3.348   2.605   8.164
 8476SOL    HW126869   3.362   2.587   8.257
 8476SOL    HW226870   3.418   2.665   8.140
 8477SOL     OW26871   2.326   3.128   9.194
 8477SOL    HW126872   2.305   3.132   9.101
 8477SOL    HW226873   2.241   3.130   9.238
 8478SOL     OW26874   2.065   2.141   8.940
 8478SOL    HW126875   2.009   2.219   8.938
 8478SOL    HW226876   2.028   2.087   9.010
 8479SOL     OW26877   3.479   3.221   7.540
 8479SOL    HW126878   3.456   3.313   7.552
 8479SOL    HW226879   3.400   3.181   7.504
 8480SOL     OW26880   2.328   3.586   7.770
 8480SOL    HW126881   2.374   3.651   7.824
 8480SOL    HW226882   2.392   3.559   7.704
 8481SOL     OW26883   3.265   1.964   7.899
 8481SOL    HW126884   3.254   1.945   7.806
 8481SOL    HW226885   3.353   2.001   7.906
 8482SOL     OW26886   2.115   3.642   8.670
 8482SOL    HW126887   2.181   3.591   8.717
 8482SOL    HW226888   2.139   3.633   8.578
 8483SOL     OW26889   2.794   3.554   8.368
 8483SOL    HW126890   2.879   3.509   8.379
 8483SOL    HW226891   2.760   3.520   8.286
 8484SOL     OW26892   2.254   2.559   7.915
 8484SOL    HW126893   2.265   2.465   7.928
 8484SOL    HW226894   2.161   2.575   7.930
 8485SOL     OW26895   3.393   2.086   9.168
 8485SOL    HW126896   3.404   2.099   9.263
 8485SOL    HW226897   3.301   2.062   9.158
 8486SOL     OW26898   2.479   1.952   7.579
 8486SOL    HW126899   2.573   1.964   7.563
 8486SOL    HW226900   2.443   1.930   7.494
 8487SOL     OW26901   2.625   2.129   9.202
 8487SOL    HW126902   2.708   2.082   9.201
 8487SOL    HW226903   2.610   2.149   9.295
 8488SOL     OW26904   2.722   3.352   8.652
 8488SOL    HW126905   2.718   3.332   8.558
 8488SOL    HW226906   2.803   3.312   8.682
 8489SOL     OW26907   3.196   2.453   8.874
 8489SOL    HW126908   3.230   2.430   8.961
 8489SOL    HW226909   3.233   2.540   8.857
 8490SOL     OW26910   2.684   3.233   8.387
 8490SOL    HW126911   2.771   3.231   8.348
 8490SOL    HW226912   2.626   3.258   8.316
 8491SOL     OW26913   2.784   2.353   8.355
 8491SOL    HW126914   2.758   2.353   8.263
 8491SOL    HW226915   2.825   2.267   8.369
 8492SOL     OW26916   2.415   1.923   7.946
 8492SOL    HW126917   2.335   1.923   7.997
 8492SOL    HW226918   2.410   2.001   7.891
 8493SOL     OW26919   3.273   3.041   7.479
 8493SOL    HW126920   3.311   2.985   7.548
 8493SOL    HW226921   3.193   3.076   7.518
 8494SOL     OW26922   2.156   1.905   7.635
 8494SOL    HW126923   2.207   1.971   7.588
 8494SOL    HW226924   2.221   1.848   7.675
 8495SOL     OW26925   2.801   2.101   7.901
 8495SOL    HW126926   2.770   2.151   7.826
 8495SOL    HW226927   2.894   2.121   7.906
 8496SOL     OW26928   2.943   2.541   8.927
 8496SOL    HW126929   2.884   2.473   8.894
 8496SOL    HW226930   3.031   2.510   8.906
 8497SOL     OW26931   2.330   3.011   8.169
 8497SOL    HW126932   2.260   2.991   8.231
 8497SOL    HW226933   2.289   3.001   8.083
 8498SOL     OW26934   2.882   2.401   7.477
 8498SOL    HW126935   2.849   2.488   7.454
 8498SOL    HW226936   2.950   2.418   7.542
 8499SOL     OW26937   1.958   2.405   8.856
 8499SOL    HW126938   2.046   2.411   8.820
 8499SOL    HW226939   1.951   2.481   8.914
 8500SOL     OW26940   2.415   2.087   8.619
 8500SOL    HW126941   2.462   2.025   8.675
 8500SOL    HW226942   2.324   2.080   8.646
 8501SOL     OW26943   2.714   2.304   8.092
 8501SOL    HW126944   2.676   2.364   8.028
 8501SOL    HW226945   2.750   2.232   8.040
 8502SOL     OW26946   2.885   1.919   8.198
 8502SOL    HW126947   2.828   1.926   8.121
 8502SOL    HW226948   2.852   1.843   8.245
 8503SOL     OW26949   3.316   3.019   8.300
 8503SOL    HW126950   3.256   2.992   8.230
 8503SOL    HW226951   3.377   3.079   8.258
 8504SOL     OW26952   3.331   2.475   8.417
 8504SOL    HW126953   3.272   2.399   8.416
 8504SOL    HW226954   3.388   2.460   8.493
 8505SOL     OW26955   3.729   2.661   7.826
 8505SOL    HW126956   3.788   2.615   7.887
 8505SOL    HW226957   3.704   2.594   7.762
 8506SOL     OW26958   2.344   3.287   7.583
 8506SOL    HW126959   2.284   3.244   7.644
 8506SOL    HW226960   2.377   3.216   7.528
 8507SOL     OW26961   3.254   2.439   7.510
 8507SOL    HW126962   3.205   2.427   7.591
 8507SOL    HW226963   3.344   2.456   7.539
 8508SOL     OW26964   2.380   2.125   7.767
 8508SOL    HW126965   2.421   2.069   7.701
 8508SOL    HW226966   2.361   2.207   7.721
 8509SOL     OW26967   3.591   3.131   9.061
 8509SOL    HW126968   3.665   3.084   9.024
 8509SOL    HW226969   3.624   3.220   9.074
 8510SOL     OW26970   2.906   3.188   8.776
 8510SOL    HW126971   2.841   3.162   8.842
 8510SOL    HW226972   2.990   3.166   8.816
 8511SOL     OW26973   3.402   3.461   9.048
 8511SOL    HW126974   3.433   3.550   9.032
 8511SOL    HW226975   3.376   3.462   9.140
 8512SOL     OW26976   2.983   3.061   8.547
 8512SOL    HW126977   2.948   3.118   8.615
 8512SOL    HW226978   2.965   3.108   8.465
 8513SOL     OW26979   3.434   2.927   8.533
 8513SOL    HW126980   3.427   2.995   8.600
 8513SOL    HW226981   3.384   2.961   8.459
 8514SOL     OW26982   2.784   1.945   8.838
 8514SOL    HW126983   2.803   1.932   8.745
 8514SOL    HW226984   2.862   1.991   8.871
 8515SOL     OW26985   2.843   2.977   9.176
 8515SOL    HW126986   2.751   2.997   9.194
 8515SOL    HW226987   2.840   2.902   9.117
 8516SOL     OW26988   2.556   2.895   7.823
 8516SOL    HW126989   2.551   2.883   7.918
 8516SOL    HW226990   2.636   2.849   7.797
 8517SOL     OW26991   2.276   2.690   8.715
 8517SOL    HW126992   2.352   2.699   8.773
 8517SOL    HW226993   2.251   2.598   8.723
 8518SOL     OW26994   3.119   2.227   8.741
 8518SOL    HW126995   3.155   2.309   8.776
 8518SOL    HW226996   3.031   2.249   8.713
 8519SOL     OW26997   1.950   3.431   8.800
 8519SOL    HW126998   1.939   3.510   8.748
 8519SOL    HW226999   2.044   3.415   8.800
 8520SOL     OW27000   2.189   2.988   7.935
 8520SOL    HW127001   2.216   3.063   7.882
 8520SOL    HW227002   2.189   2.914   7.875
 8521SOL     OW27003   2.402   2.388   8.308
 8521SOL    HW127004   2.412   2.446   8.233
 8521SOL    HW227005   2.472   2.414   8.368
 8522SOL     OW27006   3.087   3.183   7.847
 8522SOL    HW127007   3.149   3.256   7.846
 8522SOL    HW227008   3.003   3.223   7.866
 8523SOL     OW27009   3.134   3.327   8.607
 8523SOL    HW127010   3.214   3.335   8.659
 8523SOL    HW227011   3.138   3.239   8.570
 8524SOL     OW27012   3.458   2.481   7.932
 8524SOL    HW127013   3.399   2.531   7.990
 8524SOL    HW227014   3.519   2.546   7.898
 8525SOL     OW27015   2.213   3.373   8.762
 8525SOL    HW127016   2.203   3.339   8.673
 8525SOL    HW227017   2.306   3.393   8.770
 8526SOL     OW27018   2.292   2.604   9.056
 8526SOL    HW127019   2.347   2.655   8.997
 8526SOL    HW227020   2.345   2.527   9.078
 8527SOL     OW27021   3.459   2.631   9.127
 8527SOL    HW127022   3.378   2.681   9.123
 8527SOL    HW227023   3.517   2.674   9.064
 8528SOL     OW27024   2.864   1.999   9.219
 8528SOL    HW127025   2.917   2.075   9.195
 8528SOL    HW227026   2.912   1.924   9.184
 8529SOL     OW27027   2.355   1.886   9.204
 8529SOL    HW127028   2.307   1.841   9.134
 8529SOL    HW227029   2.305   1.966   9.219
 8530SOL     OW27030   2.443   2.746   8.482
 8530SOL    HW127031   2.493   2.827   8.474
 8530SOL    HW227032   2.396   2.756   8.565
 8531SOL     OW27033   3.190   2.705   8.483
 8531SOL    HW127034   3.177   2.751   8.400
 8531SOL    HW227035   3.242   2.628   8.462
 8532SOL     OW27036   3.056   2.388   7.704
 8532SOL    HW127037   3.063   2.323   7.774
 8532SOL    HW227038   3.055   2.472   7.749
 8533SOL     OW27039   2.153   2.050   8.695
 8533SOL    HW127040   2.119   2.084   8.778
 8533SOL    HW227041   2.132   1.957   8.697
 8534SOL     OW27042   1.871   3.177   8.723
 8534SOL    HW127043   1.917   3.119   8.784
 8534SOL    HW227044   1.900   3.265   8.747
 8535SOL     OW27045   2.572   2.493   8.496
 8535SOL    HW127046   2.656   2.484   8.451
 8535SOL    HW227047   2.547   2.584   8.483
 8536SOL     OW27048   3.600   2.801   9.335
 8536SOL    HW127049   3.562   2.778   9.250
 8536SOL    HW227050   3.525   2.825   9.389
 8537SOL     OW27051   2.170   1.913   8.077
 8537SOL    HW127052   2.147   2.005   8.092
 8537SOL    HW227053   2.181   1.876   8.164
 8538SOL     OW27054   3.465   2.238   7.813
 8538SOL    HW127055   3.511   2.185   7.878
 8538SOL    HW227056   3.451   2.322   7.856
 8539SOL     OW27057   2.866   2.611   8.396
 8539SOL    HW127058   2.877   2.628   8.490
 8539SOL    HW227059   2.854   2.517   8.390
 8540SOL     OW27060   2.820   3.405   9.147
 8540SOL    HW127061   2.808   3.456   9.067
 8540SOL    HW227062   2.887   3.340   9.125
 8541SOL     OW27063   2.209   2.766   9.268
 8541SOL    HW127064   2.288   2.802   9.310
 8541SOL    HW227065   2.243   2.710   9.198
 8542SOL     OW27066   3.402   2.108   7.578
 8542SOL    HW127067   3.326   2.058   7.610
 8542SOL    HW227068   3.426   2.164   7.652
 8543SOL     OW27069   3.150   2.695   7.469
 8543SOL    HW127070   3.196   2.611   7.464
 8543SOL    HW227071   3.187   2.746   7.397
 8544SOL     OW27072   2.944   3.198   8.302
 8544SOL    HW127073   2.932   3.119   8.250
 8544SOL    HW227074   3.021   3.240   8.265
 8545SOL     OW27075   2.177   2.682   8.396
 8545SOL    HW127076   2.270   2.704   8.395
 8545SOL    HW227077   2.174   2.590   8.423
 8546SOL     OW27078   2.183   2.398   8.461
 8546SOL    HW127079   2.149   2.310   8.449
 8546SOL    HW227080   2.261   2.402   8.405
 8547SOL     OW27081   2.997   2.229   9.146
 8547SOL    HW127082   2.948   2.292   9.200
 8547SOL    HW227083   3.082   2.270   9.132
 8548SOL     OW27084   3.022   2.054   8.932
 8548SOL    HW127085   3.010   2.120   8.999
 8548SOL    HW227086   3.065   2.100   8.860
 8549SOL     OW27087   1.857   3.183   7.649
 8549SOL    HW127088   1.768   3.200   7.618
 8549SOL    HW227089   1.853   3.093   7.682
 8550SOL     OW27090   1.946   3.648   8.384
 8550SOL    HW127091   1.924   3.566   8.341
 8550SOL    HW227092   2.038   3.663   8.363
 8551SOL     OW27093   2.356   3.441   8.356
 8551SOL    HW127094   2.426   3.502   8.378
 8551SOL    HW227095   2.396   3.379   8.295
 8552SOL     OW27096   2.837   2.629   8.669
 8552SOL    HW127097   2.914   2.645   8.723
 8552SOL    HW227098   2.766   2.615   8.732
 8553SOL     OW27099   1.904   2.409   8.571
 8553SOL    HW127100   1.979   2.415   8.511
 8553SOL    HW227101   1.943   2.414   8.658
 8554SOL     OW27102   2.069   2.387   9.175
 8554SOL    HW127103   2.147   2.367   9.123
 8554SOL    HW227104   2.030   2.462   9.132
 8555SOL     OW27105   3.241   2.795   9.101
 8555SOL    HW127106   3.266   2.887   9.098
 8555SOL    HW227107   3.238   2.768   9.009
 8556SOL     OW27108   2.664   2.405   7.825
 8556SOL    HW127109   2.683   2.355   7.746
 8556SOL    HW227110   2.601   2.471   7.798
 8557SOL     OW27111   3.502   2.432   8.624
 8557SOL    HW127112   3.502   2.392   8.711
 8557SOL    HW227113   3.591   2.422   8.593
 8558SOL     OW27114   2.087   3.408   9.169
 8558SOL    HW127115   2.085   3.472   9.241
 8558SOL    HW227116   2.104   3.324   9.213
 8559SOL     OW27117   2.562   2.311   8.696
 8559SOL    HW127118   2.511   2.238   8.661
 8559SOL    HW227119   2.561   2.377   8.626
 8560SOL     OW27120   2.744   3.553   8.925
 8560SOL    HW127121   2.762   3.508   8.843
 8560SOL    HW227122   2.757   3.646   8.905
 8561SOL     OW27123   2.319   2.348   7.622
 8561SOL    HW127124   2.381   2.417   7.646
 8561SOL    HW227125   2.234   2.391   7.619
 8562SOL     OW27126   1.983   3.003   8.917
 8562SOL    HW127127   1.997   2.960   9.001
 8562SOL    HW227128   2.005   2.936   8.852
 8563SOL     OW27129   3.149   2.891   8.679
 8563SOL    HW127130   3.177   2.830   8.611
 8563SOL    HW227131   3.091   2.952   8.634
 8564SOL     OW27132   3.166   2.663   7.744
 8564SOL    HW127133   3.120   2.733   7.790
 8564SOL    HW227134   3.163   2.690   7.652
 8565SOL     OW27135   3.101   3.591   8.545
 8565SOL    HW127136   3.177   3.606   8.488
 8565SOL    HW227137   3.109   3.499   8.571
 8566SOL     OW27138   1.931   3.141   8.449
 8566SOL    HW127139   1.911   3.145   8.543
 8566SOL    HW227140   1.881   3.066   8.417
 8567SOL     OW27141   2.549   3.533   9.191
 8567SOL    HW127142   2.500   3.614   9.180
 8567SOL    HW227143   2.627   3.544   9.137
 8568SOL     OW27144   3.593   2.023   7.956
 8568SOL    HW127145   3.655   2.012   7.884
 8568SOL    HW227146   3.579   1.935   7.989
 8569SOL     OW27147   3.241   3.400   7.844
 8569SOL    HW127148   3.333   3.395   7.818
 8569SOL    HW227149   3.217   3.492   7.831
 8570SOL     OW27150   1.994   3.664   9.296
 8570SOL    HW127151   1.951   3.592   9.341
 8570SOL    HW227152   2.050   3.704   9.362
 8571SOL     OW27153   3.141   2.778   8.112
 8571SOL    HW127154   3.219   2.723   8.120
 8571SOL    HW227155   3.171   2.855   8.064
 8572SOL     OW27156   2.656   3.130   8.884
 8572SOL    HW127157   2.619   3.174   8.960
 8572SOL    HW227158   2.634   3.187   8.810
 8573SOL     OW27159   2.522   3.493   7.600
 8573SOL    HW127160   2.545   3.512   7.509
 8573SOL    HW227161   2.473   3.411   7.596
 8574SOL     OW27162   3.696   2.027   8.418
 8574SOL    HW127163   3.726   1.944   8.381
 8574SOL    HW227164   3.613   2.045   8.374
 8575SOL     OW27165   2.117   2.163   8.164
 8575SOL    HW127166   2.033   2.203   8.141
 8575SOL    HW227167   2.120   2.168   8.259
 8576SOL     OW27168   3.046   3.417   7.498
 8576SOL    HW127169   3.141   3.433   7.500
 8576SOL    HW227170   3.011   3.493   7.452
 8577SOL     OW27171   2.691   2.871   8.812
 8577SOL    HW127172   2.731   2.877   8.725
 8577SOL    HW227173   2.678   2.962   8.839
 8578SOL     OW27174   2.768   2.754   7.748
 8578SOL    HW127175   2.822   2.784   7.675
 8578SOL    HW227176   2.824   2.692   7.795
 8579SOL     OW27177   3.315   3.472   7.460
 8579SOL    HW127178   3.295   3.565   7.475
 8579SOL    HW227179   3.365   3.471   7.379
 8580SOL     OW27180   2.217   3.163   8.952
 8580SOL    HW127181   2.227   3.233   8.888
 8580SOL    HW227182   2.140   3.114   8.921
 8581SOL     OW27183   3.449   3.120   8.732
 8581SOL    HW127184   3.540   3.147   8.731
 8581SOL    HW227185   3.400   3.200   8.751
 8582SOL     OW27186   2.921   2.968   8.170
 8582SOL    HW127187   2.851   2.907   8.195
 8582SOL    HW227188   2.987   2.912   8.129
 8583SOL     OW27189   2.897   2.104   8.412
 8583SOL    HW127190   2.898   2.054   8.330
 8583SOL    HW227191   2.887   2.037   8.480
 8584SOL     OW27192   2.439   3.334   7.931
 8584SOL    HW127193   2.502   3.281   7.882
 8584SOL    HW227194   2.428   3.413   7.878
 8585SOL     OW27195   3.597   2.241   8.844
 8585SOL    HW127196   3.665   2.307   8.839
 8585SOL    HW227197   3.622   2.176   8.778
 8586SOL     OW27198   2.116   3.196   7.730
 8586SOL    HW127199   2.023   3.197   7.709
 8586SOL    HW227200   2.122   3.240   7.816
 8587SOL     OW27201   1.977   2.884   9.168
 8587SOL    HW127202   1.903   2.861   9.225
 8587SOL    HW227203   2.053   2.847   9.213
 8588SOL     OW27204   2.538   2.046   8.947
 8588SOL    HW127205   2.623   2.031   8.905
 8588SOL    HW227206   2.560   2.079   9.034
 8589SOL     OW27207   1.942   2.187   7.470
 8589SOL    HW127208   1.866   2.172   7.413
 8589SOL    HW227209   1.980   2.269   7.438
 8590SOL     OW27210   3.278   2.714   8.842
 8590SOL    HW127211   3.227   2.777   8.791
 8590SOL    HW227212   3.367   2.720   8.806
 8591SOL     OW27213   1.920   2.013   7.737
 8591SOL    HW127214   1.908   2.088   7.678
 8591SOL    HW227215   2.009   1.982   7.717
 8592SOL     OW27216   3.048   3.160   7.579
 8592SOL    HW127217   3.041   3.253   7.555
 8592SOL    HW227218   3.065   3.161   7.673
 8593SOL     OW27219   2.487   2.699   8.883
 8593SOL    HW127220   2.543   2.775   8.864
 8593SOL    HW227221   2.547   2.625   8.886
 8594SOL     OW27222   2.568   2.434   9.147
 8594SOL    HW127223   2.616   2.500   9.196
 8594SOL    HW227224   2.602   2.350   9.179
 8595SOL     OW27225   3.331   3.052   9.078
 8595SOL    HW127226   3.324   3.069   9.172
 8595SOL    HW227227   3.420   3.078   9.056
 8596SOL     OW27228   2.225   3.606   9.014
 8596SOL    HW127229   2.140   3.651   9.004
 8596SOL    HW227230   2.202   3.520   9.048
 8597SOL     OW27231   3.517   2.730   8.705
 8597SOL    HW127232   3.527   2.652   8.651
 8597SOL    HW227233   3.496   2.800   8.643
 8598SOL     OW27234   3.065   2.171   7.910
 8598SOL    HW127235   3.136   2.107   7.902
 8598SOL    HW227236   3.090   2.226   7.983
 8599SOL     OW27237   2.433   2.589   8.125
 8599SOL    HW127238   2.480   2.672   8.118
 8599SOL    HW227239   2.376   2.587   8.048
 8600SOL     OW27240   3.635   2.207   9.117
 8600SOL    HW127241   3.627   2.229   9.024
 8600SOL    HW227242   3.555   2.160   9.138
 8601SOL     OW27243   3.611   2.780   8.964
 8601SOL    HW127244   3.657   2.864   8.969
 8601SOL    HW227245   3.591   2.769   8.871
 8602SOL     OW27246   2.674   3.240   7.469
 8602SOL    HW127247   2.721   3.266   7.549
 8602SOL    HW227248   2.716   3.290   7.399
 8603SOL     OW27249   2.529   3.645   8.396
 8603SOL    HW127250   2.522   3.732   8.357
 8603SOL    HW227251   2.622   3.622   8.388
 8604SOL     OW27252   2.721   2.823   8.300
 8604SOL    HW127253   2.775   2.752   8.334
 8604SOL    HW227254   2.697   2.874   8.378
 8605SOL     OW27255   2.913   2.811   7.530
 8605SOL    HW127256   2.903   2.889   7.476
 8605SOL    HW227257   3.000   2.779   7.509
 8606SOL     OW27258   2.084   3.160   9.306
 8606SOL    HW127259   2.013   3.100   9.282
 8606SOL    HW227260   2.078   3.166   9.401
 8607SOL     OW27261   1.950   3.063   8.115
 8607SOL    HW127262   2.002   3.022   8.185
 8607SOL    HW227263   2.009   3.067   8.040
 8608SOL     OW27264   2.536   3.269   9.082
 8608SOL    HW127265   2.457   3.240   9.127
 8608SOL    HW227266   2.551   3.358   9.114
 8609SOL     OW27267   3.656   2.031   8.686
 8609SOL    HW127268   3.679   1.938   8.693
 8609SOL    HW227269   3.671   2.052   8.594
 8610SOL     OW27270   2.269   2.296   7.966
 8610SOL    HW127271   2.315   2.232   7.912
 8610SOL    HW227272   2.233   2.245   8.039
 8611SOL     OW27273   2.199   2.422   8.741
 8611SOL    HW127274   2.263   2.371   8.791
 8611SOL    HW227275   2.219   2.402   8.649
 8612SOL     OW27276   2.690   3.471   8.133
 8612SOL    HW127277   2.694   3.545   8.071
 8612SOL    HW227278   2.647   3.401   8.083
 8613SOL     OW27279   3.289   2.088   8.575
 8613SOL    HW127280   3.353   2.043   8.631
 8613SOL    HW227281   3.233   2.135   8.637
 8614SOL     OW27282   2.867   1.869   8.576
 8614SOL    HW127283   2.821   1.811   8.516
 8614SOL    HW227284   2.957   1.835   8.579
 8615SOL     OW27285   2.622   3.179   7.808
 8615SOL    HW127286   2.623   3.084   7.795
 8615SOL    HW227287   2.711   3.201   7.834
 8616SOL     OW27288   2.477   3.422   8.739
 8616SOL    HW127289   2.478   3.511   8.772
 8616SOL    HW227290   2.566   3.407   8.706
 8617SOL     OW27291   3.210   1.916   7.636
 8617SOL    HW127292   3.234   1.877   7.552
 8617SOL    HW227293   3.124   1.878   7.655
 8618SOL     OW27294   3.134   2.319   8.124
 8618SOL    HW127295   3.096   2.407   8.127
 8618SOL    HW227296   3.152   2.297   8.216
 8619SOL     OW27297   3.439   2.062   8.329
 8619SOL    HW127298   3.382   2.091   8.401
 8619SOL    HW227299   3.443   2.137   8.270
 8620SOL     OW27300   1.896   2.927   7.759
 8620SOL    HW127301   1.991   2.928   7.745
 8620SOL    HW227302   1.875   2.835   7.776
 8621SOL     OW27303   2.708   3.511   7.820
 8621SOL    HW127304   2.662   3.516   7.736
 8621SOL    HW227305   2.769   3.585   7.819
 8622SOL     OW27306   2.080   2.471   9.445
 8622SOL    HW127307   1.989   2.482   9.471
 8622SOL    HW227308   2.077   2.466   9.349
 8623SOL     OW27309   2.084   2.149  10.304
 8623SOL    HW127310   2.113   2.113  10.387
 8623SOL    HW227311   1.995   2.116  10.293
 8624SOL     OW27312   1.859   2.245   9.952
 8624SOL    HW127313   1.778   2.273   9.995
 8624SOL    HW227314   1.833   2.171   9.898
 8625SOL     OW27315   2.425   3.163  10.499
 8625SOL    HW127316   2.347   3.176  10.446
 8625SOL    HW227317   2.450   3.251  10.528
 8626SOL     OW27318   2.990   2.558  10.006
 8626SOL    HW127319   3.042   2.637   9.992
 8626SOL    HW227320   2.941   2.575  10.087
 8627SOL     OW27321   3.627   2.474   9.539
 8627SOL    HW127322   3.605   2.477   9.446
 8627SOL    HW227323   3.608   2.384   9.565
 8628SOL     OW27324   2.597   2.994  10.363
 8628SOL    HW127325   2.534   3.037  10.421
 8628SOL    HW227326   2.638   3.065  10.315
 8629SOL     OW27327   2.740   2.618  11.130
 8629SOL    HW127328   2.735   2.690  11.193
 8629SOL    HW227329   2.760   2.661  11.047
 8630SOL     OW27330   2.545   2.846   9.958
 8630SOL    HW127331   2.614   2.847  10.024
 8630SOL    HW227332   2.479   2.908   9.990
 8631SOL     OW27333   2.577   3.014  11.141
 8631SOL    HW127334   2.629   3.089  11.170
 8631SOL    HW227335   2.503   3.053  11.094
 8632SOL     OW27336   2.196   3.277  10.373
 8632SOL    HW127337   2.123   3.239  10.323
 8632SOL    HW227338   2.243   3.330  10.309
 8633SOL     OW27339   3.323   3.357  10.676
 8633SOL    HW127340   3.378   3.435  10.677
 8633SOL    HW227341   3.253   3.376  10.739
 8634SOL     OW27342   2.314   2.254  10.791
 8634SOL    HW127343   2.390   2.196  10.796
 8634SOL    HW227344   2.239   2.197  10.805
 8635SOL     OW27345   3.464   2.302  10.055
 8635SOL    HW127346   3.411   2.325   9.978
 8635SOL    HW227347   3.466   2.382  10.107
 8636SOL     OW27348   2.092   3.574   9.772
 8636SOL    HW127349   2.112   3.648   9.830
 8636SOL    HW227350   2.168   3.567   9.715
 8637SOL     OW27351   3.001   3.204  11.006
 8637SOL    HW127352   3.047   3.191  11.088
 8637SOL    HW227353   2.952   3.123  10.992
 8638SOL     OW27354   2.077   3.308   9.838
 8638SOL    HW127355   2.083   3.403   9.826
 8638SOL    HW227356   2.035   3.297   9.923
 8639SOL     OW27357   2.119   2.955  10.189
 8639SOL    HW127358   2.125   2.868  10.228
 8639SOL    HW227359   2.067   3.005  10.252
 8640SOL     OW27360   2.452   3.658  10.736
 8640SOL    HW127361   2.372   3.644  10.786
 8640SOL    HW227362   2.481   3.746  10.761
 8641SOL     OW27363   2.433   2.852   9.454
 8641SOL    HW127364   2.482   2.897   9.385
 8641SOL    HW227365   2.476   2.878   9.536
 8642SOL     OW27366   3.458   1.989  10.775
 8642SOL    HW127367   3.494   2.064  10.728
 8642SOL    HW227368   3.432   2.025  10.860
 8643SOL     OW27369   1.977   2.519   9.874
 8643SOL    HW127370   1.953   2.429   9.897
 8643SOL    HW227371   1.971   2.567   9.956
 8644SOL     OW27372   1.897   3.452   9.434
 8644SOL    HW127373   1.887   3.359   9.454
 8644SOL    HW227374   1.878   3.497   9.516
 8645SOL     OW27375   3.555   2.782   9.969
 8645SOL    HW127376   3.617   2.735   9.914
 8645SOL    HW227377   3.505   2.836   9.908
 8646SOL     OW27378   3.467   2.925   9.751
 8646SOL    HW127379   3.549   2.892   9.715
 8646SOL    HW227380   3.482   3.019   9.762
 8647SOL     OW27381   1.986   2.609  10.895
 8647SOL    HW127382   2.075   2.644  10.891
 8647SOL    HW227383   1.929   2.684  10.883
 8648SOL     OW27384   2.463   3.251  10.055
 8648SOL    HW127385   2.426   3.162  10.054
 8648SOL    HW227386   2.453   3.282   9.965
 8649SOL     OW27387   3.139   3.086  10.740
 8649SOL    HW127388   3.167   3.024  10.673
 8649SOL    HW227389   3.210   3.085  10.805
 8650SOL     OW27390   2.684   1.865   9.831
 8650SOL    HW127391   2.726   1.946   9.801
 8650SOL    HW227392   2.591   1.885   9.831
 8651SOL     OW27393   2.042   2.819  10.598
 8651SOL    HW127394   2.131   2.783  10.587
 8651SOL    HW227395   1.995   2.791  10.520
 8652SOL     OW27396   3.376   2.849   9.504
 8652SOL    HW127397   3.306   2.786   9.524
 8652SOL    HW227398   3.404   2.881   9.590
 8653SOL     OW27399   3.036   3.672  10.941
 8653SOL    HW127400   3.043   3.739  10.873
 8653SOL    HW227401   3.058   3.591  10.896
 8654SOL     OW27402   2.209   2.105  11.161
 8654SOL    HW127403   2.251   2.190  11.176
 8654SOL    HW227404   2.115   2.123  11.167
 8655SOL     OW27405   3.355   3.272  10.293
 8655SOL    HW127406   3.268   3.295  10.328
 8655SOL    HW227407   3.337   3.204  10.228
 8656SOL     OW27408   2.459   2.575   9.583
 8656SOL    HW127409   2.467   2.658   9.536
 8656SOL    HW227410   2.393   2.592   9.650
 8657SOL     OW27411   3.145   2.241  10.251
 8657SOL    HW127412   3.056   2.206  10.254
 8657SOL    HW227413   3.196   2.183  10.308
 8658SOL     OW27414   2.651   2.478  10.752
 8658SOL    HW127415   2.624   2.451  10.839
 8658SOL    HW227416   2.620   2.408  10.694
 8659SOL     OW27417   3.250   2.339  10.985
 8659SOL    HW127418   3.256   2.384  11.070
 8659SOL    HW227419   3.310   2.264  10.994
 8660SOL     OW27420   2.807   2.746  10.895
 8660SOL    HW127421   2.863   2.679  10.856
 8660SOL    HW227422   2.762   2.786  10.821
 8661SOL     OW27423   2.856   2.264  10.539
 8661SOL    HW127424   2.765   2.280  10.561
 8661SOL    HW227425   2.855   2.241  10.446
 8662SOL     OW27426   2.918   2.553   9.735
 8662SOL    HW127427   2.936   2.551   9.829
 8662SOL    HW227428   2.833   2.509   9.725
 8663SOL     OW27429   1.947   2.676  10.097
 8663SOL    HW127430   2.031   2.677  10.142
 8663SOL    HW227431   1.902   2.754  10.130
 8664SOL     OW27432   1.978   3.739  10.895
 8664SOL    HW127433   1.982   3.717  10.988
 8664SOL    HW227434   1.902   3.691  10.862
 8665SOL     OW27435   2.768   2.198   9.489
 8665SOL    HW127436   2.800   2.275   9.442
 8665SOL    HW227437   2.820   2.125   9.455
 8666SOL     OW27438   3.554   2.433  11.145
 8666SOL    HW127439   3.528   2.508  11.092
 8666SOL    HW227440   3.586   2.369  11.080
 8667SOL     OW27441   3.210   2.989   9.844
 8667SOL    HW127442   3.292   2.969   9.798
 8667SOL    HW227443   3.177   3.068   9.803
 8668SOL     OW27444   2.409   2.030  10.210
 8668SOL    HW127445   2.415   2.067  10.298
 8668SOL    HW227446   2.414   2.107  10.152
 8669SOL     OW27447   2.875   3.314   9.780
 8669SOL    HW127448   2.820   3.379   9.735
 8669SOL    HW227449   2.866   3.335   9.873
 8670SOL     OW27450   2.216   3.681  10.194
 8670SOL    HW127451   2.266   3.599  10.194
 8670SOL    HW227452   2.282   3.750  10.201
 8671SOL     OW27453   3.666   2.899  10.198
 8671SOL    HW127454   3.622   2.878  10.116
 8671SOL    HW227455   3.594   2.912  10.261
 8672SOL     OW27456   3.084   3.404  10.824
 8672SOL    HW127457   3.074   3.328  10.880
 8672SOL    HW227458   3.033   3.383  10.746
 8673SOL     OW27459   2.174   2.828   9.565
 8673SOL    HW127460   2.260   2.851   9.531
 8673SOL    HW227461   2.146   2.754   9.512
 8674SOL     OW27462   3.350   2.612  10.032
 8674SOL    HW127463   3.348   2.575  10.120
 8674SOL    HW227464   3.428   2.668  10.031
 8675SOL     OW27465   2.329   3.139  11.057
 8675SOL    HW127466   2.305   3.143  10.964
 8675SOL    HW227467   2.245   3.131  11.103
 8676SOL     OW27468   2.887   3.646   9.548
 8676SOL    HW127469   2.962   3.699   9.578
 8676SOL    HW227470   2.924   3.590   9.480
 8677SOL     OW27471   2.068   2.126  10.808
 8677SOL    HW127472   1.994   2.186  10.816
 8677SOL    HW227473   2.036   2.044  10.846
 8678SOL     OW27474   2.335   3.588   9.635
 8678SOL    HW127475   2.383   3.652   9.689
 8678SOL    HW227476   2.399   3.560   9.570
 8679SOL     OW27477   3.262   1.965   9.760
 8679SOL    HW127478   3.251   1.944   9.667
 8679SOL    HW227479   3.352   1.995   9.767
 8680SOL     OW27480   2.118   3.647  10.530
 8680SOL    HW127481   2.172   3.575  10.562
 8680SOL    HW227482   2.114   3.634  10.435
 8681SOL     OW27483   2.818   3.552  10.202
 8681SOL    HW127484   2.907   3.517  10.195
 8681SOL    HW227485   2.770   3.512  10.130
 8682SOL     OW27486   2.260   2.556   9.783
 8682SOL    HW127487   2.273   2.462   9.796
 8682SOL    HW227488   2.165   2.569   9.794
 8683SOL     OW27489   3.381   2.089  11.030
 8683SOL    HW127490   3.393   2.105  11.124
 8683SOL    HW227491   3.307   2.028  11.026
 8684SOL     OW27492   2.486   1.955   9.437
 8684SOL    HW127493   2.578   1.934   9.424
 8684SOL    HW227494   2.444   1.933   9.354
 8685SOL     OW27495   2.623   2.140  11.066
 8685SOL    HW127496   2.706   2.092  11.064
 8685SOL    HW227497   2.579   2.109  11.145
 8686SOL     OW27498   2.729   3.374  10.512
 8686SOL    HW127499   2.722   3.350  10.420
 8686SOL    HW227500   2.810   3.331  10.542
 8687SOL     OW27501   3.197   2.452  10.738
 8687SOL    HW127502   3.229   2.425  10.824
 8687SOL    HW227503   3.234   2.539  10.725
 8688SOL     OW27504   2.679   3.238  10.256
 8688SOL    HW127505   2.766   3.238  10.217
 8688SOL    HW227506   2.620   3.258  10.182
 8689SOL     OW27507   2.788   2.363  10.209
 8689SOL    HW127508   2.762   2.359  10.117
 8689SOL    HW227509   2.822   2.276  10.229
 8690SOL     OW27510   2.417   1.923   9.807
 8690SOL    HW127511   2.336   1.923   9.859
 8690SOL    HW227512   2.410   2.001   9.752
 8691SOL     OW27513   3.294   3.064   9.345
 8691SOL    HW127514   3.322   2.991   9.399
 8691SOL    HW227515   3.214   3.096   9.387
 8692SOL     OW27516   2.152   1.907   9.494
 8692SOL    HW127517   2.199   1.973   9.444
 8692SOL    HW227518   2.220   1.853   9.533
 8693SOL     OW27519   2.803   2.106   9.759
 8693SOL    HW127520   2.777   2.144   9.675
 8693SOL    HW227521   2.896   2.125   9.767
 8694SOL     OW27522   2.942   2.547  10.771
 8694SOL    HW127523   2.879   2.474  10.762
 8694SOL    HW227524   3.027   2.506  10.758
 8695SOL     OW27525   3.072   3.449  10.089
 8695SOL    HW127526   3.070   3.518  10.024
 8695SOL    HW227527   3.165   3.431  10.102
 8696SOL     OW27528   2.333   3.008  10.030
 8696SOL    HW127529   2.263   2.991  10.093
 8696SOL    HW227530   2.291   3.002   9.945
 8697SOL     OW27531   3.089   3.665   9.918
 8697SOL    HW127532   3.123   3.685   9.831
 8697SOL    HW227533   3.053   3.748   9.949
 8698SOL     OW27534   2.878   2.398   9.339
 8698SOL    HW127535   2.838   2.481   9.312
 8698SOL    HW227536   2.951   2.423   9.395
 8699SOL     OW27537   1.955   2.409  10.710
 8699SOL    HW127538   2.045   2.413  10.679
 8699SOL    HW227539   1.948   2.481  10.773
 8700SOL     OW27540   2.418   2.090  10.482
 8700SOL    HW127541   2.460   2.019  10.531
 8700SOL    HW227542   2.326   2.085  10.508
 8701SOL     OW27543   2.722   2.311   9.947
 8701SOL    HW127544   2.685   2.372   9.884
 8701SOL    HW227545   2.750   2.236   9.895
 8702SOL     OW27546   2.881   1.922  10.059
 8702SOL    HW127547   2.823   1.922   9.983
 8702SOL    HW227548   2.853   1.844  10.109
 8703SOL     OW27549   3.319   3.055  10.129
 8703SOL    HW127550   3.247   3.003  10.093
 8703SOL    HW227551   3.349   3.109  10.055
 8704SOL     OW27552   3.327   2.475  10.273
 8704SOL    HW127553   3.269   2.399  10.273
 8704SOL    HW227554   3.383   2.463  10.350
 8705SOL     OW27555   3.668   2.674   9.731
 8705SOL    HW127556   3.748   2.634   9.764
 8705SOL    HW227557   3.656   2.635   9.644
 8706SOL     OW27558   2.348   3.279   9.447
 8706SOL    HW127559   2.275   3.246   9.500
 8706SOL    HW227560   2.353   3.218   9.373
 8707SOL     OW27561   3.254   2.440   9.375
 8707SOL    HW127562   3.203   2.415   9.452
 8707SOL    HW227563   3.345   2.431   9.403
 8708SOL     OW27564   2.382   2.123   9.628
 8708SOL    HW127565   2.424   2.070   9.560
 8708SOL    HW227566   2.360   2.205   9.584
 8709SOL     OW27567   3.613   3.102  10.886
 8709SOL    HW127568   3.698   3.071  10.856
 8709SOL    HW227569   3.627   3.194  10.906
 8710SOL     OW27570   2.916   3.218  10.654
 8710SOL    HW127571   2.840   3.182  10.699
 8710SOL    HW227572   2.991   3.169  10.689
 8711SOL     OW27573   3.475   3.489  10.976
 8711SOL    HW127574   3.460   3.525  10.889
 8711SOL    HW227575   3.556   3.439  10.968
 8712SOL     OW27576   3.001   3.085  10.416
 8712SOL    HW127577   2.937   3.125  10.474
 8712SOL    HW227578   2.980   3.119  10.329
 8713SOL     OW27579   3.466   2.953  10.379
 8713SOL    HW127580   3.454   3.014  10.452
 8713SOL    HW227581   3.405   2.985  10.312
 8714SOL     OW27582   2.782   1.948  10.699
 8714SOL    HW127583   2.802   1.932  10.606
 8714SOL    HW227584   2.861   1.990  10.733
 8715SOL     OW27585   2.846   2.974  11.037
 8715SOL    HW127586   2.754   2.993  11.056
 8715SOL    HW227587   2.843   2.898  10.979
 8716SOL     OW27588   2.566   2.908   9.686
 8716SOL    HW127589   2.555   2.890   9.779
 8716SOL    HW227590   2.645   2.860   9.661
 8717SOL     OW27591   2.281   2.689  10.570
 8717SOL    HW127592   2.353   2.697  10.633
 8717SOL    HW227593   2.251   2.599  10.580
 8718SOL     OW27594   3.121   2.229  10.601
 8718SOL    HW127595   3.154   2.310  10.639
 8718SOL    HW227596   3.032   2.249  10.574
 8719SOL     OW27597   1.942   3.432  10.666
 8719SOL    HW127598   1.914   3.502  10.607
 8719SOL    HW227599   2.037   3.430  10.656
 8720SOL     OW27600   2.189   2.988   9.797
 8720SOL    HW127601   2.203   3.064   9.740
 8720SOL    HW227602   2.190   2.913   9.737
 8721SOL     OW27603   2.404   2.388  10.173
 8721SOL    HW127604   2.414   2.446  10.098
 8721SOL    HW227605   2.474   2.415  10.233
 8722SOL     OW27606   3.130   3.218   9.709
 8722SOL    HW127607   3.199   3.282   9.728
 8722SOL    HW227608   3.049   3.261   9.738
 8723SOL     OW27609   3.144   3.330  10.464
 8723SOL    HW127610   3.209   3.328  10.535
 8723SOL    HW227611   3.104   3.243  10.467
 8724SOL     OW27612   3.451   2.468   9.802
 8724SOL    HW127613   3.394   2.527   9.852
 8724SOL    HW227614   3.509   2.527   9.753
 8725SOL     OW27615   2.210   3.389  10.616
 8725SOL    HW127616   2.201   3.345  10.532
 8725SOL    HW227617   2.305   3.403  10.625
 8726SOL     OW27618   2.286   2.607  10.917
 8726SOL    HW127619   2.346   2.653  10.858
 8726SOL    HW227620   2.327   2.522  10.932
 8727SOL     OW27621   3.478   2.649  10.999
 8727SOL    HW127622   3.391   2.689  10.990
 8727SOL    HW227623   3.530   2.687  10.929
 8728SOL     OW27624   2.859   2.000  11.074
 8728SOL    HW127625   2.915   2.074  11.051
 8728SOL    HW227626   2.908   1.923  11.044
 8729SOL     OW27627   2.356   1.891  11.068
 8729SOL    HW127628   2.308   1.843  11.000
 8729SOL    HW227629   2.302   1.969  11.085
 8730SOL     OW27630   2.452   2.739  10.348
 8730SOL    HW127631   2.492   2.826  10.344
 8730SOL    HW227632   2.392   2.743  10.422
 8731SOL     OW27633   3.201   2.714  10.340
 8731SOL    HW127634   3.140   2.727  10.267
 8731SOL    HW227635   3.247   2.633  10.319
 8732SOL     OW27636   3.063   2.380   9.571
 8732SOL    HW127637   3.070   2.305   9.630
 8732SOL    HW227638   3.027   2.450   9.626
 8733SOL     OW27639   2.157   2.054  10.555
 8733SOL    HW127640   2.122   2.086  10.638
 8733SOL    HW227641   2.137   1.960  10.555
 8734SOL     OW27642   1.884   3.173  10.589
 8734SOL    HW127643   1.930   3.119  10.654
 8734SOL    HW227644   1.905   3.263  10.615
 8735SOL     OW27645   2.578   2.491  10.361
 8735SOL    HW127646   2.656   2.482  10.306
 8735SOL    HW227647   2.549   2.581  10.347
 8736SOL     OW27648   3.612   2.816  11.179
 8736SOL    HW127649   3.568   2.754  11.120
 8736SOL    HW227650   3.545   2.839  11.243
 8737SOL     OW27651   2.172   1.915   9.937
 8737SOL    HW127652   2.147   2.006   9.953
 8737SOL    HW227653   2.181   1.877  10.024
 8738SOL     OW27654   3.468   2.228   9.673
 8738SOL    HW127655   3.516   2.174   9.736
 8738SOL    HW227656   3.455   2.311   9.719
 8739SOL     OW27657   2.877   2.617  10.262
 8739SOL    HW127658   2.876   2.633  10.356
 8739SOL    HW227659   2.857   2.524  10.253
 8740SOL     OW27660   2.838   3.420  11.034
 8740SOL    HW127661   2.821   3.468  10.953
 8740SOL    HW227662   2.890   3.345  11.007
 8741SOL     OW27663   3.713   3.361  10.911
 8741SOL    HW127664   3.731   3.388  10.821
 8741SOL    HW227665   3.796   3.374  10.958
 8742SOL     OW27666   2.210   2.772  11.125
 8742SOL    HW127667   2.291   2.797  11.169
 8742SOL    HW227668   2.239   2.712  11.056
 8743SOL     OW27669   3.388   2.119   9.435
 8743SOL    HW127670   3.320   2.060   9.468
 8743SOL    HW227671   3.420   2.165   9.513
 8744SOL     OW27672   3.145   2.689   9.332
 8744SOL    HW127673   3.190   2.604   9.332
 8744SOL    HW227674   3.176   2.733   9.253
 8745SOL     OW27675   2.938   3.213  10.176
 8745SOL    HW127676   2.943   3.141  10.113
 8745SOL    HW227677   2.989   3.283  10.135
 8746SOL     OW27678   2.174   2.679  10.256
 8746SOL    HW127679   2.267   2.697  10.243
 8746SOL    HW227680   2.172   2.588  10.287
 8747SOL     OW27681   2.184   2.397  10.326
 8747SOL    HW127682   2.148   2.310  10.312
 8747SOL    HW227683   2.262   2.400  10.270
 8748SOL     OW27684   2.997   2.230  11.003
 8748SOL    HW127685   2.949   2.288  11.063
 8748SOL    HW227686   3.081   2.273  10.991
 8749SOL     OW27687   3.022   2.053  10.789
 8749SOL    HW127688   3.009   2.118  10.859
 8749SOL    HW227689   3.064   2.102  10.719
 8750SOL     OW27690   1.861   3.181   9.514
 8750SOL    HW127691   1.774   3.199   9.478
 8750SOL    HW227692   1.856   3.090   9.544
 8751SOL     OW27693   1.954   3.641  10.257
 8751SOL    HW127694   1.923   3.565  10.207
 8751SOL    HW227695   2.042   3.657  10.225
 8752SOL     OW27696   2.356   3.441  10.220
 8752SOL    HW127697   2.428   3.500  10.242
 8752SOL    HW227698   2.394   3.379  10.159
 8753SOL     OW27699   2.829   2.640  10.531
 8753SOL    HW127700   2.894   2.633  10.601
 8753SOL    HW227701   2.749   2.603  10.569
 8754SOL     OW27702   1.900   2.410  10.431
 8754SOL    HW127703   1.977   2.414  10.374
 8754SOL    HW227704   1.935   2.412  10.520
 8755SOL     OW27705   2.061   2.389  11.043
 8755SOL    HW127706   2.125   2.354  10.981
 8755SOL    HW227707   2.024   2.465  10.999
 8756SOL     OW27708   3.246   2.792  10.964
 8756SOL    HW127709   3.269   2.885  10.959
 8756SOL    HW227710   3.239   2.764  10.873
 8757SOL     OW27711   2.676   2.425   9.683
 8757SOL    HW127712   2.681   2.359   9.615
 8757SOL    HW227713   2.606   2.484   9.654
 8758SOL     OW27714   3.498   2.454  10.487
 8758SOL    HW127715   3.489   2.399  10.565
 8758SOL    HW227716   3.587   2.436  10.456
 8759SOL     OW27717   2.092   3.407  11.032
 8759SOL    HW127718   2.076   3.466  11.106
 8759SOL    HW227719   2.103   3.321  11.072
 8760SOL     OW27720   2.579   2.304  10.556
 8760SOL    HW127721   2.520   2.234  10.529
 8760SOL    HW227722   2.571   2.370  10.487
 8761SOL     OW27723   2.760   3.544  10.796
 8761SOL    HW127724   2.754   3.496  10.714
 8761SOL    HW227725   2.765   3.636  10.771
 8762SOL     OW27726   2.322   2.350   9.492
 8762SOL    HW127727   2.381   2.422   9.514
 8762SOL    HW227728   2.236   2.391   9.483
 8763SOL     OW27729   1.995   3.008  10.786
 8763SOL    HW127730   2.003   2.965  10.872
 8763SOL    HW227731   2.013   2.938  10.723
 8764SOL     OW27732   3.164   2.898  10.534
 8764SOL    HW127733   3.187   2.836  10.465
 8764SOL    HW227734   3.108   2.962  10.491
 8765SOL     OW27735   3.168   2.694   9.607
 8765SOL    HW127736   3.086   2.684   9.655
 8765SOL    HW227737   3.143   2.693   9.515
 8766SOL     OW27738   3.655   3.601  10.493
 8766SOL    HW127739   3.710   3.627  10.419
 8766SOL    HW227740   3.617   3.517  10.466
 8767SOL     OW27741   3.108   3.603  10.435
 8767SOL    HW127742   3.186   3.628  10.385
 8767SOL    HW227743   3.112   3.508  10.441
 8768SOL     OW27744   1.943   3.126  10.321
 8768SOL    HW127745   1.916   3.139  10.412
 8768SOL    HW227746   1.879   3.064  10.286
 8769SOL     OW27747   2.550   3.538  11.051
 8769SOL    HW127748   2.489   3.610  11.034
 8769SOL    HW227749   2.620   3.550  10.988
 8770SOL     OW27750   3.601   2.025   9.818
 8770SOL    HW127751   3.662   2.011   9.746
 8770SOL    HW227752   3.582   1.937   9.851
 8771SOL     OW27753   1.994   3.664  11.154
 8771SOL    HW127754   1.950   3.591  11.197
 8771SOL    HW227755   2.045   3.706  11.223
 8772SOL     OW27756   3.138   2.781   9.991
 8772SOL    HW127757   3.217   2.726   9.996
 8772SOL    HW227758   3.162   2.852   9.932
 8773SOL     OW27759   2.663   3.138  10.738
 8773SOL    HW127760   2.632   3.181  10.818
 8773SOL    HW227761   2.608   3.174  10.669
 8774SOL     OW27762   2.528   3.477   9.464
 8774SOL    HW127763   2.545   3.501   9.373
 8774SOL    HW227764   2.469   3.402   9.459
 8775SOL     OW27765   3.478   3.586  10.711
 8775SOL    HW127766   3.534   3.589  10.633
 8775SOL    HW227767   3.460   3.678  10.731
 8776SOL     OW27768   3.703   2.028  10.279
 8776SOL    HW127769   3.732   1.942  10.248
 8776SOL    HW227770   3.618   2.042  10.237
 8777SOL     OW27771   2.115   2.165  10.023
 8777SOL    HW127772   2.030   2.203   9.999
 8777SOL    HW227773   2.117   2.169  10.119
 8778SOL     OW27774   2.989   3.459   9.362
 8778SOL    HW127775   3.057   3.396   9.339
 8778SOL    HW227776   2.936   3.467   9.282
 8779SOL     OW27777   2.686   2.871  10.684
 8779SOL    HW127778   2.723   2.866  10.596
 8779SOL    HW227779   2.679   2.965  10.702
 8780SOL     OW27780   2.779   2.766   9.615
 8780SOL    HW127781   2.829   2.796   9.539
 8780SOL    HW227782   2.835   2.699   9.655
 8781SOL     OW27783   2.224   3.172  10.811
 8781SOL    HW127784   2.224   3.242  10.746
 8781SOL    HW227785   2.148   3.118  10.788
 8782SOL     OW27786   3.454   3.123  10.597
 8782SOL    HW127787   3.543   3.138  10.628
 8782SOL    HW227788   3.405   3.200  10.624
 8783SOL     OW27789   2.927   2.982  10.036
 8783SOL    HW127790   2.853   2.927  10.065
 8783SOL    HW227791   2.987   2.920   9.994
 8784SOL     OW27792   2.893   2.107  10.276
 8784SOL    HW127793   2.892   2.061  10.192
 8784SOL    HW227794   2.885   2.038  10.341
 8785SOL     OW27795   2.447   3.339   9.802
 8785SOL    HW127796   2.508   3.289   9.747
 8785SOL    HW227797   2.416   3.409   9.745
 8786SOL     OW27798   3.599   2.244  10.700
 8786SOL    HW127799   3.668   2.310  10.695
 8786SOL    HW227800   3.626   2.178  10.636
 8787SOL     OW27801   2.120   3.197   9.596
 8787SOL    HW127802   2.026   3.198   9.575
 8787SOL    HW227803   2.126   3.242   9.680
 8788SOL     OW27804   1.983   2.909  11.048
 8788SOL    HW127805   1.905   2.877  11.093
 8788SOL    HW227806   2.054   2.856  11.083
 8789SOL     OW27807   2.539   2.051  10.810
 8789SOL    HW127808   2.623   2.031  10.768
 8789SOL    HW227809   2.563   2.088  10.895
 8790SOL     OW27810   1.944   2.189   9.327
 8790SOL    HW127811   1.866   2.178   9.272
 8790SOL    HW227812   1.984   2.269   9.295
 8791SOL     OW27813   3.282   2.716  10.704
 8791SOL    HW127814   3.228   2.776  10.652
 8791SOL    HW227815   3.369   2.722  10.665
 8792SOL     OW27816   1.919   2.014   9.599
 8792SOL    HW127817   1.905   2.089   9.542
 8792SOL    HW227818   2.006   1.982   9.577
 8793SOL     OW27819   3.062   3.164   9.445
 8793SOL    HW127820   2.969   3.186   9.434
 8793SOL    HW227821   3.080   3.181   9.537
 8794SOL     OW27822   2.486   2.695  10.747
 8794SOL    HW127823   2.542   2.770  10.730
 8794SOL    HW227824   2.545   2.620  10.750
 8795SOL     OW27825   3.341   3.663  10.300
 8795SOL    HW127826   3.346   3.710  10.217
 8795SOL    HW227827   3.417   3.604  10.299
 8796SOL     OW27828   2.575   2.419  11.006
 8796SOL    HW127829   2.624   2.478  11.063
 8796SOL    HW227830   2.596   2.331  11.040
 8797SOL     OW27831   3.341   3.049  10.938
 8797SOL    HW127832   3.335   3.072  11.031
 8797SOL    HW227833   3.431   3.071  10.914
 8798SOL     OW27834   2.225   3.609  10.883
 8798SOL    HW127835   2.144   3.655  10.863
 8798SOL    HW227836   2.197   3.524  10.916
 8799SOL     OW27837   3.519   2.742  10.563
 8799SOL    HW127838   3.517   2.659  10.514
 8799SOL    HW227839   3.504   2.809  10.497
 8800SOL     OW27840   3.070   2.173   9.770
 8800SOL    HW127841   3.137   2.105   9.765
 8800SOL    HW227842   3.098   2.228   9.844
 8801SOL     OW27843   2.437   2.592   9.992
 8801SOL    HW127844   2.483   2.675   9.979
 8801SOL    HW227845   2.379   2.585   9.916
 8802SOL     OW27846   3.616   2.220  10.974
 8802SOL    HW127847   3.611   2.237  10.880
 8802SOL    HW227848   3.538   2.168  10.993
 8803SOL     OW27849   3.621   2.792  10.817
 8803SOL    HW127850   3.605   2.885  10.832
 8803SOL    HW227851   3.597   2.778  10.725
 8804SOL     OW27852   2.715   3.237   9.350
 8804SOL    HW127853   2.690   3.298   9.419
 8804SOL    HW227854   2.747   3.293   9.279
 8805SOL     OW27855   2.537   3.642  10.257
 8805SOL    HW127856   2.517   3.729  10.222
 8805SOL    HW227857   2.628   3.627  10.234
 8806SOL     OW27858   2.729   2.833  10.164
 8806SOL    HW127859   2.781   2.760  10.198
 8806SOL    HW227860   2.694   2.876  10.242
 8807SOL     OW27861   2.916   2.822   9.392
 8807SOL    HW127862   2.902   2.893   9.330
 8807SOL    HW227863   3.000   2.784   9.367
 8808SOL     OW27864   3.684   3.446  10.111
 8808SOL    HW127865   3.633   3.472  10.034
 8808SOL    HW227866   3.640   3.367  10.144
 8809SOL     OW27867   2.074   3.152  11.156
 8809SOL    HW127868   2.037   3.076  11.111
 8809SOL    HW227869   2.018   3.164  11.233
 8810SOL     OW27870   1.952   3.076   9.979
 8810SOL    HW127871   1.999   3.032  10.050
 8810SOL    HW227872   2.011   3.069   9.904
 8811SOL     OW27873   2.551   3.268  10.952
 8811SOL    HW127874   2.467   3.236  10.983
 8811SOL    HW227875   2.554   3.360  10.980
 8812SOL     OW27876   3.671   2.033  10.549
 8812SOL    HW127877   3.676   1.937  10.554
 8812SOL    HW227878   3.683   2.052  10.456
 8813SOL     OW27879   2.283   2.293   9.836
 8813SOL    HW127880   2.318   2.227   9.776
 8813SOL    HW227881   2.235   2.243   9.902
 8814SOL     OW27882   3.567   3.358  10.429
 8814SOL    HW127883   3.491   3.334  10.375
 8814SOL    HW227884   3.595   3.276  10.469
 8815SOL     OW27885   2.202   2.426  10.604
 8815SOL    HW127886   2.258   2.368  10.655
 8815SOL    HW227887   2.217   2.401  10.513
 8816SOL     OW27888   2.688   3.456   9.983
 8816SOL    HW127889   2.697   3.521   9.913
 8816SOL    HW227890   2.618   3.398   9.954
 8817SOL     OW27891   3.287   2.093  10.431
 8817SOL    HW127892   3.310   2.011  10.474
 8817SOL    HW227893   3.236   2.141  10.496
 8818SOL     OW27894   2.869   1.873  10.439
 8818SOL    HW127895   2.820   1.812  10.384
 8818SOL    HW227896   2.957   1.836  10.443
 8819SOL     OW27897   2.624   3.185   9.666
 8819SOL    HW127898   2.609   3.091   9.658
 8819SOL    HW227899   2.718   3.192   9.680
 8820SOL     OW27900   2.481   3.419  10.606
 8820SOL    HW127901   2.481   3.504  10.649
 8820SOL    HW227902   2.568   3.411  10.567
 8821SOL     OW27903   3.212   1.914   9.495
 8821SOL    HW127904   3.241   1.864   9.419
 8821SOL    HW227905   3.125   1.879   9.516
 8822SOL     OW27906   3.144   2.323   9.985
 8822SOL    HW127907   3.098   2.407   9.987
 8822SOL    HW227908   3.151   2.297  10.077
 8823SOL     OW27909   3.443   2.058  10.197
 8823SOL    HW127910   3.389   2.088  10.270
 8823SOL    HW227911   3.445   2.133  10.137
 8824SOL     OW27912   1.898   2.925   9.624
 8824SOL    HW127913   1.992   2.923   9.607
 8824SOL    HW227914   1.875   2.834   9.642
 8825SOL     OW27915   2.693   3.503   9.691
 8825SOL    HW127916   2.642   3.489   9.611
 8825SOL    HW227917   2.751   3.576   9.670
 8826SOL     OW27918   2.079   2.481  11.308
 8826SOL    HW127919   1.988   2.478  11.339
 8826SOL    HW227920   2.073   2.466  11.214
 8827SOL     OW27921   2.087   2.150  12.163
 8827SOL    HW127922   2.118   2.112  12.245
 8827SOL    HW227923   1.997   2.117  12.154
 8828SOL     OW27924   1.858   2.247  11.812
 8828SOL    HW127925   1.778   2.274  11.857
 8828SOL    HW227926   1.831   2.171  11.759
 8829SOL     OW27927   2.406   3.113  12.328
 8829SOL    HW127928   2.325   3.150  12.293
 8829SOL    HW227929   2.445   3.184  12.379
 8830SOL     OW27930   3.445   3.380  11.882
 8830SOL    HW127931   3.400   3.356  11.963
 8830SOL    HW227932   3.376   3.384  11.816
 8831SOL     OW27933   2.997   2.562  11.866
 8831SOL    HW127934   3.043   2.645  11.854
 8831SOL    HW227935   2.945   2.575  11.946
 8832SOL     OW27936   3.643   2.456  11.397
 8832SOL    HW127937   3.613   2.457  11.306
 8832SOL    HW227938   3.604   2.378  11.435
 8833SOL     OW27939   2.622   2.989  12.232
 8833SOL    HW127940   2.539   3.020  12.270
 8833SOL    HW227941   2.655   3.064  12.182
 8834SOL     OW27942   2.546   2.852  11.817
 8834SOL    HW127943   2.613   2.849  11.886
 8834SOL    HW227944   2.479   2.911  11.852
 8835SOL     OW27945   2.197   3.273  12.231
 8835SOL    HW127946   2.118   3.240  12.188
 8835SOL    HW227947   2.240   3.327  12.164
 8836SOL     OW27948   3.463   2.299  11.919
 8836SOL    HW127949   3.400   2.317  11.849
 8836SOL    HW227950   3.458   2.375  11.977
 8837SOL     OW27951   2.083   3.581  11.636
 8837SOL    HW127952   2.107   3.655  11.691
 8837SOL    HW227953   2.155   3.572  11.574
 8838SOL     OW27954   2.097   3.313  11.711
 8838SOL    HW127955   2.077   3.406  11.707
 8838SOL    HW227956   2.037   3.278  11.777
 8839SOL     OW27957   2.130   2.953  12.064
 8839SOL    HW127958   2.135   2.862  12.094
 8839SOL    HW227959   2.078   2.997  12.131
 8840SOL     OW27960   2.435   2.849  11.317
 8840SOL    HW127961   2.484   2.894  11.248
 8840SOL    HW227962   2.476   2.879  11.399
 8841SOL     OW27963   1.981   2.519  11.736
 8841SOL    HW127964   1.952   2.431  11.758
 8841SOL    HW227965   1.973   2.568  11.818
 8842SOL     OW27966   3.705   3.615  11.502
 8842SOL    HW127967   3.779   3.593  11.558
 8842SOL    HW227968   3.720   3.706  11.476
 8843SOL     OW27969   1.909   3.450  11.292
 8843SOL    HW127970   1.890   3.358  11.311
 8843SOL    HW227971   1.879   3.496  11.371
 8844SOL     OW27972   3.554   2.782  11.819
 8844SOL    HW127973   3.632   2.736  11.789
 8844SOL    HW227974   3.528   2.836  11.744
 8845SOL     OW27975   3.512   2.965  11.606
 8845SOL    HW127976   3.598   2.964  11.564
 8845SOL    HW227977   3.521   3.029  11.677
 8846SOL     OW27978   2.038   2.611   0.220
 8846SOL    HW127979   2.020   2.584   0.310
 8846SOL    HW227980   1.959   2.656   0.192
 8847SOL     OW27981   2.468   3.257  11.903
 8847SOL    HW127982   2.426   3.171  11.907
 8847SOL    HW227983   2.455   3.286  11.813
 8848SOL     OW27984   2.686   1.870  11.692
 8848SOL    HW127985   2.727   1.951  11.663
 8848SOL    HW227986   2.592   1.888  11.692
 8849SOL     OW27987   2.054   2.861  12.414
 8849SOL    HW127988   2.131   2.805  12.417
 8849SOL    HW227989   1.981   2.805  12.441
 8850SOL     OW27990   3.394   2.864  11.374
 8850SOL    HW127991   3.325   2.806  11.406
 8850SOL    HW227992   3.436   2.897  11.453
 8851SOL     OW27993   3.332   3.278  12.116
 8851SOL    HW127994   3.265   3.293  12.182
 8851SOL    HW227995   3.318   3.188  12.086
 8852SOL     OW27996   3.510   3.631  11.746
 8852SOL    HW127997   3.494   3.594  11.659
 8852SOL    HW227998   3.501   3.556  11.805
 8853SOL     OW27999   2.457   2.576  11.446
 8853SOL    HW128000   2.458   2.660  11.399
 8853SOL    HW228001   2.391   2.588  11.514
 8854SOL     OW28002   3.149   2.239  12.110
 8854SOL    HW128003   3.060   2.203  12.110
 8854SOL    HW228004   3.198   2.182  12.168
 8855SOL     OW28005   3.439   3.535  11.486
 8855SOL    HW128006   3.532   3.558  11.476
 8855SOL    HW228007   3.408   3.520  11.397
 8856SOL     OW28008   2.843   2.204  12.386
 8856SOL    HW128009   2.797   2.266  12.442
 8856SOL    HW228010   2.794   2.205  12.304
 8857SOL     OW28011   2.919   2.557  11.595
 8857SOL    HW128012   2.938   2.552  11.688
 8857SOL    HW228013   2.834   2.513  11.585
 8858SOL     OW28014   1.950   2.685  11.954
 8858SOL    HW128015   2.032   2.679  12.002
 8858SOL    HW228016   1.904   2.760  11.992
 8859SOL     OW28017   2.767   2.210  11.368
 8859SOL    HW128018   2.804   2.278  11.311
 8859SOL    HW228019   2.780   2.129  11.319
 8860SOL     OW28020   3.242   3.001  11.705
 8860SOL    HW128021   3.322   2.991  11.654
 8860SOL    HW228022   3.191   3.065  11.656
 8861SOL     OW28023   2.416   2.043  12.065
 8861SOL    HW128024   2.417   2.098  12.143
 8861SOL    HW228025   2.411   2.104  11.992
 8862SOL     OW28026   2.863   3.311  11.641
 8862SOL    HW128027   2.831   3.384  11.587
 8862SOL    HW228028   2.833   3.332  11.729
 8863SOL     OW28029   2.216   3.680  12.045
 8863SOL    HW128030   2.260   3.595  12.052
 8863SOL    HW228031   2.284   3.744  12.063
 8864SOL     OW28032   3.663   2.910  12.053
 8864SOL    HW128033   3.615   2.892  11.972
 8864SOL    HW228034   3.596   2.916  12.120
 8865SOL     OW28035   2.171   2.824  11.429
 8865SOL    HW128036   2.255   2.846  11.388
 8865SOL    HW228037   2.143   2.744  11.383
 8866SOL     OW28038   3.344   2.617  11.888
 8866SOL    HW128039   3.345   2.577  11.975
 8866SOL    HW228040   3.424   2.671  11.886
 8867SOL     OW28041   2.989   3.634  11.406
 8867SOL    HW128042   2.909   3.595  11.442
 8867SOL    HW228043   3.014   3.574  11.335
 8868SOL     OW28044   3.496   3.249  11.279
 8868SOL    HW128045   3.458   3.334  11.254
 8868SOL    HW228046   3.431   3.185  11.250
 8869SOL     OW28047   2.325   3.600  11.487
 8869SOL    HW128048   2.375   3.653  11.549
 8869SOL    HW228049   2.391   3.563  11.429
 8870SOL     OW28050   3.261   1.967  11.621
 8870SOL    HW128051   3.253   1.943  11.528
 8870SOL    HW228052   3.355   1.976  11.635
 8871SOL     OW28053   2.095   3.649  12.399
 8871SOL    HW128054   2.125   3.566  12.435
 8871SOL    HW228055   2.056   3.625  12.315
 8872SOL     OW28056   2.811   3.554  12.067
 8872SOL    HW128057   2.896   3.510  12.068
 8872SOL    HW228058   2.762   3.508  11.999
 8873SOL     OW28059   2.261   2.554  11.647
 8873SOL    HW128060   2.276   2.460  11.660
 8873SOL    HW228061   2.167   2.565  11.659
 8874SOL     OW28062   2.511   1.973  11.276
 8874SOL    HW128063   2.577   1.904  11.286
 8874SOL    HW228064   2.455   1.943  11.205
 8875SOL     OW28065   2.669   3.222  12.103
 8875SOL    HW128066   2.757   3.232  12.068
 8875SOL    HW228067   2.611   3.241  12.029
 8876SOL     OW28068   2.792   2.368  12.066
 8876SOL    HW128069   2.763   2.362  11.975
 8876SOL    HW228070   2.830   2.283  12.085
 8877SOL     OW28071   2.419   1.926  11.666
 8877SOL    HW128072   2.337   1.924  11.716
 8877SOL    HW228073   2.410   2.001  11.608
 8878SOL     OW28074   3.297   3.071  11.213
 8878SOL    HW128075   3.322   2.993  11.263
 8878SOL    HW228076   3.209   3.092  11.244
 8879SOL     OW28077   2.147   1.909  11.358
 8879SOL    HW128078   2.197   1.974  11.308
 8879SOL    HW228079   2.214   1.853  11.397
 8880SOL     OW28080   2.807   2.111  11.625
 8880SOL    HW128081   2.782   2.147  11.540
 8880SOL    HW228082   2.901   2.127  11.632
 8881SOL     OW28083   3.072   3.452  11.976
 8881SOL    HW128084   3.085   3.509  11.900
 8881SOL    HW228085   3.154   3.458  12.025
 8882SOL     OW28086   2.334   3.016  11.893
 8882SOL    HW128087   2.268   2.995  11.959
 8882SOL    HW228088   2.288   3.006  11.809
 8883SOL     OW28089   3.120   3.654  11.786
 8883SOL    HW128090   3.172   3.712  11.730
 8883SOL    HW228091   3.051   3.711  11.820
 8884SOL     OW28092   2.885   2.394  11.201
 8884SOL    HW128093   2.842   2.476  11.176
 8884SOL    HW228094   2.954   2.420  11.261
 8885SOL     OW28095   2.428   2.074  12.356
 8885SOL    HW128096   2.444   1.986  12.320
 8885SOL    HW228097   2.334   2.075  12.373
 8886SOL     OW28098   2.725   2.318  11.805
 8886SOL    HW128099   2.686   2.374  11.739
 8886SOL    HW228100   2.751   2.239  11.757
 8887SOL     OW28101   2.880   1.910  11.913
 8887SOL    HW128102   2.821   1.908  11.837
 8887SOL    HW228103   2.856   1.833  11.964
 8888SOL     OW28104   3.304   3.020  12.022
 8888SOL    HW128105   3.233   2.959  12.004
 8888SOL    HW228106   3.347   3.033  11.937
 8889SOL     OW28107   3.324   2.474  12.128
 8889SOL    HW128108   3.267   2.397  12.132
 8889SOL    HW228109   3.385   2.462  12.202
 8890SOL     OW28110   3.697   2.667  11.563
 8890SOL    HW128111   3.760   2.619  11.618
 8890SOL    HW228112   3.676   2.606  11.492
 8891SOL     OW28113   2.352   3.285  11.319
 8891SOL    HW128114   2.278   3.251  11.370
 8891SOL    HW228115   2.352   3.233  11.239
 8892SOL     OW28116   3.540   3.121  11.825
 8892SOL    HW128117   3.635   3.116  11.834
 8892SOL    HW228118   3.519   3.214  11.838
 8893SOL     OW28119   3.255   2.438  11.239
 8893SOL    HW128120   3.198   2.413  11.313
 8893SOL    HW228121   3.343   2.415  11.268
 8894SOL     OW28122   2.388   2.122  11.481
 8894SOL    HW128123   2.438   2.077  11.412
 8894SOL    HW228124   2.360   2.204  11.440
 8895SOL     OW28125   2.967   3.102  12.286
 8895SOL    HW128126   2.884   3.121  12.329
 8895SOL    HW228127   2.955   3.132  12.196
 8896SOL     OW28128   3.465   2.953  12.244
 8896SOL    HW128129   3.431   2.992  12.324
 8896SOL    HW228130   3.400   2.974  12.177
 8897SOL     OW28131   2.572   2.921  11.546
 8897SOL    HW128132   2.558   2.898  11.638
 8897SOL    HW228133   2.649   2.870  11.520
 8898SOL     OW28134   2.291   2.687  12.454
 8898SOL    HW128135   2.336   2.736  12.523
 8898SOL    HW228136   2.335   2.602  12.453
 8899SOL     OW28137   3.110   2.220  12.434
 8899SOL    HW128138   3.139   2.306  12.466
 8899SOL    HW228139   3.017   2.233  12.412
 8900SOL     OW28140   2.187   2.988  11.660
 8900SOL    HW128141   2.190   3.061  11.598
 8900SOL    HW228142   2.189   2.910  11.605
 8901SOL     OW28143   2.401   2.385  12.035
 8901SOL    HW128144   2.414   2.444  11.960
 8901SOL    HW228145   2.468   2.412  12.098
 8902SOL     OW28146   3.108   3.211  11.567
 8902SOL    HW128147   3.166   3.282  11.596
 8902SOL    HW228148   3.021   3.237  11.597
 8903SOL     OW28149   3.152   3.308  12.318
 8903SOL    HW128150   3.209   3.302  12.395
 8903SOL    HW228151   3.094   3.232  12.325
 8904SOL     OW28152   3.439   2.475  11.661
 8904SOL    HW128153   3.387   2.524  11.724
 8904SOL    HW228154   3.483   2.541  11.608
 8905SOL     OW28155   2.229   3.412  12.462
 8905SOL    HW128156   2.204   3.355  12.389
 8905SOL    HW228157   2.314   3.447  12.436
 8906SOL     OW28158   2.446   2.735  12.215
 8906SOL    HW128159   2.480   2.824  12.204
 8906SOL    HW228160   2.385   2.742  12.288
 8907SOL     OW28161   3.190   2.716  12.176
 8907SOL    HW128162   3.110   2.696  12.128
 8907SOL    HW228163   3.243   2.637  12.167
 8908SOL     OW28164   3.065   2.385  11.434
 8908SOL    HW128165   3.070   2.307  11.489
 8908SOL    HW228166   3.022   2.450  11.489
 8909SOL     OW28167   2.162   2.045  12.408
 8909SOL    HW128168   2.129   2.076  12.492
 8909SOL    HW228169   2.143   1.952  12.407
 8910SOL     OW28170   1.919   3.183  12.427
 8910SOL    HW128171   1.956   3.104  12.466
 8910SOL    HW228172   1.923   3.248  12.497
 8911SOL     OW28173   2.575   2.488  12.221
 8911SOL    HW128174   2.653   2.479  12.166
 8911SOL    HW228175   2.546   2.578  12.207
 8912SOL     OW28176   2.175   1.921  11.794
 8912SOL    HW128177   2.147   2.010  11.813
 8912SOL    HW228178   2.182   1.879  11.880
 8913SOL     OW28179   3.486   2.241  11.527
 8913SOL    HW128180   3.518   2.177  11.590
 8913SOL    HW228181   3.461   2.317  11.580
 8914SOL     OW28182   2.885   2.616  12.136
 8914SOL    HW128183   2.881   2.624  12.231
 8914SOL    HW228184   2.860   2.525  12.119
 8915SOL     OW28185   3.385   2.128  11.295
 8915SOL    HW128186   3.323   2.064  11.329
 8915SOL    HW228187   3.422   2.169  11.374
 8916SOL     OW28188   3.149   2.688  11.198
 8916SOL    HW128189   3.190   2.602  11.200
 8916SOL    HW228190   3.180   2.728  11.116
 8917SOL     OW28191   2.933   3.211  12.033
 8917SOL    HW128192   2.940   3.137  11.972
 8917SOL    HW228193   2.988   3.279  11.995
 8918SOL     OW28194   2.176   2.678  12.112
 8918SOL    HW128195   2.271   2.689  12.103
 8918SOL    HW228196   2.165   2.587  12.141
 8919SOL     OW28197   2.170   2.406  12.171
 8919SOL    HW128198   2.139   2.316  12.171
 8919SOL    HW228199   2.252   2.404  12.121
 8920SOL     OW28200   3.036   2.078   0.155
 8920SOL    HW128201   3.009   2.147   0.216
 8920SOL    HW228202   3.060   2.124   0.075
 8921SOL     OW28203   1.878   3.175  11.363
 8921SOL    HW128204   1.789   3.194  11.332
 8921SOL    HW228205   1.872   3.087  11.400
 8922SOL     OW28206   1.957   3.636  12.131
 8922SOL    HW128207   1.925   3.559  12.084
 8922SOL    HW228208   2.043   3.653  12.092
 8923SOL     OW28209   2.357   3.442  12.077
 8923SOL    HW128210   2.429   3.501  12.100
 8923SOL    HW228211   2.396   3.379  12.016
 8924SOL     OW28212   2.836   2.645  12.413
 8924SOL    HW128213   2.884   2.716  12.457
 8924SOL    HW228214   2.743   2.667  12.427
 8925SOL     OW28215   1.915   2.426  12.284
 8925SOL    HW128216   1.992   2.432  12.227
 8925SOL    HW228217   1.949   2.388  12.365
 8926SOL     OW28218   2.678   2.431  11.544
 8926SOL    HW128219   2.685   2.359  11.481
 8926SOL    HW228220   2.605   2.484  11.512
 8927SOL     OW28221   3.512   2.457  12.327
 8927SOL    HW128222   3.511   2.410  12.410
 8927SOL    HW228223   3.602   2.450  12.296
 8928SOL     OW28224   2.580   2.305  12.426
 8928SOL    HW128225   2.519   2.236  12.400
 8928SOL    HW228226   2.570   2.372  12.358
 8929SOL     OW28227   2.746   3.512   0.040
 8929SOL    HW128228   2.756   3.571  -0.035
 8929SOL    HW228229   2.799   3.551   0.109
 8930SOL     OW28230   2.317   2.352  11.353
 8930SOL    HW128231   2.378   2.422  11.376
 8930SOL    HW228232   2.232   2.395  11.345
 8931SOL     OW28233   3.141   2.898  12.371
 8931SOL    HW128234   3.166   2.840  12.299
 8931SOL    HW228235   3.092   2.969  12.329
 8932SOL     OW28236   3.181   2.714  11.472
 8932SOL    HW128237   3.103   2.684  11.519
 8932SOL    HW228238   3.158   2.705  11.380
 8933SOL     OW28239   3.618   3.612  12.305
 8933SOL    HW128240   3.688   3.630  12.242
 8933SOL    HW228241   3.603   3.518  12.298
 8934SOL     OW28242   3.111   3.579  12.286
 8934SOL    HW128243   3.187   3.617  12.243
 8934SOL    HW228244   3.126   3.485  12.283
 8935SOL     OW28245   1.935   3.156  12.158
 8935SOL    HW128246   1.926   3.163  12.253
 8935SOL    HW228247   1.884   3.079  12.134
 8936SOL     OW28248   3.593   2.027  11.676
 8936SOL    HW128249   3.658   2.010  11.607
 8936SOL    HW228250   3.574   1.940  11.712
 8937SOL     OW28251   3.260   3.429  11.671
 8937SOL    HW128252   3.316   3.459  11.600
 8937SOL    HW228253   3.206   3.504  11.693
 8938SOL     OW28254   3.141   2.795  11.846
 8938SOL    HW128255   3.214   2.734  11.854
 8938SOL    HW228256   3.173   2.863  11.788
 8939SOL     OW28257   2.530   3.489  11.327
 8939SOL    HW128258   2.546   3.506  11.234
 8939SOL    HW228259   2.474   3.412  11.328
 8940SOL     OW28260   3.485   3.654   0.040
 8940SOL    HW128261   3.536   3.640  -0.040
 8940SOL    HW228262   3.523   3.732   0.079
 8941SOL     OW28263   3.706   2.032  12.144
 8941SOL    HW128264   3.736   1.945  12.117
 8941SOL    HW228265   3.620   2.041  12.103
 8942SOL     OW28266   2.115   2.170  11.883
 8942SOL    HW128267   2.029   2.206  11.859
 8942SOL    HW228268   2.116   2.172  11.978
 8943SOL     OW28269   3.071   3.463  11.207
 8943SOL    HW128270   3.060   3.370  11.225
 8943SOL    HW228271   3.013   3.481  11.133
 8944SOL     OW28272   2.654   2.872  12.484
 8944SOL    HW128273   2.654   2.917  12.400
 8944SOL    HW228274   2.732   2.904  12.528
 8945SOL     OW28275   2.784   2.775  11.473
 8945SOL    HW128276   2.838   2.805  11.401
 8945SOL    HW228277   2.835   2.704  11.513
 8946SOL     OW28278   3.352   3.497  11.222
 8946SOL    HW128279   3.259   3.483  11.203
 8946SOL    HW228280   3.393   3.501  11.135
 8947SOL     OW28281   2.930   2.978  11.896
 8947SOL    HW128282   2.855   2.925  11.924
 8947SOL    HW228283   2.993   2.914  11.863
 8948SOL     OW28284   2.897   2.108  12.112
 8948SOL    HW128285   2.893   2.050  12.036
 8948SOL    HW228286   2.893   2.049  12.187
 8949SOL     OW28287   2.467   3.358  11.652
 8949SOL    HW128288   2.521   3.303  11.595
 8949SOL    HW228289   2.393   3.384  11.597
 8950SOL     OW28290   3.622   2.297   0.042
 8950SOL    HW128291   3.717   2.303   0.044
 8950SOL    HW228292   3.604   2.207   0.013
 8951SOL     OW28293   2.135   3.198  11.474
 8951SOL    HW128294   2.046   3.196  11.439
 8951SOL    HW228295   2.127   3.245  11.557
 8952SOL     OW28296   1.943   2.188  11.192
 8952SOL    HW128297   1.864   2.171  11.141
 8952SOL    HW228298   1.979   2.268  11.154
 8953SOL     OW28299   1.917   2.015  11.463
 8953SOL    HW128300   1.903   2.090  11.405
 8953SOL    HW228301   2.003   1.982  11.439
 8954SOL     OW28302   3.042   3.190  11.289
 8954SOL    HW128303   2.949   3.169  11.286
 8954SOL    HW228304   3.064   3.191  11.383
 8955SOL     OW28305   3.348   3.651  12.159
 8955SOL    HW128306   3.370   3.720  12.097
 8955SOL    HW228307   3.432   3.627  12.199
 8956SOL     OW28308   3.545   2.732  12.402
 8956SOL    HW128309   3.521   2.648  12.363
 8956SOL    HW228310   3.518   2.797  12.338
 8957SOL     OW28311   3.076   2.178  11.631
 8957SOL    HW128312   3.139   2.106  11.626
 8957SOL    HW228313   3.106   2.231  11.705
 8958SOL     OW28314   2.440   2.594  11.856
 8958SOL    HW128315   2.484   2.677  11.838
 8958SOL    HW228316   2.380   2.583  11.782
 8959SOL     OW28317   3.686   2.743   0.131
 8959SOL    HW128318   3.670   2.828   0.171
 8959SOL    HW228319   3.627   2.741   0.055
 8960SOL     OW28320   2.737   3.230  11.223
 8960SOL    HW128321   2.689   3.274  11.293
 8960SOL    HW228322   2.755   3.299  11.159
 8961SOL     OW28323   2.531   3.651  12.125
 8961SOL    HW128324   2.513   3.739  12.091
 8961SOL    HW228325   2.624   3.638  12.109
 8962SOL     OW28326   2.733   2.830  12.027
 8962SOL    HW128327   2.782   2.756  12.063
 8962SOL    HW228328   2.699   2.876  12.104
 8963SOL     OW28329   2.933   2.843  11.261
 8963SOL    HW128330   2.912   2.898  11.186
 8963SOL    HW228331   3.010   2.792  11.233
 8964SOL     OW28332   3.708   3.418  12.012
 8964SOL    HW128333   3.627   3.407  11.963
 8964SOL    HW228334   3.707   3.347  12.077
 8965SOL     OW28335   1.957   3.090  11.836
 8965SOL    HW128336   1.981   3.046  11.918
 8965SOL    HW228337   2.019   3.056  11.772
 8966SOL     OW28338   3.668   2.036  12.419
 8966SOL    HW128339   3.681   1.941  12.415
 8966SOL    HW228340   3.678   2.065  12.328
 8967SOL     OW28341   2.291   2.292  11.698
 8967SOL    HW128342   2.320   2.224  11.637
 8967SOL    HW228343   2.236   2.245  11.762
 8968SOL     OW28344   3.565   3.351  12.275
 8968SOL    HW128345   3.487   3.315  12.232
 8968SOL    HW228346   3.586   3.287  12.343
 8969SOL     OW28347   2.688   3.453  11.846
 8969SOL    HW128348   2.678   3.520  11.778
 8969SOL    HW228349   2.614   3.394  11.833
 8970SOL     OW28350   3.305   2.099  12.295
 8970SOL    HW128351   3.371   2.068  12.357
 8970SOL    HW228352   3.236   2.136  12.350
 8971SOL     OW28353   2.858   1.823  12.314
 8971SOL    HW128354   2.826   1.785  12.232
 8971SOL    HW228355   2.952   1.805  12.314
 8972SOL     OW28356   2.630   3.194  11.511
 8972SOL    HW128357   2.606   3.102  11.510
 8972SOL    HW228358   2.720   3.196  11.543
 8973SOL     OW28359   3.221   1.911  11.355
 8973SOL    HW128360   3.255   1.846  11.293
 8973SOL    HW228361   3.131   1.881  11.372
 8974SOL     OW28362   3.156   2.327  11.847
 8974SOL    HW128363   3.106   2.408  11.849
 8974SOL    HW228364   3.155   2.295  11.937
 8975SOL     OW28365   3.446   2.052  12.059
 8975SOL    HW128366   3.391   2.078  12.132
 8975SOL    HW228367   3.446   2.128  12.000
 8976SOL     OW28368   1.903   2.923  11.486
 8976SOL    HW128369   1.995   2.915  11.464
 8976SOL    HW228370   1.874   2.834  11.505
 8977SOL     OW28371   2.747   3.525  11.511
 8977SOL    HW128372   2.674   3.511  11.451
 8977SOL    HW228373   2.721   3.601  11.563
 8978SOL     OW28374   2.107   4.292   0.034
 8978SOL    HW128375   2.084   4.354   0.103
 8978SOL    HW228376   2.065   4.328  -0.045
 8979SOL     OW28377   2.090   4.002   0.986
 8979SOL    HW128378   2.116   3.973   1.073
 8979SOL    HW228379   1.999   3.973   0.977
 8980SOL     OW28380   1.856   4.112   0.638
 8980SOL    HW128381   1.783   4.144   0.691
 8980SOL    HW228382   1.823   4.033   0.596
 8981SOL     OW28383   2.433   5.027   1.190
 8981SOL    HW128384   2.346   5.033   1.149
 8981SOL    HW228385   2.451   5.116   1.221
 8982SOL     OW28386   3.438   5.245   0.716
 8982SOL    HW128387   3.395   5.218   0.797
 8982SOL    HW228388   3.369   5.244   0.651
 8983SOL     OW28389   2.992   4.427   0.692
 8983SOL    HW128390   3.041   4.509   0.683
 8983SOL    HW228391   2.947   4.437   0.776
 8984SOL     OW28392   3.595   4.337   0.269
 8984SOL    HW128393   3.592   4.337   0.174
 8984SOL    HW228394   3.566   4.248   0.293
 8985SOL     OW28395   2.595   4.856   1.046
 8985SOL    HW128396   2.533   4.895   1.108
 8985SOL    HW228397   2.640   4.930   1.007
 8986SOL     OW28398   2.740   4.477   1.830
 8986SOL    HW128399   2.739   4.541   1.901
 8986SOL    HW228400   2.763   4.529   1.752
 8987SOL     OW28401   2.546   4.715   0.645
 8987SOL    HW128402   2.615   4.709   0.712
 8987SOL    HW228403   2.480   4.772   0.683
 8988SOL     OW28404   2.574   4.869   1.817
 8988SOL    HW128405   2.619   4.946   1.852
 8988SOL    HW228406   2.494   4.904   1.779
 8989SOL     OW28407   2.195   5.136   1.067
 8989SOL    HW128408   2.120   5.096   1.024
 8989SOL    HW228409   2.237   5.188   0.999
 8990SOL     OW28410   3.321   5.231   1.364
 8990SOL    HW128411   3.376   5.308   1.377
 8990SOL    HW228412   3.252   5.239   1.431
 8991SOL     OW28413   2.320   4.105   1.457
 8991SOL    HW128414   2.396   4.052   1.480
 8991SOL    HW228415   2.245   4.058   1.494
 8992SOL     OW28416   3.467   4.165   0.753
 8992SOL    HW128417   3.422   4.200   0.676
 8992SOL    HW228418   3.447   4.227   0.823
 8993SOL     OW28419   2.078   5.444   0.472
 8993SOL    HW128420   2.099   5.517   0.530
 8993SOL    HW228421   2.156   5.432   0.418
 8994SOL     OW28422   2.998   5.070   1.697
 8994SOL    HW128423   3.041   5.062   1.783
 8994SOL    HW228424   2.946   4.990   1.689
 8995SOL     OW28425   2.078   5.174   0.539
 8995SOL    HW128426   2.064   5.269   0.544
 8995SOL    HW228427   2.028   5.139   0.613
 8996SOL     OW28428   2.133   4.815   0.888
 8996SOL    HW128429   2.133   4.726   0.926
 8996SOL    HW228430   2.078   4.866   0.948
 8997SOL     OW28431   2.447   5.526   1.414
 8997SOL    HW128432   2.373   5.502   1.470
 8997SOL    HW228433   2.480   5.608   1.450
 8998SOL     OW28434   2.436   4.691   0.154
 8998SOL    HW128435   2.503   4.711   0.089
 8998SOL    HW228436   2.468   4.733   0.234
 8999SOL     OW28437   3.455   3.858   1.460
 8999SOL    HW128438   3.487   3.938   1.419
 8999SOL    HW228439   3.432   3.883   1.550
 9000SOL     OW28440   1.978   4.377   0.565
 9000SOL    HW128441   1.950   4.289   0.590
 9000SOL    HW228442   1.972   4.428   0.647
 9001SOL     OW28443   3.717   5.464   0.310
 9001SOL    HW128444   3.784   5.438   0.373
 9001SOL    HW228445   3.732   5.557   0.295
 9002SOL     OW28446   1.886   5.266   0.108
 9002SOL    HW128447   1.801   5.223   0.119
 9002SOL    HW228448   1.887   5.335   0.175
 9003SOL     OW28449   3.544   4.658   0.653
 9003SOL    HW128450   3.615   4.610   0.610
 9003SOL    HW228451   3.513   4.719   0.586
 9004SOL     OW28452   3.507   4.839   0.433
 9004SOL    HW128453   3.593   4.836   0.390
 9004SOL    HW228454   3.518   4.903   0.504
 9005SOL     OW28455   1.999   4.474   1.580
 9005SOL    HW128456   2.092   4.496   1.588
 9005SOL    HW228457   1.953   4.556   1.600
 9006SOL     OW28458   2.482   5.117   0.734
 9006SOL    HW128459   2.439   5.032   0.744
 9006SOL    HW228460   2.466   5.141   0.642
 9007SOL     OW28461   3.146   4.960   1.415
 9007SOL    HW128462   3.177   4.889   1.358
 9007SOL    HW228463   3.201   4.954   1.493
 9008SOL     OW28464   2.693   3.748   0.523
 9008SOL    HW128465   2.730   3.832   0.498
 9008SOL    HW228466   2.598   3.764   0.528
 9009SOL     OW28467   2.050   4.687   1.277
 9009SOL    HW128468   2.137   4.648   1.265
 9009SOL    HW228469   1.991   4.626   1.234
 9010SOL     OW28470   3.353   4.739   0.227
 9010SOL    HW128471   3.290   4.680   0.268
 9010SOL    HW228472   3.411   4.767   0.299
 9011SOL     OW28473   3.040   5.542   1.626
 9011SOL    HW128474   3.049   5.601   1.551
 9011SOL    HW228475   3.063   5.456   1.591
 9012SOL     OW28476   2.214   3.982   1.816
 9012SOL    HW128477   2.258   4.052   1.865
 9012SOL    HW228478   2.123   3.985   1.845
 9013SOL     OW28479   3.327   5.143   0.945
 9013SOL    HW128480   3.264   5.158   1.015
 9013SOL    HW228481   3.314   5.051   0.920
 9014SOL     OW28482   3.508   5.492   0.583
 9014SOL    HW128483   3.488   5.451   0.499
 9014SOL    HW228484   3.498   5.421   0.647
 9015SOL     OW28485   2.438   4.432   0.273
 9015SOL    HW128486   2.451   4.521   0.241
 9015SOL    HW228487   2.376   4.441   0.345
 9016SOL     OW28488   3.143   4.097   0.935
 9016SOL    HW128489   3.054   4.064   0.944
 9016SOL    HW228490   3.196   4.043   0.993
 9017SOL     OW28491   3.453   5.397   0.329
 9017SOL    HW128492   3.547   5.409   0.322
 9017SOL    HW228493   3.422   5.393   0.239
 9018SOL     OW28494   2.648   4.344   1.440
 9018SOL    HW128495   2.627   4.318   1.530
 9018SOL    HW228496   2.620   4.270   1.386
 9019SOL     OW28497   3.256   4.195   1.682
 9019SOL    HW128498   3.260   4.240   1.766
 9019SOL    HW228499   3.312   4.118   1.694
 9020SOL     OW28500   2.811   4.607   1.591
 9020SOL    HW128501   2.868   4.541   1.550
 9020SOL    HW228502   2.761   4.643   1.518
 9021SOL     OW28503   2.862   4.132   1.225
 9021SOL    HW128504   2.772   4.149   1.255
 9021SOL    HW228505   2.851   4.085   1.142
 9022SOL     OW28506   2.916   4.429   0.426
 9022SOL    HW128507   2.933   4.425   0.520
 9022SOL    HW228508   2.831   4.386   0.415
 9023SOL     OW28509   1.954   4.548   0.776
 9023SOL    HW128510   2.034   4.541   0.829
 9023SOL    HW228511   1.907   4.622   0.814
 9024SOL     OW28512   1.983   5.598   1.589
 9024SOL    HW128513   1.992   5.578   1.682
 9024SOL    HW228514   1.899   5.561   1.564
 9025SOL     OW28515   2.750   4.086   0.218
 9025SOL    HW128516   2.785   4.153   0.159
 9025SOL    HW228517   2.747   4.007   0.164
 9026SOL     OW28518   3.560   4.282   1.829
 9026SOL    HW128519   3.528   4.359   1.782
 9026SOL    HW228520   3.594   4.225   1.761
 9027SOL     OW28521   3.244   4.866   0.536
 9027SOL    HW128522   3.326   4.861   0.487
 9027SOL    HW228523   3.190   4.927   0.487
 9028SOL     OW28524   2.408   3.900   0.904
 9028SOL    HW128525   2.412   3.921   0.997
 9028SOL    HW228526   2.414   3.985   0.860
 9029SOL     OW28527   2.854   5.155   0.472
 9029SOL    HW128528   2.816   5.234   0.435
 9029SOL    HW228529   2.840   5.163   0.567
 9030SOL     OW28530   2.215   5.539   0.878
 9030SOL    HW128531   2.260   5.455   0.881
 9030SOL    HW228532   2.282   5.604   0.898
 9031SOL     OW28533   3.668   4.773   0.877
 9031SOL    HW128534   3.615   4.750   0.800
 9031SOL    HW228535   3.604   4.781   0.948
 9032SOL     OW28536   3.087   5.267   1.515
 9032SOL    HW128537   3.077   5.198   1.581
 9032SOL    HW228538   3.014   5.255   1.456
 9033SOL     OW28539   2.172   4.711   0.258
 9033SOL    HW128540   2.256   4.718   0.213
 9033SOL    HW228541   2.141   4.623   0.238
 9034SOL     OW28542   3.342   4.482   0.721
 9034SOL    HW128543   3.342   4.439   0.807
 9034SOL    HW228544   3.419   4.539   0.723
 9035SOL     OW28545   2.339   4.993   1.735
 9035SOL    HW128546   2.311   4.997   1.644
 9035SOL    HW228547   2.257   4.991   1.785
 9036SOL     OW28548   2.924   5.503   0.224
 9036SOL    HW128549   2.904   5.462   0.308
 9036SOL    HW228550   2.993   5.449   0.187
 9037SOL     OW28551   2.064   3.993   1.506
 9037SOL    HW128552   1.993   4.050   1.535
 9037SOL    HW228553   2.049   3.910   1.552
 9038SOL     OW28554   3.515   5.136   0.090
 9038SOL    HW128555   3.450   5.196   0.055
 9038SOL    HW228556   3.471   5.051   0.091
 9039SOL     OW28557   2.315   5.452   0.330
 9039SOL    HW128558   2.362   5.510   0.390
 9039SOL    HW228559   2.384   5.416   0.273
 9040SOL     OW28560   3.266   3.822   0.449
 9040SOL    HW128561   3.264   3.790   0.359
 9040SOL    HW228562   3.359   3.827   0.470
 9041SOL     OW28563   2.115   5.513   1.228
 9041SOL    HW128564   2.166   5.448   1.277
 9041SOL    HW228565   2.121   5.485   1.137
 9042SOL     OW28566   2.800   5.427   0.895
 9042SOL    HW128567   2.876   5.378   0.925
 9042SOL    HW228568   2.763   5.374   0.824
 9043SOL     OW28569   2.248   4.417   0.476
 9043SOL    HW128570   2.265   4.323   0.486
 9043SOL    HW228571   2.160   4.429   0.511
 9044SOL     OW28572   3.390   3.945   1.723
 9044SOL    HW128573   3.405   3.970   1.814
 9044SOL    HW228574   3.327   3.873   1.728
 9045SOL     OW28575   2.491   3.841   0.117
 9045SOL    HW128576   2.585   3.824   0.119
 9045SOL    HW228577   2.477   3.888   0.035
 9046SOL     OW28578   2.618   4.003   1.752
 9046SOL    HW128579   2.702   3.956   1.749
 9046SOL    HW228580   2.579   3.976   1.835
 9047SOL     OW28581   2.738   5.249   1.196
 9047SOL    HW128582   2.718   5.207   1.112
 9047SOL    HW228583   2.804   5.193   1.236
 9048SOL     OW28584   3.201   4.314   1.440
 9048SOL    HW128585   3.232   4.281   1.524
 9048SOL    HW228586   3.241   4.401   1.431
 9049SOL     OW28587   2.683   5.107   0.953
 9049SOL    HW128588   2.768   5.098   0.912
 9049SOL    HW228589   2.621   5.118   0.881
 9050SOL     OW28590   2.792   4.234   0.897
 9050SOL    HW128591   2.765   4.224   0.806
 9050SOL    HW228592   2.822   4.148   0.924
 9051SOL     OW28593   2.419   3.785   0.507
 9051SOL    HW128594   2.351   3.795   0.574
 9051SOL    HW228595   2.407   3.861   0.449
 9052SOL     OW28596   3.323   4.943   0.050
 9052SOL    HW128597   3.337   4.864   0.102
 9052SOL    HW228598   3.231   4.966   0.065
 9053SOL     OW28599   2.164   3.807   0.221
 9053SOL    HW128600   2.237   3.862   0.246
 9053SOL    HW228601   2.205   3.729   0.183
 9054SOL     OW28602   2.811   3.983   0.462
 9054SOL    HW128603   2.786   4.020   0.377
 9054SOL    HW228604   2.906   3.994   0.465
 9055SOL     OW28605   2.945   4.412   1.452
 9055SOL    HW128606   2.886   4.339   1.468
 9055SOL    HW228607   3.033   4.373   1.453
 9056SOL     OW28608   3.080   5.293   0.792
 9056SOL    HW128609   3.094   5.361   0.727
 9056SOL    HW228610   3.146   5.309   0.859
 9057SOL     OW28611   2.340   4.881   0.726
 9057SOL    HW128612   2.276   4.859   0.793
 9057SOL    HW228613   2.292   4.872   0.643
 9058SOL     OW28614   3.118   5.512   0.612
 9058SOL    HW128615   3.169   5.578   0.564
 9058SOL    HW228616   3.049   5.563   0.655
 9059SOL     OW28617   2.878   4.295   0.094
 9059SOL    HW128618   2.901   4.356   0.023
 9059SOL    HW228619   2.956   4.292   0.149
 9060SOL     OW28620   1.946   4.285   1.389
 9060SOL    HW128621   2.039   4.279   1.366
 9060SOL    HW228622   1.943   4.353   1.456
 9061SOL     OW28623   2.416   3.945   1.177
 9061SOL    HW128624   2.460   3.888   1.240
 9061SOL    HW228625   2.325   3.946   1.206
 9062SOL     OW28626   2.724   4.182   0.638
 9062SOL    HW128627   2.686   4.240   0.572
 9062SOL    HW228628   2.752   4.105   0.590
 9063SOL     OW28629   2.885   3.774   0.739
 9063SOL    HW128630   2.821   3.769   0.668
 9063SOL    HW228631   2.858   3.704   0.800
 9064SOL     OW28632   3.300   4.882   0.860
 9064SOL    HW128633   3.234   4.813   0.867
 9064SOL    HW228634   3.320   4.887   0.767
 9065SOL     OW28635   3.328   4.332   0.958
 9065SOL    HW128636   3.266   4.260   0.969
 9065SOL    HW228637   3.384   4.327   1.036
 9066SOL     OW28638   3.689   4.548   0.428
 9066SOL    HW128639   3.741   4.485   0.478
 9066SOL    HW228640   3.648   4.495   0.359
 9067SOL     OW28641   2.349   5.119   0.154
 9067SOL    HW128642   2.290   5.077   0.216
 9067SOL    HW228643   2.291   5.173   0.099
 9068SOL     OW28644   3.543   4.995   0.644
 9068SOL    HW128645   3.637   4.990   0.661
 9068SOL    HW228646   3.519   5.084   0.670
 9069SOL     OW28647   3.256   4.269   0.081
 9069SOL    HW128648   3.205   4.268   0.162
 9069SOL    HW228649   3.312   4.192   0.087
 9070SOL     OW28650   2.374   3.975   0.319
 9070SOL    HW128651   2.431   3.930   0.257
 9070SOL    HW228652   2.356   4.059   0.278
 9071SOL     OW28653   3.603   4.967   1.551
 9071SOL    HW128654   3.688   4.923   1.563
 9071SOL    HW228655   3.617   5.056   1.582
 9072SOL     OW28656   2.913   5.074   1.326
 9072SOL    HW128657   2.837   5.044   1.376
 9072SOL    HW228658   2.988   5.035   1.371
 9073SOL     OW28659   3.467   5.357   1.659
 9073SOL    HW128660   3.463   5.390   1.570
 9073SOL    HW228661   3.545   5.303   1.662
 9074SOL     OW28662   2.996   4.934   1.099
 9074SOL    HW128663   2.942   4.976   1.166
 9074SOL    HW228664   2.968   4.975   1.017
 9075SOL     OW28665   3.485   4.822   1.076
 9075SOL    HW128666   3.479   4.883   1.149
 9075SOL    HW228667   3.410   4.843   1.021
 9076SOL     OW28668   2.784   3.811   1.389
 9076SOL    HW128669   2.809   3.797   1.297
 9076SOL    HW228670   2.860   3.852   1.429
 9077SOL     OW28671   2.843   4.845   1.716
 9077SOL    HW128672   2.753   4.858   1.746
 9077SOL    HW228673   2.840   4.762   1.668
 9078SOL     OW28674   2.572   4.784   0.376
 9078SOL    HW128675   2.559   4.763   0.468
 9078SOL    HW228676   2.651   4.735   0.351
 9079SOL     OW28677   2.284   4.543   1.253
 9079SOL    HW128678   2.351   4.556   1.320
 9079SOL    HW228679   2.251   4.455   1.267
 9080SOL     OW28680   3.128   4.103   1.282
 9080SOL    HW128681   3.158   4.179   1.332
 9080SOL    HW228682   3.036   4.123   1.261
 9081SOL     OW28683   1.943   5.298   1.361
 9081SOL    HW128684   1.923   5.376   1.308
 9081SOL    HW228685   2.038   5.289   1.355
 9082SOL     OW28686   2.191   4.852   0.499
 9082SOL    HW128687   2.186   4.929   0.442
 9082SOL    HW228688   2.196   4.778   0.438
 9083SOL     OW28689   2.402   4.243   0.851
 9083SOL    HW128690   2.417   4.304   0.779
 9083SOL    HW228691   2.466   4.268   0.918
 9084SOL     OW28692   3.106   5.073   0.394
 9084SOL    HW128693   3.161   5.142   0.430
 9084SOL    HW228694   3.018   5.092   0.428
 9085SOL     OW28695   3.157   5.188   1.152
 9085SOL    HW128696   3.214   5.199   1.228
 9085SOL    HW228697   3.099   5.116   1.176
 9086SOL     OW28698   3.417   4.320   0.508
 9086SOL    HW128699   3.374   4.381   0.569
 9086SOL    HW228700   3.456   4.377   0.441
 9087SOL     OW28701   2.208   5.253   1.310
 9087SOL    HW128702   2.198   5.206   1.227
 9087SOL    HW228703   2.302   5.265   1.320
 9088SOL     OW28704   2.290   4.463   1.611
 9088SOL    HW128705   2.348   4.508   1.550
 9088SOL    HW228706   2.341   4.388   1.642
 9089SOL     OW28707   3.476   4.500   1.690
 9089SOL    HW128708   3.390   4.542   1.688
 9089SOL    HW228709   3.527   4.546   1.623
 9090SOL     OW28710   2.853   3.863   1.744
 9090SOL    HW128711   2.913   3.936   1.732
 9090SOL    HW228712   2.905   3.785   1.723
 9091SOL     OW28713   2.362   3.756   1.745
 9091SOL    HW128714   2.308   3.704   1.686
 9091SOL    HW228715   2.310   3.835   1.762
 9092SOL     OW28716   2.445   4.600   1.032
 9092SOL    HW128717   2.486   4.687   1.038
 9092SOL    HW228718   2.392   4.593   1.112
 9093SOL     OW28719   3.197   4.583   1.008
 9093SOL    HW128720   3.108   4.558   0.984
 9093SOL    HW228721   3.247   4.501   1.001
 9094SOL     OW28722   3.075   4.253   0.285
 9094SOL    HW128723   3.089   4.179   0.345
 9094SOL    HW228724   3.027   4.317   0.338
 9095SOL     OW28725   2.149   3.922   1.245
 9095SOL    HW128726   2.118   3.956   1.329
 9095SOL    HW228727   2.131   3.828   1.249
 9096SOL     OW28728   1.911   5.039   1.268
 9096SOL    HW128729   1.938   4.980   1.338
 9096SOL    HW228730   1.914   5.126   1.307
 9097SOL     OW28731   2.570   4.346   1.041
 9097SOL    HW128732   2.653   4.337   0.994
 9097SOL    HW228733   2.546   4.438   1.030
 9098SOL     OW28734   3.601   4.690   1.856
 9098SOL    HW128735   3.560   4.614   1.815
 9098SOL    HW228736   3.546   4.708   1.933
 9099SOL     OW28737   2.147   3.744   0.614
 9099SOL    HW128738   2.123   3.836   0.621
 9099SOL    HW228739   2.166   3.717   0.704
 9100SOL     OW28740   3.481   4.095   0.367
 9100SOL    HW128741   3.513   4.026   0.426
 9100SOL    HW228742   3.447   4.163   0.425
 9101SOL     OW28743   2.893   4.481   0.959
 9101SOL    HW128744   2.878   4.498   1.052
 9101SOL    HW228745   2.865   4.390   0.946
 9102SOL     OW28746   2.841   5.294   1.725
 9102SOL    HW128747   2.827   5.334   1.639
 9102SOL    HW228748   2.881   5.209   1.706
 9103SOL     OW28749   3.705   5.222   1.604
 9103SOL    HW128750   3.734   5.251   1.518
 9103SOL    HW228751   3.782   5.232   1.660
 9104SOL     OW28752   2.214   4.650   1.804
 9104SOL    HW128753   2.286   4.667   1.864
 9104SOL    HW228754   2.247   4.583   1.744
 9105SOL     OW28755   3.361   4.011   0.135
 9105SOL    HW128756   3.322   3.927   0.158
 9105SOL    HW228757   3.409   4.038   0.214
 9106SOL     OW28758   3.148   4.524   0.054
 9106SOL    HW128759   3.200   4.444   0.047
 9106SOL    HW228760   3.193   4.588  -0.001
 9107SOL     OW28761   2.931   5.066   0.857
 9107SOL    HW128762   2.940   4.994   0.796
 9107SOL    HW228763   2.989   5.134   0.823
 9108SOL     OW28764   2.175   4.534   0.942
 9108SOL    HW128765   2.268   4.556   0.947
 9108SOL    HW228766   2.169   4.445   0.975
 9109SOL     OW28767   2.180   4.255   1.006
 9109SOL    HW128768   2.146   4.166   0.996
 9109SOL    HW228769   2.258   4.257   0.951
 9110SOL     OW28770   2.998   4.097   1.685
 9110SOL    HW128771   2.952   4.148   1.751
 9110SOL    HW228772   3.087   4.133   1.684
 9111SOL     OW28773   3.024   3.922   1.470
 9111SOL    HW128774   3.012   3.982   1.544
 9111SOL    HW228775   3.069   3.975   1.404
 9112SOL     OW28776   1.947   5.503   0.937
 9112SOL    HW128777   1.920   5.424   0.891
 9112SOL    HW228778   2.039   5.516   0.911
 9113SOL     OW28779   2.349   5.297   0.900
 9113SOL    HW128780   2.418   5.359   0.924
 9113SOL    HW228781   2.392   5.234   0.843
 9114SOL     OW28782   2.824   4.506   1.223
 9114SOL    HW128783   2.889   4.488   1.291
 9114SOL    HW228784   2.742   4.471   1.258
 9115SOL     OW28785   1.904   4.282   1.115
 9115SOL    HW128786   1.989   4.280   1.070
 9115SOL    HW228787   1.926   4.281   1.208
 9116SOL     OW28788   2.043   4.252   1.737
 9116SOL    HW128789   2.120   4.221   1.690
 9116SOL    HW228790   2.014   4.328   1.686
 9117SOL     OW28791   3.247   4.650   1.656
 9117SOL    HW128792   3.267   4.744   1.654
 9117SOL    HW228793   3.245   4.625   1.563
 9118SOL     OW28794   2.673   4.302   0.380
 9118SOL    HW128795   2.688   4.228   0.321
 9118SOL    HW228796   2.596   4.347   0.345
 9119SOL     OW28797   3.502   4.326   1.169
 9119SOL    HW128798   3.494   4.271   1.247
 9119SOL    HW228799   3.591   4.311   1.138
 9120SOL     OW28800   2.093   5.269   1.721
 9120SOL    HW128801   2.075   5.331   1.792
 9120SOL    HW228802   2.108   5.185   1.765
 9121SOL     OW28803   2.584   4.164   1.244
 9121SOL    HW128804   2.521   4.094   1.227
 9121SOL    HW228805   2.569   4.228   1.174
 9122SOL     OW28806   2.783   5.400   1.471
 9122SOL    HW128807   2.755   5.361   1.389
 9122SOL    HW228808   2.779   5.495   1.456
 9123SOL     OW28809   2.320   4.197   0.185
 9123SOL    HW128810   2.367   4.277   0.208
 9123SOL    HW228811   2.248   4.228   0.129
 9124SOL     OW28812   1.997   4.868   1.471
 9124SOL    HW128813   1.999   4.822   1.555
 9124SOL    HW228814   2.018   4.801   1.406
 9125SOL     OW28815   3.181   4.765   1.212
 9125SOL    HW128816   3.199   4.702   1.142
 9125SOL    HW228817   3.115   4.823   1.175
 9126SOL     OW28818   3.159   4.571   0.327
 9126SOL    HW128819   3.085   4.533   0.373
 9126SOL    HW228820   3.149   4.541   0.237
 9127SOL     OW28821   3.639   5.459   1.157
 9127SOL    HW128822   3.702   5.482   1.087
 9127SOL    HW228823   3.613   5.369   1.137
 9128SOL     OW28824   3.099   5.454   1.090
 9128SOL    HW128825   3.184   5.481   1.057
 9128SOL    HW228826   3.112   5.364   1.120
 9129SOL     OW28827   1.953   4.989   1.006
 9129SOL    HW128828   1.935   5.006   1.099
 9129SOL    HW228829   1.883   4.930   0.978
 9130SOL     OW28830   2.546   5.399   1.746
 9130SOL    HW128831   2.492   5.476   1.732
 9130SOL    HW228832   2.627   5.418   1.699
 9131SOL     OW28833   2.762   3.827   0.097
 9131SOL    HW128834   2.812   3.844   0.017
 9131SOL    HW228835   2.822   3.779   0.153
 9132SOL     OW28836   3.587   3.880   0.505
 9132SOL    HW128837   3.656   3.856   0.444
 9132SOL    HW228838   3.566   3.798   0.551
 9133SOL     OW28839   3.254   5.289   0.498
 9133SOL    HW128840   3.316   5.324   0.434
 9133SOL    HW228841   3.205   5.366   0.528
 9134SOL     OW28842   2.007   5.524   1.845
 9134SOL    HW128843   1.959   5.455   1.891
 9134SOL    HW228844   2.056   5.568   1.914
 9135SOL     OW28845   3.137   4.656   0.669
 9135SOL    HW128846   3.211   4.597   0.684
 9135SOL    HW228847   3.173   4.725   0.613
 9136SOL     OW28848   2.660   5.003   1.416
 9136SOL    HW128849   2.635   5.047   1.498
 9136SOL    HW228850   2.584   5.013   1.359
 9137SOL     OW28851   2.521   5.332   0.194
 9137SOL    HW128852   2.588   5.341   0.127
 9137SOL    HW228853   2.481   5.247   0.177
 9138SOL     OW28854   3.479   5.456   1.392
 9138SOL    HW128855   3.534   5.459   1.314
 9138SOL    HW228856   3.465   5.548   1.415
 9139SOL     OW28857   3.706   3.891   0.958
 9139SOL    HW128858   3.733   3.802   0.940
 9139SOL    HW228859   3.617   3.897   0.924
 9140SOL     OW28860   2.111   4.007   0.701
 9140SOL    HW128861   2.029   4.054   0.686
 9140SOL    HW228862   2.122   4.008   0.796
 9141SOL     OW28863   3.064   5.330   0.071
 9141SOL    HW128864   3.059   5.236   0.088
 9141SOL    HW228865   3.032   5.340  -0.018
 9142SOL     OW28866   2.686   4.732   1.379
 9142SOL    HW128867   2.735   4.724   1.297
 9142SOL    HW228868   2.682   4.826   1.396
 9143SOL     OW28869   2.788   4.647   0.289
 9143SOL    HW128870   2.851   4.671   0.221
 9143SOL    HW228871   2.831   4.577   0.339
 9144SOL     OW28872   3.323   5.300   0.003
 9144SOL    HW128873   3.238   5.326   0.037
 9144SOL    HW228874   3.376   5.380   0.006
 9145SOL     OW28875   2.227   5.027   1.492
 9145SOL    HW128876   2.214   5.104   1.437
 9145SOL    HW228877   2.148   4.974   1.478
 9146SOL     OW28878   3.471   5.010   1.284
 9146SOL    HW128879   3.523   4.987   1.361
 9146SOL    HW228880   3.410   5.076   1.316
 9147SOL     OW28881   2.927   4.837   0.712
 9147SOL    HW128882   2.856   4.787   0.751
 9147SOL    HW228883   2.994   4.772   0.691
 9148SOL     OW28884   2.889   3.968   0.961
 9148SOL    HW128885   2.889   3.921   0.878
 9148SOL    HW228886   2.884   3.900   1.028
 9149SOL     OW28887   2.463   5.199   0.476
 9149SOL    HW128888   2.510   5.155   0.405
 9149SOL    HW228889   2.392   5.245   0.432
 9150SOL     OW28890   3.585   4.123   1.370
 9150SOL    HW128891   3.660   4.182   1.377
 9150SOL    HW228892   3.617   4.051   1.314
 9151SOL     OW28893   2.133   5.049   0.312
 9151SOL    HW128894   2.045   5.037   0.275
 9151SOL    HW228895   2.118   5.101   0.391
 9152SOL     OW28896   1.972   4.747   1.714
 9152SOL    HW128897   1.899   4.728   1.773
 9152SOL    HW228898   2.050   4.715   1.761
 9153SOL     OW28899   2.542   3.914   1.496
 9153SOL    HW128900   2.628   3.890   1.461
 9153SOL    HW228901   2.560   3.945   1.584
 9154SOL     OW28902   3.284   4.581   1.393
 9154SOL    HW128903   3.236   4.642   1.338
 9154SOL    HW228904   3.374   4.584   1.360
 9155SOL     OW28905   1.920   3.878   0.318
 9155SOL    HW128906   1.916   3.972   0.298
 9155SOL    HW228907   2.005   3.850   0.283
 9156SOL     OW28908   3.053   5.059   0.119
 9156SOL    HW128909   2.958   5.049   0.111
 9156SOL    HW228910   3.070   5.050   0.212
 9157SOL     OW28911   2.481   4.558   1.435
 9157SOL    HW128912   2.540   4.633   1.424
 9157SOL    HW228913   2.540   4.482   1.441
 9158SOL     OW28914   3.349   5.517   0.989
 9158SOL    HW128915   3.377   5.587   0.930
 9158SOL    HW228916   3.430   5.482   1.025
 9159SOL     OW28917   2.578   4.284   1.695
 9159SOL    HW128918   2.625   4.341   1.756
 9159SOL    HW228919   2.592   4.196   1.729
 9160SOL     OW28920   3.330   4.916   1.627
 9160SOL    HW128921   3.318   4.929   1.721
 9160SOL    HW228922   3.423   4.935   1.612
 9161SOL     OW28923   2.226   5.465   1.567
 9161SOL    HW128924   2.143   5.512   1.558
 9161SOL    HW228925   2.202   5.382   1.608
 9162SOL     OW28926   3.523   4.603   1.251
 9162SOL    HW128927   3.521   4.518   1.207
 9162SOL    HW228928   3.515   4.666   1.180
 9163SOL     OW28929   3.086   4.035   0.452
 9163SOL    HW128930   3.148   3.962   0.453
 9163SOL    HW228931   3.105   4.084   0.531
 9164SOL     OW28932   2.445   4.451   0.672
 9164SOL    HW128933   2.486   4.537   0.663
 9164SOL    HW228934   2.379   4.449   0.602
 9165SOL     OW28935   3.619   4.087   1.640
 9165SOL    HW128936   3.595   4.105   1.549
 9165SOL    HW228937   3.550   4.031   1.673
 9166SOL     OW28938   3.601   4.658   1.507
 9166SOL    HW128939   3.591   4.753   1.519
 9166SOL    HW228940   3.585   4.644   1.414
 9167SOL     OW28941   2.778   5.093   0.060
 9167SOL    HW128942   2.722   5.074   0.135
 9167SOL    HW228943   2.762   5.186   0.042
 9168SOL     OW28944   2.525   5.502   0.929
 9168SOL    HW128945   2.509   5.595   0.917
 9168SOL    HW228946   2.620   5.493   0.927
 9169SOL     OW28947   2.734   4.696   0.853
 9169SOL    HW128948   2.784   4.624   0.891
 9169SOL    HW228949   2.691   4.738   0.927
 9170SOL     OW28950   2.947   4.708   0.072
 9170SOL    HW128951   2.989   4.782   0.026
 9170SOL    HW228952   3.017   4.643   0.081
 9171SOL     OW28953   3.705   5.274   0.838
 9171SOL    HW128954   3.621   5.264   0.794
 9171SOL    HW228955   3.703   5.210   0.909
 9172SOL     OW28956   2.098   5.024   1.857
 9172SOL    HW128957   2.026   4.962   1.839
 9172SOL    HW228958   2.095   5.036   1.952
 9173SOL     OW28959   1.955   4.947   0.672
 9173SOL    HW128960   1.972   4.907   0.757
 9173SOL    HW228961   2.022   4.913   0.614
 9174SOL     OW28962   2.545   5.141   1.622
 9174SOL    HW128963   2.474   5.093   1.665
 9174SOL    HW228964   2.549   5.225   1.667
 9175SOL     OW28965   3.666   3.910   1.229
 9175SOL    HW128966   3.684   3.818   1.251
 9175SOL    HW228967   3.682   3.915   1.134
 9176SOL     OW28968   2.274   4.154   0.521
 9176SOL    HW128969   2.318   4.088   0.467
 9176SOL    HW228970   2.232   4.104   0.591
 9177SOL     OW28971   3.558   5.207   1.091
 9177SOL    HW128972   3.478   5.186   1.042
 9177SOL    HW228973   3.563   5.140   1.159
 9178SOL     OW28974   2.200   4.284   1.291
 9178SOL    HW128975   2.252   4.225   1.346
 9178SOL    HW228976   2.216   4.253   1.202
 9179SOL     OW28977   2.695   5.295   0.681
 9179SOL    HW128978   2.675   5.345   0.602
 9179SOL    HW228979   2.620   5.237   0.693
 9180SOL     OW28980   3.292   3.959   1.119
 9180SOL    HW128981   3.324   3.884   1.169
 9180SOL    HW228982   3.241   4.010   1.181
 9181SOL     OW28983   2.874   3.743   1.128
 9181SOL    HW128984   2.816   3.677   1.089
 9181SOL    HW228985   2.961   3.703   1.127
 9182SOL     OW28986   2.650   5.045   0.306
 9182SOL    HW128987   2.618   4.958   0.328
 9182SOL    HW228988   2.722   5.060   0.367
 9183SOL     OW28989   2.480   5.286   1.283
 9183SOL    HW128990   2.478   5.369   1.330
 9183SOL    HW228991   2.571   5.279   1.252
 9184SOL     OW28992   3.234   3.760   0.184
 9184SOL    HW128993   3.242   3.712   0.101
 9184SOL    HW228994   3.151   3.807   0.176
 9185SOL     OW28995   3.136   4.183   0.671
 9185SOL    HW128996   3.091   4.267   0.679
 9185SOL    HW228997   3.145   4.152   0.762
 9186SOL     OW28998   3.442   3.913   0.887
 9186SOL    HW128999   3.390   3.940   0.963
 9186SOL    HW229000   3.443   3.991   0.831
 9187SOL     OW29001   1.904   4.797   0.330
 9187SOL    HW129002   1.997   4.794   0.308
 9187SOL    HW229003   1.887   4.713   0.373
 9188SOL     OW29004   2.725   5.376   0.384
 9188SOL    HW129005   2.650   5.364   0.327
 9188SOL    HW229006   2.711   5.461   0.425
 9189SOL     OW29007   2.073   4.350   1.999
 9189SOL    HW129008   1.987   4.341   2.041
 9189SOL    HW229009   2.058   4.328   1.907
 9190SOL     OW29010   2.085   4.008   2.855
 9190SOL    HW129011   2.114   3.977   2.941
 9190SOL    HW229012   1.996   3.974   2.846
 9191SOL     OW29013   1.858   4.118   2.500
 9191SOL    HW129014   1.778   4.141   2.548
 9191SOL    HW229015   1.835   4.038   2.453
 9192SOL     OW29016   2.425   5.028   3.039
 9192SOL    HW129017   2.337   5.044   3.004
 9192SOL    HW229018   2.452   5.111   3.077
 9193SOL     OW29019   3.437   5.243   2.578
 9193SOL    HW129020   3.395   5.215   2.659
 9193SOL    HW229021   3.367   5.238   2.512
 9194SOL     OW29022   2.986   4.426   2.551
 9194SOL    HW129023   3.038   4.505   2.544
 9194SOL    HW229024   2.943   4.433   2.637
 9195SOL     OW29025   3.662   4.310   2.079
 9195SOL    HW129026   3.623   4.304   1.992
 9195SOL    HW229027   3.614   4.247   2.132
 9196SOL     OW29028   2.592   4.855   2.903
 9196SOL    HW129029   2.530   4.894   2.964
 9196SOL    HW229030   2.644   4.929   2.872
 9197SOL     OW29031   2.674   4.548   3.678
 9197SOL    HW129032   2.729   4.559   3.756
 9197SOL    HW229033   2.734   4.565   3.604
 9198SOL     OW29034   2.546   4.718   2.506
 9198SOL    HW129035   2.615   4.709   2.571
 9198SOL    HW229036   2.480   4.774   2.547
 9199SOL     OW29037   2.574   4.877   3.667
 9199SOL    HW129038   2.611   4.956   3.706
 9199SOL    HW229039   2.487   4.904   3.636
 9200SOL     OW29040   2.189   5.144   2.929
 9200SOL    HW129041   2.115   5.104   2.884
 9200SOL    HW229042   2.235   5.193   2.861
 9201SOL     OW29043   3.324   5.232   3.224
 9201SOL    HW129044   3.380   5.309   3.232
 9201SOL    HW229045   3.275   5.229   3.307
 9202SOL     OW29046   2.314   4.109   3.338
 9202SOL    HW129047   2.406   4.084   3.343
 9202SOL    HW229048   2.267   4.041   3.387
 9203SOL     OW29049   3.481   4.180   2.610
 9203SOL    HW129050   3.394   4.191   2.570
 9203SOL    HW229051   3.477   4.232   2.690
 9204SOL     OW29052   2.079   5.447   2.329
 9204SOL    HW129053   2.103   5.518   2.389
 9204SOL    HW229054   2.157   5.433   2.276
 9205SOL     OW29055   2.999   5.065   3.557
 9205SOL    HW129056   3.057   5.046   3.631
 9205SOL    HW229057   2.945   4.986   3.549
 9206SOL     OW29058   2.091   5.167   2.388
 9206SOL    HW129059   2.072   5.260   2.403
 9206SOL    HW229060   2.045   5.121   2.458
 9207SOL     OW29061   2.125   4.814   2.745
 9207SOL    HW129062   2.137   4.725   2.779
 9207SOL    HW229063   2.080   4.860   2.816
 9208SOL     OW29064   2.430   5.542   3.255
 9208SOL    HW129065   2.368   5.510   3.320
 9208SOL    HW229066   2.480   5.610   3.300
 9209SOL     OW29067   2.431   4.715   2.007
 9209SOL    HW129068   2.486   4.753   1.938
 9209SOL    HW229069   2.473   4.743   2.089
 9210SOL     OW29070   1.975   4.388   2.424
 9210SOL    HW129071   1.952   4.298   2.448
 9210SOL    HW229072   1.971   4.437   2.506
 9211SOL     OW29073   3.703   5.472   2.183
 9211SOL    HW129074   3.771   5.448   2.246
 9211SOL    HW229075   3.716   5.565   2.168
 9212SOL     OW29076   1.904   5.311   1.976
 9212SOL    HW129077   1.887   5.219   1.995
 9212SOL    HW229078   1.878   5.357   2.056
 9213SOL     OW29079   3.553   4.629   2.513
 9213SOL    HW129080   3.644   4.600   2.527
 9213SOL    HW229081   3.556   4.676   2.429
 9214SOL     OW29082   3.521   4.828   2.286
 9214SOL    HW129083   3.609   4.821   2.248
 9214SOL    HW229084   3.530   4.893   2.355
 9215SOL     OW29085   2.011   4.476   3.442
 9215SOL    HW129086   2.106   4.485   3.446
 9215SOL    HW229087   1.977   4.560   3.474
 9216SOL     OW29088   2.484   5.117   2.594
 9216SOL    HW129089   2.441   5.033   2.604
 9216SOL    HW229090   2.469   5.143   2.503
 9217SOL     OW29091   3.152   4.964   3.270
 9217SOL    HW129092   3.192   4.898   3.213
 9217SOL    HW229093   3.199   4.957   3.353
 9218SOL     OW29094   2.682   3.726   2.367
 9218SOL    HW129095   2.725   3.810   2.351
 9218SOL    HW229096   2.590   3.748   2.376
 9219SOL     OW29097   2.045   4.688   3.128
 9219SOL    HW129098   2.133   4.652   3.120
 9219SOL    HW229099   1.987   4.619   3.095
 9220SOL     OW29100   3.396   4.731   2.060
 9220SOL    HW129101   3.325   4.675   2.093
 9220SOL    HW229102   3.441   4.761   2.139
 9221SOL     OW29103   2.991   5.529   3.448
 9221SOL    HW129104   3.052   5.589   3.406
 9221SOL    HW229105   3.034   5.443   3.442
 9222SOL     OW29106   2.191   3.984   3.638
 9222SOL    HW129107   2.259   4.033   3.684
 9222SOL    HW229108   2.118   3.980   3.699
 9223SOL     OW29109   3.312   5.146   2.801
 9223SOL    HW129110   3.258   5.156   2.879
 9223SOL    HW229111   3.302   5.054   2.776
 9224SOL     OW29112   3.504   5.495   2.437
 9224SOL    HW129113   3.487   5.448   2.355
 9224SOL    HW229114   3.501   5.428   2.505
 9225SOL     OW29115   2.452   4.427   2.131
 9225SOL    HW129116   2.466   4.516   2.097
 9225SOL    HW229117   2.389   4.438   2.202
 9226SOL     OW29118   3.159   4.099   2.797
 9226SOL    HW129119   3.078   4.054   2.818
 9226SOL    HW229120   3.225   4.030   2.791
 9227SOL     OW29121   3.435   5.404   2.173
 9227SOL    HW129122   3.530   5.422   2.168
 9227SOL    HW229123   3.410   5.383   2.083
 9228SOL     OW29124   2.557   4.355   3.322
 9228SOL    HW129125   2.580   4.323   3.410
 9228SOL    HW229126   2.556   4.276   3.268
 9229SOL     OW29127   3.229   4.229   3.510
 9229SOL    HW129128   3.186   4.231   3.596
 9229SOL    HW229129   3.307   4.175   3.524
 9230SOL     OW29130   2.832   4.598   3.452
 9230SOL    HW129131   2.902   4.536   3.433
 9230SOL    HW229132   2.794   4.618   3.366
 9231SOL     OW29133   2.913   4.424   2.284
 9231SOL    HW129134   2.936   4.422   2.377
 9231SOL    HW229135   2.831   4.376   2.278
 9232SOL     OW29136   1.949   4.560   2.637
 9232SOL    HW129137   2.031   4.546   2.684
 9232SOL    HW229138   1.909   4.635   2.682
 9233SOL     OW29139   1.983   5.594   3.452
 9233SOL    HW129140   1.990   5.579   3.547
 9233SOL    HW229141   1.906   5.543   3.426
 9234SOL     OW29142   2.760   4.071   2.056
 9234SOL    HW129143   2.801   4.134   1.996
 9234SOL    HW229144   2.793   3.986   2.026
 9235SOL     OW29145   3.579   4.283   3.678
 9235SOL    HW129146   3.534   4.358   3.640
 9235SOL    HW229147   3.612   4.234   3.603
 9236SOL     OW29148   3.253   4.864   2.406
 9236SOL    HW129149   3.336   4.855   2.359
 9236SOL    HW229150   3.202   4.927   2.353
 9237SOL     OW29151   2.406   3.898   2.766
 9237SOL    HW129152   2.411   3.915   2.860
 9237SOL    HW229153   2.416   3.983   2.725
 9238SOL     OW29154   2.856   5.165   2.325
 9238SOL    HW129155   2.834   5.247   2.283
 9238SOL    HW229156   2.841   5.181   2.418
 9239SOL     OW29157   2.216   5.539   2.737
 9239SOL    HW129158   2.260   5.454   2.741
 9239SOL    HW229159   2.284   5.602   2.760
 9240SOL     OW29160   3.651   4.790   2.733
 9240SOL    HW129161   3.593   4.758   2.664
 9240SOL    HW229162   3.593   4.801   2.809
 9241SOL     OW29163   3.072   5.266   3.379
 9241SOL    HW129164   3.071   5.202   3.450
 9241SOL    HW229165   3.037   5.219   3.303
 9242SOL     OW29166   2.170   4.687   2.121
 9242SOL    HW129167   2.255   4.703   2.080
 9242SOL    HW229168   2.150   4.595   2.100
 9243SOL     OW29169   3.340   4.470   2.584
 9243SOL    HW129170   3.342   4.431   2.671
 9243SOL    HW229171   3.420   4.523   2.580
 9244SOL     OW29172   2.335   4.990   3.597
 9244SOL    HW129173   2.304   4.994   3.506
 9244SOL    HW229174   2.255   4.992   3.649
 9245SOL     OW29175   2.989   5.512   2.077
 9245SOL    HW129176   2.917   5.475   2.128
 9245SOL    HW229177   3.014   5.442   2.017
 9246SOL     OW29178   2.047   3.976   3.391
 9246SOL    HW129179   1.996   4.056   3.402
 9246SOL    HW229180   2.093   3.964   3.475
 9247SOL     OW29181   3.489   5.108   1.941
 9247SOL    HW129182   3.444   5.192   1.937
 9247SOL    HW229183   3.420   5.043   1.926
 9248SOL     OW29184   2.321   5.459   2.182
 9248SOL    HW129185   2.367   5.511   2.247
 9248SOL    HW229186   2.391   5.422   2.128
 9249SOL     OW29187   3.268   3.839   2.308
 9249SOL    HW129188   3.270   3.808   2.218
 9249SOL    HW229189   3.360   3.849   2.333
 9250SOL     OW29190   2.115   5.513   3.094
 9250SOL    HW129191   2.172   5.461   3.152
 9250SOL    HW229192   2.133   5.478   3.007
 9251SOL     OW29193   2.800   5.427   2.757
 9251SOL    HW129194   2.874   5.379   2.794
 9251SOL    HW229195   2.768   5.371   2.686
 9252SOL     OW29196   2.252   4.421   2.325
 9252SOL    HW129197   2.266   4.328   2.341
 9252SOL    HW229198   2.160   4.435   2.350
 9253SOL     OW29199   3.414   4.028   3.628
 9253SOL    HW129200   3.391   4.028   3.721
 9253SOL    HW229201   3.438   3.937   3.610
 9254SOL     OW29202   2.507   3.842   1.964
 9254SOL    HW129203   2.564   3.770   1.992
 9254SOL    HW229204   2.457   3.805   1.891
 9255SOL     OW29205   2.558   3.996   3.615
 9255SOL    HW129206   2.649   3.971   3.632
 9255SOL    HW229207   2.529   4.039   3.695
 9256SOL     OW29208   2.741   5.250   3.059
 9256SOL    HW129209   2.721   5.205   2.976
 9256SOL    HW229210   2.807   5.194   3.100
 9257SOL     OW29211   2.682   5.112   2.817
 9257SOL    HW129212   2.767   5.098   2.774
 9257SOL    HW229213   2.619   5.113   2.745
 9258SOL     OW29214   2.796   4.232   2.766
 9258SOL    HW129215   2.770   4.215   2.676
 9258SOL    HW229216   2.835   4.150   2.796
 9259SOL     OW29217   2.412   3.786   2.352
 9259SOL    HW129218   2.339   3.788   2.414
 9259SOL    HW229219   2.400   3.864   2.298
 9260SOL     OW29220   3.287   4.924   1.898
 9260SOL    HW129221   3.322   4.853   1.951
 9260SOL    HW229222   3.205   4.947   1.941
 9261SOL     OW29223   2.160   3.772   2.054
 9261SOL    HW129224   2.221   3.846   2.053
 9261SOL    HW229225   2.209   3.701   2.096
 9262SOL     OW29226   2.805   3.972   2.317
 9262SOL    HW129227   2.784   4.016   2.235
 9262SOL    HW229228   2.899   3.986   2.328
 9263SOL     OW29229   3.082   5.285   2.653
 9263SOL    HW129230   3.105   5.359   2.597
 9263SOL    HW229231   3.155   5.277   2.714
 9264SOL     OW29232   2.334   4.885   2.582
 9264SOL    HW129233   2.273   4.861   2.652
 9264SOL    HW229234   2.285   4.870   2.502
 9265SOL     OW29235   3.125   5.515   2.474
 9265SOL    HW129236   3.172   5.582   2.426
 9265SOL    HW229237   3.056   5.562   2.520
 9266SOL     OW29238   2.891   4.249   1.889
 9266SOL    HW129239   2.848   4.334   1.874
 9266SOL    HW229240   2.952   4.266   1.961
 9267SOL     OW29241   1.950   4.285   3.255
 9267SOL    HW129242   2.042   4.277   3.229
 9267SOL    HW229243   1.950   4.355   3.321
 9268SOL     OW29244   2.413   3.931   3.039
 9268SOL    HW129245   2.457   3.871   3.100
 9268SOL    HW229246   2.323   3.937   3.073
 9269SOL     OW29247   2.724   4.175   2.505
 9269SOL    HW129248   2.687   4.233   2.438
 9269SOL    HW229249   2.751   4.097   2.456
 9270SOL     OW29250   2.891   3.770   2.601
 9270SOL    HW129251   2.825   3.762   2.532
 9270SOL    HW229252   2.866   3.704   2.665
 9271SOL     OW29253   3.275   4.891   2.704
 9271SOL    HW129254   3.241   4.808   2.737
 9271SOL    HW229255   3.278   4.880   2.609
 9272SOL     OW29256   3.335   4.319   2.832
 9272SOL    HW129257   3.270   4.249   2.833
 9272SOL    HW229258   3.386   4.305   2.912
 9273SOL     OW29259   3.698   4.531   2.238
 9273SOL    HW129260   3.752   4.489   2.305
 9273SOL    HW229261   3.681   4.462   2.174
 9274SOL     OW29262   2.355   5.150   2.017
 9274SOL    HW129263   2.275   5.123   2.062
 9274SOL    HW229264   2.363   5.089   1.943
 9275SOL     OW29265   3.559   5.004   2.479
 9275SOL    HW129266   3.649   4.993   2.511
 9275SOL    HW229267   3.527   5.082   2.524
 9276SOL     OW29268   3.253   4.298   1.936
 9276SOL    HW129269   3.192   4.275   2.005
 9276SOL    HW229270   3.339   4.275   1.970
 9277SOL     OW29271   2.373   3.982   2.162
 9277SOL    HW129272   2.435   3.944   2.100
 9277SOL    HW229273   2.349   4.067   2.125
 9278SOL     OW29274   3.599   4.991   3.433
 9278SOL    HW129275   3.666   4.926   3.454
 9278SOL    HW229276   3.603   5.054   3.505
 9279SOL     OW29277   2.919   5.071   3.186
 9279SOL    HW129278   2.843   5.039   3.235
 9279SOL    HW229279   2.994   5.028   3.228
 9280SOL     OW29280   3.453   5.383   3.516
 9280SOL    HW129281   3.463   5.399   3.422
 9280SOL    HW229282   3.531   5.335   3.541
 9281SOL     OW29283   2.981   4.924   2.957
 9281SOL    HW129284   2.939   4.974   3.027
 9281SOL    HW229285   2.958   4.973   2.877
 9282SOL     OW29286   3.491   4.837   2.948
 9282SOL    HW129287   3.507   4.892   3.025
 9282SOL    HW229288   3.396   4.827   2.945
 9283SOL     OW29289   2.828   4.852   3.551
 9283SOL    HW129290   2.744   4.850   3.597
 9283SOL    HW229291   2.839   4.763   3.517
 9284SOL     OW29292   2.574   4.785   2.235
 9284SOL    HW129293   2.561   4.765   2.328
 9284SOL    HW229294   2.647   4.730   2.209
 9285SOL     OW29295   2.276   4.544   3.111
 9285SOL    HW129296   2.340   4.568   3.178
 9285SOL    HW229297   2.253   4.453   3.131
 9286SOL     OW29298   1.948   5.298   3.223
 9286SOL    HW129299   1.935   5.377   3.170
 9286SOL    HW229300   2.042   5.283   3.222
 9287SOL     OW29301   2.179   4.849   2.354
 9287SOL    HW129302   2.191   4.922   2.293
 9287SOL    HW229303   2.181   4.771   2.299
 9288SOL     OW29304   2.400   4.248   2.713
 9288SOL    HW129305   2.420   4.308   2.641
 9288SOL    HW229306   2.465   4.269   2.779
 9289SOL     OW29307   3.110   5.077   2.249
 9289SOL    HW129308   3.166   5.145   2.287
 9289SOL    HW229309   3.024   5.092   2.287
 9290SOL     OW29310   3.155   5.189   3.020
 9290SOL    HW129311   3.218   5.202   3.091
 9290SOL    HW229312   3.099   5.118   3.052
 9291SOL     OW29313   3.433   4.357   2.336
 9291SOL    HW129314   3.384   4.382   2.414
 9291SOL    HW229315   3.496   4.428   2.323
 9292SOL     OW29316   2.211   5.246   3.178
 9292SOL    HW129317   2.201   5.206   3.091
 9292SOL    HW229318   2.305   5.260   3.187
 9293SOL     OW29319   2.288   4.466   3.470
 9293SOL    HW129320   2.340   4.524   3.414
 9293SOL    HW229321   2.349   4.397   3.497
 9294SOL     OW29322   3.462   4.495   3.558
 9294SOL    HW129323   3.366   4.503   3.560
 9294SOL    HW229324   3.489   4.553   3.487
 9295SOL     OW29325   2.362   3.756   3.599
 9295SOL    HW129326   2.312   3.700   3.539
 9295SOL    HW229327   2.307   3.834   3.609
 9296SOL     OW29328   2.435   4.607   2.889
 9296SOL    HW129329   2.485   4.688   2.900
 9296SOL    HW229330   2.391   4.594   2.973
 9297SOL     OW29331   3.201   4.584   2.861
 9297SOL    HW129332   3.112   4.550   2.850
 9297SOL    HW229333   3.254   4.506   2.876
 9298SOL     OW29334   3.052   4.249   2.121
 9298SOL    HW129335   3.068   4.173   2.178
 9298SOL    HW229336   3.014   4.315   2.179
 9299SOL     OW29337   2.141   3.924   3.115
 9299SOL    HW129338   2.117   3.953   3.203
 9299SOL    HW229339   2.131   3.829   3.117
 9300SOL     OW29340   1.900   5.040   3.129
 9300SOL    HW129341   1.930   4.979   3.196
 9300SOL    HW229342   1.912   5.127   3.167
 9301SOL     OW29343   2.575   4.335   2.903
 9301SOL    HW129344   2.659   4.315   2.863
 9301SOL    HW229345   2.566   4.430   2.894
 9302SOL     OW29346   3.582   4.710   3.699
 9302SOL    HW129347   3.544   4.623   3.682
 9302SOL    HW229348   3.556   4.730   3.789
 9303SOL     OW29349   2.171   3.784   2.490
 9303SOL    HW129350   2.148   3.874   2.510
 9303SOL    HW229351   2.182   3.742   2.576
 9304SOL     OW29352   3.492   4.118   2.213
 9304SOL    HW129353   3.509   4.048   2.276
 9304SOL    HW229354   3.463   4.192   2.266
 9305SOL     OW29355   2.890   4.483   2.821
 9305SOL    HW129356   2.891   4.499   2.915
 9305SOL    HW229357   2.864   4.391   2.812
 9306SOL     OW29358   2.838   5.279   3.595
 9306SOL    HW129359   2.817   5.318   3.511
 9306SOL    HW229360   2.887   5.200   3.574
 9307SOL     OW29361   3.716   5.300   3.477
 9307SOL    HW129362   3.742   5.276   3.388
 9307SOL    HW229363   3.786   5.266   3.533
 9308SOL     OW29364   2.214   4.656   3.665
 9308SOL    HW129365   2.284   4.680   3.726
 9308SOL    HW229366   2.252   4.588   3.610
 9309SOL     OW29367   3.392   3.999   1.985
 9309SOL    HW129368   3.334   3.930   2.016
 9309SOL    HW229369   3.427   4.039   2.064
 9310SOL     OW29370   3.134   4.541   1.881
 9310SOL    HW129371   3.180   4.458   1.894
 9310SOL    HW229372   3.175   4.579   1.804
 9311SOL     OW29373   2.924   5.064   2.713
 9311SOL    HW129374   2.938   4.989   2.654
 9311SOL    HW229375   2.986   5.130   2.683
 9312SOL     OW29376   2.175   4.539   2.797
 9312SOL    HW129377   2.267   4.561   2.811
 9312SOL    HW229378   2.167   4.449   2.830
 9313SOL     OW29379   2.174   4.262   2.860
 9313SOL    HW129380   2.144   4.171   2.857
 9313SOL    HW229381   2.254   4.262   2.808
 9314SOL     OW29382   1.865   5.037   2.052
 9314SOL    HW129383   1.777   5.054   2.018
 9314SOL    HW229384   1.860   4.948   2.087
 9315SOL     OW29385   1.947   5.505   2.796
 9315SOL    HW129386   1.920   5.424   2.752
 9315SOL    HW229387   2.039   5.516   2.772
 9316SOL     OW29388   2.349   5.296   2.760
 9316SOL    HW129389   2.418   5.357   2.786
 9316SOL    HW229390   2.394   5.231   2.706
 9317SOL     OW29391   2.876   4.507   3.092
 9317SOL    HW129392   2.946   4.475   3.149
 9317SOL    HW229393   2.796   4.489   3.140
 9318SOL     OW29394   1.908   4.287   2.978
 9318SOL    HW129395   1.991   4.284   2.931
 9318SOL    HW229396   1.933   4.284   3.071
 9319SOL     OW29397   2.047   4.255   3.602
 9319SOL    HW129398   2.136   4.235   3.574
 9319SOL    HW229399   2.021   4.330   3.548
 9320SOL     OW29400   3.220   4.652   3.511
 9320SOL    HW129401   3.260   4.739   3.519
 9320SOL    HW229402   3.232   4.629   3.419
 9321SOL     OW29403   2.680   4.287   2.230
 9321SOL    HW129404   2.687   4.214   2.169
 9321SOL    HW229405   2.604   4.336   2.200
 9322SOL     OW29406   2.090   5.269   3.586
 9322SOL    HW129407   2.083   5.324   3.663
 9322SOL    HW229408   2.108   5.181   3.620
 9323SOL     OW29409   2.541   4.169   3.122
 9323SOL    HW129410   2.507   4.087   3.085
 9323SOL    HW229411   2.555   4.226   3.046
 9324SOL     OW29412   2.748   5.406   3.359
 9324SOL    HW129413   2.754   5.370   3.270
 9324SOL    HW229414   2.815   5.473   3.363
 9325SOL     OW29415   2.311   4.211   2.022
 9325SOL    HW129416   2.375   4.276   2.052
 9325SOL    HW229417   2.227   4.257   2.025
 9326SOL     OW29418   1.988   4.863   3.327
 9326SOL    HW129419   1.998   4.817   3.410
 9326SOL    HW229420   2.013   4.800   3.260
 9327SOL     OW29421   3.208   4.791   3.039
 9327SOL    HW129422   3.207   4.712   2.985
 9327SOL    HW229423   3.126   4.836   3.015
 9328SOL     OW29424   3.180   4.595   2.157
 9328SOL    HW129425   3.123   4.558   2.225
 9328SOL    HW229426   3.140   4.566   2.075
 9329SOL     OW29427   3.632   5.466   3.005
 9329SOL    HW129428   3.700   5.482   2.939
 9329SOL    HW229429   3.610   5.373   2.993
 9330SOL     OW29430   3.097   5.455   2.952
 9330SOL    HW129431   3.184   5.482   2.921
 9330SOL    HW229432   3.110   5.365   2.983
 9331SOL     OW29433   1.945   5.001   2.864
 9331SOL    HW129434   1.927   5.011   2.957
 9331SOL    HW229435   1.885   4.932   2.835
 9332SOL     OW29436   2.555   5.406   3.599
 9332SOL    HW129437   2.510   5.488   3.582
 9332SOL    HW229438   2.631   5.408   3.540
 9333SOL     OW29439   3.555   3.871   2.348
 9333SOL    HW129440   3.637   3.862   2.299
 9333SOL    HW229441   3.549   3.791   2.400
 9334SOL     OW29442   3.251   5.293   2.352
 9334SOL    HW129443   3.311   5.331   2.288
 9334SOL    HW229444   3.204   5.367   2.389
 9335SOL     OW29445   1.998   5.533   3.712
 9335SOL    HW129446   1.953   5.459   3.754
 9335SOL    HW229447   2.053   5.570   3.781
 9336SOL     OW29448   3.138   4.647   2.522
 9336SOL    HW129449   3.211   4.590   2.545
 9336SOL    HW229450   3.180   4.720   2.474
 9337SOL     OW29451   2.678   4.991   3.290
 9337SOL    HW129452   2.676   5.014   3.383
 9337SOL    HW229453   2.593   5.021   3.257
 9338SOL     OW29454   2.528   5.359   2.020
 9338SOL    HW129455   2.543   5.371   1.926
 9338SOL    HW229456   2.476   5.279   2.026
 9339SOL     OW29457   3.473   5.460   3.240
 9339SOL    HW129458   3.534   5.463   3.166
 9339SOL    HW229459   3.463   5.552   3.266
 9340SOL     OW29460   2.116   4.036   2.576
 9340SOL    HW129461   2.031   4.075   2.559
 9340SOL    HW229462   2.122   4.031   2.671
 9341SOL     OW29463   3.069   5.319   1.896
 9341SOL    HW129464   3.058   5.229   1.928
 9341SOL    HW229465   2.998   5.330   1.833
 9342SOL     OW29466   2.704   4.722   3.228
 9342SOL    HW129467   2.765   4.724   3.155
 9342SOL    HW229468   2.698   4.813   3.257
 9343SOL     OW29469   2.771   4.626   2.142
 9343SOL    HW129470   2.835   4.664   2.082
 9343SOL    HW229471   2.823   4.565   2.196
 9344SOL     OW29472   3.345   5.362   1.910
 9344SOL    HW129473   3.252   5.346   1.895
 9344SOL    HW229474   3.383   5.365   1.822
 9345SOL     OW29475   2.216   5.026   3.359
 9345SOL    HW129476   2.212   5.101   3.299
 9345SOL    HW229477   2.139   4.974   3.337
 9346SOL     OW29478   3.482   5.010   3.163
 9346SOL    HW129479   3.532   4.987   3.241
 9346SOL    HW229480   3.420   5.076   3.192
 9347SOL     OW29481   2.927   4.832   2.567
 9347SOL    HW129482   2.858   4.783   2.611
 9347SOL    HW229483   2.996   4.767   2.551
 9348SOL     OW29484   2.906   3.970   2.808
 9348SOL    HW129485   2.907   3.915   2.730
 9348SOL    HW229486   2.885   3.910   2.879
 9349SOL     OW29487   2.469   5.207   2.334
 9349SOL    HW129488   2.523   5.157   2.273
 9349SOL    HW229489   2.391   5.230   2.284
 9350SOL     OW29490   2.119   5.072   2.141
 9350SOL    HW129491   2.026   5.062   2.121
 9350SOL    HW229492   2.121   5.110   2.229
 9351SOL     OW29493   1.970   4.732   3.567
 9351SOL    HW129494   1.900   4.720   3.631
 9351SOL    HW229495   2.051   4.711   3.615
 9352SOL     OW29496   2.550   3.917   3.357
 9352SOL    HW129497   2.642   3.937   3.338
 9352SOL    HW229498   2.541   3.934   3.451
 9353SOL     OW29499   1.949   4.045   1.891
 9353SOL    HW129500   1.858   4.030   1.865
 9353SOL    HW229501   1.975   4.124   1.845
 9354SOL     OW29502   3.285   4.613   3.248
 9354SOL    HW129503   3.274   4.679   3.179
 9354SOL    HW229504   3.379   4.610   3.265
 9355SOL     OW29505   1.920   3.872   2.157
 9355SOL    HW129506   1.913   3.954   2.107
 9355SOL    HW229507   2.007   3.839   2.136
 9356SOL     OW29508   3.040   5.054   1.984
 9356SOL    HW129509   2.957   5.006   1.992
 9356SOL    HW229510   3.071   5.061   2.074
 9357SOL     OW29511   2.462   4.598   3.295
 9357SOL    HW129512   2.535   4.659   3.285
 9357SOL    HW229513   2.503   4.512   3.306
 9358SOL     OW29514   3.351   5.521   2.861
 9358SOL    HW129515   3.389   5.582   2.797
 9358SOL    HW229516   3.427   5.478   2.901
 9359SOL     OW29517   2.603   4.301   3.583
 9359SOL    HW129518   2.622   4.384   3.625
 9359SOL    HW229519   2.665   4.239   3.623
 9360SOL     OW29520   3.320   4.926   3.487
 9360SOL    HW129521   3.311   4.928   3.583
 9360SOL    HW229522   3.415   4.932   3.473
 9361SOL     OW29523   2.229   5.466   3.430
 9361SOL    HW129524   2.143   5.508   3.427
 9361SOL    HW229525   2.213   5.380   3.470
 9362SOL     OW29526   3.565   4.599   3.093
 9362SOL    HW129527   3.616   4.534   3.044
 9362SOL    HW229528   3.557   4.673   3.033
 9363SOL     OW29529   3.078   4.045   2.316
 9363SOL    HW129530   3.141   3.973   2.314
 9363SOL    HW229531   3.101   4.095   2.394
 9364SOL     OW29532   2.449   4.450   2.526
 9364SOL    HW129533   2.489   4.536   2.522
 9364SOL    HW229534   2.381   4.452   2.457
 9365SOL     OW29535   3.621   4.098   3.452
 9365SOL    HW129536   3.596   4.032   3.387
 9365SOL    HW229537   3.565   4.080   3.527
 9366SOL     OW29538   3.550   4.667   3.363
 9366SOL    HW129539   3.628   4.691   3.412
 9366SOL    HW229540   3.583   4.645   3.275
 9367SOL     OW29541   2.704   5.088   1.908
 9367SOL    HW129542   2.685   5.098   2.001
 9367SOL    HW229543   2.733   5.175   1.880
 9368SOL     OW29544   2.524   5.502   2.786
 9368SOL    HW129545   2.513   5.597   2.779
 9368SOL    HW229546   2.619   5.490   2.790
 9369SOL     OW29547   2.734   4.695   2.712
 9369SOL    HW129548   2.785   4.624   2.750
 9369SOL    HW229549   2.691   4.737   2.787
 9370SOL     OW29550   2.933   4.714   1.944
 9370SOL    HW129551   2.918   4.765   1.865
 9370SOL    HW229552   3.006   4.656   1.921
 9371SOL     OW29553   3.714   5.269   2.700
 9371SOL    HW129554   3.623   5.252   2.676
 9371SOL    HW229555   3.734   5.201   2.765
 9372SOL     OW29556   2.093   5.023   3.719
 9372SOL    HW129557   2.025   4.957   3.714
 9372SOL    HW229558   2.105   5.038   3.813
 9373SOL     OW29559   1.966   4.945   2.526
 9373SOL    HW129560   1.988   4.909   2.612
 9373SOL    HW229561   2.030   4.904   2.467
 9374SOL     OW29562   2.526   5.149   3.472
 9374SOL    HW129563   2.467   5.094   3.525
 9374SOL    HW229564   2.543   5.225   3.527
 9375SOL     OW29565   2.273   4.159   2.375
 9375SOL    HW129566   2.318   4.086   2.332
 9375SOL    HW229567   2.235   4.120   2.454
 9376SOL     OW29568   3.556   5.210   2.961
 9376SOL    HW129569   3.478   5.175   2.920
 9376SOL    HW229570   3.579   5.146   3.028
 9377SOL     OW29571   2.202   4.279   3.157
 9377SOL    HW129572   2.252   4.226   3.219
 9377SOL    HW229573   2.231   4.249   3.071
 9378SOL     OW29574   2.694   5.298   2.537
 9378SOL    HW129575   2.654   5.354   2.471
 9378SOL    HW229576   2.627   5.233   2.559
 9379SOL     OW29577   2.863   3.761   2.982
 9379SOL    HW129578   2.793   3.696   2.985
 9379SOL    HW229579   2.943   3.709   2.977
 9380SOL     OW29580   2.645   5.054   2.180
 9380SOL    HW129581   2.622   4.963   2.198
 9380SOL    HW229582   2.722   5.070   2.235
 9381SOL     OW29583   2.481   5.289   3.138
 9381SOL    HW129584   2.477   5.374   3.182
 9381SOL    HW229585   2.573   5.278   3.116
 9382SOL     OW29586   3.233   3.774   2.034
 9382SOL    HW129587   3.271   3.692   2.004
 9382SOL    HW229588   3.141   3.753   2.051
 9383SOL     OW29589   3.145   4.189   2.538
 9383SOL    HW129590   3.095   4.271   2.545
 9383SOL    HW229591   3.149   4.156   2.628
 9384SOL     OW29592   3.385   3.951   2.753
 9384SOL    HW129593   3.430   3.934   2.835
 9384SOL    HW229594   3.447   4.002   2.701
 9385SOL     OW29595   1.902   4.783   2.164
 9385SOL    HW129596   1.996   4.774   2.149
 9385SOL    HW229597   1.873   4.694   2.186
 9386SOL     OW29598   2.758   5.393   2.195
 9386SOL    HW129599   2.679   5.376   2.144
 9386SOL    HW229600   2.733   5.461   2.257
 9387SOL     OW29601   2.069   4.360   3.862
 9387SOL    HW129602   1.982   4.346   3.900
 9387SOL    HW229603   2.059   4.336   3.770
 9388SOL     OW29604   2.093   4.016   4.733
 9388SOL    HW129605   2.143   3.979   4.805
 9388SOL    HW229606   2.002   4.012   4.762
 9389SOL     OW29607   1.866   4.121   4.379
 9389SOL    HW129608   1.773   4.131   4.402
 9389SOL    HW229609   1.866   4.056   4.309
 9390SOL     OW29610   2.438   5.032   4.908
 9390SOL    HW129611   2.354   5.040   4.863
 9390SOL    HW229612   2.459   5.122   4.935
 9391SOL     OW29613   3.385   5.295   4.447
 9391SOL    HW129614   3.387   5.214   4.498
 9391SOL    HW229615   3.340   5.271   4.366
 9392SOL     OW29616   3.665   4.318   3.932
 9392SOL    HW129617   3.625   4.304   3.847
 9392SOL    HW229618   3.618   4.258   3.991
 9393SOL     OW29619   2.597   4.841   4.776
 9393SOL    HW129620   2.546   4.909   4.820
 9393SOL    HW229621   2.687   4.875   4.777
 9394SOL     OW29622   2.729   4.489   5.539
 9394SOL    HW129623   2.738   4.557   5.606
 9394SOL    HW229624   2.761   4.530   5.459
 9395SOL     OW29625   2.547   4.721   4.366
 9395SOL    HW129626   2.621   4.700   4.423
 9395SOL    HW229627   2.490   4.777   4.419
 9396SOL     OW29628   2.574   4.869   5.535
 9396SOL    HW129629   2.614   4.949   5.570
 9396SOL    HW229630   2.492   4.898   5.496
 9397SOL     OW29631   2.190   5.143   4.787
 9397SOL    HW129632   2.116   5.112   4.736
 9397SOL    HW229633   2.243   5.194   4.726
 9398SOL     OW29634   3.320   5.236   5.081
 9398SOL    HW129635   3.377   5.312   5.093
 9398SOL    HW229636   3.256   5.243   5.153
 9399SOL     OW29637   2.305   4.116   5.218
 9399SOL    HW129638   2.393   4.136   5.187
 9399SOL    HW229639   2.314   4.033   5.265
 9400SOL     OW29640   3.484   4.191   4.484
 9400SOL    HW129641   3.417   4.254   4.455
 9400SOL    HW229642   3.544   4.243   4.537
 9401SOL     OW29643   2.080   5.448   4.192
 9401SOL    HW129644   2.106   5.519   4.251
 9401SOL    HW229645   2.159   5.430   4.140
 9402SOL     OW29646   3.001   5.062   5.419
 9402SOL    HW129647   3.033   5.059   5.510
 9402SOL    HW229648   2.953   4.980   5.408
 9403SOL     OW29649   2.075   5.166   4.241
 9403SOL    HW129650   2.070   5.259   4.261
 9403SOL    HW229651   2.042   5.123   4.320
 9404SOL     OW29652   2.110   4.808   4.610
 9404SOL    HW129653   2.133   4.716   4.625
 9404SOL    HW229654   2.103   4.846   4.697
 9405SOL     OW29655   2.428   5.547   5.115
 9405SOL    HW129656   2.367   5.514   5.181
 9405SOL    HW229657   2.478   5.616   5.159
 9406SOL     OW29658   2.425   4.727   3.865
 9406SOL    HW129659   2.489   4.744   3.795
 9406SOL    HW229660   2.472   4.749   3.946
 9407SOL     OW29661   1.967   4.395   4.286
 9407SOL    HW129662   1.963   4.303   4.313
 9407SOL    HW229663   1.969   4.444   4.368
 9408SOL     OW29664   3.695   5.489   4.054
 9408SOL    HW129665   3.765   5.449   4.105
 9408SOL    HW229666   3.724   5.579   4.040
 9409SOL     OW29667   1.897   5.316   3.840
 9409SOL    HW129668   1.888   5.222   3.857
 9409SOL    HW229669   1.876   5.358   3.923
 9410SOL     OW29670   3.534   4.596   4.245
 9410SOL    HW129671   3.614   4.592   4.192
 9410SOL    HW229672   3.514   4.689   4.251
 9411SOL     OW29673   2.015   4.475   5.303
 9411SOL    HW129674   2.110   4.486   5.303
 9411SOL    HW229675   1.980   4.559   5.333
 9412SOL     OW29676   2.469   5.121   4.455
 9412SOL    HW129677   2.431   5.034   4.465
 9412SOL    HW229678   2.458   5.141   4.362
 9413SOL     OW29679   3.154   4.957   5.136
 9413SOL    HW129680   3.228   4.937   5.078
 9413SOL    HW229681   3.189   4.945   5.224
 9414SOL     OW29682   2.685   3.751   4.256
 9414SOL    HW129683   2.732   3.827   4.223
 9414SOL    HW229684   2.593   3.775   4.251
 9415SOL     OW29685   2.046   4.690   4.986
 9415SOL    HW129686   2.134   4.652   4.991
 9415SOL    HW229687   1.999   4.635   4.925
 9416SOL     OW29688   3.429   4.759   3.930
 9416SOL    HW129689   3.382   4.705   3.994
 9416SOL    HW229690   3.504   4.793   3.978
 9417SOL     OW29691   2.988   5.523   5.307
 9417SOL    HW129692   3.041   5.588   5.261
 9417SOL    HW229693   3.036   5.441   5.297
 9418SOL     OW29694   2.191   3.978   5.498
 9418SOL    HW129695   2.255   4.035   5.541
 9418SOL    HW229696   2.114   3.982   5.555
 9419SOL     OW29697   3.491   5.515   4.299
 9419SOL    HW129698   3.500   5.463   4.219
 9419SOL    HW229699   3.469   5.451   4.367
 9420SOL     OW29700   2.454   4.425   3.976
 9420SOL    HW129701   2.490   4.509   3.947
 9420SOL    HW229702   2.397   4.448   4.050
 9421SOL     OW29703   3.430   5.415   4.031
 9421SOL    HW129704   3.525   5.421   4.028
 9421SOL    HW229705   3.404   5.394   3.942
 9422SOL     OW29706   2.618   4.354   5.176
 9422SOL    HW129707   2.612   4.318   5.265
 9422SOL    HW229708   2.598   4.280   5.119
 9423SOL     OW29709   2.826   4.598   5.300
 9423SOL    HW129710   2.899   4.548   5.264
 9423SOL    HW229711   2.775   4.626   5.224
 9424SOL     OW29712   2.899   4.422   4.163
 9424SOL    HW129713   2.924   4.419   4.255
 9424SOL    HW229714   2.819   4.370   4.157
 9425SOL     OW29715   1.941   4.562   4.505
 9425SOL    HW129716   2.024   4.542   4.549
 9425SOL    HW229717   1.910   4.642   4.546
 9426SOL     OW29718   1.982   5.593   5.314
 9426SOL    HW129719   1.986   5.580   5.408
 9426SOL    HW229720   1.914   5.533   5.284
 9427SOL     OW29721   2.753   4.095   3.912
 9427SOL    HW129722   2.800   4.170   3.876
 9427SOL    HW229723   2.771   4.024   3.850
 9428SOL     OW29724   2.383   3.912   4.610
 9428SOL    HW129725   2.404   3.929   4.702
 9428SOL    HW229726   2.439   3.972   4.562
 9429SOL     OW29727   2.826   5.180   4.212
 9429SOL    HW129728   2.839   5.253   4.152
 9429SOL    HW229729   2.909   5.133   4.211
 9430SOL     OW29730   2.218   5.540   4.603
 9430SOL    HW129731   2.263   5.456   4.606
 9430SOL    HW229732   2.286   5.605   4.620
 9431SOL     OW29733   3.076   5.260   5.234
 9431SOL    HW129734   3.070   5.193   5.303
 9431SOL    HW229735   3.036   5.220   5.157
 9432SOL     OW29736   2.170   4.685   3.981
 9432SOL    HW129737   2.254   4.706   3.942
 9432SOL    HW229738   2.158   4.591   3.964
 9433SOL     OW29739   3.294   4.402   4.422
 9433SOL    HW129740   3.220   4.387   4.480
 9433SOL    HW229741   3.281   4.490   4.387
 9434SOL     OW29742   2.337   4.991   5.461
 9434SOL    HW129743   2.305   4.998   5.371
 9434SOL    HW229744   2.258   4.991   5.514
 9435SOL     OW29745   2.992   5.523   3.929
 9435SOL    HW129746   2.918   5.488   3.979
 9435SOL    HW229747   3.020   5.450   3.874
 9436SOL     OW29748   2.033   3.964   5.255
 9436SOL    HW129749   2.010   4.056   5.242
 9436SOL    HW229750   2.089   3.964   5.333
 9437SOL     OW29751   3.506   5.121   3.763
 9437SOL    HW129752   3.571   5.118   3.833
 9437SOL    HW229753   3.451   5.044   3.776
 9438SOL     OW29754   2.322   5.459   4.047
 9438SOL    HW129755   2.372   5.508   4.112
 9438SOL    HW229756   2.388   5.424   3.987
 9439SOL     OW29757   3.245   3.817   4.107
 9439SOL    HW129758   3.232   3.742   4.049
 9439SOL    HW229759   3.335   3.807   4.139
 9440SOL     OW29760   2.120   5.511   4.951
 9440SOL    HW129761   2.178   5.456   5.004
 9440SOL    HW229762   2.138   5.484   4.861
 9441SOL     OW29763   2.802   5.430   4.622
 9441SOL    HW129764   2.884   5.383   4.632
 9441SOL    HW229765   2.754   5.380   4.555
 9442SOL     OW29766   2.250   4.427   4.178
 9442SOL    HW129767   2.265   4.334   4.192
 9442SOL    HW229768   2.160   4.442   4.205
 9443SOL     OW29769   2.482   3.836   3.848
 9443SOL    HW129770   2.576   3.820   3.861
 9443SOL    HW229771   2.463   3.803   3.761
 9444SOL     OW29772   2.605   4.007   5.488
 9444SOL    HW129773   2.688   3.960   5.487
 9444SOL    HW229774   2.585   4.019   5.580
 9445SOL     OW29775   2.737   5.246   4.928
 9445SOL    HW129776   2.721   5.212   4.840
 9445SOL    HW229777   2.809   5.192   4.962
 9446SOL     OW29778   2.679   5.138   4.677
 9446SOL    HW129779   2.764   5.110   4.645
 9446SOL    HW229780   2.617   5.110   4.610
 9447SOL     OW29781   2.686   4.187   4.643
 9447SOL    HW129782   2.751   4.247   4.605
 9447SOL    HW229783   2.727   4.101   4.637
 9448SOL     OW29784   2.408   3.792   4.217
 9448SOL    HW129785   2.337   3.797   4.281
 9448SOL    HW229786   2.400   3.872   4.166
 9449SOL     OW29787   3.283   4.912   3.758
 9449SOL    HW129788   3.336   4.847   3.805
 9449SOL    HW229789   3.216   4.938   3.821
 9450SOL     OW29790   2.167   3.774   3.911
 9450SOL    HW129791   2.233   3.843   3.906
 9450SOL    HW229792   2.211   3.700   3.951
 9451SOL     OW29793   2.812   3.976   4.165
 9451SOL    HW129794   2.796   4.012   4.078
 9451SOL    HW229795   2.905   3.988   4.180
 9452SOL     OW29796   3.060   5.315   4.535
 9452SOL    HW129797   3.096   5.360   4.459
 9452SOL    HW229798   3.133   5.310   4.597
 9453SOL     OW29799   2.327   4.886   4.452
 9453SOL    HW129800   2.266   4.855   4.519
 9453SOL    HW229801   2.284   4.864   4.369
 9454SOL     OW29802   3.125   5.518   4.328
 9454SOL    HW129803   3.170   5.585   4.276
 9454SOL    HW229804   3.055   5.566   4.373
 9455SOL     OW29805   2.864   4.295   3.753
 9455SOL    HW129806   2.928   4.359   3.786
 9455SOL    HW229807   2.917   4.223   3.719
 9456SOL     OW29808   1.955   4.277   5.122
 9456SOL    HW129809   2.045   4.271   5.090
 9456SOL    HW229810   1.955   4.350   5.184
 9457SOL     OW29811   2.417   3.928   4.884
 9457SOL    HW129812   2.478   3.859   4.909
 9457SOL    HW229813   2.346   3.921   4.949
 9458SOL     OW29814   2.634   4.137   4.327
 9458SOL    HW129815   2.643   4.206   4.261
 9458SOL    HW229816   2.708   4.079   4.311
 9459SOL     OW29817   2.898   3.718   4.439
 9459SOL    HW129818   2.819   3.732   4.387
 9459SOL    HW229819   2.873   3.746   4.527
 9460SOL     OW29820   3.736   4.542   4.076
 9460SOL    HW129821   3.782   4.494   4.144
 9460SOL    HW229822   3.705   4.474   4.015
 9461SOL     OW29823   2.353   5.159   3.880
 9461SOL    HW129824   2.275   5.121   3.921
 9461SOL    HW229825   2.389   5.088   3.828
 9462SOL     OW29826   3.241   4.304   3.797
 9462SOL    HW129827   3.183   4.273   3.867
 9462SOL    HW229828   3.324   4.260   3.813
 9463SOL     OW29829   2.364   3.993   4.033
 9463SOL    HW129830   2.423   3.942   3.977
 9463SOL    HW229831   2.350   4.074   3.984
 9464SOL     OW29832   3.602   4.956   5.261
 9464SOL    HW129833   3.660   4.879   5.259
 9464SOL    HW229834   3.640   5.013   5.328
 9465SOL     OW29835   2.924   5.076   5.056
 9465SOL    HW129836   2.850   5.040   5.105
 9465SOL    HW229837   3.000   5.027   5.088
 9466SOL     OW29838   3.464   5.357   5.382
 9466SOL    HW129839   3.462   5.388   5.292
 9466SOL    HW229840   3.543   5.304   5.388
 9467SOL     OW29841   2.865   4.923   4.819
 9467SOL    HW129842   2.904   4.972   4.892
 9467SOL    HW229843   2.900   4.965   4.741
 9468SOL     OW29844   2.841   4.836   5.435
 9468SOL    HW129845   2.749   4.844   5.461
 9468SOL    HW229846   2.845   4.758   5.381
 9469SOL     OW29847   2.573   4.782   4.095
 9469SOL    HW129848   2.563   4.764   4.188
 9469SOL    HW229849   2.648   4.729   4.068
 9470SOL     OW29850   2.273   4.543   4.990
 9470SOL    HW129851   2.348   4.558   5.047
 9470SOL    HW229852   2.254   4.449   4.998
 9471SOL     OW29853   1.950   5.296   5.082
 9471SOL    HW129854   1.937   5.372   5.026
 9471SOL    HW229855   2.045   5.281   5.080
 9472SOL     OW29856   2.177   4.844   4.218
 9472SOL    HW129857   2.216   4.914   4.166
 9472SOL    HW229858   2.181   4.767   4.163
 9473SOL     OW29859   2.417   4.255   4.579
 9473SOL    HW129860   2.423   4.326   4.515
 9473SOL    HW229861   2.508   4.227   4.592
 9474SOL     OW29862   3.085   5.086   4.133
 9474SOL    HW129863   3.149   5.154   4.156
 9474SOL    HW229864   3.112   5.010   4.184
 9475SOL     OW29865   3.163   5.205   4.858
 9475SOL    HW129866   3.222   5.211   4.933
 9475SOL    HW229867   3.149   5.111   4.846
 9476SOL     OW29868   3.427   4.348   4.189
 9476SOL    HW129869   3.373   4.356   4.267
 9476SOL    HW229870   3.485   4.424   4.191
 9477SOL     OW29871   2.214   5.244   5.036
 9477SOL    HW129872   2.204   5.204   4.950
 9477SOL    HW229873   2.308   5.260   5.044
 9478SOL     OW29874   2.298   4.462   5.333
 9478SOL    HW129875   2.352   4.513   5.273
 9478SOL    HW229876   2.357   4.394   5.366
 9479SOL     OW29877   2.835   3.875   5.525
 9479SOL    HW129878   2.891   3.942   5.484
 9479SOL    HW229879   2.884   3.793   5.514
 9480SOL     OW29880   2.361   3.757   5.467
 9480SOL    HW129881   2.317   3.696   5.408
 9480SOL    HW229882   2.303   3.832   5.472
 9481SOL     OW29883   2.399   4.649   4.744
 9481SOL    HW129884   2.473   4.711   4.745
 9481SOL    HW229885   2.393   4.618   4.834
 9482SOL     OW29886   3.063   4.257   4.003
 9482SOL    HW129887   3.076   4.179   4.057
 9482SOL    HW229888   3.018   4.319   4.061
 9483SOL     OW29889   2.127   3.914   4.988
 9483SOL    HW129890   2.118   3.935   5.081
 9483SOL    HW229891   2.133   3.818   4.986
 9484SOL     OW29892   1.884   5.040   4.992
 9484SOL    HW129893   1.921   4.978   5.054
 9484SOL    HW229894   1.907   5.126   5.027
 9485SOL     OW29895   2.586   4.371   4.818
 9485SOL    HW129896   2.640   4.310   4.767
 9485SOL    HW229897   2.574   4.447   4.760
 9486SOL     OW29898   2.157   3.774   4.359
 9486SOL    HW129899   2.144   3.867   4.378
 9486SOL    HW229900   2.186   3.736   4.442
 9487SOL     OW29901   3.502   4.113   4.082
 9487SOL    HW129902   3.519   4.050   4.152
 9487SOL    HW229903   3.476   4.193   4.128
 9488SOL     OW29904   2.838   5.274   5.460
 9488SOL    HW129905   2.811   5.316   5.379
 9488SOL    HW229906   2.886   5.196   5.433
 9489SOL     OW29907   3.711   5.236   5.348
 9489SOL    HW129908   3.739   5.269   5.263
 9489SOL    HW229909   3.787   5.248   5.405
 9490SOL     OW29910   2.214   4.649   5.525
 9490SOL    HW129911   2.284   4.672   5.585
 9490SOL    HW229912   2.253   4.584   5.467
 9491SOL     OW29913   3.359   3.993   3.890
 9491SOL    HW129914   3.302   3.937   3.942
 9491SOL    HW229915   3.415   4.036   3.954
 9492SOL     OW29916   3.096   4.520   3.719
 9492SOL    HW129917   3.153   4.448   3.748
 9492SOL    HW229918   3.147   4.564   3.651
 9493SOL     OW29919   2.927   5.064   4.589
 9493SOL    HW129920   2.926   4.993   4.524
 9493SOL    HW229921   2.980   5.133   4.549
 9494SOL     OW29922   2.165   4.539   4.663
 9494SOL    HW129923   2.253   4.573   4.679
 9494SOL    HW229924   2.171   4.446   4.684
 9495SOL     OW29925   2.186   4.268   4.716
 9495SOL    HW129926   2.162   4.175   4.717
 9495SOL    HW229927   2.271   4.270   4.672
 9496SOL     OW29928   2.977   4.096   5.455
 9496SOL    HW129929   2.969   4.172   5.511
 9496SOL    HW229930   3.071   4.091   5.435
 9497SOL     OW29931   1.858   5.042   3.918
 9497SOL    HW129932   1.770   5.057   3.883
 9497SOL    HW229933   1.856   4.953   3.952
 9498SOL     OW29934   1.948   5.506   4.659
 9498SOL    HW129935   1.923   5.423   4.619
 9498SOL    HW229936   2.040   5.517   4.635
 9499SOL     OW29937   2.351   5.299   4.628
 9499SOL    HW129938   2.422   5.356   4.657
 9499SOL    HW229939   2.392   5.237   4.568
 9500SOL     OW29940   1.915   4.266   4.838
 9500SOL    HW129941   1.996   4.280   4.788
 9500SOL    HW229942   1.943   4.272   4.930
 9501SOL     OW29943   2.060   4.255   5.458
 9501SOL    HW129944   2.144   4.231   5.419
 9501SOL    HW229945   2.030   4.330   5.407
 9502SOL     OW29946   3.224   4.662   5.358
 9502SOL    HW129947   3.263   4.749   5.349
 9502SOL    HW229948   3.288   4.603   5.319
 9503SOL     OW29949   2.668   4.286   4.096
 9503SOL    HW129950   2.694   4.215   4.036
 9503SOL    HW229951   2.603   4.336   4.047
 9504SOL     OW29952   2.089   5.269   5.450
 9504SOL    HW129953   2.086   5.320   5.532
 9504SOL    HW229954   2.108   5.180   5.478
 9505SOL     OW29955   2.500   4.181   4.993
 9505SOL    HW129956   2.498   4.103   4.938
 9505SOL    HW229957   2.532   4.250   4.935
 9506SOL     OW29958   2.744   5.403   5.228
 9506SOL    HW129959   2.747   5.362   5.142
 9506SOL    HW229960   2.819   5.463   5.230
 9507SOL     OW29961   2.308   4.212   3.873
 9507SOL    HW129962   2.378   4.273   3.897
 9507SOL    HW229963   2.228   4.262   3.885
 9508SOL     OW29964   1.983   4.862   5.186
 9508SOL    HW129965   1.997   4.817   5.270
 9508SOL    HW229966   2.009   4.798   5.120
 9509SOL     OW29967   3.153   4.628   4.037
 9509SOL    HW129968   3.173   4.630   4.130
 9509SOL    HW229969   3.166   4.536   4.012
 9510SOL     OW29970   3.634   5.443   4.881
 9510SOL    HW129971   3.697   5.468   4.813
 9510SOL    HW229972   3.608   5.354   4.859
 9511SOL     OW29973   3.103   5.472   4.835
 9511SOL    HW129974   3.188   5.496   4.800
 9511SOL    HW229975   3.108   5.377   4.850
 9512SOL     OW29976   1.920   5.028   4.716
 9512SOL    HW129977   1.909   5.022   4.811
 9512SOL    HW229978   1.890   4.944   4.682
 9513SOL     OW29979   2.557   5.407   5.455
 9513SOL    HW129980   2.507   5.487   5.444
 9513SOL    HW229981   2.625   5.410   5.388
 9514SOL     OW29982   3.533   3.885   4.247
 9514SOL    HW129983   3.593   3.828   4.199
 9514SOL    HW229984   3.515   3.838   4.328
 9515SOL     OW29985   3.250   5.297   4.206
 9515SOL    HW129986   3.311   5.330   4.141
 9515SOL    HW229987   3.203   5.375   4.237
 9516SOL     OW29988   1.987   5.539   5.576
 9516SOL    HW129989   1.947   5.461   5.615
 9516SOL    HW229990   2.046   5.572   5.644
 9517SOL     OW29991   2.667   5.003   5.144
 9517SOL    HW129992   2.634   5.049   5.221
 9517SOL    HW229993   2.599   5.014   5.078
 9518SOL     OW29994   2.521   5.372   3.876
 9518SOL    HW129995   2.551   5.376   3.785
 9518SOL    HW229996   2.474   5.288   3.881
 9519SOL     OW29997   3.478   5.457   5.116
 9519SOL    HW129998   3.535   5.456   5.040
 9519SOL    HW229999   3.466   5.551   5.136
 9520SOL     OW30000   3.688   3.893   4.705
 9520SOL    HW130001   3.729   3.813   4.674
 9520SOL    HW230002   3.607   3.900   4.655
 9521SOL     OW30003   2.122   4.024   4.448
 9521SOL    HW130004   2.049   4.086   4.440
 9521SOL    HW230005   2.147   4.027   4.540
 9522SOL     OW30006   3.058   5.313   3.765
 9522SOL    HW130007   3.055   5.225   3.802
 9522SOL    HW230008   2.984   5.316   3.705
 9523SOL     OW30009   2.695   4.735   5.093
 9523SOL    HW130010   2.738   4.734   5.007
 9523SOL    HW230011   2.694   4.827   5.118
 9524SOL     OW30012   2.775   4.626   4.010
 9524SOL    HW130013   2.837   4.664   3.948
 9524SOL    HW230014   2.827   4.565   4.062
 9525SOL     OW30015   3.322   5.420   3.766
 9525SOL    HW130016   3.242   5.368   3.761
 9525SOL    HW230017   3.376   5.389   3.693
 9526SOL     OW30018   2.208   5.034   5.229
 9526SOL    HW130019   2.216   5.101   5.161
 9526SOL    HW230020   2.138   4.977   5.197
 9527SOL     OW30021   3.422   4.981   5.047
 9527SOL    HW130022   3.495   4.968   5.108
 9527SOL    HW230023   3.397   5.073   5.059
 9528SOL     OW30024   2.908   4.854   4.421
 9528SOL    HW130025   2.873   4.767   4.440
 9528SOL    HW230026   2.990   4.838   4.375
 9529SOL     OW30027   2.808   3.927   4.640
 9529SOL    HW130028   2.892   3.957   4.605
 9529SOL    HW230029   2.830   3.874   4.716
 9530SOL     OW30030   2.443   5.180   4.190
 9530SOL    HW130031   2.511   5.137   4.138
 9530SOL    HW230032   2.393   5.231   4.125
 9531SOL     OW30033   2.116   5.072   3.994
 9531SOL    HW130034   2.023   5.063   3.976
 9531SOL    HW230035   2.120   5.106   4.083
 9532SOL     OW30036   1.972   4.733   5.430
 9532SOL    HW130037   1.902   4.719   5.494
 9532SOL    HW230038   2.052   4.709   5.476
 9533SOL     OW30039   2.531   3.919   5.232
 9533SOL    HW130040   2.614   3.937   5.187
 9533SOL    HW230041   2.549   3.942   5.323
 9534SOL     OW30042   1.935   4.051   3.757
 9534SOL    HW130043   1.860   4.035   3.700
 9534SOL    HW230044   1.976   4.130   3.721
 9535SOL     OW30045   1.923   3.876   4.016
 9535SOL    HW130046   1.914   3.946   3.951
 9535SOL    HW230047   2.013   3.845   4.005
 9536SOL     OW30048   3.025   5.053   3.866
 9536SOL    HW130049   2.980   4.968   3.867
 9536SOL    HW230050   3.050   5.068   3.957
 9537SOL     OW30051   2.479   4.578   5.157
 9537SOL    HW130052   2.542   4.648   5.139
 9537SOL    HW230053   2.532   4.498   5.161
 9538SOL     OW30054   3.353   5.526   4.735
 9538SOL    HW130055   3.380   5.545   4.645
 9538SOL    HW230056   3.420   5.467   4.768
 9539SOL     OW30057   2.561   4.289   5.434
 9539SOL    HW130058   2.615   4.352   5.481
 9539SOL    HW230059   2.594   4.204   5.462
 9540SOL     OW30060   3.339   4.920   5.353
 9540SOL    HW130061   3.346   4.961   5.440
 9540SOL    HW230062   3.426   4.929   5.315
 9541SOL     OW30063   2.231   5.467   5.294
 9541SOL    HW130064   2.145   5.508   5.289
 9541SOL    HW230065   2.214   5.380   5.331
 9542SOL     OW30066   3.083   4.034   4.184
 9542SOL    HW130067   3.139   3.963   4.155
 9542SOL    HW230068   3.122   4.064   4.266
 9543SOL     OW30069   2.415   4.469   4.406
 9543SOL    HW130070   2.475   4.542   4.396
 9543SOL    HW230071   2.371   4.462   4.321
 9544SOL     OW30072   2.662   5.111   3.767
 9544SOL    HW130073   2.674   5.104   3.861
 9544SOL    HW230074   2.730   5.171   3.738
 9545SOL     OW30075   2.526   5.505   4.669
 9545SOL    HW130076   2.522   5.595   4.638
 9545SOL    HW230077   2.619   5.481   4.661
 9546SOL     OW30078   2.740   4.642   4.548
 9546SOL    HW130079   2.782   4.556   4.556
 9546SOL    HW230080   2.733   4.674   4.638
 9547SOL     OW30081   2.927   4.721   3.801
 9547SOL    HW130082   2.932   4.756   3.712
 9547SOL    HW230083   2.995   4.654   3.804
 9548SOL     OW30084   3.705   5.296   4.580
 9548SOL    HW130085   3.717   5.253   4.496
 9548SOL    HW230086   3.689   5.224   4.642
 9549SOL     OW30087   2.093   5.020   5.580
 9549SOL    HW130088   2.028   4.951   5.570
 9549SOL    HW230089   2.101   5.032   5.675
 9550SOL     OW30090   1.966   4.935   4.390
 9550SOL    HW130091   1.999   4.896   4.471
 9550SOL    HW230092   2.027   4.905   4.323
 9551SOL     OW30093   2.535   5.143   5.338
 9551SOL    HW130094   2.472   5.092   5.391
 9551SOL    HW230095   2.551   5.222   5.390
 9552SOL     OW30096   3.706   3.860   4.997
 9552SOL    HW130097   3.736   3.796   4.933
 9552SOL    HW230098   3.679   3.936   4.945
 9553SOL     OW30099   2.258   4.164   4.232
 9553SOL    HW130100   2.314   4.106   4.180
 9553SOL    HW230101   2.253   4.122   4.318
 9554SOL     OW30102   3.567   5.183   4.829
 9554SOL    HW130103   3.496   5.120   4.823
 9554SOL    HW230104   3.635   5.137   4.878
 9555SOL     OW30105   2.199   4.271   5.012
 9555SOL    HW130106   2.250   4.220   5.075
 9555SOL    HW230107   2.240   4.254   4.927
 9556SOL     OW30108   2.679   5.307   4.414
 9556SOL    HW130109   2.733   5.265   4.347
 9556SOL    HW230110   2.606   5.247   4.428
 9557SOL     OW30111   3.292   3.947   4.781
 9557SOL    HW130112   3.261   3.861   4.808
 9557SOL    HW230113   3.214   4.003   4.788
 9558SOL     OW30114   2.642   5.054   4.045
 9558SOL    HW130115   2.628   4.960   4.060
 9558SOL    HW230116   2.711   5.077   4.107
 9559SOL     OW30117   2.480   5.295   5.001
 9559SOL    HW130118   2.478   5.383   5.038
 9559SOL    HW230119   2.571   5.280   4.977
 9560SOL     OW30120   3.448   3.918   4.565
 9560SOL    HW130121   3.396   3.929   4.644
 9560SOL    HW230122   3.455   4.007   4.528
 9561SOL     OW30123   1.899   4.785   4.026
 9561SOL    HW130124   1.994   4.780   4.012
 9561SOL    HW230125   1.873   4.696   4.046
 9562SOL     OW30126   2.765   5.409   4.045
 9562SOL    HW130127   2.684   5.382   4.002
 9562SOL    HW230128   2.737   5.466   4.116
 9563SOL     OW30129   2.076   4.360   5.720
 9563SOL    HW130130   1.988   4.343   5.755
 9563SOL    HW230131   2.070   4.336   5.627
 9564SOL     OW30132   2.078   4.011   6.585
 9564SOL    HW130133   2.109   3.980   6.670
 9564SOL    HW230134   1.989   3.976   6.578
 9565SOL     OW30135   1.868   4.126   6.224
 9565SOL    HW130136   1.781   4.127   6.264
 9565SOL    HW230137   1.869   4.046   6.171
 9566SOL     OW30138   2.429   5.029   6.789
 9566SOL    HW130139   2.358   5.040   6.727
 9566SOL    HW230140   2.457   5.119   6.810
 9567SOL     OW30141   3.396   5.240   6.259
 9567SOL    HW130142   3.383   5.210   6.348
 9567SOL    HW230143   3.394   5.161   6.206
 9568SOL     OW30144   2.593   4.863   6.624
 9568SOL    HW130145   2.546   4.890   6.703
 9568SOL    HW230146   2.633   4.943   6.591
 9569SOL     OW30147   2.683   4.513   7.402
 9569SOL    HW130148   2.751   4.521   7.469
 9569SOL    HW230149   2.724   4.546   7.322
 9570SOL     OW30150   2.539   4.723   6.225
 9570SOL    HW130151   2.611   4.710   6.286
 9570SOL    HW230152   2.477   4.779   6.273
 9571SOL     OW30153   2.566   4.879   7.405
 9571SOL    HW130154   2.608   4.960   7.433
 9571SOL    HW230155   2.485   4.908   7.362
 9572SOL     OW30156   2.188   5.148   6.647
 9572SOL    HW130157   2.116   5.115   6.592
 9572SOL    HW230158   2.243   5.198   6.587
 9573SOL     OW30159   3.290   5.226   6.954
 9573SOL    HW130160   3.361   5.290   6.955
 9573SOL    HW230161   3.310   5.168   7.028
 9574SOL     OW30162   2.291   4.125   7.123
 9574SOL    HW130163   2.382   4.152   7.125
 9574SOL    HW230164   2.293   4.033   7.096
 9575SOL     OW30165   2.082   5.446   6.054
 9575SOL    HW130166   2.107   5.517   6.113
 9575SOL    HW230167   2.160   5.430   6.001
 9576SOL     OW30168   3.013   5.045   7.276
 9576SOL    HW130169   3.098   5.001   7.268
 9576SOL    HW230170   2.949   4.974   7.278
 9577SOL     OW30171   2.078   5.166   6.103
 9577SOL    HW130172   2.073   5.260   6.119
 9577SOL    HW230173   2.044   5.126   6.184
 9578SOL     OW30174   2.109   4.807   6.475
 9578SOL    HW130175   2.131   4.714   6.482
 9578SOL    HW230176   2.117   4.841   6.564
 9579SOL     OW30177   2.427   5.550   6.974
 9579SOL    HW130178   2.368   5.516   7.041
 9579SOL    HW230179   2.478   5.617   7.019
 9580SOL     OW30180   2.422   4.729   5.727
 9580SOL    HW130181   2.483   4.757   5.659
 9580SOL    HW230182   2.465   4.752   5.809
 9581SOL     OW30183   3.449   3.823   7.065
 9581SOL    HW130184   3.498   3.819   6.983
 9581SOL    HW230185   3.459   3.913   7.095
 9582SOL     OW30186   1.966   4.392   6.146
 9582SOL    HW130187   1.955   4.300   6.169
 9582SOL    HW230188   1.969   4.438   6.230
 9583SOL     OW30189   3.693   5.497   5.920
 9583SOL    HW130190   3.765   5.461   5.971
 9583SOL    HW230191   3.720   5.586   5.900
 9584SOL     OW30192   1.897   5.317   5.704
 9584SOL    HW130193   1.888   5.223   5.720
 9584SOL    HW230194   1.877   5.358   5.788
 9585SOL     OW30195   2.010   4.469   7.168
 9585SOL    HW130196   2.105   4.483   7.168
 9585SOL    HW230197   1.973   4.556   7.181
 9586SOL     OW30198   2.466   5.124   6.317
 9586SOL    HW130199   2.430   5.036   6.328
 9586SOL    HW230200   2.456   5.143   6.223
 9587SOL     OW30201   3.166   4.940   7.039
 9587SOL    HW130202   3.185   4.879   6.968
 9587SOL    HW230203   3.211   4.904   7.115
 9588SOL     OW30204   2.651   3.711   6.076
 9588SOL    HW130205   2.707   3.788   6.079
 9588SOL    HW230206   2.562   3.745   6.088
 9589SOL     OW30207   2.040   4.688   6.849
 9589SOL    HW130208   2.127   4.648   6.854
 9589SOL    HW230209   1.995   4.639   6.781
 9590SOL     OW30210   3.003   5.535   7.199
 9590SOL    HW130211   3.044   5.591   7.133
 9590SOL    HW230212   3.031   5.446   7.177
 9591SOL     OW30213   2.183   3.976   7.366
 9591SOL    HW130214   2.256   4.036   7.378
 9591SOL    HW230215   2.121   4.000   7.435
 9592SOL     OW30216   3.305   5.152   6.507
 9592SOL    HW130217   3.258   5.151   6.590
 9592SOL    HW230218   3.303   5.061   6.477
 9593SOL     OW30219   3.472   5.500   6.160
 9593SOL    HW130220   3.478   5.461   6.073
 9593SOL    HW230221   3.459   5.426   6.219
 9594SOL     OW30222   2.460   4.428   5.845
 9594SOL    HW130223   2.496   4.512   5.819
 9594SOL    HW230224   2.399   4.448   5.915
 9595SOL     OW30225   3.432   5.424   5.891
 9595SOL    HW130226   3.527   5.436   5.891
 9595SOL    HW230227   3.410   5.402   5.801
 9596SOL     OW30228   2.587   4.348   7.039
 9596SOL    HW130229   2.600   4.313   7.127
 9596SOL    HW230230   2.613   4.276   6.981
 9597SOL     OW30231   3.260   4.187   7.281
 9597SOL    HW130232   3.278   4.225   7.367
 9597SOL    HW230233   3.308   4.104   7.281
 9598SOL     OW30234   2.811   4.598   7.172
 9598SOL    HW130235   2.879   4.531   7.159
 9598SOL    HW230236   2.768   4.605   7.087
 9599SOL     OW30237   2.795   4.101   6.810
 9599SOL    HW130238   2.872   4.128   6.860
 9599SOL    HW230239   2.827   4.035   6.749
 9600SOL     OW30240   2.841   4.482   6.027
 9600SOL    HW130241   2.912   4.495   6.089
 9600SOL    HW230242   2.806   4.395   6.048
 9601SOL     OW30243   1.940   4.561   6.366
 9601SOL    HW130244   2.020   4.537   6.412
 9601SOL    HW230245   1.912   4.643   6.407
 9602SOL     OW30246   1.982   5.593   7.173
 9602SOL    HW130247   1.981   5.581   7.268
 9602SOL    HW230248   1.920   5.528   7.140
 9603SOL     OW30249   2.767   4.071   5.749
 9603SOL    HW130250   2.815   4.145   5.712
 9603SOL    HW230251   2.805   3.994   5.706
 9604SOL     OW30252   3.509   4.340   7.403
 9604SOL    HW130253   3.479   4.402   7.337
 9604SOL    HW230254   3.555   4.272   7.353
 9605SOL     OW30255   2.387   3.903   6.473
 9605SOL    HW130256   2.396   3.910   6.568
 9605SOL    HW230257   2.434   3.979   6.438
 9606SOL     OW30258   2.825   5.188   6.080
 9606SOL    HW130259   2.834   5.259   6.017
 9606SOL    HW230260   2.910   5.145   6.080
 9607SOL     OW30261   2.217   5.541   6.467
 9607SOL    HW130262   2.264   5.458   6.470
 9607SOL    HW230263   2.284   5.608   6.481
 9608SOL     OW30264   3.668   4.839   6.429
 9608SOL    HW130265   3.628   4.827   6.343
 9608SOL    HW230266   3.602   4.810   6.491
 9609SOL     OW30267   3.057   5.279   7.120
 9609SOL    HW130268   3.057   5.196   7.168
 9609SOL    HW230269   3.089   5.257   7.033
 9610SOL     OW30270   2.167   4.685   5.842
 9610SOL    HW130271   2.252   4.707   5.803
 9610SOL    HW230272   2.154   4.593   5.822
 9611SOL     OW30273   2.332   5.001   7.325
 9611SOL    HW130274   2.300   5.008   7.234
 9611SOL    HW230275   2.252   4.997   7.378
 9612SOL     OW30276   2.988   5.525   5.788
 9612SOL    HW130277   2.920   5.487   5.842
 9612SOL    HW230278   3.020   5.452   5.734
 9613SOL     OW30279   2.034   3.965   7.117
 9613SOL    HW130280   2.020   4.057   7.096
 9613SOL    HW230281   2.089   3.966   7.196
 9614SOL     OW30282   2.323   5.460   5.908
 9614SOL    HW130283   2.374   5.509   5.973
 9614SOL    HW230284   2.389   5.426   5.848
 9615SOL     OW30285   2.122   5.511   6.808
 9615SOL    HW130286   2.178   5.450   6.855
 9615SOL    HW230287   2.135   5.489   6.716
 9616SOL     OW30288   2.815   5.424   6.486
 9616SOL    HW130289   2.900   5.380   6.491
 9616SOL    HW230290   2.768   5.376   6.418
 9617SOL     OW30291   2.250   4.427   6.040
 9617SOL    HW130292   2.265   4.334   6.056
 9617SOL    HW230293   2.158   4.441   6.064
 9618SOL     OW30294   3.392   3.950   7.312
 9618SOL    HW130295   3.389   3.939   7.407
 9618SOL    HW230296   3.384   3.861   7.277
 9619SOL     OW30297   2.476   3.831   5.709
 9619SOL    HW130298   2.566   3.799   5.722
 9619SOL    HW230299   2.451   3.797   5.623
 9620SOL     OW30300   2.625   3.991   7.358
 9620SOL    HW130301   2.705   3.943   7.340
 9620SOL    HW230302   2.637   4.026   7.446
 9621SOL     OW30303   2.742   5.240   6.796
 9621SOL    HW130304   2.734   5.206   6.707
 9621SOL    HW230305   2.815   5.190   6.834
 9622SOL     OW30306   3.208   4.318   7.036
 9622SOL    HW130307   3.248   4.290   7.117
 9622SOL    HW230308   3.245   4.404   7.019
 9623SOL     OW30309   2.679   5.112   6.536
 9623SOL    HW130310   2.766   5.094   6.498
 9623SOL    HW230311   2.622   5.122   6.460
 9624SOL     OW30312   2.712   4.165   6.487
 9624SOL    HW130313   2.707   4.165   6.391
 9624SOL    HW230314   2.801   4.136   6.506
 9625SOL     OW30315   2.390   3.789   6.077
 9625SOL    HW130316   2.319   3.795   6.140
 9625SOL    HW230317   2.386   3.871   6.028
 9626SOL     OW30318   2.165   3.767   5.772
 9626SOL    HW130319   2.233   3.833   5.760
 9626SOL    HW230320   2.209   3.693   5.813
 9627SOL     OW30321   2.786   3.958   6.025
 9627SOL    HW130322   2.785   4.002   5.940
 9627SOL    HW230323   2.878   3.956   6.051
 9628SOL     OW30324   2.948   4.385   7.061
 9628SOL    HW130325   2.924   4.293   7.070
 9628SOL    HW230326   3.044   4.383   7.051
 9629SOL     OW30327   3.077   5.300   6.399
 9629SOL    HW130328   3.109   5.348   6.323
 9629SOL    HW230329   3.155   5.259   6.436
 9630SOL     OW30330   2.325   4.887   6.314
 9630SOL    HW130331   2.266   4.854   6.381
 9630SOL    HW230332   2.280   4.867   6.231
 9631SOL     OW30333   3.131   5.517   6.201
 9631SOL    HW130334   3.175   5.575   6.139
 9631SOL    HW230335   3.086   5.576   6.262
 9632SOL     OW30336   2.895   4.292   5.637
 9632SOL    HW130337   2.835   4.359   5.602
 9632SOL    HW230338   2.972   4.340   5.665
 9633SOL     OW30339   1.968   4.263   6.990
 9633SOL    HW130340   2.057   4.259   6.955
 9633SOL    HW230341   1.969   4.339   7.048
 9634SOL     OW30342   2.407   3.889   6.741
 9634SOL    HW130343   2.481   3.848   6.785
 9634SOL    HW230344   2.375   3.955   6.803
 9635SOL     OW30345   2.686   4.150   6.210
 9635SOL    HW130346   2.666   4.207   6.135
 9635SOL    HW230347   2.715   4.068   6.170
 9636SOL     OW30348   2.802   3.795   6.303
 9636SOL    HW130349   2.756   3.712   6.289
 9636SOL    HW230350   2.842   3.785   6.390
 9637SOL     OW30351   3.285   4.906   6.385
 9637SOL    HW130352   3.290   4.811   6.390
 9637SOL    HW230353   3.312   4.927   6.296
 9638SOL     OW30354   3.256   4.302   6.661
 9638SOL    HW130355   3.235   4.209   6.650
 9638SOL    HW230356   3.345   4.303   6.696
 9639SOL     OW30357   3.798   4.546   5.913
 9639SOL    HW130358   3.821   4.514   6.000
 9639SOL    HW230359   3.732   4.483   5.881
 9640SOL     OW30360   2.354   5.160   5.742
 9640SOL    HW130361   2.276   5.121   5.781
 9640SOL    HW230362   2.389   5.091   5.686
 9641SOL     OW30363   2.367   3.994   5.898
 9641SOL    HW130364   2.423   3.943   5.839
 9641SOL    HW230365   2.350   4.075   5.851
 9642SOL     OW30366   2.928   5.074   6.935
 9642SOL    HW130367   2.853   5.042   6.984
 9642SOL    HW230368   3.003   5.028   6.973
 9643SOL     OW30369   3.464   5.375   7.254
 9643SOL    HW130370   3.448   5.394   7.161
 9643SOL    HW230371   3.554   5.344   7.258
 9644SOL     OW30372   3.011   4.955   6.682
 9644SOL    HW130373   2.933   4.959   6.738
 9644SOL    HW230374   2.977   4.967   6.593
 9645SOL     OW30375   3.491   4.808   6.652
 9645SOL    HW130376   3.506   4.874   6.719
 9645SOL    HW230377   3.398   4.787   6.660
 9646SOL     OW30378   2.736   3.852   6.987
 9646SOL    HW130379   2.760   3.803   6.908
 9646SOL    HW230380   2.818   3.887   7.020
 9647SOL     OW30381   2.827   4.839   7.300
 9647SOL    HW130382   2.735   4.843   7.324
 9647SOL    HW230383   2.835   4.761   7.246
 9648SOL     OW30384   2.561   4.793   5.959
 9648SOL    HW130385   2.555   4.769   6.052
 9648SOL    HW230386   2.632   4.740   5.925
 9649SOL     OW30387   2.261   4.537   6.854
 9649SOL    HW130388   2.336   4.556   6.911
 9649SOL    HW230389   2.250   4.442   6.859
 9650SOL     OW30390   3.073   4.127   6.882
 9650SOL    HW130391   3.135   4.191   6.916
 9650SOL    HW230392   3.114   4.094   6.802
 9651SOL     OW30393   1.951   5.295   6.944
 9651SOL    HW130394   1.935   5.369   6.885
 9651SOL    HW230395   2.046   5.282   6.940
 9652SOL     OW30396   2.178   4.845   6.081
 9652SOL    HW130397   2.217   4.914   6.027
 9652SOL    HW230398   2.180   4.767   6.026
 9653SOL     OW30399   2.402   4.274   6.452
 9653SOL    HW130400   2.414   4.333   6.378
 9653SOL    HW230401   2.483   4.283   6.503
 9654SOL     OW30402   3.088   5.074   5.978
 9654SOL    HW130403   3.130   5.160   5.987
 9654SOL    HW230404   3.146   5.015   6.026
 9655SOL     OW30405   3.144   5.195   6.729
 9655SOL    HW130406   3.199   5.195   6.808
 9655SOL    HW230407   3.099   5.111   6.731
 9656SOL     OW30408   2.216   5.251   6.894
 9656SOL    HW130409   2.205   5.209   6.809
 9656SOL    HW230410   2.311   5.265   6.901
 9657SOL     OW30411   2.289   4.462   7.200
 9657SOL    HW130412   2.343   4.512   7.139
 9657SOL    HW230413   2.344   4.388   7.226
 9658SOL     OW30414   2.864   3.871   7.349
 9658SOL    HW130415   2.925   3.944   7.336
 9658SOL    HW230416   2.904   3.798   7.302
 9659SOL     OW30417   2.344   3.754   7.350
 9659SOL    HW130418   2.315   3.697   7.279
 9659SOL    HW230419   2.292   3.834   7.338
 9660SOL     OW30420   2.386   4.665   6.606
 9660SOL    HW130421   2.466   4.716   6.594
 9660SOL    HW230422   2.401   4.614   6.686
 9661SOL     OW30423   3.202   4.573   6.632
 9661SOL    HW130424   3.207   4.571   6.537
 9661SOL    HW230425   3.221   4.483   6.659
 9662SOL     OW30426   2.103   3.918   6.845
 9662SOL    HW130427   2.097   3.934   6.940
 9662SOL    HW230428   2.128   3.826   6.838
 9663SOL     OW30429   1.871   5.041   6.860
 9663SOL    HW130430   1.913   4.977   6.918
 9663SOL    HW230431   1.903   5.126   6.892
 9664SOL     OW30432   2.605   4.355   6.643
 9664SOL    HW130433   2.648   4.281   6.602
 9664SOL    HW230434   2.669   4.426   6.637
 9665SOL     OW30435   2.151   3.776   6.221
 9665SOL    HW130436   2.139   3.869   6.240
 9665SOL    HW230437   2.173   3.737   6.306
 9666SOL     OW30438   2.847   4.505   6.604
 9666SOL    HW130439   2.925   4.533   6.652
 9666SOL    HW230440   2.878   4.483   6.516
 9667SOL     OW30441   2.837   5.257   7.316
 9667SOL    HW130442   2.826   5.302   7.232
 9667SOL    HW230443   2.897   5.184   7.296
 9668SOL     OW30444   3.720   5.297   7.209
 9668SOL    HW130445   3.740   5.313   7.117
 9668SOL    HW230446   3.747   5.207   7.225
 9669SOL     OW30447   2.214   4.643   7.393
 9669SOL    HW130448   2.290   4.667   7.447
 9669SOL    HW230449   2.248   4.579   7.330
 9670SOL     OW30450   3.131   4.532   5.575
 9670SOL    HW130451   3.204   4.539   5.636
 9670SOL    HW230452   3.161   4.576   5.496
 9671SOL     OW30453   2.918   5.046   6.431
 9671SOL    HW130454   2.931   4.969   6.375
 9671SOL    HW230455   2.986   5.107   6.403
 9672SOL     OW30456   2.160   4.538   6.526
 9672SOL    HW130457   2.246   4.574   6.547
 9672SOL    HW230458   2.167   4.445   6.549
 9673SOL     OW30459   2.173   4.263   6.586
 9673SOL    HW130460   2.147   4.171   6.580
 9673SOL    HW230461   2.256   4.268   6.539
 9674SOL     OW30462   2.995   4.128   7.314
 9674SOL    HW130463   2.981   4.184   7.389
 9674SOL    HW230464   3.087   4.141   7.291
 9675SOL     OW30465   2.981   3.952   7.072
 9675SOL    HW130466   3.004   4.011   7.144
 9675SOL    HW230467   3.025   3.990   6.995
 9676SOL     OW30468   1.857   5.044   5.785
 9676SOL    HW130469   1.769   5.059   5.751
 9676SOL    HW230470   1.856   4.954   5.817
 9677SOL     OW30471   1.949   5.506   6.524
 9677SOL    HW130472   1.923   5.423   6.485
 9677SOL    HW230473   2.040   5.518   6.498
 9678SOL     OW30474   2.353   5.302   6.492
 9678SOL    HW130475   2.425   5.358   6.519
 9678SOL    HW230476   2.393   5.240   6.430
 9679SOL     OW30477   2.822   4.549   6.882
 9679SOL    HW130478   2.880   4.495   6.934
 9679SOL    HW230479   2.814   4.502   6.798
 9680SOL     OW30480   1.912   4.286   6.705
 9680SOL    HW130481   1.988   4.282   6.648
 9680SOL    HW230482   1.947   4.276   6.793
 9681SOL     OW30483   2.072   4.250   7.321
 9681SOL    HW130484   2.146   4.216   7.270
 9681SOL    HW230485   2.039   4.323   7.268
 9682SOL     OW30486   2.658   4.256   5.952
 9682SOL    HW130487   2.687   4.200   5.880
 9682SOL    HW230488   2.599   4.320   5.911
 9683SOL     OW30489   3.507   4.326   6.777
 9683SOL    HW130490   3.510   4.265   6.851
 9683SOL    HW230491   3.590   4.313   6.732
 9684SOL     OW30492   2.088   5.269   7.314
 9684SOL    HW130493   2.090   5.312   7.400
 9684SOL    HW230494   2.105   5.177   7.333
 9685SOL     OW30495   2.490   4.176   6.823
 9685SOL    HW130496   2.567   4.119   6.825
 9685SOL    HW230497   2.517   4.250   6.768
 9686SOL     OW30498   2.743   5.400   7.087
 9686SOL    HW130499   2.747   5.343   7.010
 9686SOL    HW230500   2.810   5.466   7.071
 9687SOL     OW30501   2.312   4.215   5.747
 9687SOL    HW130502   2.380   4.278   5.771
 9687SOL    HW230503   2.230   4.264   5.750
 9688SOL     OW30504   1.978   4.860   7.049
 9688SOL    HW130505   1.999   4.820   7.133
 9688SOL    HW230506   2.004   4.795   6.984
 9689SOL     OW30507   3.193   4.785   6.797
 9689SOL    HW130508   3.198   4.707   6.742
 9689SOL    HW230509   3.133   4.844   6.751
 9690SOL     OW30510   3.653   5.467   6.746
 9690SOL    HW130511   3.710   5.482   6.670
 9690SOL    HW230512   3.611   5.383   6.728
 9691SOL     OW30513   3.103   5.469   6.706
 9691SOL    HW130514   3.187   5.491   6.666
 9691SOL    HW230515   3.106   5.373   6.716
 9692SOL     OW30516   1.910   5.031   6.578
 9692SOL    HW130517   1.904   5.018   6.673
 9692SOL    HW230518   1.889   4.946   6.540
 9693SOL     OW30519   2.569   5.413   7.331
 9693SOL    HW130520   2.513   5.485   7.300
 9693SOL    HW230521   2.637   5.405   7.264
 9694SOL     OW30522   3.198   5.316   6.010
 9694SOL    HW130523   3.289   5.330   5.984
 9694SOL    HW230524   3.188   5.368   6.090
 9695SOL     OW30525   1.975   5.545   7.438
 9695SOL    HW130526   1.940   5.463   7.472
 9695SOL    HW230527   2.037   5.575   7.504
 9696SOL     OW30528   2.672   5.014   7.016
 9696SOL    HW130529   2.631   5.063   7.087
 9696SOL    HW230530   2.600   4.995   6.956
 9697SOL     OW30531   2.523   5.373   5.736
 9697SOL    HW130532   2.553   5.377   5.645
 9697SOL    HW230533   2.476   5.290   5.741
 9698SOL     OW30534   3.467   5.446   6.982
 9698SOL    HW130535   3.527   5.439   6.907
 9698SOL    HW230536   3.453   5.539   6.994
 9699SOL     OW30537   3.691   3.919   6.597
 9699SOL    HW130538   3.715   3.830   6.574
 9699SOL    HW230539   3.609   3.935   6.549
 9700SOL     OW30540   2.122   4.030   6.305
 9700SOL    HW130541   2.043   4.084   6.295
 9700SOL    HW230542   2.136   4.026   6.400
 9701SOL     OW30543   3.064   5.321   5.617
 9701SOL    HW130544   3.059   5.234   5.656
 9701SOL    HW230545   2.988   5.326   5.559
 9702SOL     OW30546   2.651   4.746   6.941
 9702SOL    HW130547   2.717   4.687   6.905
 9702SOL    HW230548   2.700   4.823   6.970
 9703SOL     OW30549   2.741   4.637   5.836
 9703SOL    HW130550   2.818   4.667   5.786
 9703SOL    HW230551   2.777   4.581   5.904
 9704SOL     OW30552   3.331   5.417   5.621
 9704SOL    HW130553   3.247   5.372   5.614
 9704SOL    HW230554   3.378   5.390   5.542
 9705SOL     OW30555   2.199   5.043   7.094
 9705SOL    HW130556   2.223   5.102   7.023
 9705SOL    HW230557   2.143   4.977   7.053
 9706SOL     OW30558   3.530   4.999   6.858
 9706SOL    HW130559   3.609   4.964   6.899
 9706SOL    HW230560   3.462   4.990   6.924
 9707SOL     OW30561   2.931   4.810   6.292
 9707SOL    HW130562   2.859   4.758   6.328
 9707SOL    HW230563   3.003   4.748   6.282
 9708SOL     OW30564   2.444   5.185   6.053
 9708SOL    HW130565   2.513   5.142   6.002
 9708SOL    HW230566   2.393   5.233   5.987
 9709SOL     OW30567   3.587   4.137   6.977
 9709SOL    HW130568   3.669   4.183   6.963
 9709SOL    HW230569   3.598   4.054   6.932
 9710SOL     OW30570   2.117   5.069   5.856
 9710SOL    HW130571   2.023   5.063   5.838
 9710SOL    HW230572   2.122   5.103   5.945
 9711SOL     OW30573   1.980   4.756   7.311
 9711SOL    HW130574   1.909   4.726   7.367
 9711SOL    HW230575   2.058   4.715   7.347
 9712SOL     OW30576   2.515   3.949   7.105
 9712SOL    HW130577   2.592   3.922   7.055
 9712SOL    HW230578   2.548   3.963   7.194
 9713SOL     OW30579   1.939   4.058   5.612
 9713SOL    HW130580   1.864   4.042   5.555
 9713SOL    HW230581   1.982   4.134   5.574
 9714SOL     OW30582   3.271   4.574   6.968
 9714SOL    HW130583   3.240   4.649   6.917
 9714SOL    HW230584   3.366   4.580   6.964
 9715SOL     OW30585   1.923   3.874   5.876
 9715SOL    HW130586   1.914   3.948   5.817
 9715SOL    HW230587   2.013   3.843   5.862
 9716SOL     OW30588   3.023   5.058   5.706
 9716SOL    HW130589   2.980   4.972   5.707
 9716SOL    HW230590   3.055   5.070   5.795
 9717SOL     OW30591   2.461   4.579   7.027
 9717SOL    HW130592   2.521   4.648   7.001
 9717SOL    HW230593   2.514   4.499   7.028
 9718SOL     OW30594   3.353   5.528   6.602
 9718SOL    HW130595   3.382   5.542   6.512
 9718SOL    HW230596   3.403   5.453   6.633
 9719SOL     OW30597   2.559   4.288   7.305
 9719SOL    HW130598   2.599   4.365   7.346
 9719SOL    HW230599   2.616   4.215   7.331
 9720SOL     OW30600   2.234   5.469   7.160
 9720SOL    HW130601   2.147   5.508   7.150
 9720SOL    HW230602   2.218   5.380   7.191
 9721SOL     OW30603   3.528   4.594   6.853
 9721SOL    HW130604   3.519   4.504   6.823
 9721SOL    HW230605   3.536   4.646   6.772
 9722SOL     OW30606   2.423   4.465   6.258
 9722SOL    HW130607   2.481   4.541   6.248
 9722SOL    HW230608   2.374   4.462   6.176
 9723SOL     OW30609   3.603   4.109   7.253
 9723SOL    HW130610   3.593   4.127   7.160
 9723SOL    HW230611   3.532   4.049   7.274
 9724SOL     OW30612   3.709   4.656   7.057
 9724SOL    HW130613   3.720   4.748   7.035
 9724SOL    HW230614   3.635   4.627   7.003
 9725SOL     OW30615   2.666   5.106   5.626
 9725SOL    HW130616   2.680   5.108   5.721
 9725SOL    HW230617   2.730   5.169   5.592
 9726SOL     OW30618   2.534   5.503   6.532
 9726SOL    HW130619   2.530   5.590   6.493
 9726SOL    HW230620   2.625   5.477   6.523
 9727SOL     OW30621   2.714   4.697   6.431
 9727SOL    HW130622   2.767   4.624   6.463
 9727SOL    HW230623   2.688   4.744   6.511
 9728SOL     OW30624   2.938   4.707   5.662
 9728SOL    HW130625   2.922   4.755   5.580
 9728SOL    HW230626   3.008   4.646   5.641
 9729SOL     OW30627   3.717   5.251   6.445
 9729SOL    HW130628   3.708   5.207   6.361
 9729SOL    HW230629   3.743   5.182   6.507
 9730SOL     OW30630   2.084   5.013   7.436
 9730SOL    HW130631   2.036   4.936   7.406
 9730SOL    HW230632   2.083   5.007   7.531
 9731SOL     OW30633   1.965   4.936   6.254
 9731SOL    HW130634   1.998   4.895   6.333
 9731SOL    HW230635   2.025   4.908   6.185
 9732SOL     OW30636   2.528   5.151   7.203
 9732SOL    HW130637   2.465   5.099   7.253
 9732SOL    HW230638   2.555   5.220   7.263
 9733SOL     OW30639   3.651   3.898   6.864
 9733SOL    HW130640   3.739   3.868   6.885
 9733SOL    HW230641   3.653   3.911   6.769
 9734SOL     OW30642   2.261   4.165   6.097
 9734SOL    HW130643   2.315   4.103   6.047
 9734SOL    HW230644   2.240   4.119   6.178
 9735SOL     OW30645   3.519   5.238   6.703
 9735SOL    HW130646   3.488   5.202   6.620
 9735SOL    HW230647   3.541   5.161   6.756
 9736SOL     OW30648   2.208   4.265   6.866
 9736SOL    HW130649   2.286   4.225   6.905
 9736SOL    HW230650   2.220   4.255   6.772
 9737SOL     OW30651   2.677   5.309   6.285
 9737SOL    HW130652   2.733   5.272   6.216
 9737SOL    HW230653   2.600   5.252   6.286
 9738SOL     OW30654   2.802   3.706   6.762
 9738SOL    HW130655   2.797   3.655   6.682
 9738SOL    HW230656   2.868   3.774   6.744
 9739SOL     OW30657   2.643   5.059   5.910
 9739SOL    HW130658   2.624   4.967   5.926
 9739SOL    HW230659   2.712   5.080   5.972
 9740SOL     OW30660   2.483   5.295   6.862
 9740SOL    HW130661   2.484   5.384   6.897
 9740SOL    HW230662   2.575   5.277   6.841
 9741SOL     OW30663   3.426   4.025   6.539
 9741SOL    HW130664   3.344   4.017   6.587
 9741SOL    HW230665   3.422   4.111   6.498
 9742SOL     OW30666   1.899   4.787   5.890
 9742SOL    HW130667   1.994   4.781   5.875
 9742SOL    HW230668   1.873   4.697   5.911
 9743SOL     OW30669   2.764   5.404   5.907
 9743SOL    HW130670   2.683   5.383   5.860
 9743SOL    HW230671   2.736   5.466   5.975
 9744SOL     OW30672   2.082   4.370   7.576
 9744SOL    HW130673   1.988   4.357   7.589
 9744SOL    HW230674   2.098   4.347   7.484
 9745SOL     OW30675   2.073   4.016   8.447
 9745SOL    HW130676   2.109   3.976   8.527
 9745SOL    HW230677   1.986   3.978   8.438
 9746SOL     OW30678   1.872   4.116   8.087
 9746SOL    HW130679   1.784   4.122   8.123
 9746SOL    HW230680   1.868   4.043   8.025
 9747SOL     OW30681   2.428   5.032   8.648
 9747SOL    HW130682   2.353   5.041   8.589
 9747SOL    HW230683   2.453   5.122   8.668
 9748SOL     OW30684   3.439   5.262   8.152
 9748SOL    HW130685   3.393   5.225   8.227
 9748SOL    HW230686   3.375   5.255   8.080
 9749SOL     OW30687   2.944   4.427   8.137
 9749SOL    HW130688   3.031   4.424   8.097
 9749SOL    HW230689   2.956   4.481   8.215
 9750SOL     OW30690   2.592   4.860   8.501
 9750SOL    HW130691   2.535   4.901   8.566
 9750SOL    HW230692   2.634   4.932   8.455
 9751SOL     OW30693   2.704   4.517   9.260
 9751SOL    HW130694   2.753   4.565   9.327
 9751SOL    HW230695   2.740   4.547   9.177
 9752SOL     OW30696   2.538   4.719   8.091
 9752SOL    HW130697   2.608   4.706   8.156
 9752SOL    HW230698   2.476   4.778   8.134
 9753SOL     OW30699   2.571   4.876   9.272
 9753SOL    HW130700   2.613   4.958   9.299
 9753SOL    HW230701   2.493   4.904   9.224
 9754SOL     OW30702   2.189   5.144   8.509
 9754SOL    HW130703   2.117   5.110   8.456
 9754SOL    HW230704   2.242   5.195   8.447
 9755SOL     OW30705   3.295   5.262   8.834
 9755SOL    HW130706   3.360   5.332   8.832
 9755SOL    HW230707   3.248   5.275   8.917
 9756SOL     OW30708   2.306   4.126   8.953
 9756SOL    HW130709   2.390   4.079   8.950
 9756SOL    HW230710   2.240   4.058   8.953
 9757SOL     OW30711   2.083   5.443   7.915
 9757SOL    HW130712   2.109   5.515   7.972
 9757SOL    HW230713   2.157   5.431   7.856
 9758SOL     OW30714   3.005   5.063   9.156
 9758SOL    HW130715   3.089   5.033   9.192
 9758SOL    HW230716   2.953   4.984   9.149
 9759SOL     OW30717   2.090   5.168   7.969
 9759SOL    HW130718   2.079   5.263   7.974
 9759SOL    HW230719   2.046   5.134   8.047
 9760SOL     OW30720   2.112   4.806   8.330
 9760SOL    HW130721   2.137   4.715   8.346
 9760SOL    HW230722   2.089   4.841   8.416
 9761SOL     OW30723   2.432   5.545   8.846
 9761SOL    HW130724   2.368   5.514   8.910
 9761SOL    HW230725   2.474   5.620   8.887
 9762SOL     OW30726   2.422   4.723   7.590
 9762SOL    HW130727   2.482   4.751   7.520
 9762SOL    HW230728   2.469   4.745   7.671
 9763SOL     OW30729   1.962   4.388   8.008
 9763SOL    HW130730   1.958   4.295   8.031
 9763SOL    HW230731   1.968   4.434   8.092
 9764SOL     OW30732   3.700   5.486   7.787
 9764SOL    HW130733   3.774   5.457   7.839
 9764SOL    HW230734   3.726   5.572   7.753
 9765SOL     OW30735   1.900   5.318   7.568
 9765SOL    HW130736   1.891   5.224   7.582
 9765SOL    HW230737   1.878   5.357   7.652
 9766SOL     OW30738   2.000   4.467   9.034
 9766SOL    HW130739   2.093   4.490   9.032
 9766SOL    HW230740   1.955   4.551   9.029
 9767SOL     OW30741   2.470   5.123   8.180
 9767SOL    HW130742   2.431   5.036   8.186
 9767SOL    HW230743   2.460   5.147   8.088
 9768SOL     OW30744   3.145   4.972   8.891
 9768SOL    HW130745   3.155   4.906   8.823
 9768SOL    HW230746   3.222   4.960   8.947
 9769SOL     OW30747   2.657   3.739   8.016
 9769SOL    HW130748   2.704   3.798   7.958
 9769SOL    HW230749   2.565   3.746   7.990
 9770SOL     OW30750   2.043   4.686   8.720
 9770SOL    HW130751   2.131   4.649   8.721
 9770SOL    HW230752   1.998   4.639   8.650
 9771SOL     OW30753   3.017   5.539   9.077
 9771SOL    HW130754   3.040   5.595   9.003
 9771SOL    HW230755   3.037   5.450   9.047
 9772SOL     OW30756   2.207   3.966   9.285
 9772SOL    HW130757   2.260   4.044   9.302
 9772SOL    HW230758   2.117   3.993   9.306
 9773SOL     OW30759   3.301   5.168   8.371
 9773SOL    HW130760   3.254   5.174   8.454
 9773SOL    HW230761   3.296   5.076   8.346
 9774SOL     OW30762   3.492   5.511   8.024
 9774SOL    HW130763   3.487   5.472   7.936
 9774SOL    HW230764   3.487   5.436   8.084
 9775SOL     OW30765   2.466   4.428   7.705
 9775SOL    HW130766   2.498   4.504   7.656
 9775SOL    HW230767   2.412   4.464   7.774
 9776SOL     OW30768   3.181   4.072   8.453
 9776SOL    HW130769   3.125   4.036   8.384
 9776SOL    HW230770   3.270   4.044   8.428
 9777SOL     OW30771   3.432   5.422   7.766
 9777SOL    HW130772   3.527   5.431   7.757
 9777SOL    HW230773   3.404   5.392   7.679
 9778SOL     OW30774   2.641   4.335   8.903
 9778SOL    HW130775   2.613   4.306   8.989
 9778SOL    HW230776   2.607   4.269   8.842
 9779SOL     OW30777   2.824   4.603   9.031
 9779SOL    HW130778   2.875   4.531   8.996
 9779SOL    HW230779   2.771   4.634   8.957
 9780SOL     OW30780   2.821   4.153   8.688
 9780SOL    HW130781   2.726   4.148   8.691
 9780SOL    HW230782   2.845   4.109   8.607
 9781SOL     OW30783   2.863   4.461   7.878
 9781SOL    HW130784   2.886   4.448   7.970
 9781SOL    HW230785   2.834   4.375   7.847
 9782SOL     OW30786   1.946   4.551   8.233
 9782SOL    HW130787   2.030   4.536   8.276
 9782SOL    HW230788   1.914   4.634   8.269
 9783SOL     OW30789   1.979   5.596   9.034
 9783SOL    HW130790   1.976   5.581   9.129
 9783SOL    HW230791   1.919   5.530   8.998
 9784SOL     OW30792   2.805   4.098   7.610
 9784SOL    HW130793   2.864   4.172   7.594
 9784SOL    HW230794   2.851   4.022   7.574
 9785SOL     OW30795   3.580   4.339   9.323
 9785SOL    HW130796   3.498   4.389   9.321
 9785SOL    HW230797   3.631   4.374   9.251
 9786SOL     OW30798   3.259   4.854   7.945
 9786SOL    HW130799   3.327   4.839   7.880
 9786SOL    HW230800   3.207   4.925   7.909
 9787SOL     OW30801   2.391   3.897   8.340
 9787SOL    HW130802   2.409   3.930   8.429
 9787SOL    HW230803   2.427   3.964   8.282
 9788SOL     OW30804   2.872   5.169   7.922
 9788SOL    HW130805   2.837   5.243   7.872
 9788SOL    HW230806   2.850   5.189   8.013
 9789SOL     OW30807   2.217   5.541   8.330
 9789SOL    HW130808   2.264   5.458   8.331
 9789SOL    HW230809   2.285   5.608   8.341
 9790SOL     OW30810   3.059   5.278   8.985
 9790SOL    HW130811   3.055   5.198   9.037
 9790SOL    HW230812   3.043   5.249   8.895
 9791SOL     OW30813   2.166   4.684   7.700
 9791SOL    HW130814   2.251   4.707   7.663
 9791SOL    HW230815   2.149   4.596   7.667
 9792SOL     OW30816   3.298   4.524   8.247
 9792SOL    HW130817   3.299   4.466   8.323
 9792SOL    HW230818   3.368   4.490   8.191
 9793SOL     OW30819   2.333   5.001   9.190
 9793SOL    HW130820   2.304   5.008   9.099
 9793SOL    HW230821   2.252   4.994   9.240
 9794SOL     OW30822   2.987   5.504   7.673
 9794SOL    HW130823   2.918   5.460   7.722
 9794SOL    HW230824   3.011   5.443   7.604
 9795SOL     OW30825   2.067   3.980   8.945
 9795SOL    HW130826   2.003   4.045   8.973
 9795SOL    HW230827   2.039   3.899   8.986
 9796SOL     OW30828   3.461   5.167   7.600
 9796SOL    HW130829   3.452   5.235   7.534
 9796SOL    HW230830   3.393   5.103   7.577
 9797SOL     OW30831   2.320   5.465   7.766
 9797SOL    HW130832   2.375   5.510   7.830
 9797SOL    HW230833   2.383   5.424   7.706
 9798SOL     OW30834   2.123   5.512   8.667
 9798SOL    HW130835   2.176   5.444   8.708
 9798SOL    HW230836   2.125   5.492   8.574
 9799SOL     OW30837   2.811   5.421   8.342
 9799SOL    HW130838   2.898   5.380   8.348
 9799SOL    HW230839   2.767   5.373   8.272
 9800SOL     OW30840   2.249   4.428   7.915
 9800SOL    HW130841   2.267   4.334   7.923
 9800SOL    HW230842   2.154   4.435   7.925
 9801SOL     OW30843   2.472   3.823   7.581
 9801SOL    HW130844   2.566   3.807   7.578
 9801SOL    HW230845   2.440   3.796   7.495
 9802SOL     OW30846   2.626   3.999   9.217
 9802SOL    HW130847   2.705   3.949   9.197
 9802SOL    HW230848   2.630   4.013   9.312
 9803SOL     OW30849   2.734   5.246   8.650
 9803SOL    HW130850   2.724   5.210   8.562
 9803SOL    HW230851   2.807   5.198   8.688
 9804SOL     OW30852   2.670   5.111   8.399
 9804SOL    HW130853   2.757   5.100   8.361
 9804SOL    HW230854   2.612   5.118   8.323
 9805SOL     OW30855   2.779   4.230   8.348
 9805SOL    HW130856   2.768   4.224   8.253
 9805SOL    HW230857   2.811   4.144   8.375
 9806SOL     OW30858   2.398   3.785   7.942
 9806SOL    HW130859   2.318   3.791   7.993
 9806SOL    HW230860   2.399   3.864   7.889
 9807SOL     OW30861   2.160   3.763   7.632
 9807SOL    HW130862   2.226   3.817   7.589
 9807SOL    HW230863   2.210   3.695   7.677
 9808SOL     OW30864   2.758   3.940   7.864
 9808SOL    HW130865   2.767   4.006   7.795
 9808SOL    HW230866   2.834   3.883   7.853
 9809SOL     OW30867   2.926   4.381   8.896
 9809SOL    HW130868   2.842   4.337   8.888
 9809SOL    HW230869   2.990   4.314   8.871
 9810SOL     OW30870   3.070   5.312   8.258
 9810SOL    HW130871   3.101   5.367   8.186
 9810SOL    HW230872   3.150   5.276   8.297
 9811SOL     OW30873   2.326   4.888   8.173
 9811SOL    HW130874   2.261   4.857   8.236
 9811SOL    HW230875   2.287   4.871   8.087
 9812SOL     OW30876   3.127   5.518   8.059
 9812SOL    HW130877   3.175   5.577   8.001
 9812SOL    HW230878   3.059   5.572   8.098
 9813SOL     OW30879   1.954   4.274   8.846
 9813SOL    HW130880   2.045   4.269   8.816
 9813SOL    HW230881   1.955   4.345   8.911
 9814SOL     OW30882   2.417   3.948   8.614
 9814SOL    HW130883   2.467   3.875   8.650
 9814SOL    HW230884   2.328   3.935   8.645
 9815SOL     OW30885   2.713   4.163   8.078
 9815SOL    HW130886   2.692   4.223   8.006
 9815SOL    HW230887   2.732   4.079   8.035
 9816SOL     OW30888   2.808   3.812   8.229
 9816SOL    HW130889   2.761   3.793   8.148
 9816SOL    HW230890   2.854   3.730   8.249
 9817SOL     OW30891   3.281   4.914   8.281
 9817SOL    HW130892   3.230   4.842   8.244
 9817SOL    HW230893   3.361   4.916   8.229
 9818SOL     OW30894   3.295   4.362   8.469
 9818SOL    HW130895   3.280   4.267   8.463
 9818SOL    HW230896   3.389   4.370   8.482
 9819SOL     OW30897   2.356   5.161   7.618
 9819SOL    HW130898   2.276   5.117   7.646
 9819SOL    HW230899   2.395   5.101   7.554
 9820SOL     OW30900   3.517   4.980   8.152
 9820SOL    HW130901   3.607   4.957   8.128
 9820SOL    HW230902   3.500   5.062   8.106
 9821SOL     OW30903   2.371   3.992   7.767
 9821SOL    HW130904   2.419   3.936   7.706
 9821SOL    HW230905   2.353   4.072   7.718
 9822SOL     OW30906   2.916   5.095   8.798
 9822SOL    HW130907   2.840   5.050   8.837
 9822SOL    HW230908   2.991   5.045   8.830
 9823SOL     OW30909   3.468   5.373   9.115
 9823SOL    HW130910   3.458   5.401   9.024
 9823SOL    HW230911   3.554   5.332   9.119
 9824SOL     OW30912   3.006   4.970   8.545
 9824SOL    HW130913   2.925   4.978   8.596
 9824SOL    HW230914   2.978   4.985   8.455
 9825SOL     OW30915   2.779   3.824   8.837
 9825SOL    HW130916   2.802   3.798   8.748
 9825SOL    HW230917   2.853   3.877   8.866
 9826SOL     OW30918   2.847   4.838   9.171
 9826SOL    HW130919   2.755   4.842   9.199
 9826SOL    HW230920   2.851   4.761   9.114
 9827SOL     OW30921   2.561   4.784   7.821
 9827SOL    HW130922   2.557   4.758   7.913
 9827SOL    HW230923   2.638   4.738   7.787
 9828SOL     OW30924   2.275   4.548   8.719
 9828SOL    HW130925   2.350   4.555   8.778
 9828SOL    HW230926   2.250   4.456   8.721
 9829SOL     OW30927   3.149   4.090   8.734
 9829SOL    HW130928   3.244   4.096   8.746
 9829SOL    HW230929   3.137   4.092   8.639
 9830SOL     OW30930   1.947   5.296   8.807
 9830SOL    HW130931   1.923   5.365   8.745
 9830SOL    HW230932   2.042   5.287   8.798
 9831SOL     OW30933   2.182   4.844   7.939
 9831SOL    HW130934   2.207   4.911   7.875
 9831SOL    HW230935   2.186   4.762   7.891
 9832SOL     OW30936   2.399   4.264   8.313
 9832SOL    HW130937   2.408   4.323   8.239
 9832SOL    HW230938   2.480   4.275   8.363
 9833SOL     OW30939   3.118   5.071   7.849
 9833SOL    HW130940   3.172   5.143   7.881
 9833SOL    HW230941   3.029   5.092   7.878
 9834SOL     OW30942   3.153   5.199   8.599
 9834SOL    HW130943   3.205   5.196   8.679
 9834SOL    HW230944   3.109   5.114   8.596
 9835SOL     OW30945   2.212   5.253   8.753
 9835SOL    HW130946   2.202   5.209   8.669
 9835SOL    HW230947   2.307   5.267   8.762
 9836SOL     OW30948   2.287   4.461   9.058
 9836SOL    HW130949   2.347   4.507   9.000
 9836SOL    HW230950   2.333   4.380   9.081
 9837SOL     OW30951   2.850   3.857   9.158
 9837SOL    HW130952   2.890   3.902   9.084
 9837SOL    HW230953   2.894   3.772   9.162
 9838SOL     OW30954   2.362   3.751   9.204
 9838SOL    HW130955   2.316   3.702   9.135
 9838SOL    HW230956   2.311   3.831   9.216
 9839SOL     OW30957   2.417   4.632   8.475
 9839SOL    HW130958   2.484   4.700   8.476
 9839SOL    HW230959   2.398   4.616   8.568
 9840SOL     OW30960   3.160   4.594   8.500
 9840SOL    HW130961   3.185   4.625   8.413
 9840SOL    HW230962   3.207   4.511   8.510
 9841SOL     OW30963   2.151   3.913   8.691
 9841SOL    HW130964   2.124   3.943   8.778
 9841SOL    HW230965   2.137   3.818   8.693
 9842SOL     OW30966   1.872   5.039   8.725
 9842SOL    HW130967   1.916   4.977   8.783
 9842SOL    HW230968   1.902   5.125   8.754
 9843SOL     OW30969   2.592   4.354   8.498
 9843SOL    HW130970   2.666   4.317   8.449
 9843SOL    HW230971   2.584   4.444   8.465
 9844SOL     OW30972   3.574   4.659   9.334
 9844SOL    HW130973   3.601   4.688   9.247
 9844SOL    HW230974   3.499   4.601   9.317
 9845SOL     OW30975   2.156   3.775   8.082
 9845SOL    HW130976   2.144   3.868   8.101
 9845SOL    HW230977   2.179   3.736   8.167
 9846SOL     OW30978   2.864   4.495   8.408
 9846SOL    HW130979   2.934   4.506   8.472
 9846SOL    HW230980   2.864   4.401   8.388
 9847SOL     OW30981   2.829   5.272   9.175
 9847SOL    HW130982   2.823   5.317   9.091
 9847SOL    HW230983   2.888   5.198   9.158
 9848SOL     OW30984   3.723   5.284   9.077
 9848SOL    HW130985   3.749   5.299   8.986
 9848SOL    HW230986   3.768   5.203   9.102
 9849SOL     OW30987   2.213   4.642   9.254
 9849SOL    HW130988   2.290   4.662   9.307
 9849SOL    HW230989   2.244   4.577   9.190
 9850SOL     OW30990   3.378   3.960   7.582
 9850SOL    HW130991   3.308   4.025   7.581
 9850SOL    HW230992   3.455   4.007   7.615
 9851SOL     OW30993   2.915   5.069   8.301
 9851SOL    HW130994   2.917   4.993   8.243
 9851SOL    HW230995   2.982   5.127   8.266
 9852SOL     OW30996   2.171   4.541   8.394
 9852SOL    HW130997   2.262   4.568   8.404
 9852SOL    HW230998   2.170   4.448   8.417
 9853SOL     OW30999   2.176   4.264   8.456
 9853SOL    HW131000   2.145   4.173   8.447
 9853SOL    HW231001   2.256   4.267   8.405
 9854SOL     OW31002   3.007   3.959   8.935
 9854SOL    HW131003   3.078   3.979   8.996
 9854SOL    HW231004   3.030   4.005   8.854
 9855SOL     OW31005   1.857   5.049   7.658
 9855SOL    HW131006   1.770   5.064   7.622
 9855SOL    HW231007   1.857   4.956   7.683
 9856SOL     OW31008   1.951   5.505   8.392
 9856SOL    HW131009   1.923   5.423   8.351
 9856SOL    HW231010   2.041   5.517   8.361
 9857SOL     OW31011   2.353   5.301   8.354
 9857SOL    HW131012   2.426   5.358   8.381
 9857SOL    HW231013   2.393   5.240   8.292
 9858SOL     OW31014   2.820   4.543   8.700
 9858SOL    HW131015   2.885   4.502   8.757
 9858SOL    HW231016   2.776   4.469   8.657
 9859SOL     OW31017   1.906   4.282   8.565
 9859SOL    HW131018   1.984   4.278   8.509
 9859SOL    HW231019   1.940   4.278   8.654
 9860SOL     OW31020   2.070   4.246   9.181
 9860SOL    HW131021   2.145   4.216   9.130
 9860SOL    HW231022   2.035   4.321   9.132
 9861SOL     OW31023   2.672   4.258   7.807
 9861SOL    HW131024   2.708   4.210   7.732
 9861SOL    HW231025   2.607   4.317   7.768
 9862SOL     OW31026   2.088   5.269   9.177
 9862SOL    HW131027   2.090   5.310   9.263
 9862SOL    HW231028   2.104   5.176   9.194
 9863SOL     OW31029   2.537   4.181   8.701
 9863SOL    HW131030   2.498   4.102   8.662
 9863SOL    HW231031   2.548   4.241   8.628
 9864SOL     OW31032   2.744   5.410   8.943
 9864SOL    HW131033   2.752   5.353   8.867
 9864SOL    HW231034   2.762   5.498   8.909
 9865SOL     OW31035   2.308   4.215   7.628
 9865SOL    HW131036   2.380   4.277   7.644
 9865SOL    HW231037   2.230   4.270   7.622
 9866SOL     OW31038   1.987   4.866   8.916
 9866SOL    HW131039   2.004   4.825   9.000
 9866SOL    HW231040   2.009   4.798   8.851
 9867SOL     OW31041   3.155   4.793   8.692
 9867SOL    HW131042   3.173   4.712   8.644
 9867SOL    HW231043   3.112   4.850   8.628
 9868SOL     OW31044   3.649   5.464   8.613
 9868SOL    HW131045   3.707   5.481   8.539
 9868SOL    HW231046   3.606   5.381   8.591
 9869SOL     OW31047   3.102   5.469   8.570
 9869SOL    HW131048   3.185   5.493   8.528
 9869SOL    HW231049   3.109   5.374   8.582
 9870SOL     OW31050   1.916   5.025   8.443
 9870SOL    HW131051   1.902   5.014   8.537
 9870SOL    HW231052   1.883   4.943   8.404
 9871SOL     OW31053   2.562   5.406   9.195
 9871SOL    HW131054   2.511   5.479   9.159
 9871SOL    HW231055   2.639   5.401   9.138
 9872SOL     OW31056   3.548   3.766   7.978
 9872SOL    HW131057   3.600   3.846   7.976
 9872SOL    HW231058   3.590   3.709   7.913
 9873SOL     OW31059   3.257   5.294   7.943
 9873SOL    HW131060   3.313   5.327   7.873
 9873SOL    HW231061   3.204   5.369   7.970
 9874SOL     OW31062   1.971   5.547   9.300
 9874SOL    HW131063   1.939   5.463   9.334
 9874SOL    HW231064   2.036   5.575   9.365
 9875SOL     OW31065   3.133   4.707   8.137
 9875SOL    HW131066   3.187   4.631   8.159
 9875SOL    HW231067   3.174   4.745   8.059
 9876SOL     OW31068   2.663   5.006   8.863
 9876SOL    HW131069   2.629   5.050   8.941
 9876SOL    HW231070   2.590   5.009   8.800
 9877SOL     OW31071   2.532   5.374   7.607
 9877SOL    HW131072   2.560   5.381   7.515
 9877SOL    HW231073   2.490   5.288   7.613
 9878SOL     OW31074   3.477   5.463   8.847
 9878SOL    HW131075   3.542   5.456   8.777
 9878SOL    HW231076   3.463   5.557   8.859
 9879SOL     OW31077   2.123   4.027   8.171
 9879SOL    HW131078   2.044   4.076   8.151
 9879SOL    HW231079   2.129   4.028   8.266
 9880SOL     OW31080   3.061   5.324   7.482
 9880SOL    HW131081   3.049   5.236   7.518
 9880SOL    HW231082   2.999   5.328   7.409
 9881SOL     OW31083   2.674   4.729   8.833
 9881SOL    HW131084   2.730   4.690   8.766
 9881SOL    HW231085   2.694   4.823   8.830
 9882SOL     OW31086   2.769   4.656   7.717
 9882SOL    HW131087   2.838   4.680   7.655
 9882SOL    HW231088   2.809   4.588   7.771
 9883SOL     OW31089   3.329   5.406   7.488
 9883SOL    HW131090   3.242   5.370   7.472
 9883SOL    HW231091   3.374   5.397   7.405
 9884SOL     OW31092   2.207   5.043   8.956
 9884SOL    HW131093   2.222   5.103   8.883
 9884SOL    HW231094   2.141   4.982   8.922
 9885SOL     OW31095   3.414   5.046   8.729
 9885SOL    HW131096   3.460   4.986   8.788
 9885SOL    HW231097   3.369   5.107   8.788
 9886SOL     OW31098   2.899   4.843   8.161
 9886SOL    HW131099   2.835   4.778   8.190
 9886SOL    HW231100   2.978   4.792   8.142
 9887SOL     OW31101   2.843   3.976   8.443
 9887SOL    HW131102   2.834   3.935   8.358
 9887SOL    HW231103   2.870   3.904   8.501
 9888SOL     OW31104   2.464   5.206   7.921
 9888SOL    HW131105   2.530   5.153   7.875
 9888SOL    HW231106   2.398   5.225   7.854
 9889SOL     OW31107   2.118   5.060   7.725
 9889SOL    HW131108   2.025   5.061   7.705
 9889SOL    HW231109   2.124   5.099   7.812
 9890SOL     OW31110   1.982   4.772   9.183
 9890SOL    HW131111   1.907   4.737   9.231
 9890SOL    HW231112   2.057   4.721   9.215
 9891SOL     OW31113   2.536   3.917   8.956
 9891SOL    HW131114   2.619   3.900   8.913
 9891SOL    HW231115   2.559   3.945   9.044
 9892SOL     OW31116   1.926   4.082   7.491
 9892SOL    HW131117   1.864   4.053   7.424
 9892SOL    HW231118   1.981   4.146   7.445
 9893SOL     OW31119   1.925   3.879   7.733
 9893SOL    HW131120   1.915   3.947   7.667
 9893SOL    HW231121   2.013   3.844   7.719
 9894SOL     OW31122   3.012   5.080   7.594
 9894SOL    HW131123   3.011   4.996   7.549
 9894SOL    HW231124   3.055   5.063   7.677
 9895SOL     OW31125   2.481   4.553   8.890
 9895SOL    HW131126   2.539   4.628   8.875
 9895SOL    HW231127   2.539   4.478   8.893
 9896SOL     OW31128   3.348   5.534   8.460
 9896SOL    HW131129   3.380   5.568   8.377
 9896SOL    HW231130   3.407   5.462   8.481
 9897SOL     OW31131   2.560   4.294   9.161
 9897SOL    HW131132   2.606   4.363   9.207
 9897SOL    HW231133   2.598   4.213   9.195
 9898SOL     OW31134   2.232   5.470   9.024
 9898SOL    HW131135   2.146   5.510   9.008
 9898SOL    HW231136   2.212   5.382   9.054
 9899SOL     OW31137   2.420   4.465   8.130
 9899SOL    HW131138   2.477   4.540   8.113
 9899SOL    HW231139   2.369   4.456   8.050
 9900SOL     OW31140   2.665   5.122   7.483
 9900SOL    HW131141   2.714   5.110   7.565
 9900SOL    HW231142   2.725   5.170   7.426
 9901SOL     OW31143   2.535   5.502   8.395
 9901SOL    HW131144   2.526   5.589   8.358
 9901SOL    HW231145   2.627   5.479   8.382
 9902SOL     OW31146   2.711   4.691   8.302
 9902SOL    HW131147   2.766   4.619   8.332
 9902SOL    HW231148   2.687   4.737   8.383
 9903SOL     OW31149   2.950   4.734   7.521
 9903SOL    HW131150   2.909   4.773   7.444
 9903SOL    HW231151   3.029   4.692   7.486
 9904SOL     OW31152   3.695   5.283   8.285
 9904SOL    HW131153   3.619   5.272   8.228
 9904SOL    HW231154   3.713   5.195   8.319
 9905SOL     OW31155   2.081   5.011   9.292
 9905SOL    HW131156   2.039   4.935   9.253
 9905SOL    HW231157   2.066   5.001   9.387
 9906SOL     OW31158   1.964   4.941   8.114
 9906SOL    HW131159   2.001   4.897   8.190
 9906SOL    HW231160   2.021   4.915   8.041
 9907SOL     OW31161   2.535   5.143   9.064
 9907SOL    HW131162   2.470   5.095   9.116
 9907SOL    HW231163   2.556   5.220   9.117
 9908SOL     OW31164   2.261   4.162   7.962
 9908SOL    HW131165   2.312   4.104   7.905
 9908SOL    HW231166   2.242   4.110   8.039
 9909SOL     OW31167   3.513   5.236   8.554
 9909SOL    HW131168   3.467   5.206   8.475
 9909SOL    HW231169   3.491   5.171   8.620
 9910SOL     OW31170   2.201   4.281   8.741
 9910SOL    HW131171   2.262   4.231   8.795
 9910SOL    HW231172   2.224   4.256   8.651
 9911SOL     OW31173   2.684   5.314   8.127
 9911SOL    HW131174   2.675   5.357   8.042
 9911SOL    HW231175   2.616   5.247   8.127
 9912SOL     OW31176   2.869   3.729   8.590
 9912SOL    HW131177   2.821   3.680   8.524
 9912SOL    HW231178   2.958   3.694   8.587
 9913SOL     OW31179   2.643   5.050   7.794
 9913SOL    HW131180   2.619   4.958   7.792
 9913SOL    HW231181   2.734   5.051   7.823
 9914SOL     OW31182   2.480   5.295   8.729
 9914SOL    HW131183   2.480   5.383   8.767
 9914SOL    HW231184   2.570   5.280   8.701
 9915SOL     OW31185   3.228   3.718   7.551
 9915SOL    HW131186   3.277   3.800   7.562
 9915SOL    HW231187   3.203   3.693   7.640
 9916SOL     OW31188   1.901   4.789   7.757
 9916SOL    HW131189   1.994   4.783   7.736
 9916SOL    HW231190   1.874   4.699   7.775
 9917SOL     OW31191   2.750   5.388   7.804
 9917SOL    HW131192   2.681   5.374   7.738
 9917SOL    HW231193   2.724   5.468   7.849
 9918SOL     OW31194   2.080   4.363   9.441
 9918SOL    HW131195   1.990   4.340   9.467
 9918SOL    HW231196   2.085   4.339   9.348
 9919SOL     OW31197   2.079   4.018  10.308
 9919SOL    HW131198   2.112   3.976  10.388
 9919SOL    HW231199   1.992   3.979  10.296
 9920SOL     OW31200   1.863   4.108   9.951
 9920SOL    HW131201   1.779   4.127   9.992
 9920SOL    HW231202   1.846   4.034   9.892
 9921SOL     OW31203   2.430   5.029  10.507
 9921SOL    HW131204   2.351   5.035  10.452
 9921SOL    HW231205   2.451   5.120  10.529
 9922SOL     OW31206   3.444   5.254  10.016
 9922SOL    HW131207   3.397   5.219  10.092
 9922SOL    HW231208   3.379   5.254   9.946
 9923SOL     OW31209   3.004   4.430  10.012
 9923SOL    HW131210   3.052   4.511   9.991
 9923SOL    HW231211   2.956   4.451  10.092
 9924SOL     OW31212   3.603   4.312   9.590
 9924SOL    HW131213   3.588   4.331   9.498
 9924SOL    HW231214   3.637   4.223   9.592
 9925SOL     OW31215   2.600   4.859  10.369
 9925SOL    HW131216   2.538   4.902  10.428
 9925SOL    HW231217   2.638   4.930  10.318
 9926SOL     OW31218   2.744   4.481  11.132
 9926SOL    HW131219   2.750   4.557  11.190
 9926SOL    HW231220   2.762   4.516  11.045
 9927SOL     OW31221   2.543   4.719   9.952
 9927SOL    HW131222   2.612   4.710  10.018
 9927SOL    HW231223   2.478   4.777   9.993
 9928SOL     OW31224   2.576   4.878  11.141
 9928SOL    HW131225   2.629   4.953  11.168
 9928SOL    HW231226   2.503   4.917  11.092
 9929SOL     OW31227   2.191   5.139  10.374
 9929SOL    HW131228   2.119   5.101  10.325
 9929SOL    HW231229   2.240   5.190  10.308
 9930SOL     OW31230   3.320   5.221  10.682
 9930SOL    HW131231   3.375   5.300  10.684
 9930SOL    HW231232   3.250   5.239  10.744
 9931SOL     OW31233   2.308   4.120  10.809
 9931SOL    HW131234   2.386   4.065  10.803
 9931SOL    HW231235   2.235   4.058  10.810
 9932SOL     OW31236   3.459   4.199  10.042
 9932SOL    HW131237   3.369   4.185  10.013
 9932SOL    HW231238   3.495   4.263   9.980
 9933SOL     OW31239   2.080   5.445   9.774
 9933SOL    HW131240   2.109   5.516   9.832
 9933SOL    HW231241   2.154   5.431   9.715
 9934SOL     OW31242   3.003   5.066  11.008
 9934SOL    HW131243   3.050   5.048  11.090
 9934SOL    HW231244   2.955   4.985  10.990
 9935SOL     OW31245   2.096   5.171   9.836
 9935SOL    HW131246   2.078   5.264   9.841
 9935SOL    HW231247   2.044   5.133   9.907
 9936SOL     OW31248   2.120   4.811  10.195
 9936SOL    HW131249   2.137   4.721  10.222
 9936SOL    HW231250   2.068   4.848  10.266
 9937SOL     OW31251   2.446   5.529  10.727
 9937SOL    HW131252   2.371   5.508  10.782
 9937SOL    HW231253   2.477   5.614  10.760
 9938SOL     OW31254   2.426   4.718   9.453
 9938SOL    HW131255   2.482   4.750   9.383
 9938SOL    HW231256   2.470   4.743   9.534
 9939SOL     OW31257   3.453   3.849  10.775
 9939SOL    HW131258   3.491   3.913  10.715
 9939SOL    HW231259   3.431   3.899  10.853
 9940SOL     OW31260   1.970   4.383   9.871
 9940SOL    HW131261   1.955   4.290   9.891
 9940SOL    HW231262   1.970   4.426   9.957
 9941SOL     OW31263   3.702   5.478   9.636
 9941SOL    HW131264   3.777   5.455   9.691
 9941SOL    HW231265   3.722   5.566   9.604
 9942SOL     OW31266   1.904   5.318   9.431
 9942SOL    HW131267   1.895   5.223   9.442
 9942SOL    HW231268   1.879   5.353   9.516
 9943SOL     OW31269   3.590   4.658   9.950
 9943SOL    HW131270   3.630   4.591   9.895
 9943SOL    HW231271   3.540   4.713   9.889
 9944SOL     OW31272   3.507   4.825   9.745
 9944SOL    HW131273   3.584   4.823   9.688
 9944SOL    HW231274   3.523   4.900   9.803
 9945SOL     OW31275   1.987   4.467  10.895
 9945SOL    HW131276   2.077   4.499  10.889
 9945SOL    HW231277   1.932   4.543  10.878
 9946SOL     OW31278   2.469   5.119  10.047
 9946SOL    HW131279   2.430   5.032  10.050
 9946SOL    HW231280   2.460   5.146   9.955
 9947SOL     OW31281   3.139   4.954  10.736
 9947SOL    HW131282   3.161   4.888  10.671
 9947SOL    HW231283   3.208   4.948  10.802
 9948SOL     OW31284   2.686   3.751   9.868
 9948SOL    HW131285   2.727   3.823   9.819
 9948SOL    HW231286   2.593   3.755   9.843
 9949SOL     OW31287   2.042   4.684  10.594
 9949SOL    HW131288   2.130   4.647  10.585
 9949SOL    HW231289   1.992   4.642  10.523
 9950SOL     OW31290   3.332   4.700   9.503
 9950SOL    HW131291   3.339   4.624   9.446
 9950SOL    HW231292   3.418   4.708   9.544
 9951SOL     OW31293   3.034   5.535  10.939
 9951SOL    HW131294   3.042   5.599  10.868
 9951SOL    HW231295   3.055   5.451  10.899
 9952SOL     OW31296   2.204   3.966  11.162
 9952SOL    HW131297   2.247   4.052  11.159
 9952SOL    HW231298   2.111   3.986  11.171
 9953SOL     OW31299   3.318   5.152  10.239
 9953SOL    HW131300   3.258   5.160  10.313
 9953SOL    HW231301   3.314   5.060  10.215
 9954SOL     OW31302   3.502   5.502   9.881
 9954SOL    HW131303   3.493   5.465   9.793
 9954SOL    HW231304   3.493   5.427   9.939
 9955SOL     OW31305   2.457   4.434   9.571
 9955SOL    HW131306   2.475   4.514   9.523
 9955SOL    HW231307   2.397   4.461   9.641
 9956SOL     OW31308   3.128   4.089  10.244
 9956SOL    HW131309   3.041   4.049  10.252
 9956SOL    HW231310   3.184   4.036  10.301
 9957SOL     OW31311   3.436   5.404   9.622
 9957SOL    HW131312   3.530   5.417   9.610
 9957SOL    HW231313   3.403   5.387   9.534
 9958SOL     OW31314   2.636   4.339  10.762
 9958SOL    HW131315   2.612   4.305  10.848
 9958SOL    HW231316   2.613   4.269  10.702
 9959SOL     OW31317   3.249   4.203  10.986
 9959SOL    HW131318   3.259   4.246  11.070
 9959SOL    HW231319   3.305   4.125  10.991
 9960SOL     OW31320   2.813   4.601  10.896
 9960SOL    HW131321   2.864   4.532  10.854
 9960SOL    HW231322   2.762   4.640  10.825
 9961SOL     OW31323   2.855   4.134  10.535
 9961SOL    HW131324   2.761   4.141  10.554
 9961SOL    HW231325   2.859   4.094  10.448
 9962SOL     OW31326   2.893   4.460   9.753
 9962SOL    HW131327   2.920   4.435   9.841
 9962SOL    HW231328   2.892   4.379   9.704
 9963SOL     OW31329   1.950   4.540  10.098
 9963SOL    HW131330   2.035   4.535  10.141
 9963SOL    HW231331   1.912   4.622  10.130
 9964SOL     OW31332   1.980   5.598  10.894
 9964SOL    HW131333   1.983   5.580  10.988
 9964SOL    HW231334   1.908   5.545  10.861
 9965SOL     OW31335   2.757   4.046   9.488
 9965SOL    HW131336   2.783   4.128   9.446
 9965SOL    HW231337   2.830   3.986   9.470
 9966SOL     OW31338   3.556   4.298  11.147
 9966SOL    HW131339   3.529   4.373  11.094
 9966SOL    HW231340   3.585   4.233  11.084
 9967SOL     OW31341   3.245   4.859   9.840
 9967SOL    HW131342   3.320   4.834   9.786
 9967SOL    HW231343   3.197   4.922   9.786
 9968SOL     OW31344   2.402   3.890  10.202
 9968SOL    HW131345   2.413   3.936  10.286
 9968SOL    HW231346   2.420   3.956  10.136
 9969SOL     OW31347   2.874   5.179   9.790
 9969SOL    HW131348   2.838   5.245   9.731
 9969SOL    HW231349   2.835   5.200   9.875
 9970SOL     OW31350   2.216   5.541  10.191
 9970SOL    HW131351   2.263   5.457  10.193
 9970SOL    HW231352   2.285   5.607  10.202
 9971SOL     OW31353   3.676   4.786  10.179
 9971SOL    HW131354   3.638   4.750  10.099
 9971SOL    HW231355   3.607   4.777  10.245
 9972SOL     OW31356   3.082   5.268  10.829
 9972SOL    HW131357   3.078   5.194  10.889
 9972SOL    HW231358   3.029   5.242  10.754
 9973SOL     OW31359   2.166   4.684   9.562
 9973SOL    HW131360   2.251   4.705   9.524
 9973SOL    HW231361   2.144   4.598   9.526
 9974SOL     OW31362   3.336   4.507  10.066
 9974SOL    HW131363   3.333   4.417  10.097
 9974SOL    HW231364   3.406   4.506   9.999
 9975SOL     OW31365   2.326   5.005  11.059
 9975SOL    HW131366   2.303   5.009  10.967
 9975SOL    HW231367   2.243   4.994  11.105
 9976SOL     OW31368   2.987   5.502   9.541
 9976SOL    HW131369   2.913   5.458   9.584
 9976SOL    HW231370   3.013   5.442   9.471
 9977SOL     OW31371   2.068   3.983  10.808
 9977SOL    HW131372   1.989   4.037  10.806
 9977SOL    HW231373   2.038   3.899  10.842
 9978SOL     OW31374   3.484   5.120   9.408
 9978SOL    HW131375   3.495   5.152   9.319
 9978SOL    HW231376   3.411   5.058   9.403
 9979SOL     OW31377   2.320   5.464   9.627
 9979SOL    HW131378   2.376   5.510   9.690
 9979SOL    HW231379   2.382   5.422   9.567
 9980SOL     OW31380   2.124   5.511  10.530
 9980SOL    HW131381   2.173   5.439  10.569
 9980SOL    HW231382   2.123   5.492  10.436
 9981SOL     OW31383   2.810   5.421  10.202
 9981SOL    HW131384   2.898   5.382  10.204
 9981SOL    HW231385   2.765   5.373  10.132
 9982SOL     OW31386   2.253   4.424   9.782
 9982SOL    HW131387   2.272   4.331   9.791
 9982SOL    HW231388   2.158   4.430   9.791
 9983SOL     OW31389   3.380   3.957  11.031
 9983SOL    HW131390   3.386   3.973  11.125
 9983SOL    HW231391   3.322   3.881  11.023
 9984SOL     OW31392   2.481   3.818   9.445
 9984SOL    HW131393   2.574   3.796   9.446
 9984SOL    HW231394   2.452   3.795   9.357
 9985SOL     OW31395   2.628   4.004  11.071
 9985SOL    HW131396   2.710   3.955  11.065
 9985SOL    HW231397   2.581   3.962  11.143
 9986SOL     OW31398   2.732   5.245  10.510
 9986SOL    HW131399   2.722   5.211  10.421
 9986SOL    HW231400   2.809   5.200  10.545
 9987SOL     OW31401   3.194   4.317  10.740
 9987SOL    HW131402   3.230   4.287  10.823
 9987SOL    HW231403   3.239   4.401  10.724
 9988SOL     OW31404   2.675   5.108  10.259
 9988SOL    HW131405   2.763   5.099  10.221
 9988SOL    HW231406   2.617   5.118  10.184
 9989SOL     OW31407   2.775   4.231  10.208
 9989SOL    HW131408   2.758   4.225  10.114
 9989SOL    HW231409   2.815   4.146  10.229
 9990SOL     OW31410   2.415   3.788   9.808
 9990SOL    HW131411   2.332   3.787   9.855
 9990SOL    HW231412   2.411   3.865   9.752
 9991SOL     OW31413   3.260   4.937   9.360
 9991SOL    HW131414   3.335   4.887   9.327
 9991SOL    HW231415   3.216   4.876   9.419
 9992SOL     OW31416   2.158   3.765   9.496
 9992SOL    HW131417   2.211   3.826   9.445
 9992SOL    HW231418   2.222   3.707   9.537
 9993SOL     OW31419   2.794   3.978   9.766
 9993SOL    HW131420   2.772   4.007   9.677
 9993SOL    HW231421   2.887   3.999   9.775
 9994SOL     OW31422   2.937   4.400  10.763
 9994SOL    HW131423   2.883   4.323  10.751
 9994SOL    HW231424   3.027   4.369  10.752
 9995SOL     OW31425   3.065   5.317  10.116
 9995SOL    HW131426   3.087   5.374  10.042
 9995SOL    HW231427   3.149   5.292  10.153
 9996SOL     OW31428   2.330   4.883  10.034
 9996SOL    HW131429   2.263   4.857  10.097
 9996SOL    HW231430   2.289   4.869   9.948
 9997SOL     OW31431   3.121   5.521   9.925
 9997SOL    HW131432   3.172   5.575   9.866
 9997SOL    HW231433   3.051   5.577   9.956
 9998SOL     OW31434   2.836   4.276   9.375
 9998SOL    HW131435   2.844   4.352   9.317
 9998SOL    HW231436   2.906   4.287   9.439
 9999SOL     OW31437   1.957   4.269  10.708
 9999SOL    HW131438   2.048   4.272  10.677
 9999SOL    HW231439   1.951   4.340  10.772
10000SOL     OW31440   2.421   3.955  10.477
10000SOL    HW131441   2.464   3.873  10.500
10000SOL    HW231442   2.330   3.943  10.505
10001SOL     OW31443   2.718   4.183   9.945
10001SOL    HW131444   2.689   4.237   9.872
10001SOL    HW231445   2.748   4.102   9.905
10002SOL     OW31446   2.840   3.805  10.087
10002SOL    HW131447   2.795   3.798  10.003
10002SOL    HW231448   2.847   3.714  10.118
10003SOL     OW31449   3.316   4.889  10.154
10003SOL    HW131450   3.247   4.830  10.124
10003SOL    HW231451   3.373   4.901  10.079
10004SOL     OW31452   3.294   4.331  10.327
10004SOL    HW131453   3.271   4.247  10.289
10004SOL    HW231454   3.375   4.315  10.375
10005SOL     OW31455   3.715   4.543   9.714
10005SOL    HW131456   3.774   4.482   9.758
10005SOL    HW231457   3.675   4.492   9.644
10006SOL     OW31458   2.353   5.157   9.472
10006SOL    HW131459   2.275   5.114   9.507
10006SOL    HW231460   2.384   5.099   9.403
10007SOL     OW31461   3.534   4.992   9.972
10007SOL    HW131462   3.630   4.986   9.967
10007SOL    HW231463   3.516   5.086   9.967
10008SOL     OW31464   2.377   3.990   9.629
10008SOL    HW131465   2.422   3.935   9.566
10008SOL    HW231466   2.356   4.070   9.581
10009SOL     OW31467   3.610   4.967  10.881
10009SOL    HW131468   3.696   4.931  10.858
10009SOL    HW231469   3.627   5.058  10.904
10010SOL     OW31470   2.917   5.103  10.669
10010SOL    HW131471   2.840   5.057  10.700
10010SOL    HW231472   2.990   5.045  10.689
10011SOL     OW31473   3.474   5.357  10.977
10011SOL    HW131474   3.460   5.389  10.888
10011SOL    HW231475   3.554   5.304  10.971
10012SOL     OW31476   3.005   4.958  10.413
10012SOL    HW131477   2.918   4.952  10.453
10012SOL    HW231478   2.988   4.982  10.322
10013SOL     OW31479   3.481   4.808  10.379
10013SOL    HW131480   3.463   4.872  10.448
10013SOL    HW231481   3.411   4.822  10.314
10014SOL     OW31482   2.776   3.811  10.697
10014SOL    HW131483   2.797   3.789  10.606
10014SOL    HW231484   2.857   3.850  10.731
10015SOL     OW31485   2.846   4.835  11.033
10015SOL    HW131486   2.753   4.851  11.049
10015SOL    HW231487   2.848   4.758  10.976
10016SOL     OW31488   2.563   4.785   9.682
10016SOL    HW131489   2.556   4.759   9.774
10016SOL    HW231490   2.642   4.740   9.651
10017SOL     OW31491   2.280   4.553  10.573
10017SOL    HW131492   2.352   4.560  10.635
10017SOL    HW231493   2.253   4.461  10.577
10018SOL     OW31494   3.119   4.086  10.606
10018SOL    HW131495   3.157   4.168  10.637
10018SOL    HW231496   3.033   4.110  10.572
10019SOL     OW31497   1.943   5.295  10.668
10019SOL    HW131498   1.915   5.363  10.607
10019SOL    HW231499   2.038   5.291  10.658
10020SOL     OW31500   2.183   4.846   9.800
10020SOL    HW131501   2.199   4.913   9.734
10020SOL    HW231502   2.187   4.764   9.752
10021SOL     OW31503   2.403   4.264  10.178
10021SOL    HW131504   2.407   4.324  10.104
10021SOL    HW231505   2.491   4.266  10.216
10022SOL     OW31506   3.114   5.071   9.716
10022SOL    HW131507   3.172   5.142   9.743
10022SOL    HW231508   3.027   5.099   9.744
10023SOL     OW31509   3.157   5.188  10.457
10023SOL    HW131510   3.211   5.182  10.536
10023SOL    HW231511   3.103   5.109  10.459
10024SOL     OW31512   3.448   4.393   9.811
10024SOL    HW131513   3.366   4.420   9.770
10024SOL    HW231514   3.509   4.380   9.738
10025SOL     OW31515   2.211   5.253  10.616
10025SOL    HW131516   2.200   5.208  10.532
10025SOL    HW231517   2.305   5.267  10.624
10026SOL     OW31518   2.279   4.469  10.916
10026SOL    HW131519   2.343   4.514  10.860
10026SOL    HW231520   2.312   4.380  10.925
10027SOL     OW31521   3.479   4.514  11.001
10027SOL    HW131522   3.392   4.553  10.988
10027SOL    HW231523   3.531   4.548  10.928
10028SOL     OW31524   2.859   3.860  11.073
10028SOL    HW131525   2.916   3.933  11.049
10028SOL    HW231526   2.905   3.782  11.040
10029SOL     OW31527   2.355   3.755  11.072
10029SOL    HW131528   2.310   3.704  11.005
10029SOL    HW231529   2.299   3.831  11.087
10030SOL     OW31530   2.450   4.601  10.347
10030SOL    HW131531   2.494   4.686  10.349
10030SOL    HW231532   2.393   4.602  10.423
10031SOL     OW31533   3.201   4.584  10.339
10031SOL    HW131534   3.192   4.600  10.245
10031SOL    HW231535   3.234   4.494  10.345
10032SOL     OW31536   2.999   4.247   9.600
10032SOL    HW131537   3.030   4.176   9.656
10032SOL    HW231538   3.078   4.293   9.573
10033SOL     OW31539   2.160   3.914  10.554
10033SOL    HW131540   2.126   3.942  10.639
10033SOL    HW231541   2.143   3.820  10.551
10034SOL     OW31542   1.886   5.036  10.585
10034SOL    HW131543   1.930   4.978  10.648
10034SOL    HW231544   1.907   5.124  10.615
10035SOL     OW31545   2.598   4.359  10.378
10035SOL    HW131546   2.663   4.336  10.311
10035SOL    HW231547   2.560   4.442  10.346
10036SOL     OW31548   3.610   4.684  11.178
10036SOL    HW131549   3.570   4.620  11.119
10036SOL    HW231550   3.542   4.701  11.243
10037SOL     OW31551   2.168   3.777   9.938
10037SOL    HW131552   2.148   3.869   9.956
10037SOL    HW231553   2.182   3.738  10.024
10038SOL     OW31554   3.515   4.082   9.758
10038SOL    HW131555   3.450   4.031   9.710
10038SOL    HW231556   3.493   4.173   9.738
10039SOL     OW31557   2.868   4.487  10.256
10039SOL    HW131558   2.888   4.501  10.349
10039SOL    HW231559   2.854   4.392  10.249
10040SOL     OW31560   2.838   5.280  11.034
10040SOL    HW131561   2.820   5.328  10.953
10040SOL    HW231562   2.891   5.205  11.006
10041SOL     OW31563   3.711   5.227  10.915
10041SOL    HW131564   3.732   5.250  10.825
10041SOL    HW231565   3.793   5.236  10.963
10042SOL     OW31566   2.211   4.636  11.123
10042SOL    HW131567   2.294   4.658  11.166
10042SOL    HW231568   2.235   4.575  11.054
10043SOL     OW31569   2.928   5.069  10.170
10043SOL    HW131570   2.930   4.995  10.111
10043SOL    HW231571   2.980   5.136  10.127
10044SOL     OW31572   2.179   4.540  10.254
10044SOL    HW131573   2.272   4.553  10.238
10044SOL    HW231574   2.172   4.450  10.284
10045SOL     OW31575   2.183   4.263  10.327
10045SOL    HW131576   2.148   4.175  10.313
10045SOL    HW231577   2.262   4.267  10.273
10046SOL     OW31578   2.996   4.092  11.004
10046SOL    HW131579   2.950   4.150  11.064
10046SOL    HW231580   3.080   4.135  10.989
10047SOL     OW31581   3.016   3.913  10.792
10047SOL    HW131582   3.007   3.979  10.860
10047SOL    HW231583   3.061   3.958  10.720
10048SOL     OW31584   1.862   5.046   9.518
10048SOL    HW131585   1.774   5.063   9.484
10048SOL    HW231586   1.860   4.954   9.544
10049SOL     OW31587   1.950   5.505  10.253
10049SOL    HW131588   1.921   5.425  10.210
10049SOL    HW231589   2.040   5.518  10.222
10050SOL     OW31590   2.353   5.301  10.217
10050SOL    HW131591   2.425   5.358  10.242
10050SOL    HW231592   2.392   5.239  10.155
10051SOL     OW31593   2.822   4.525  10.540
10051SOL    HW131594   2.880   4.493  10.609
10051SOL    HW231595   2.753   4.460  10.534
10052SOL     OW31596   1.899   4.280  10.429
10052SOL    HW131597   1.973   4.272  10.369
10052SOL    HW231598   1.938   4.274  10.516
10053SOL     OW31599   2.066   4.247  11.043
10053SOL    HW131600   2.121   4.204  10.977
10053SOL    HW231601   2.028   4.322  10.997
10054SOL     OW31602   3.243   4.657  10.966
10054SOL    HW131603   3.267   4.750  10.958
10054SOL    HW231604   3.239   4.626  10.875
10055SOL     OW31605   2.654   4.267   9.686
10055SOL    HW131606   2.690   4.214   9.615
10055SOL    HW231607   2.597   4.331   9.642
10056SOL     OW31608   3.510   4.323  10.507
10056SOL    HW131609   3.499   4.252  10.570
10056SOL    HW231610   3.595   4.308  10.468
10057SOL     OW31611   2.093   5.269  11.035
10057SOL    HW131612   2.075   5.322  11.112
10057SOL    HW231613   2.104   5.180  11.069
10058SOL     OW31614   2.575   4.166  10.564
10058SOL    HW131615   2.521   4.094  10.530
10058SOL    HW231616   2.573   4.232  10.495
10059SOL     OW31617   2.753   5.409  10.801
10059SOL    HW131618   2.755   5.356  10.721
10059SOL    HW231619   2.759   5.499  10.770
10060SOL     OW31620   2.310   4.214   9.488
10060SOL    HW131621   2.379   4.278   9.507
10060SOL    HW231622   2.230   4.266   9.482
10061SOL     OW31623   1.995   4.870  10.784
10061SOL    HW131624   2.004   4.826  10.869
10061SOL    HW231625   2.013   4.801  10.720
10062SOL     OW31626   3.166   4.766  10.532
10062SOL    HW131627   3.184   4.699  10.466
10062SOL    HW231628   3.114   4.832  10.486
10063SOL     OW31629   3.162   4.488   9.657
10063SOL    HW131630   3.070   4.502   9.678
10063SOL    HW231631   3.167   4.500   9.563
10064SOL     OW31632   3.658   5.454  10.486
10064SOL    HW131633   3.713   5.479  10.412
10064SOL    HW231634   3.613   5.375  10.457
10065SOL     OW31635   3.106   5.463  10.433
10065SOL    HW131636   3.186   5.488  10.387
10065SOL    HW231637   3.113   5.368  10.442
10066SOL     OW31638   1.929   5.012  10.309
10066SOL    HW131639   1.908   5.011  10.402
10066SOL    HW231640   1.880   4.938  10.273
10067SOL     OW31641   2.552   5.399  11.052
10067SOL    HW131642   2.493   5.472  11.033
10067SOL    HW231643   2.624   5.409  10.989
10068SOL     OW31644   3.639   3.823   9.844
10068SOL    HW131645   3.585   3.883   9.792
10068SOL    HW231646   3.585   3.744   9.852
10069SOL     OW31647   3.263   5.293   9.810
10069SOL    HW131648   3.316   5.320   9.735
10069SOL    HW231649   3.204   5.367   9.826
10070SOL     OW31650   1.992   5.532  11.154
10070SOL    HW131651   1.950   5.457  11.196
10070SOL    HW231652   2.045   5.572  11.224
10071SOL     OW31653   3.142   4.678  10.008
10071SOL    HW131654   3.213   4.616  10.021
10071SOL    HW231655   3.172   4.734   9.936
10072SOL     OW31656   2.664   5.003  10.726
10072SOL    HW131657   2.633   5.044  10.807
10072SOL    HW231658   2.594   5.019  10.662
10073SOL     OW31659   2.529   5.368   9.469
10073SOL    HW131660   2.555   5.377   9.377
10073SOL    HW231661   2.486   5.283   9.474
10074SOL     OW31662   3.478   5.450  10.710
10074SOL    HW131663   3.534   5.449  10.632
10074SOL    HW231664   3.461   5.543  10.727
10075SOL     OW31665   3.708   3.892  10.283
10075SOL    HW131666   3.730   3.804  10.252
10075SOL    HW231667   3.625   3.913  10.239
10076SOL     OW31668   2.118   4.028  10.028
10076SOL    HW131669   2.034   4.066  10.003
10076SOL    HW231670   2.119   4.031  10.124
10077SOL     OW31671   3.060   5.324   9.349
10077SOL    HW131672   3.041   5.236   9.383
10077SOL    HW231673   3.003   5.333   9.273
10078SOL     OW31674   2.683   4.728  10.692
10078SOL    HW131675   2.730   4.700  10.614
10078SOL    HW231676   2.687   4.823  10.690
10079SOL     OW31677   2.779   4.656   9.601
10079SOL    HW131678   2.839   4.662   9.527
10079SOL    HW231679   2.816   4.587   9.656
10080SOL     OW31680   3.329   5.416   9.353
10080SOL    HW131681   3.247   5.369   9.340
10080SOL    HW231682   3.380   5.398   9.274
10081SOL     OW31683   2.221   5.038  10.814
10081SOL    HW131684   2.223   5.105  10.746
10081SOL    HW231685   2.149   4.980  10.788
10082SOL     OW31686   3.456   5.001  10.577
10082SOL    HW131687   3.540   4.998  10.623
10082SOL    HW231688   3.405   5.067  10.625
10083SOL     OW31689   2.918   4.842  10.033
10083SOL    HW131690   2.846   4.783  10.056
10083SOL    HW231691   2.989   4.784  10.008
10084SOL     OW31692   2.875   3.972  10.296
10084SOL    HW131693   2.863   3.931  10.211
10084SOL    HW231694   2.877   3.899  10.358
10085SOL     OW31695   2.467   5.212   9.791
10085SOL    HW131696   2.530   5.158   9.742
10085SOL    HW231697   2.398   5.230   9.728
10086SOL     OW31698   3.602   4.105  10.700
10086SOL    HW131699   3.673   4.168  10.694
10086SOL    HW231700   3.626   4.036  10.638
10087SOL     OW31701   2.123   5.058   9.595
10087SOL    HW131702   2.030   5.059   9.572
10087SOL    HW231703   2.126   5.101   9.681
10088SOL     OW31704   1.983   4.774  11.049
10088SOL    HW131705   1.905   4.740  11.093
10088SOL    HW231706   2.055   4.719  11.081
10089SOL     OW31707   2.538   3.917  10.813
10089SOL    HW131708   2.618   3.896  10.766
10089SOL    HW231709   2.568   3.953  10.897
10090SOL     OW31710   1.939   4.064   9.341
10090SOL    HW131711   1.866   4.041   9.284
10090SOL    HW231712   1.983   4.136   9.296
10091SOL     OW31713   3.286   4.584  10.707
10091SOL    HW131714   3.232   4.640  10.651
10091SOL    HW231715   3.371   4.583  10.664
10092SOL     OW31716   1.925   3.877   9.596
10092SOL    HW131717   1.914   3.949   9.534
10092SOL    HW231718   2.012   3.843   9.578
10093SOL     OW31719   2.981   5.085   9.469
10093SOL    HW131720   2.971   5.000   9.426
10093SOL    HW231721   3.045   5.069   9.539
10094SOL     OW31722   2.481   4.559  10.753
10094SOL    HW131723   2.540   4.631  10.735
10094SOL    HW231724   2.536   4.481  10.755
10095SOL     OW31725   3.346   5.527  10.310
10095SOL    HW131726   3.373   5.582  10.236
10095SOL    HW231727   3.411   5.457  10.312
10096SOL     OW31728   2.571   4.277  11.020
10096SOL    HW131729   2.627   4.334  11.072
10096SOL    HW231730   2.597   4.188  11.046
10097SOL     OW31731   3.339   4.916  10.937
10097SOL    HW131732   3.334   4.934  11.031
10097SOL    HW231733   3.430   4.934  10.913
10098SOL     OW31734   2.227   5.469  10.884
10098SOL    HW131735   2.145   5.514  10.865
10098SOL    HW231736   2.201   5.384  10.918
10099SOL     OW31737   3.524   4.598  10.567
10099SOL    HW131738   3.521   4.510  10.529
10099SOL    HW231739   3.512   4.657  10.492
10100SOL     OW31740   3.056   4.049   9.793
10100SOL    HW131741   3.092   3.968   9.755
10100SOL    HW231742   3.127   4.085   9.845
10101SOL     OW31743   2.419   4.470   9.999
10101SOL    HW131744   2.477   4.543   9.976
10101SOL    HW231745   2.367   4.454   9.920
10102SOL     OW31746   3.614   4.088  10.977
10102SOL    HW131747   3.615   4.102  10.882
10102SOL    HW231748   3.537   4.034  10.993
10103SOL     OW31749   3.626   4.652  10.816
10103SOL    HW131750   3.606   4.745  10.826
10103SOL    HW231751   3.601   4.632  10.726
10104SOL     OW31752   2.674   5.118   9.346
10104SOL    HW131753   2.723   5.120   9.428
10104SOL    HW231754   2.726   5.172   9.286
10105SOL     OW31755   2.533   5.502  10.257
10105SOL    HW131756   2.519   5.591  10.224
10105SOL    HW231757   2.626   5.485  10.241
10106SOL     OW31758   2.719   4.696  10.163
10106SOL    HW131759   2.771   4.620  10.189
10106SOL    HW231760   2.689   4.734  10.245
10107SOL     OW31761   2.940   4.657   9.383
10107SOL    HW131762   2.954   4.709   9.304
10107SOL    HW231763   3.008   4.589   9.380
10108SOL     OW31764   3.710   5.277  10.156
10108SOL    HW131765   3.634   5.265  10.099
10108SOL    HW231766   3.732   5.189  10.187
10109SOL     OW31767   2.068   5.014  11.154
10109SOL    HW131768   2.037   4.936  11.109
10109SOL    HW231769   2.006   5.026  11.226
10110SOL     OW31770   1.965   4.949   9.973
10110SOL    HW131771   1.997   4.904  10.051
10110SOL    HW231772   2.021   4.918   9.903
10111SOL     OW31773   2.549   5.130  10.945
10111SOL    HW131774   2.467   5.096  10.980
10111SOL    HW231775   2.554   5.220  10.976
10112SOL     OW31776   3.669   3.889  10.552
10112SOL    HW131777   3.667   3.793  10.555
10112SOL    HW231778   3.682   3.910  10.460
10113SOL     OW31779   2.276   4.161   9.832
10113SOL    HW131780   2.320   4.100   9.773
10113SOL    HW231781   2.238   4.105   9.900
10114SOL     OW31782   3.529   5.228  10.414
10114SOL    HW131783   3.467   5.204  10.345
10114SOL    HW231784   3.540   5.148  10.465
10115SOL     OW31785   2.204   4.288  10.604
10115SOL    HW131786   2.263   4.229  10.652
10115SOL    HW231787   2.218   4.264  10.512
10116SOL     OW31788   2.689   5.314   9.984
10116SOL    HW131789   2.682   5.372   9.908
10116SOL    HW231790   2.617   5.252   9.972
10117SOL     OW31791   3.282   3.951  10.418
10117SOL    HW131792   3.296   3.858  10.435
10117SOL    HW231793   3.237   3.984  10.496
10118SOL     OW31794   2.867   3.729  10.443
10118SOL    HW131795   2.825   3.672  10.378
10118SOL    HW231796   2.956   3.695  10.451
10119SOL     OW31797   2.641   5.053   9.662
10119SOL    HW131798   2.614   4.961   9.654
10119SOL    HW231799   2.734   5.049   9.682
10120SOL     OW31800   2.480   5.288  10.599
10120SOL    HW131801   2.481   5.374  10.642
10120SOL    HW231802   2.569   5.278  10.565
10121SOL     OW31803   3.185   4.207  10.005
10121SOL    HW131804   3.122   4.278   9.991
10121SOL    HW231805   3.156   4.165  10.085
10122SOL     OW31806   3.461   3.952  10.195
10122SOL    HW131807   3.393   3.968  10.260
10122SOL    HW231808   3.456   4.027  10.136
10123SOL     OW31809   1.902   4.786   9.622
10123SOL    HW131810   1.995   4.778   9.598
10123SOL    HW231811   1.875   4.697   9.641
10124SOL     OW31812   2.747   5.389   9.660
10124SOL    HW131813   2.678   5.373   9.596
10124SOL    HW231814   2.720   5.468   9.705
10125SOL     OW31815   2.084   4.354  11.304
10125SOL    HW131816   1.993   4.342  11.331
10125SOL    HW231817   2.084   4.332  11.211
10126SOL     OW31818   2.082   4.013  12.163
10126SOL    HW131819   2.117   3.973  12.243
10126SOL    HW231820   1.995   3.974  12.153
10127SOL     OW31821   1.858   4.112  11.811
10127SOL    HW131822   1.777   4.137  11.855
10127SOL    HW231823   1.835   4.036  11.758
10128SOL     OW31824   2.407   4.974  12.342
10128SOL    HW131825   2.334   5.024  12.306
10128SOL    HW231826   2.417   5.005  12.432
10129SOL     OW31827   3.446   5.243  11.882
10129SOL    HW131828   3.401   5.219  11.962
10129SOL    HW231829   3.376   5.246  11.816
10130SOL     OW31830   2.993   4.429  11.866
10130SOL    HW131831   3.042   4.510  11.852
10130SOL    HW231832   2.952   4.440  11.951
10131SOL     OW31833   3.621   4.323  11.406
10131SOL    HW131834   3.601   4.324  11.313
10131SOL    HW231835   3.594   4.236  11.436
10132SOL     OW31836   2.591   4.850  12.191
10132SOL    HW131837   2.525   4.884  12.251
10132SOL    HW231838   2.636   4.928  12.158
10133SOL     OW31839   2.509   4.804  11.903
10133SOL    HW131840   2.582   4.749  11.876
10133SOL    HW231841   2.527   4.825  11.995
10134SOL     OW31842   2.205   5.138  12.233
10134SOL    HW131843   2.127   5.104  12.189
10134SOL    HW231844   2.249   5.191  12.166
10135SOL     OW31845   3.467   4.161  11.918
10135SOL    HW131846   3.414   4.185  11.842
10135SOL    HW231847   3.466   4.239  11.973
10136SOL     OW31848   2.086   5.435  11.639
10136SOL    HW131849   2.108   5.511  11.693
10136SOL    HW231850   2.159   5.429  11.577
10137SOL     OW31851   2.097   5.167  11.717
10137SOL    HW131852   2.084   5.262  11.709
10137SOL    HW231853   2.035   5.141  11.785
10138SOL     OW31854   2.146   4.807  12.042
10138SOL    HW131855   2.138   4.734  12.104
10138SOL    HW231856   2.102   4.880  12.086
10139SOL     OW31857   2.433   4.709  11.309
10139SOL    HW131858   2.481   4.752  11.239
10139SOL    HW231859   2.474   4.741  11.389
10140SOL     OW31860   1.981   4.376  11.736
10140SOL    HW131861   1.946   4.289  11.756
10140SOL    HW231862   1.972   4.425  11.818
10141SOL     OW31863   3.704   5.475  11.500
10141SOL    HW131864   3.777   5.453  11.558
10141SOL    HW231865   3.719   5.566  11.476
10142SOL     OW31866   1.912   5.313  11.291
10142SOL    HW131867   1.893   5.221  11.309
10142SOL    HW231868   1.883   5.359  11.369
10143SOL     OW31869   3.554   4.642  11.822
10143SOL    HW131870   3.633   4.594  11.797
10143SOL    HW231871   3.532   4.692  11.744
10144SOL     OW31872   3.513   4.825  11.607
10144SOL    HW131873   3.599   4.823  11.564
10144SOL    HW231874   3.522   4.889  11.677
10145SOL     OW31875   2.043   4.472   0.221
10145SOL    HW131876   2.024   4.445   0.311
10145SOL    HW231877   1.963   4.517   0.192
10146SOL     OW31878   2.474   5.107  11.896
10146SOL    HW131879   2.483   5.014  11.879
10146SOL    HW231880   2.455   5.146  11.810
10147SOL     OW31881   2.687   3.734  11.694
10147SOL    HW131882   2.728   3.815  11.664
10147SOL    HW231883   2.593   3.752  11.692
10148SOL     OW31884   2.051   4.700  12.386
10148SOL    HW131885   2.133   4.654  12.403
10148SOL    HW231886   1.990   4.666  12.452
10149SOL     OW31887   3.392   4.728  11.375
10149SOL    HW131888   3.324   4.669  11.406
10149SOL    HW231889   3.437   4.758  11.454
10150SOL     OW31890   3.326   5.142  12.110
10150SOL    HW131891   3.262   5.155  12.180
10150SOL    HW231892   3.315   5.051  12.083
10151SOL     OW31893   3.507   5.495  11.745
10151SOL    HW131894   3.492   5.457  11.659
10151SOL    HW231895   3.501   5.422  11.806
10152SOL     OW31896   2.457   4.445  11.449
10152SOL    HW131897   2.457   4.522  11.391
10152SOL    HW231898   2.380   4.459  11.505
10153SOL     OW31899   3.142   4.100  12.110
10153SOL    HW131900   3.055   4.060  12.115
10153SOL    HW231901   3.196   4.046  12.167
10154SOL     OW31902   3.438   5.398  11.486
10154SOL    HW131903   3.531   5.418  11.477
10154SOL    HW231904   3.407   5.383  11.397
10155SOL     OW31905   2.844   4.082  12.384
10155SOL    HW131906   2.762   4.122  12.414
10155SOL    HW231907   2.826   4.056  12.294
10156SOL     OW31908   2.918   4.420  11.595
10156SOL    HW131909   2.938   4.413  11.689
10156SOL    HW231910   2.835   4.373  11.585
10157SOL     OW31911   1.962   4.551  11.949
10157SOL    HW131912   2.039   4.541  12.005
10157SOL    HW231913   1.909   4.618  11.993
10158SOL     OW31914   2.762   4.080  11.374
10158SOL    HW131915   2.806   4.143  11.316
10158SOL    HW231916   2.757   4.000  11.323
10159SOL     OW31917   3.243   4.864  11.704
10159SOL    HW131918   3.324   4.850  11.654
10159SOL    HW231919   3.193   4.927  11.652
10160SOL     OW31920   2.412   3.901  12.065
10160SOL    HW131921   2.417   3.959  12.142
10160SOL    HW231922   2.408   3.961  11.991
10161SOL     OW31923   2.863   5.173  11.639
10161SOL    HW131924   2.832   5.247  11.586
10161SOL    HW231925   2.839   5.196  11.729
10162SOL     OW31926   2.218   5.541  12.043
10162SOL    HW131927   2.264   5.457  12.049
10162SOL    HW231928   2.284   5.607  12.062
10163SOL     OW31929   3.664   4.778  12.051
10163SOL    HW131930   3.616   4.755  11.972
10163SOL    HW231931   3.598   4.782  12.120
10164SOL     OW31932   2.174   4.678  11.429
10164SOL    HW131933   2.251   4.703  11.379
10164SOL    HW231934   2.140   4.601  11.384
10165SOL     OW31935   3.338   4.487  11.894
10165SOL    HW131936   3.343   4.440  11.977
10165SOL    HW231937   3.421   4.535  11.889
10166SOL     OW31938   2.989   5.499  11.401
10166SOL    HW131939   2.911   5.460  11.440
10166SOL    HW231940   3.014   5.437  11.332
10167SOL     OW31941   3.496   5.114  11.279
10167SOL    HW131942   3.456   5.197  11.253
10167SOL    HW231943   3.433   5.048  11.251
10168SOL     OW31944   2.326   5.458  11.489
10168SOL    HW131945   2.374   5.514  11.549
10168SOL    HW231946   2.393   5.424  11.429
10169SOL     OW31947   3.260   3.828  11.619
10169SOL    HW131948   3.251   3.803  11.527
10169SOL    HW231949   3.354   3.831  11.634
10170SOL     OW31950   2.089   5.514  12.399
10170SOL    HW131951   2.114   5.437  12.449
10170SOL    HW231952   2.060   5.479  12.314
10171SOL     OW31953   2.811   5.417  12.065
10171SOL    HW131954   2.895   5.372  12.066
10171SOL    HW231955   2.761   5.372  11.997
10172SOL     OW31956   2.248   4.413  11.648
10172SOL    HW131957   2.272   4.320  11.656
10172SOL    HW231958   2.152   4.413  11.656
10173SOL     OW31959   2.516   3.835  11.276
10173SOL    HW131960   2.580   3.764  11.284
10173SOL    HW231961   2.457   3.805  11.206
10174SOL     OW31962   2.678   5.085  12.097
10174SOL    HW131963   2.769   5.093  12.068
10174SOL    HW231964   2.626   5.121  12.024
10175SOL     OW31965   2.787   4.228  12.064
10175SOL    HW131966   2.763   4.220  11.972
10175SOL    HW231967   2.822   4.141  12.086
10176SOL     OW31968   2.420   3.789  11.668
10176SOL    HW131969   2.337   3.786  11.715
10176SOL    HW231970   2.411   3.863  11.607
10177SOL     OW31971   3.300   4.933  11.212
10177SOL    HW131972   3.327   4.855  11.260
10177SOL    HW231973   3.212   4.952  11.244
10178SOL     OW31974   2.147   3.772  11.359
10178SOL    HW131975   2.195   3.834  11.304
10178SOL    HW231976   2.214   3.714  11.395
10179SOL     OW31977   2.808   3.975  11.627
10179SOL    HW131978   2.784   4.010  11.541
10179SOL    HW231979   2.903   3.987  11.633
10180SOL     OW31980   3.071   5.312  11.973
10180SOL    HW131981   3.087   5.371  11.900
10180SOL    HW231982   3.152   5.311  12.023
10181SOL     OW31983   3.119   5.516  11.786
10181SOL    HW131984   3.171   5.576  11.731
10181SOL    HW231985   3.052   5.572  11.824
10182SOL     OW31986   2.886   4.257  11.205
10182SOL    HW131987   2.845   4.339  11.178
10182SOL    HW231988   2.960   4.283  11.259
10183SOL     OW31989   2.429   3.937  12.355
10183SOL    HW131990   2.448   3.850  12.321
10183SOL    HW231991   2.335   3.936  12.372
10184SOL     OW31992   2.720   4.183  11.800
10184SOL    HW131993   2.692   4.233  11.723
10184SOL    HW231994   2.752   4.100  11.766
10185SOL     OW31995   2.871   3.777  11.915
10185SOL    HW131996   2.816   3.768  11.837
10185SOL    HW231997   2.854   3.697  11.965
10186SOL     OW31998   3.304   4.882  12.022
10186SOL    HW131999   3.239   4.814  12.006
10186SOL    HW232000   3.347   4.894  11.938
10187SOL     OW32001   3.324   4.337  12.131
10187SOL    HW132002   3.269   4.259  12.134
10187SOL    HW232003   3.386   4.326  12.203
10188SOL     OW32004   3.697   4.533  11.563
10188SOL    HW132005   3.759   4.483  11.616
10188SOL    HW232006   3.670   4.471  11.495
10189SOL     OW32007   2.351   5.145  11.320
10189SOL    HW132008   2.281   5.107  11.372
10189SOL    HW232009   2.352   5.095  11.239
10190SOL     OW32010   3.541   4.985  11.823
10190SOL    HW132011   3.636   4.980  11.833
10190SOL    HW232012   3.520   5.077  11.836
10191SOL     OW32013   3.258   4.302  11.241
10191SOL    HW132014   3.202   4.272  11.314
10191SOL    HW232015   3.345   4.269  11.263
10192SOL     OW32016   2.392   3.985  11.482
10192SOL    HW132017   2.440   3.939  11.413
10192SOL    HW232018   2.361   4.065  11.440
10193SOL     OW32019   2.962   4.963  12.288
10193SOL    HW132020   2.884   4.996  12.334
10193SOL    HW232021   2.952   4.994  12.199
10194SOL     OW32022   3.467   4.817  12.244
10194SOL    HW132023   3.433   4.852  12.326
10194SOL    HW232024   3.400   4.838  12.179
10195SOL     OW32025   2.570   4.788  11.533
10195SOL    HW132026   2.562   4.782  11.628
10195SOL    HW232027   2.648   4.737  11.512
10196SOL     OW32028   2.299   4.557  12.447
10196SOL    HW132029   2.342   4.600  12.521
10196SOL    HW232030   2.301   4.464  12.468
10197SOL     OW32031   3.108   4.082  12.436
10197SOL    HW132032   3.141   4.166  12.468
10197SOL    HW232033   3.016   4.098  12.417
10198SOL     OW32034   2.214   4.812  11.669
10198SOL    HW132035   2.214   4.900  11.631
10198SOL    HW232036   2.200   4.754  11.594
10199SOL     OW32037   2.395   4.247  12.039
10199SOL    HW132038   2.412   4.291  11.956
10199SOL    HW232039   2.463   4.279  12.098
10200SOL     OW32040   3.109   5.074  11.566
10200SOL    HW132041   3.167   5.144  11.596
10200SOL    HW232042   3.022   5.099  11.596
10201SOL     OW32043   3.152   5.170  12.318
10201SOL    HW132044   3.212   5.172  12.392
10201SOL    HW232045   3.098   5.092  12.332
10202SOL     OW32046   3.441   4.331  11.668
10202SOL    HW132047   3.386   4.393  11.716
10202SOL    HW232048   3.487   4.384  11.604
10203SOL     OW32049   2.229   5.277  12.464
10203SOL    HW132050   2.209   5.221  12.389
10203SOL    HW232051   2.311   5.321  12.439
10204SOL     OW32052   2.434   4.612  12.209
10204SOL    HW132053   2.485   4.693  12.215
10204SOL    HW232054   2.393   4.603  12.295
10205SOL     OW32055   3.192   4.581  12.177
10205SOL    HW132056   3.113   4.557  12.128
10205SOL    HW232057   3.247   4.503  12.171
10206SOL     OW32058   3.068   4.247  11.436
10206SOL    HW132059   3.074   4.168  11.489
10206SOL    HW232060   3.023   4.310  11.492
10207SOL     OW32061   2.163   3.909  12.406
10207SOL    HW132062   2.132   3.943  12.489
10207SOL    HW232063   2.139   3.816  12.408
10208SOL     OW32064   1.910   5.069  12.419
10208SOL    HW132065   1.944   4.995  12.469
10208SOL    HW232066   1.915   5.143  12.479
10209SOL     OW32067   2.577   4.352  12.209
10209SOL    HW132068   2.660   4.331  12.166
10209SOL    HW232069   2.568   4.446  12.200
10210SOL     OW32070   2.176   3.784  11.795
10210SOL    HW132071   2.148   3.874  11.814
10210SOL    HW232072   2.181   3.742  11.881
10211SOL     OW32073   3.483   4.097  11.530
10211SOL    HW132074   3.519   4.032  11.590
10211SOL    HW232075   3.460   4.171  11.586
10212SOL     OW32076   2.893   4.471  12.133
10212SOL    HW132077   2.887   4.483  12.228
10212SOL    HW232078   2.867   4.380  12.119
10213SOL     OW32079   3.374   3.998  11.297
10213SOL    HW132080   3.317   3.928  11.327
10213SOL    HW232081   3.414   4.032  11.377
10214SOL     OW32082   3.148   4.551  11.200
10214SOL    HW132083   3.190   4.465  11.203
10214SOL    HW232084   3.178   4.590  11.118
10215SOL     OW32085   2.939   5.069  12.031
10215SOL    HW132086   2.944   4.997  11.969
10215SOL    HW232087   2.994   5.137  11.994
10216SOL     OW32088   2.194   4.534  12.096
10216SOL    HW132089   2.281   4.553  12.132
10216SOL    HW232090   2.174   4.445  12.127
10217SOL     OW32091   2.162   4.268  12.165
10217SOL    HW132092   2.132   4.177  12.166
10217SOL    HW232093   2.247   4.264  12.122
10218SOL     OW32094   3.036   3.936   0.156
10218SOL    HW132095   3.022   4.002   0.225
10218SOL    HW232096   3.059   3.987   0.079
10219SOL     OW32097   1.880   5.037  11.361
10219SOL    HW132098   1.791   5.057  11.332
10219SOL    HW232099   1.874   4.950  11.401
10220SOL     OW32100   1.957   5.502  12.122
10220SOL    HW132101   1.932   5.421  12.079
10220SOL    HW232102   2.045   5.521  12.089
10221SOL     OW32103   2.358   5.298  12.068
10221SOL    HW132104   2.429   5.358  12.090
10221SOL    HW232105   2.399   5.233  12.010
10222SOL     OW32106   2.838   4.512  12.401
10222SOL    HW132107   2.881   4.581  12.451
10222SOL    HW232108   2.756   4.496  12.447
10223SOL     OW32109   1.924   4.298  12.297
10223SOL    HW132110   2.001   4.299  12.240
10223SOL    HW232111   1.923   4.210  12.335
10224SOL     OW32112   2.675   4.294  11.547
10224SOL    HW132113   2.690   4.222  11.486
10224SOL    HW232114   2.604   4.345  11.508
10225SOL     OW32115   3.514   4.325  12.327
10225SOL    HW132116   3.514   4.273  12.407
10225SOL    HW232117   3.605   4.324  12.297
10226SOL     OW32118   2.587   4.165  12.415
10226SOL    HW132119   2.521   4.098  12.398
10226SOL    HW232120   2.568   4.234  12.351
10227SOL     OW32121   2.749   5.377   0.038
10227SOL    HW132122   2.756   5.440  -0.034
10227SOL    HW232123   2.800   5.417   0.109
10228SOL     OW32124   2.315   4.217  11.365
10228SOL    HW132125   2.379   4.287  11.378
10228SOL    HW232126   2.233   4.262  11.349
10229SOL     OW32127   3.141   4.764  12.371
10229SOL    HW132128   3.167   4.705  12.299
10229SOL    HW232129   3.089   4.832  12.328
10230SOL     OW32130   3.177   4.579  11.473
10230SOL    HW132131   3.103   4.539  11.518
10230SOL    HW232132   3.159   4.567  11.380
10231SOL     OW32133   3.617   5.476  12.304
10231SOL    HW132134   3.688   5.491  12.241
10231SOL    HW232135   3.602   5.382  12.300
10232SOL     OW32136   3.110   5.442  12.283
10232SOL    HW132137   3.188   5.478  12.241
10232SOL    HW232138   3.126   5.347  12.284
10233SOL     OW32139   1.956   5.006  12.157
10233SOL    HW132140   1.941   5.024  12.250
10233SOL    HW232141   1.897   4.933  12.137
10234SOL     OW32142   3.598   3.889  11.676
10234SOL    HW132143   3.661   3.872  11.607
10234SOL    HW232144   3.577   3.802  11.712
10235SOL     OW32145   3.259   5.291  11.670
10235SOL    HW132146   3.315   5.322  11.600
10235SOL    HW232147   3.206   5.367  11.695
10236SOL     OW32148   3.138   4.663  11.850
10236SOL    HW132149   3.211   4.601  11.862
10236SOL    HW232150   3.172   4.728  11.789
10237SOL     OW32151   2.530   5.349  11.326
10237SOL    HW132152   2.545   5.366  11.233
10237SOL    HW232153   2.473   5.272  11.327
10238SOL     OW32154   3.483   5.513   0.039
10238SOL    HW132155   3.535   5.501  -0.041
10238SOL    HW232156   3.523   5.587   0.084
10239SOL     OW32157   3.705   3.893  12.144
10239SOL    HW132158   3.736   3.806  12.118
10239SOL    HW232159   3.619   3.901  12.102
10240SOL     OW32160   2.116   4.036  11.882
10240SOL    HW132161   2.030   4.069  11.858
10240SOL    HW232162   2.115   4.035  11.978
10241SOL     OW32163   3.069   5.321  11.207
10241SOL    HW132164   3.061   5.228  11.227
10241SOL    HW232165   3.008   5.336  11.135
10242SOL     OW32166   2.652   4.746  12.497
10242SOL    HW132167   2.688   4.776  12.413
10242SOL    HW232168   2.720   4.766  12.561
10243SOL     OW32169   2.790   4.645  11.486
10243SOL    HW132170   2.838   4.672  11.408
10243SOL    HW232171   2.839   4.570  11.520
10244SOL     OW32172   3.348   5.367  11.222
10244SOL    HW132173   3.256   5.348  11.203
10244SOL    HW232174   3.390   5.369  11.136
10245SOL     OW32175   2.922   4.839  11.887
10245SOL    HW132176   2.856   4.779  11.925
10245SOL    HW232177   2.993   4.781  11.859
10246SOL     OW32178   2.885   3.961  12.125
10246SOL    HW132179   2.883   3.913  12.043
10246SOL    HW232180   2.888   3.892  12.192
10247SOL     OW32181   2.464   5.227  11.654
10247SOL    HW132182   2.518   5.172  11.596
10247SOL    HW232183   2.395   5.261  11.598
10248SOL     OW32184   3.627   4.158   0.030
10248SOL    HW132185   3.713   4.156   0.074
10248SOL    HW232186   3.615   4.068  -0.001
10249SOL     OW32187   2.141   5.049  11.481
10249SOL    HW132188   2.055   5.052  11.439
10249SOL    HW232189   2.129   5.097  11.563
10250SOL     OW32190   1.940   4.056  11.198
10250SOL    HW132191   1.863   4.034  11.145
10250SOL    HW232192   1.978   4.133  11.155
10251SOL     OW32193   1.918   3.879  11.461
10251SOL    HW132194   1.903   3.951  11.399
10251SOL    HW232195   2.004   3.845  11.438
10252SOL     OW32196   3.046   5.050  11.291
10252SOL    HW132197   2.954   5.023  11.290
10252SOL    HW232198   3.069   5.052  11.384
10253SOL     OW32199   3.349   5.514  12.161
10253SOL    HW132200   3.373   5.583  12.099
10253SOL    HW232201   3.432   5.488  12.200
10254SOL     OW32202   3.531   4.595  12.409
10254SOL    HW132203   3.516   4.509  12.369
10254SOL    HW232204   3.513   4.657  12.339
10255SOL     OW32205   3.077   4.040  11.631
10255SOL    HW132206   3.140   3.968  11.624
10255SOL    HW232207   3.108   4.091  11.706
10256SOL     OW32208   2.410   4.519  11.832
10256SOL    HW132209   2.498   4.486  11.815
10256SOL    HW232210   2.354   4.474  11.768
10257SOL     OW32211   3.691   4.610   0.124
10257SOL    HW132212   3.670   4.692   0.169
10257SOL    HW232213   3.626   4.605   0.054
10258SOL     OW32214   2.727   5.098  11.221
10258SOL    HW132215   2.684   5.152  11.288
10258SOL    HW232216   2.755   5.161  11.154
10259SOL     OW32217   2.527   5.510  12.115
10259SOL    HW132218   2.509   5.600  12.088
10259SOL    HW232219   2.622   5.501  12.108
10260SOL     OW32220   2.744   4.677  12.022
10260SOL    HW132221   2.796   4.607  12.061
10260SOL    HW232222   2.707   4.723  12.098
10261SOL     OW32223   2.926   4.701  11.260
10261SOL    HW132224   2.908   4.757  11.184
10261SOL    HW232225   3.004   4.652  11.236
10262SOL     OW32226   3.714   5.276  12.013
10262SOL    HW132227   3.630   5.264  11.969
10262SOL    HW232228   3.724   5.198  12.066
10263SOL     OW32229   1.929   4.965  11.842
10263SOL    HW132230   1.926   4.904  11.916
10263SOL    HW232231   1.983   4.921  11.777
10264SOL     OW32232   3.664   3.902  12.416
10264SOL    HW132233   3.693   3.811  12.425
10264SOL    HW232234   3.672   3.920  12.323
10265SOL     OW32235   2.303   4.156  11.706
10265SOL    HW132236   2.329   4.092  11.639
10265SOL    HW232237   2.243   4.107  11.762
10266SOL     OW32238   3.562   5.215  12.282
10266SOL    HW132239   3.489   5.174  12.237
10266SOL    HW232240   3.594   5.149  12.343
10267SOL     OW32241   2.685   5.327  11.836
10267SOL    HW132242   2.688   5.407  11.783
10267SOL    HW232243   2.611   5.278  11.802
10268SOL     OW32244   3.302   3.963  12.290
10268SOL    HW132245   3.365   3.919  12.346
10268SOL    HW232246   3.237   3.999  12.350
10269SOL     OW32247   2.867   3.709  12.298
10269SOL    HW132248   2.832   3.656  12.226
10269SOL    HW232249   2.958   3.679  12.308
10270SOL     OW32250   2.626   5.063  11.516
10270SOL    HW132251   2.608   4.972  11.496
10270SOL    HW232252   2.719   5.065  11.540
10271SOL     OW32253   3.222   3.770  11.353
10271SOL    HW132254   3.259   3.705  11.294
10271SOL    HW232255   3.132   3.741  11.369
10272SOL     OW32256   3.150   4.189  11.847
10272SOL    HW132257   3.103   4.273  11.852
10272SOL    HW232258   3.153   4.158  11.938
10273SOL     OW32259   3.447   3.915  12.056
10273SOL    HW132260   3.390   3.941  12.128
10273SOL    HW232261   3.447   3.990  11.997
10274SOL     OW32262   1.907   4.789  11.494
10274SOL    HW132263   1.997   4.779  11.462
10274SOL    HW232264   1.878   4.699  11.512
10275SOL     OW32265   2.749   5.388  11.509
10275SOL    HW132266   2.675   5.373  11.450
10275SOL    HW232267   2.721   5.462  11.563
10276SOL     OW32268   2.104   6.153   0.035
10276SOL    HW132269   2.080   6.214   0.105
10276SOL    HW232270   2.092   6.203  -0.046
10277SOL     OW32271   2.085   5.871   0.993
10277SOL    HW132272   2.113   5.837   1.078
10277SOL    HW232273   1.997   5.836   0.982
10278SOL     OW32274   1.855   5.972   0.637
10278SOL    HW132275   1.780   6.002   0.688
10278SOL    HW232276   1.826   5.891   0.596
10279SOL     OW32277   2.434   6.888   1.192
10279SOL    HW132278   2.348   6.892   1.150
10279SOL    HW232279   2.450   6.978   1.222
10280SOL     OW32280   3.439   7.108   0.716
10280SOL    HW132281   3.395   7.079   0.796
10280SOL    HW232282   3.370   7.107   0.649
10281SOL     OW32283   2.994   6.288   0.692
10281SOL    HW132284   3.042   6.370   0.683
10281SOL    HW232285   2.947   6.296   0.775
10282SOL     OW32286   3.600   6.196   0.265
10282SOL    HW132287   3.587   6.197   0.170
10282SOL    HW232288   3.567   6.112   0.294
10283SOL     OW32289   2.598   6.719   1.049
10283SOL    HW132290   2.536   6.758   1.110
10283SOL    HW232291   2.641   6.794   1.008
10284SOL     OW32292   2.743   6.338   1.830
10284SOL    HW132293   2.733   6.405   1.898
10284SOL    HW232294   2.763   6.388   1.751
10285SOL     OW32295   2.547   6.579   0.644
10285SOL    HW132296   2.614   6.572   0.712
10285SOL    HW232297   2.480   6.635   0.682
10286SOL     OW32298   2.576   6.732   1.820
10286SOL    HW132299   2.622   6.809   1.854
10286SOL    HW232300   2.496   6.768   1.781
10287SOL     OW32301   2.195   6.997   1.067
10287SOL    HW132302   2.120   6.957   1.024
10287SOL    HW232303   2.237   7.049   0.998
10288SOL     OW32304   3.319   7.090   1.365
10288SOL    HW132305   3.373   7.168   1.377
10288SOL    HW232306   3.249   7.099   1.430
10289SOL     OW32307   2.316   5.969   1.464
10289SOL    HW132308   2.393   5.914   1.481
10289SOL    HW232309   2.242   5.917   1.496
10290SOL     OW32310   3.466   6.027   0.753
10290SOL    HW132311   3.414   6.055   0.677
10290SOL    HW232312   3.445   6.090   0.822
10291SOL     OW32313   2.076   7.311   0.475
10291SOL    HW132314   2.099   7.386   0.530
10291SOL    HW232315   2.154   7.297   0.420
10292SOL     OW32316   2.998   6.930   1.697
10292SOL    HW132317   3.040   6.922   1.783
10292SOL    HW232318   2.946   6.850   1.688
10293SOL     OW32319   2.085   7.039   0.543
10293SOL    HW132320   2.064   7.133   0.548
10293SOL    HW232321   2.032   6.999   0.612
10294SOL     OW32322   2.136   6.677   0.892
10294SOL    HW132323   2.133   6.588   0.926
10294SOL    HW232324   2.078   6.726   0.949
10295SOL     OW32325   2.451   7.381   1.419
10295SOL    HW132326   2.374   7.360   1.472
10295SOL    HW232327   2.480   7.467   1.451
10296SOL     OW32328   2.440   6.551   0.152
10296SOL    HW132329   2.508   6.567   0.088
10296SOL    HW232330   2.470   6.595   0.232
10297SOL     OW32331   3.455   5.719   1.459
10297SOL    HW132332   3.483   5.802   1.419
10297SOL    HW232333   3.431   5.744   1.549
10298SOL     OW32334   1.979   6.237   0.563
10298SOL    HW132335   1.950   6.148   0.587
10298SOL    HW232336   1.973   6.286   0.645
10299SOL     OW32337   3.717   7.325   0.312
10299SOL    HW132338   3.784   7.302   0.376
10299SOL    HW232339   3.731   7.418   0.295
10300SOL     OW32340   1.893   7.114   0.125
10300SOL    HW132341   1.805   7.077   0.117
10300SOL    HW232342   1.883   7.188   0.183
10301SOL     OW32343   3.547   6.522   0.654
10301SOL    HW132344   3.613   6.471   0.606
10301SOL    HW232345   3.513   6.583   0.589
10302SOL     OW32346   3.508   6.701   0.434
10302SOL    HW132347   3.594   6.697   0.393
10302SOL    HW232348   3.518   6.766   0.504
10303SOL     OW32349   1.993   6.332   1.581
10303SOL    HW132350   2.084   6.361   1.587
10303SOL    HW232351   1.942   6.413   1.589
10304SOL     OW32352   2.482   6.980   0.734
10304SOL    HW132353   2.439   6.896   0.744
10304SOL    HW232354   2.467   7.004   0.642
10305SOL     OW32355   3.144   6.821   1.416
10305SOL    HW132356   3.174   6.751   1.358
10305SOL    HW232357   3.201   6.815   1.493
10306SOL     OW32358   2.687   5.604   0.526
10306SOL    HW132359   2.724   5.689   0.500
10306SOL    HW232360   2.593   5.619   0.529
10307SOL     OW32361   2.050   6.546   1.280
10307SOL    HW132362   2.137   6.508   1.267
10307SOL    HW232363   1.991   6.490   1.231
10308SOL     OW32364   3.357   6.600   0.228
10308SOL    HW132365   3.292   6.542   0.268
10308SOL    HW232366   3.412   6.628   0.300
10309SOL     OW32367   3.050   7.401   1.632
10309SOL    HW132368   3.051   7.461   1.557
10309SOL    HW232369   3.065   7.315   1.593
10310SOL     OW32370   2.215   5.845   1.828
10310SOL    HW132371   2.254   5.920   1.872
10310SOL    HW232372   2.122   5.848   1.852
10311SOL     OW32373   3.330   7.004   0.943
10311SOL    HW132374   3.265   7.020   1.012
10311SOL    HW232375   3.315   6.913   0.918
10312SOL     OW32376   3.510   7.352   0.583
10312SOL    HW132377   3.490   7.313   0.498
10312SOL    HW232378   3.498   7.280   0.646
10313SOL     OW32379   2.438   6.293   0.273
10313SOL    HW132380   2.449   6.382   0.239
10313SOL    HW232381   2.376   6.303   0.345
10314SOL     OW32382   3.142   5.962   0.935
10314SOL    HW132383   3.053   5.927   0.943
10314SOL    HW232384   3.195   5.906   0.992
10315SOL     OW32385   3.452   7.260   0.329
10315SOL    HW132386   3.547   7.272   0.321
10315SOL    HW232387   3.420   7.257   0.239
10316SOL     OW32388   2.651   6.205   1.441
10316SOL    HW132389   2.629   6.177   1.530
10316SOL    HW232390   2.622   6.132   1.386
10317SOL     OW32391   3.257   6.058   1.680
10317SOL    HW132392   3.261   6.101   1.765
10317SOL    HW232393   3.308   5.978   1.692
10318SOL     OW32394   2.811   6.468   1.591
10318SOL    HW132395   2.866   6.402   1.551
10318SOL    HW232396   2.760   6.505   1.519
10319SOL     OW32397   2.862   5.995   1.223
10319SOL    HW132398   2.772   6.009   1.252
10319SOL    HW232399   2.854   5.944   1.142
10320SOL     OW32400   2.916   6.290   0.425
10320SOL    HW132401   2.933   6.284   0.519
10320SOL    HW232402   2.831   6.247   0.414
10321SOL     OW32403   1.955   6.406   0.776
10321SOL    HW132404   2.035   6.400   0.829
10321SOL    HW232405   1.908   6.481   0.812
10322SOL     OW32406   1.986   7.460   1.584
10322SOL    HW132407   1.992   7.440   1.678
10322SOL    HW232408   1.902   7.422   1.557
10323SOL     OW32409   2.750   5.947   0.221
10323SOL    HW132410   2.785   6.014   0.162
10323SOL    HW232411   2.746   5.868   0.167
10324SOL     OW32412   3.566   6.151   1.831
10324SOL    HW132413   3.533   6.226   1.781
10324SOL    HW232414   3.592   6.088   1.764
10325SOL     OW32415   3.246   6.729   0.540
10325SOL    HW132416   3.326   6.723   0.488
10325SOL    HW232417   3.190   6.789   0.490
10326SOL     OW32418   2.412   5.760   0.906
10326SOL    HW132419   2.416   5.785   0.999
10326SOL    HW232420   2.413   5.842   0.859
10327SOL     OW32421   2.855   7.024   0.473
10327SOL    HW132422   2.822   7.101   0.426
10327SOL    HW232423   2.832   7.039   0.564
10328SOL     OW32424   2.214   7.402   0.875
10328SOL    HW132425   2.258   7.317   0.879
10328SOL    HW232426   2.283   7.466   0.897
10329SOL     OW32427   3.669   6.639   0.876
10329SOL    HW132428   3.619   6.613   0.799
10329SOL    HW232429   3.605   6.645   0.947
10330SOL     OW32430   3.086   7.128   1.515
10330SOL    HW132431   3.075   7.058   1.579
10330SOL    HW232432   3.015   7.114   1.452
10331SOL     OW32433   2.173   6.570   0.262
10331SOL    HW132434   2.254   6.578   0.211
10331SOL    HW232435   2.139   6.484   0.240
10332SOL     OW32436   3.343   6.345   0.722
10332SOL    HW132437   3.342   6.300   0.807
10332SOL    HW232438   3.421   6.400   0.725
10333SOL     OW32439   2.338   6.857   1.736
10333SOL    HW132440   2.311   6.861   1.645
10333SOL    HW232441   2.256   6.852   1.786
10334SOL     OW32442   2.960   7.369   0.240
10334SOL    HW132443   2.902   7.325   0.302
10334SOL    HW232444   2.998   7.299   0.187
10335SOL     OW32445   2.062   5.849   1.505
10335SOL    HW132446   1.987   5.902   1.531
10335SOL    HW232447   2.044   5.762   1.540
10336SOL     OW32448   3.515   6.999   0.087
10336SOL    HW132449   3.449   7.060   0.055
10336SOL    HW232450   3.470   6.914   0.088
10337SOL     OW32451   2.313   7.318   0.327
10337SOL    HW132452   2.361   7.374   0.389
10337SOL    HW232453   2.381   7.276   0.275
10338SOL     OW32454   3.265   5.686   0.450
10338SOL    HW132455   3.262   5.655   0.359
10338SOL    HW232456   3.359   5.685   0.472
10339SOL     OW32457   2.118   7.374   1.225
10339SOL    HW132458   2.166   7.304   1.269
10339SOL    HW232459   2.115   7.348   1.133
10340SOL     OW32460   2.800   7.288   0.895
10340SOL    HW132461   2.878   7.239   0.922
10340SOL    HW232462   2.763   7.234   0.825
10341SOL     OW32463   2.251   6.279   0.478
10341SOL    HW132464   2.268   6.185   0.488
10341SOL    HW232465   2.161   6.290   0.509
10342SOL     OW32466   3.386   5.806   1.724
10342SOL    HW132467   3.397   5.831   1.816
10342SOL    HW232468   3.326   5.732   1.726
10343SOL     OW32469   2.493   5.710   0.116
10343SOL    HW132470   2.586   5.688   0.119
10343SOL    HW232471   2.482   5.760   0.036
10344SOL     OW32472   2.621   5.864   1.754
10344SOL    HW132473   2.704   5.816   1.750
10344SOL    HW232474   2.577   5.828   1.832
10345SOL     OW32475   2.739   7.114   1.195
10345SOL    HW132476   2.718   7.071   1.112
10345SOL    HW232477   2.804   7.057   1.236
10346SOL     OW32478   3.199   6.176   1.438
10346SOL    HW132479   3.231   6.143   1.522
10346SOL    HW232480   3.239   6.263   1.430
10347SOL     OW32481   2.682   6.972   0.953
10347SOL    HW132482   2.767   6.961   0.911
10347SOL    HW232483   2.620   6.980   0.880
10348SOL     OW32484   2.793   6.098   0.896
10348SOL    HW132485   2.767   6.087   0.805
10348SOL    HW232486   2.821   6.011   0.924
10349SOL     OW32487   2.415   5.641   0.503
10349SOL    HW132488   2.337   5.642   0.558
10349SOL    HW232489   2.407   5.719   0.448
10350SOL     OW32490   3.325   6.805   0.051
10350SOL    HW132491   3.338   6.725   0.103
10350SOL    HW232492   3.232   6.827   0.065
10351SOL     OW32493   2.174   5.669   0.205
10351SOL    HW132494   2.252   5.722   0.219
10351SOL    HW232495   2.201   5.580   0.228
10352SOL     OW32496   2.809   5.841   0.464
10352SOL    HW132497   2.783   5.878   0.380
10352SOL    HW232498   2.904   5.852   0.466
10353SOL     OW32499   2.943   6.274   1.452
10353SOL    HW132500   2.881   6.202   1.463
10353SOL    HW232501   3.029   6.231   1.451
10354SOL     OW32502   3.077   7.158   0.795
10354SOL    HW132503   3.092   7.224   0.728
10354SOL    HW232504   3.147   7.173   0.859
10355SOL     OW32505   2.340   6.744   0.726
10355SOL    HW132506   2.276   6.722   0.794
10355SOL    HW232507   2.293   6.735   0.644
10356SOL     OW32508   3.121   7.374   0.615
10356SOL    HW132509   3.172   7.440   0.568
10356SOL    HW232510   3.049   7.423   0.655
10357SOL     OW32511   2.876   6.151   0.090
10357SOL    HW132512   2.883   6.220   0.024
10357SOL    HW232513   2.957   6.160   0.141
10358SOL     OW32514   1.948   6.145   1.387
10358SOL    HW132515   2.040   6.140   1.364
10358SOL    HW232516   1.943   6.212   1.456
10359SOL     OW32517   2.418   5.811   1.179
10359SOL    HW132518   2.460   5.746   1.236
10359SOL    HW232519   2.326   5.809   1.206
10360SOL     OW32520   2.727   6.047   0.637
10360SOL    HW132521   2.687   6.102   0.570
10360SOL    HW232522   2.752   5.967   0.590
10361SOL     OW32523   2.884   5.637   0.740
10361SOL    HW132524   2.820   5.632   0.669
10361SOL    HW232525   2.859   5.567   0.800
10362SOL     OW32526   3.299   6.743   0.858
10362SOL    HW132527   3.231   6.676   0.865
10362SOL    HW232528   3.318   6.749   0.764
10363SOL     OW32529   3.328   6.194   0.958
10363SOL    HW132530   3.265   6.122   0.967
10363SOL    HW232531   3.383   6.188   1.036
10364SOL     OW32532   3.684   6.409   0.429
10364SOL    HW132533   3.739   6.346   0.477
10364SOL    HW232534   3.646   6.358   0.358
10365SOL     OW32535   2.352   6.986   0.169
10365SOL    HW132536   2.287   6.941   0.224
10365SOL    HW232537   2.299   7.031   0.103
10366SOL     OW32538   3.544   6.859   0.643
10366SOL    HW132539   3.638   6.855   0.659
10366SOL    HW232540   3.519   6.948   0.668
10367SOL     OW32541   3.258   6.133   0.082
10367SOL    HW132542   3.206   6.132   0.162
10367SOL    HW232543   3.310   6.052   0.087
10368SOL     OW32544   2.385   5.842   0.325
10368SOL    HW132545   2.440   5.797   0.261
10368SOL    HW232546   2.363   5.925   0.282
10369SOL     OW32547   3.604   6.829   1.550
10369SOL    HW132548   3.690   6.787   1.554
10369SOL    HW232549   3.619   6.918   1.582
10370SOL     OW32550   2.911   6.940   1.330
10370SOL    HW132551   2.835   6.907   1.379
10370SOL    HW232552   2.986   6.898   1.373
10371SOL     OW32553   3.471   7.220   1.663
10371SOL    HW132554   3.462   7.252   1.573
10371SOL    HW232555   3.550   7.165   1.662
10372SOL     OW32556   3.003   6.806   1.101
10372SOL    HW132557   2.942   6.841   1.165
10372SOL    HW232558   2.972   6.840   1.017
10373SOL     OW32559   3.485   6.682   1.075
10373SOL    HW132560   3.478   6.744   1.148
10373SOL    HW232561   3.410   6.701   1.020
10374SOL     OW32562   2.781   5.676   1.388
10374SOL    HW132563   2.805   5.659   1.297
10374SOL    HW232564   2.859   5.715   1.427
10375SOL     OW32565   2.844   6.704   1.720
10375SOL    HW132566   2.754   6.718   1.748
10375SOL    HW232567   2.840   6.622   1.669
10376SOL     OW32568   2.573   6.650   0.375
10376SOL    HW132569   2.559   6.627   0.467
10376SOL    HW232570   2.651   6.600   0.350
10377SOL     OW32571   2.285   6.406   1.253
10377SOL    HW132572   2.352   6.417   1.321
10377SOL    HW232573   2.252   6.317   1.266
10378SOL     OW32574   3.128   5.964   1.281
10378SOL    HW132575   3.158   6.040   1.330
10378SOL    HW232576   3.037   5.984   1.259
10379SOL     OW32577   1.940   7.160   1.362
10379SOL    HW132578   1.916   7.233   1.305
10379SOL    HW232579   2.036   7.154   1.353
10380SOL     OW32580   2.193   6.715   0.498
10380SOL    HW132581   2.184   6.790   0.440
10380SOL    HW232582   2.198   6.639   0.440
10381SOL     OW32583   2.403   6.109   0.855
10381SOL    HW132584   2.418   6.169   0.782
10381SOL    HW232585   2.469   6.133   0.920
10382SOL     OW32586   3.105   6.934   0.398
10382SOL    HW132587   3.161   7.004   0.433
10382SOL    HW232588   3.018   6.955   0.431
10383SOL     OW32589   3.158   7.049   1.149
10383SOL    HW132590   3.211   7.055   1.228
10383SOL    HW232591   3.104   6.971   1.162
10384SOL     OW32592   3.417   6.186   0.505
10384SOL    HW132593   3.373   6.243   0.569
10384SOL    HW232594   3.452   6.245   0.439
10385SOL     OW32595   2.207   7.117   1.307
10385SOL    HW132596   2.197   7.069   1.225
10385SOL    HW232597   2.302   7.128   1.317
10386SOL     OW32598   2.284   6.330   1.609
10386SOL    HW132599   2.347   6.372   1.550
10386SOL    HW232600   2.325   6.248   1.633
10387SOL     OW32601   3.480   6.367   1.689
10387SOL    HW132602   3.393   6.407   1.685
10387SOL    HW232603   3.530   6.411   1.620
10388SOL     OW32604   2.855   5.725   1.745
10388SOL    HW132605   2.916   5.797   1.730
10388SOL    HW232606   2.905   5.646   1.726
10389SOL     OW32607   2.362   5.622   1.748
10389SOL    HW132608   2.310   5.568   1.689
10389SOL    HW232609   2.308   5.699   1.765
10390SOL     OW32610   2.447   6.461   1.033
10390SOL    HW132611   2.485   6.549   1.039
10390SOL    HW232612   2.392   6.453   1.111
10391SOL     OW32613   3.196   6.443   1.012
10391SOL    HW132614   3.107   6.420   0.984
10391SOL    HW232615   3.246   6.362   1.002
10392SOL     OW32616   3.077   6.117   0.285
10392SOL    HW132617   3.089   6.042   0.342
10392SOL    HW232618   3.026   6.179   0.337
10393SOL     OW32619   2.152   5.783   1.246
10393SOL    HW132620   2.119   5.814   1.330
10393SOL    HW232621   2.136   5.688   1.248
10394SOL     OW32622   1.913   6.899   1.268
10394SOL    HW132623   1.941   6.841   1.339
10394SOL    HW232624   1.914   6.987   1.308
10395SOL     OW32625   2.574   6.209   1.043
10395SOL    HW132626   2.655   6.200   0.992
10395SOL    HW232627   2.548   6.300   1.030
10396SOL     OW32628   3.604   6.552   1.859
10396SOL    HW132629   3.565   6.477   1.813
10396SOL    HW232630   3.544   6.568   1.932
10397SOL     OW32631   2.171   5.646   0.631
10397SOL    HW132632   2.147   5.737   0.651
10397SOL    HW232633   2.180   5.604   0.716
10398SOL     OW32634   3.487   5.959   0.367
10398SOL    HW132635   3.516   5.889   0.426
10398SOL    HW232636   3.451   6.026   0.426
10399SOL     OW32637   2.894   6.344   0.960
10399SOL    HW132638   2.879   6.360   1.053
10399SOL    HW232639   2.866   6.254   0.946
10400SOL     OW32640   2.844   7.156   1.726
10400SOL    HW132641   2.827   7.196   1.641
10400SOL    HW232642   2.882   7.070   1.706
10401SOL     OW32643   3.707   7.084   1.605
10401SOL    HW132644   3.733   7.113   1.517
10401SOL    HW232645   3.786   7.094   1.658
10402SOL     OW32646   2.213   6.512   1.805
10402SOL    HW132647   2.288   6.525   1.863
10402SOL    HW232648   2.242   6.445   1.742
10403SOL     OW32649   3.359   5.878   0.137
10403SOL    HW132650   3.320   5.793   0.158
10403SOL    HW232651   3.408   5.901   0.216
10404SOL     OW32652   3.152   6.389   0.057
10404SOL    HW132653   3.202   6.308   0.048
10404SOL    HW232654   3.196   6.451  -0.001
10405SOL     OW32655   2.931   6.929   0.858
10405SOL    HW132656   2.938   6.856   0.796
10405SOL    HW232657   2.988   6.997   0.823
10406SOL     OW32658   2.174   6.397   0.943
10406SOL    HW132659   2.268   6.416   0.945
10406SOL    HW232660   2.168   6.307   0.976
10407SOL     OW32661   2.181   6.120   1.009
10407SOL    HW132662   2.146   6.031   1.001
10407SOL    HW232663   2.259   6.120   0.953
10408SOL     OW32664   2.999   5.960   1.682
10408SOL    HW132665   2.952   6.010   1.748
10408SOL    HW232666   3.086   5.997   1.681
10409SOL     OW32667   3.021   5.784   1.468
10409SOL    HW132668   3.010   5.844   1.542
10409SOL    HW232669   3.067   5.836   1.401
10410SOL     OW32670   1.948   7.364   0.939
10410SOL    HW132671   1.919   7.286   0.892
10410SOL    HW232672   2.038   7.378   0.909
10411SOL     OW32673   2.350   7.161   0.900
10411SOL    HW132674   2.419   7.223   0.924
10411SOL    HW232675   2.393   7.097   0.843
10412SOL     OW32676   2.824   6.370   1.223
10412SOL    HW132677   2.887   6.352   1.293
10412SOL    HW232678   2.743   6.329   1.252
10413SOL     OW32679   1.902   6.147   1.114
10413SOL    HW132680   1.986   6.141   1.068
10413SOL    HW232681   1.925   6.144   1.207
10414SOL     OW32682   2.046   6.113   1.739
10414SOL    HW132683   2.110   6.069   1.683
10414SOL    HW232684   2.016   6.188   1.687
10415SOL     OW32685   3.248   6.513   1.656
10415SOL    HW132686   3.266   6.607   1.652
10415SOL    HW232687   3.243   6.486   1.565
10416SOL     OW32688   2.673   6.166   0.379
10416SOL    HW132689   2.686   6.090   0.322
10416SOL    HW232690   2.596   6.209   0.344
10417SOL     OW32691   3.500   6.188   1.172
10417SOL    HW132692   3.492   6.129   1.247
10417SOL    HW232693   3.589   6.173   1.140
10418SOL     OW32694   2.095   7.130   1.722
10418SOL    HW132695   2.074   7.189   1.795
10418SOL    HW232696   2.107   7.044   1.764
10419SOL     OW32697   2.585   6.027   1.246
10419SOL    HW132698   2.523   5.956   1.228
10419SOL    HW232699   2.570   6.089   1.175
10420SOL     OW32700   2.781   7.261   1.474
10420SOL    HW132701   2.755   7.219   1.392
10420SOL    HW232702   2.775   7.355   1.457
10421SOL     OW32703   2.321   6.058   0.182
10421SOL    HW132704   2.368   6.138   0.207
10421SOL    HW232705   2.247   6.089   0.129
10422SOL     OW32706   2.000   6.731   1.473
10422SOL    HW132707   2.002   6.687   1.558
10422SOL    HW232708   2.019   6.662   1.409
10423SOL     OW32709   3.181   6.628   1.212
10423SOL    HW132710   3.196   6.563   1.144
10423SOL    HW232711   3.117   6.689   1.174
10424SOL     OW32712   3.161   6.434   0.329
10424SOL    HW132713   3.086   6.395   0.374
10424SOL    HW232714   3.152   6.405   0.238
10425SOL     OW32715   3.647   7.319   1.162
10425SOL    HW132716   3.706   7.341   1.090
10425SOL    HW232717   3.615   7.231   1.141
10426SOL     OW32718   3.099   7.316   1.097
10426SOL    HW132719   3.184   7.343   1.061
10426SOL    HW232720   3.112   7.224   1.122
10427SOL     OW32721   1.952   6.854   1.005
10427SOL    HW132722   1.934   6.868   1.098
10427SOL    HW232723   1.884   6.793   0.976
10428SOL     OW32724   2.544   7.261   1.745
10428SOL    HW132725   2.486   7.336   1.733
10428SOL    HW232726   2.620   7.281   1.689
10429SOL     OW32727   2.764   5.689   0.097
10429SOL    HW132728   2.815   5.713   0.020
10429SOL    HW232729   2.826   5.643   0.154
10430SOL     OW32730   3.591   5.743   0.507
10430SOL    HW132731   3.658   5.717   0.444
10430SOL    HW232732   3.567   5.662   0.552
10431SOL     OW32733   3.256   7.152   0.500
10431SOL    HW132734   3.316   7.186   0.434
10431SOL    HW232735   3.205   7.228   0.529
10432SOL     OW32736   2.002   7.387   1.843
10432SOL    HW132737   1.955   7.316   1.887
10432SOL    HW232738   2.051   7.430   1.913
10433SOL     OW32739   3.138   6.518   0.671
10433SOL    HW132740   3.212   6.458   0.685
10433SOL    HW232741   3.173   6.587   0.615
10434SOL     OW32742   2.657   6.865   1.415
10434SOL    HW132743   2.632   6.909   1.496
10434SOL    HW232744   2.581   6.875   1.358
10435SOL     OW32745   2.518   7.200   0.187
10435SOL    HW132746   2.584   7.199   0.118
10435SOL    HW232747   2.474   7.115   0.179
10436SOL     OW32748   3.478   7.316   1.394
10436SOL    HW132749   3.534   7.319   1.317
10436SOL    HW232750   3.462   7.408   1.416
10437SOL     OW32751   3.707   5.753   0.960
10437SOL    HW132752   3.735   5.664   0.941
10437SOL    HW232753   3.618   5.758   0.924
10438SOL     OW32754   2.114   5.898   0.716
10438SOL    HW132755   2.027   5.933   0.695
10438SOL    HW232756   2.116   5.894   0.811
10439SOL     OW32757   3.057   7.188   0.069
10439SOL    HW132758   3.056   7.094   0.087
10439SOL    HW232759   3.027   7.195  -0.022
10440SOL     OW32760   2.685   6.593   1.381
10440SOL    HW132761   2.730   6.583   1.297
10440SOL    HW232762   2.680   6.688   1.394
10441SOL     OW32763   2.791   6.512   0.295
10441SOL    HW132764   2.850   6.534   0.223
10441SOL    HW232765   2.834   6.440   0.340
10442SOL     OW32766   3.321   7.165   0.009
10442SOL    HW132767   3.234   7.191   0.038
10442SOL    HW232768   3.372   7.246   0.011
10443SOL     OW32769   2.228   6.892   1.492
10443SOL    HW132770   2.214   6.968   1.436
10443SOL    HW232771   2.151   6.837   1.479
10444SOL     OW32772   3.471   6.873   1.284
10444SOL    HW132773   3.522   6.849   1.361
10444SOL    HW232774   3.409   6.938   1.315
10445SOL     OW32775   2.928   6.700   0.715
10445SOL    HW132776   2.855   6.649   0.751
10445SOL    HW232777   2.994   6.634   0.692
10446SOL     OW32778   2.890   5.830   0.962
10446SOL    HW132779   2.888   5.784   0.878
10446SOL    HW232780   2.884   5.761   1.028
10447SOL     OW32781   2.467   7.064   0.475
10447SOL    HW132782   2.511   7.014   0.406
10447SOL    HW232783   2.386   7.094   0.435
10448SOL     OW32784   3.589   5.981   1.374
10448SOL    HW132785   3.664   6.041   1.377
10448SOL    HW232786   3.619   5.909   1.318
10449SOL     OW32787   2.131   6.913   0.315
10449SOL    HW132788   2.047   6.917   0.268
10449SOL    HW232789   2.117   6.964   0.394
10450SOL     OW32790   1.976   6.627   1.726
10450SOL    HW132791   1.900   6.598   1.778
10450SOL    HW232792   2.051   6.582   1.766
10451SOL     OW32793   2.541   5.780   1.497
10451SOL    HW132794   2.626   5.755   1.460
10451SOL    HW232795   2.560   5.810   1.585
10452SOL     OW32796   3.284   6.444   1.394
10452SOL    HW132797   3.234   6.504   1.339
10452SOL    HW232798   3.373   6.445   1.357
10453SOL     OW32799   1.927   5.732   0.306
10453SOL    HW132800   1.933   5.827   0.315
10453SOL    HW232801   2.013   5.705   0.273
10454SOL     OW32802   3.056   6.918   0.120
10454SOL    HW132803   2.961   6.908   0.110
10454SOL    HW232804   3.071   6.909   0.214
10455SOL     OW32805   2.482   6.418   1.437
10455SOL    HW132806   2.541   6.492   1.425
10455SOL    HW232807   2.540   6.342   1.442
10456SOL     OW32808   3.346   7.377   0.989
10456SOL    HW132809   3.372   7.444   0.926
10456SOL    HW232810   3.428   7.338   1.018
10457SOL     OW32811   2.583   6.141   1.695
10457SOL    HW132812   2.628   6.195   1.759
10457SOL    HW232813   2.595   6.051   1.727
10458SOL     OW32814   3.332   6.777   1.626
10458SOL    HW132815   3.320   6.792   1.720
10458SOL    HW232816   3.424   6.797   1.610
10459SOL     OW32817   2.227   7.324   1.567
10459SOL    HW132818   2.144   7.371   1.555
10459SOL    HW232819   2.201   7.241   1.608
10460SOL     OW32820   3.523   6.463   1.254
10460SOL    HW132821   3.520   6.377   1.211
10460SOL    HW232822   3.514   6.526   1.182
10461SOL     OW32823   3.086   5.899   0.452
10461SOL    HW132824   3.146   5.825   0.452
10461SOL    HW232825   3.107   5.948   0.531
10462SOL     OW32826   2.446   6.316   0.674
10462SOL    HW132827   2.487   6.401   0.662
10462SOL    HW232828   2.380   6.310   0.604
10463SOL     OW32829   3.615   5.950   1.648
10463SOL    HW132830   3.597   5.966   1.555
10463SOL    HW232831   3.545   5.891   1.676
10464SOL     OW32832   3.614   6.521   1.507
10464SOL    HW132833   3.593   6.613   1.518
10464SOL    HW232834   3.592   6.502   1.416
10465SOL     OW32835   2.782   6.951   0.062
10465SOL    HW132836   2.724   6.932   0.135
10465SOL    HW232837   2.763   7.042   0.038
10466SOL     OW32838   2.524   7.369   0.926
10466SOL    HW132839   2.509   7.463   0.914
10466SOL    HW232840   2.620   7.360   0.926
10467SOL     OW32841   2.734   6.559   0.853
10467SOL    HW132842   2.783   6.486   0.891
10467SOL    HW232843   2.690   6.599   0.929
10468SOL     OW32844   2.947   6.570   0.069
10468SOL    HW132845   2.990   6.643   0.023
10468SOL    HW232846   3.015   6.505   0.080
10469SOL     OW32847   3.705   7.137   0.838
10469SOL    HW132848   3.622   7.125   0.794
10469SOL    HW232849   3.707   7.067   0.904
10470SOL     OW32850   2.091   6.880   1.849
10470SOL    HW132851   2.035   6.809   1.818
10470SOL    HW232852   2.067   6.890   1.941
10471SOL     OW32853   1.955   6.816   0.671
10471SOL    HW132854   1.970   6.772   0.755
10471SOL    HW232855   2.019   6.776   0.612
10472SOL     OW32856   2.548   7.002   1.625
10472SOL    HW132857   2.475   6.955   1.666
10472SOL    HW232858   2.549   7.087   1.669
10473SOL     OW32859   3.672   5.769   1.231
10473SOL    HW132860   3.675   5.675   1.249
10473SOL    HW232861   3.686   5.776   1.136
10474SOL     OW32862   2.279   6.018   0.523
10474SOL    HW132863   2.321   5.948   0.474
10474SOL    HW232864   2.236   5.973   0.596
10475SOL     OW32865   3.553   7.072   1.095
10475SOL    HW132866   3.477   7.051   1.041
10475SOL    HW232867   3.557   7.003   1.161
10476SOL     OW32868   2.203   6.147   1.293
10476SOL    HW132869   2.252   6.087   1.348
10476SOL    HW232870   2.217   6.115   1.203
10477SOL     OW32871   2.695   7.162   0.677
10477SOL    HW132872   2.666   7.232   0.619
10477SOL    HW232873   2.621   7.103   0.684
10478SOL     OW32874   3.290   5.819   1.115
10478SOL    HW132875   3.307   5.735   1.158
10478SOL    HW232876   3.241   5.869   1.181
10479SOL     OW32877   2.872   5.605   1.129
10479SOL    HW132878   2.814   5.540   1.091
10479SOL    HW232879   2.958   5.564   1.129
10480SOL     OW32880   2.650   6.910   0.308
10480SOL    HW132881   2.617   6.822   0.326
10480SOL    HW232882   2.723   6.921   0.369
10481SOL     OW32883   2.481   7.146   1.284
10481SOL    HW132884   2.478   7.228   1.332
10481SOL    HW232885   2.571   7.140   1.252
10482SOL     OW32886   3.236   5.627   0.184
10482SOL    HW132887   3.242   5.572   0.106
10482SOL    HW232888   3.151   5.670   0.176
10483SOL     OW32889   3.143   6.047   0.672
10483SOL    HW132890   3.095   6.130   0.678
10483SOL    HW232891   3.147   6.015   0.762
10484SOL     OW32892   3.444   5.775   0.887
10484SOL    HW132893   3.391   5.801   0.962
10484SOL    HW232894   3.444   5.852   0.830
10485SOL     OW32895   1.903   6.660   0.337
10485SOL    HW132896   1.995   6.658   0.311
10485SOL    HW232897   1.887   6.574   0.376
10486SOL     OW32898   2.741   7.244   0.354
10486SOL    HW132899   2.657   7.221   0.313
10486SOL    HW232900   2.718   7.314   0.415
10487SOL     OW32901   2.074   6.217   1.999
10487SOL    HW132902   1.988   6.204   2.039
10487SOL    HW232903   2.062   6.191   1.907
10488SOL     OW32904   2.084   5.873   2.854
10488SOL    HW132905   2.114   5.838   2.938
10488SOL    HW232906   1.996   5.837   2.843
10489SOL     OW32907   1.856   5.978   2.500
10489SOL    HW132908   1.777   6.002   2.548
10489SOL    HW232909   1.832   5.899   2.451
10490SOL     OW32910   2.434   6.889   3.055
10490SOL    HW132911   2.348   6.892   3.014
10490SOL    HW232912   2.450   6.978   3.084
10491SOL     OW32913   3.440   7.106   2.574
10491SOL    HW132914   3.397   7.076   2.654
10491SOL    HW232915   3.371   7.106   2.508
10492SOL     OW32916   2.995   6.285   2.551
10492SOL    HW132917   3.041   6.369   2.546
10492SOL    HW232918   2.946   6.290   2.633
10493SOL     OW32919   3.656   6.178   2.083
10493SOL    HW132920   3.622   6.172   1.994
10493SOL    HW232921   3.612   6.107   2.130
10494SOL     OW32922   2.598   6.720   2.909
10494SOL    HW132923   2.537   6.758   2.972
10494SOL    HW232924   2.641   6.796   2.869
10495SOL     OW32925   2.746   6.339   3.695
10495SOL    HW132926   2.735   6.408   3.761
10495SOL    HW232927   2.765   6.387   3.614
10496SOL     OW32928   2.548   6.581   2.504
10496SOL    HW132929   2.614   6.573   2.572
10496SOL    HW232930   2.480   6.637   2.543
10497SOL     OW32931   2.575   6.732   3.681
10497SOL    HW132932   2.620   6.809   3.715
10497SOL    HW232933   2.495   6.766   3.642
10498SOL     OW32934   2.194   6.999   2.929
10498SOL    HW132935   2.119   6.958   2.886
10498SOL    HW232936   2.236   7.050   2.860
10499SOL     OW32937   3.319   7.090   3.227
10499SOL    HW132938   3.372   7.168   3.240
10499SOL    HW232939   3.249   7.098   3.292
10500SOL     OW32940   2.315   5.971   3.331
10500SOL    HW132941   2.394   5.919   3.343
10500SOL    HW232942   2.244   5.915   3.363
10501SOL     OW32943   3.457   6.028   2.613
10501SOL    HW132944   3.380   6.037   2.557
10501SOL    HW232945   3.440   6.088   2.686
10502SOL     OW32946   2.079   7.311   2.331
10502SOL    HW132947   2.104   7.384   2.388
10502SOL    HW232948   2.155   7.298   2.275
10503SOL     OW32949   2.998   6.930   3.559
10503SOL    HW132950   3.038   6.921   3.646
10503SOL    HW232951   2.945   6.850   3.549
10504SOL     OW32952   2.096   7.034   2.394
10504SOL    HW132953   2.071   7.125   2.406
10504SOL    HW232954   2.045   6.986   2.460
10505SOL     OW32955   2.134   6.676   2.752
10505SOL    HW132956   2.137   6.587   2.785
10505SOL    HW232957   2.078   6.723   2.814
10506SOL     OW32958   2.450   7.383   3.280
10506SOL    HW132959   2.374   7.360   3.334
10506SOL    HW232960   2.479   7.467   3.313
10507SOL     OW32961   2.432   6.574   2.007
10507SOL    HW132962   2.485   6.613   1.938
10507SOL    HW232963   2.473   6.603   2.089
10508SOL     OW32964   3.448   5.724   3.313
10508SOL    HW132965   3.474   5.812   3.284
10508SOL    HW232966   3.432   5.735   3.407
10509SOL     OW32967   1.979   6.246   2.423
10509SOL    HW132968   1.952   6.157   2.446
10509SOL    HW232969   1.973   6.294   2.506
10510SOL     OW32970   3.705   7.334   2.184
10510SOL    HW132971   3.774   7.311   2.247
10510SOL    HW232972   3.720   7.426   2.166
10511SOL     OW32973   1.907   7.172   1.976
10511SOL    HW132974   1.889   7.080   1.994
10511SOL    HW232975   1.879   7.218   2.055
10512SOL     OW32976   3.558   6.509   2.515
10512SOL    HW132977   3.639   6.460   2.497
10512SOL    HW232978   3.538   6.552   2.432
10513SOL     OW32979   3.517   6.686   2.289
10513SOL    HW132980   3.604   6.681   2.249
10513SOL    HW232981   3.525   6.753   2.357
10514SOL     OW32982   1.998   6.330   3.442
10514SOL    HW132983   2.090   6.354   3.448
10514SOL    HW232984   1.951   6.413   3.456
10515SOL     OW32985   2.482   6.981   2.596
10515SOL    HW132986   2.439   6.896   2.605
10515SOL    HW232987   2.466   7.006   2.505
10516SOL     OW32988   3.145   6.822   3.277
10516SOL    HW132989   3.174   6.751   3.220
10516SOL    HW232990   3.201   6.814   3.355
10517SOL     OW32991   2.686   5.597   2.367
10517SOL    HW132992   2.725   5.682   2.350
10517SOL    HW232993   2.592   5.615   2.375
10518SOL     OW32994   2.050   6.546   3.138
10518SOL    HW132995   2.137   6.507   3.127
10518SOL    HW232996   1.991   6.483   3.097
10519SOL     OW32997   3.394   6.591   2.061
10519SOL    HW132998   3.324   6.534   2.092
10519SOL    HW232999   3.438   6.621   2.140
10520SOL     OW33000   3.053   7.402   3.494
10520SOL    HW133001   3.051   7.461   3.419
10520SOL    HW233002   3.065   7.315   3.456
10521SOL     OW33003   2.209   5.851   3.682
10521SOL    HW133004   2.254   5.919   3.732
10521SOL    HW233005   2.120   5.850   3.717
10522SOL     OW33006   3.331   7.002   2.803
10522SOL    HW133007   3.266   7.019   2.871
10522SOL    HW233008   3.315   6.912   2.776
10523SOL     OW33009   3.510   7.349   2.436
10523SOL    HW133010   3.488   7.310   2.351
10523SOL    HW233011   3.498   7.278   2.499
10524SOL     OW33012   2.452   6.292   2.132
10524SOL    HW133013   2.457   6.380   2.094
10524SOL    HW233014   2.388   6.301   2.203
10525SOL     OW33015   3.140   5.959   2.795
10525SOL    HW133016   3.052   5.923   2.805
10525SOL    HW233017   3.195   5.905   2.852
10526SOL     OW33018   3.437   7.266   2.175
10526SOL    HW133019   3.531   7.283   2.166
10526SOL    HW233020   3.408   7.247   2.085
10527SOL     OW33021   2.645   6.207   3.305
10527SOL    HW133022   2.627   6.177   3.394
10527SOL    HW233023   2.620   6.133   3.250
10528SOL     OW33024   3.263   6.052   3.543
10528SOL    HW133025   3.267   6.094   3.629
10528SOL    HW233026   3.308   5.969   3.554
10529SOL     OW33027   2.813   6.467   3.454
10529SOL    HW133028   2.866   6.398   3.414
10529SOL    HW233029   2.759   6.500   3.382
10530SOL     OW33030   2.862   6.004   3.082
10530SOL    HW133031   2.773   6.012   3.117
10530SOL    HW233032   2.857   5.933   3.018
10531SOL     OW33033   2.916   6.288   2.283
10531SOL    HW133034   2.938   6.282   2.377
10531SOL    HW233035   2.833   6.241   2.275
10532SOL     OW33036   1.952   6.418   2.637
10532SOL    HW133037   2.032   6.404   2.687
10532SOL    HW233038   1.909   6.492   2.681
10533SOL     OW33039   1.986   7.460   3.446
10533SOL    HW133040   1.992   7.441   3.540
10533SOL    HW233041   1.905   7.419   3.418
10534SOL     OW33042   2.758   5.937   2.059
10534SOL    HW133043   2.802   5.994   1.997
10534SOL    HW233044   2.762   5.850   2.018
10535SOL     OW33045   3.578   6.158   3.691
10535SOL    HW133046   3.539   6.229   3.640
10535SOL    HW233047   3.596   6.089   3.627
10536SOL     OW33048   3.251   6.732   2.408
10536SOL    HW133049   3.329   6.717   2.354
10536SOL    HW233050   3.196   6.790   2.355
10537SOL     OW33051   2.412   5.764   2.770
10537SOL    HW133052   2.417   5.785   2.863
10537SOL    HW233053   2.413   5.849   2.726
10538SOL     OW33054   2.859   7.032   2.327
10538SOL    HW133055   2.833   7.108   2.276
10538SOL    HW233056   2.832   7.053   2.417
10539SOL     OW33057   2.215   7.401   2.735
10539SOL    HW133058   2.259   7.316   2.740
10539SOL    HW233059   2.283   7.465   2.758
10540SOL     OW33060   3.667   6.651   2.731
10540SOL    HW133061   3.615   6.618   2.657
10540SOL    HW233062   3.605   6.653   2.804
10541SOL     OW33063   3.086   7.127   3.377
10541SOL    HW133064   3.075   7.058   3.442
10541SOL    HW233065   3.018   7.109   3.312
10542SOL     OW33066   2.168   6.547   2.120
10542SOL    HW133067   2.252   6.563   2.078
10542SOL    HW233068   2.145   6.458   2.094
10543SOL     OW33069   3.343   6.343   2.581
10543SOL    HW133070   3.342   6.294   2.664
10543SOL    HW233071   3.424   6.393   2.584
10544SOL     OW33072   2.339   6.858   3.599
10544SOL    HW133073   2.312   6.862   3.507
10544SOL    HW233074   2.257   6.852   3.648
10545SOL     OW33075   2.992   7.368   2.081
10545SOL    HW133076   2.915   7.333   2.126
10545SOL    HW233077   3.015   7.301   2.018
10546SOL     OW33078   2.060   5.845   3.366
10546SOL    HW133079   1.985   5.896   3.398
10546SOL    HW233080   2.045   5.757   3.400
10547SOL     OW33081   3.494   6.972   1.952
10547SOL    HW133082   3.449   7.055   1.940
10547SOL    HW233083   3.427   6.906   1.933
10548SOL     OW33084   2.321   7.324   2.179
10548SOL    HW133085   2.368   7.374   2.246
10548SOL    HW233086   2.390   7.284   2.126
10549SOL     OW33087   3.263   5.699   2.306
10549SOL    HW133088   3.262   5.667   2.216
10549SOL    HW233089   3.354   5.690   2.333
10550SOL     OW33090   2.118   7.374   3.088
10550SOL    HW133091   2.166   7.304   3.132
10550SOL    HW233092   2.116   7.347   2.996
10551SOL     OW33093   2.799   7.287   2.756
10551SOL    HW133094   2.875   7.237   2.787
10551SOL    HW233095   2.763   7.234   2.684
10552SOL     OW33096   2.255   6.280   2.330
10552SOL    HW133097   2.271   6.187   2.345
10552SOL    HW233098   2.163   6.293   2.351
10553SOL     OW33099   3.395   5.797   3.592
10553SOL    HW133100   3.395   5.829   3.682
10553SOL    HW233101   3.365   5.706   3.599
10554SOL     OW33102   2.513   5.701   1.962
10554SOL    HW133103   2.558   5.624   1.996
10554SOL    HW233104   2.459   5.668   1.891
10555SOL     OW33105   2.618   5.867   3.621
10555SOL    HW133106   2.701   5.820   3.612
10555SOL    HW233107   2.576   5.825   3.696
10556SOL     OW33108   2.739   7.115   3.057
10556SOL    HW133109   2.719   7.071   2.974
10556SOL    HW233110   2.804   7.058   3.098
10557SOL     OW33111   3.201   6.177   3.305
10557SOL    HW133112   3.233   6.139   3.387
10557SOL    HW233113   3.244   6.262   3.300
10558SOL     OW33114   2.682   6.974   2.814
10558SOL    HW133115   2.767   6.961   2.772
10558SOL    HW233116   2.620   6.981   2.741
10559SOL     OW33117   2.794   6.101   2.758
10559SOL    HW133118   2.769   6.084   2.668
10559SOL    HW233119   2.821   6.015   2.792
10560SOL     OW33120   2.415   5.650   2.353
10560SOL    HW133121   2.340   5.650   2.412
10560SOL    HW233122   2.401   5.726   2.297
10561SOL     OW33123   3.292   6.790   1.899
10561SOL    HW133124   3.322   6.715   1.950
10561SOL    HW233125   3.206   6.811   1.937
10562SOL     OW33126   2.155   5.635   2.052
10562SOL    HW133127   2.218   5.705   2.037
10562SOL    HW233128   2.206   5.566   2.096
10563SOL     OW33129   2.808   5.842   2.317
10563SOL    HW133130   2.787   5.878   2.231
10563SOL    HW233131   2.903   5.854   2.325
10564SOL     OW33132   2.943   6.270   3.316
10564SOL    HW133133   2.884   6.196   3.330
10564SOL    HW233134   3.031   6.231   3.316
10565SOL     OW33135   3.079   7.156   2.655
10565SOL    HW133136   3.094   7.224   2.590
10565SOL    HW233137   3.147   7.171   2.721
10566SOL     OW33138   2.336   6.746   2.583
10566SOL    HW133139   2.274   6.722   2.652
10566SOL    HW233140   2.288   6.733   2.501
10567SOL     OW33141   3.122   7.375   2.478
10567SOL    HW133142   3.167   7.440   2.424
10567SOL    HW233143   3.050   7.424   2.518
10568SOL     OW33144   2.892   6.111   1.888
10568SOL    HW133145   2.848   6.194   1.873
10568SOL    HW233146   2.952   6.128   1.961
10569SOL     OW33147   1.948   6.147   3.247
10569SOL    HW133148   2.040   6.138   3.225
10569SOL    HW233149   1.946   6.213   3.316
10570SOL     OW33150   2.420   5.807   3.043
10570SOL    HW133151   2.462   5.740   3.098
10570SOL    HW233152   2.328   5.805   3.071
10571SOL     OW33153   2.730   6.045   2.499
10571SOL    HW133154   2.687   6.099   2.432
10571SOL    HW233155   2.754   5.964   2.453
10572SOL     OW33156   2.882   5.638   2.603
10572SOL    HW133157   2.822   5.624   2.530
10572SOL    HW233158   2.861   5.568   2.664
10573SOL     OW33159   3.292   6.744   2.715
10573SOL    HW133160   3.232   6.671   2.732
10573SOL    HW233161   3.299   6.747   2.619
10574SOL     OW33162   3.328   6.192   2.821
10574SOL    HW133163   3.265   6.121   2.831
10574SOL    HW233164   3.383   6.186   2.899
10575SOL     OW33165   3.698   6.392   2.247
10575SOL    HW133166   3.755   6.346   2.308
10575SOL    HW233167   3.677   6.328   2.179
10576SOL     OW33168   2.352   7.010   2.014
10576SOL    HW133169   2.274   6.982   2.062
10576SOL    HW233170   2.355   6.953   1.937
10577SOL     OW33171   3.554   6.865   2.482
10577SOL    HW133172   3.646   6.860   2.507
10577SOL    HW233173   3.522   6.948   2.518
10578SOL     OW33174   3.254   6.158   1.935
10578SOL    HW133175   3.190   6.136   2.003
10578SOL    HW233176   3.337   6.122   1.968
10579SOL     OW33177   2.378   5.845   2.162
10579SOL    HW133178   2.438   5.806   2.099
10579SOL    HW233179   2.353   5.929   2.122
10580SOL     OW33180   3.603   6.827   3.421
10580SOL    HW133181   3.677   6.776   3.456
10580SOL    HW233182   3.624   6.918   3.443
10581SOL     OW33183   2.912   6.944   3.195
10581SOL    HW133184   2.836   6.909   3.242
10581SOL    HW233185   2.987   6.899   3.235
10582SOL     OW33186   3.473   7.223   3.528
10582SOL    HW133187   3.462   7.253   3.438
10582SOL    HW233188   3.550   7.166   3.525
10583SOL     OW33189   3.006   6.810   2.963
10583SOL    HW133190   2.942   6.841   3.026
10583SOL    HW233191   2.972   6.840   2.878
10584SOL     OW33192   3.489   6.686   2.937
10584SOL    HW133193   3.484   6.745   3.012
10584SOL    HW233194   3.408   6.701   2.888
10585SOL     OW33195   2.774   5.712   3.238
10585SOL    HW133196   2.803   5.671   3.156
10585SOL    HW233197   2.855   5.733   3.284
10586SOL     OW33198   2.843   6.703   3.579
10586SOL    HW133199   2.753   6.716   3.609
10586SOL    HW233200   2.841   6.622   3.530
10587SOL     OW33201   2.575   6.650   2.234
10587SOL    HW133202   2.560   6.628   2.326
10587SOL    HW233203   2.648   6.595   2.207
10588SOL     OW33204   2.285   6.405   3.114
10588SOL    HW133205   2.351   6.416   3.183
10588SOL    HW233206   2.253   6.315   3.126
10589SOL     OW33207   3.131   5.974   3.136
10589SOL    HW133208   3.160   6.047   3.190
10589SOL    HW233209   3.039   5.993   3.116
10590SOL     OW33210   1.941   7.160   3.224
10590SOL    HW133211   1.917   7.232   3.166
10590SOL    HW233212   2.036   7.153   3.216
10591SOL     OW33213   2.184   6.712   2.353
10591SOL    HW133214   2.188   6.783   2.288
10591SOL    HW233215   2.185   6.632   2.300
10592SOL     OW33216   2.402   6.110   2.715
10592SOL    HW133217   2.419   6.169   2.642
10592SOL    HW233218   2.468   6.132   2.781
10593SOL     OW33219   3.110   6.939   2.253
10593SOL    HW133220   3.165   7.008   2.291
10593SOL    HW233221   3.022   6.958   2.288
10594SOL     OW33222   3.159   7.049   3.008
10594SOL    HW133223   3.211   7.053   3.089
10594SOL    HW233224   3.106   6.970   3.018
10595SOL     OW33225   3.431   6.210   2.343
10595SOL    HW133226   3.383   6.244   2.418
10595SOL    HW233227   3.478   6.285   2.308
10596SOL     OW33228   2.207   7.117   3.170
10596SOL    HW133229   2.197   7.069   3.087
10596SOL    HW233230   2.302   7.128   3.180
10597SOL     OW33231   2.282   6.329   3.471
10597SOL    HW133232   2.346   6.370   3.412
10597SOL    HW233233   2.322   6.245   3.494
10598SOL     OW33234   3.481   6.371   3.549
10598SOL    HW133235   3.393   6.408   3.546
10598SOL    HW233236   3.529   6.415   3.479
10599SOL     OW33237   2.849   5.728   3.600
10599SOL    HW133238   2.919   5.792   3.586
10599SOL    HW233239   2.886   5.645   3.573
10600SOL     OW33240   2.366   5.631   3.605
10600SOL    HW133241   2.317   5.571   3.549
10600SOL    HW233242   2.308   5.706   3.619
10601SOL     OW33243   2.444   6.463   2.893
10601SOL    HW133244   2.485   6.549   2.904
10601SOL    HW233245   2.392   6.451   2.973
10602SOL     OW33246   3.196   6.443   2.872
10602SOL    HW133247   3.107   6.417   2.849
10602SOL    HW233248   3.248   6.363   2.864
10603SOL     OW33249   3.054   6.113   2.119
10603SOL    HW133250   3.067   6.036   2.175
10603SOL    HW233251   3.013   6.178   2.178
10604SOL     OW33252   2.151   5.784   3.107
10604SOL    HW133253   2.120   5.814   3.192
10604SOL    HW233254   2.136   5.689   3.108
10605SOL     OW33255   1.912   6.900   3.130
10605SOL    HW133256   1.940   6.840   3.199
10605SOL    HW233257   1.914   6.986   3.171
10606SOL     OW33258   2.575   6.207   2.903
10606SOL    HW133259   2.656   6.193   2.854
10606SOL    HW233260   2.553   6.299   2.887
10607SOL     OW33261   3.601   6.558   3.718
10607SOL    HW133262   3.568   6.480   3.673
10607SOL    HW233263   3.543   6.569   3.793
10608SOL     OW33264   2.176   5.648   2.490
10608SOL    HW133265   2.150   5.737   2.512
10608SOL    HW233266   2.185   5.604   2.575
10609SOL     OW33267   3.495   5.975   2.213
10609SOL    HW133268   3.519   5.906   2.274
10609SOL    HW233269   3.464   6.047   2.269
10610SOL     OW33270   2.894   6.346   2.825
10610SOL    HW133271   2.878   6.361   2.918
10610SOL    HW233272   2.867   6.256   2.811
10611SOL     OW33273   2.846   7.157   3.589
10611SOL    HW133274   2.827   7.196   3.504
10611SOL    HW233275   2.882   7.071   3.568
10612SOL     OW33276   3.708   7.083   3.469
10612SOL    HW133277   3.732   7.113   3.381
10612SOL    HW233278   3.788   7.092   3.521
10613SOL     OW33279   2.213   6.515   3.663
10613SOL    HW133280   2.287   6.526   3.723
10613SOL    HW233281   2.242   6.446   3.603
10614SOL     OW33282   3.385   5.864   1.985
10614SOL    HW133283   3.329   5.793   2.015
10614SOL    HW233284   3.424   5.899   2.065
10615SOL     OW33285   3.143   6.406   1.887
10615SOL    HW133286   3.185   6.321   1.896
10615SOL    HW233287   3.179   6.443   1.806
10616SOL     OW33288   2.929   6.928   2.718
10616SOL    HW133289   2.937   6.855   2.657
10616SOL    HW233290   2.987   6.996   2.682
10617SOL     OW33291   2.174   6.398   2.803
10617SOL    HW133292   2.268   6.416   2.808
10617SOL    HW233293   2.165   6.308   2.834
10618SOL     OW33294   2.178   6.122   2.866
10618SOL    HW133295   2.144   6.033   2.860
10618SOL    HW233296   2.257   6.121   2.812
10619SOL     OW33297   2.998   5.971   3.536
10619SOL    HW133298   2.952   6.015   3.607
10619SOL    HW233299   3.088   6.002   3.542
10620SOL     OW33300   3.023   5.796   3.325
10620SOL    HW133301   3.011   5.857   3.398
10620SOL    HW233302   3.073   5.846   3.261
10621SOL     OW33303   1.870   6.898   2.053
10621SOL    HW133304   1.782   6.916   2.019
10621SOL    HW233305   1.865   6.810   2.088
10622SOL     OW33306   1.948   7.364   2.800
10622SOL    HW133307   1.919   7.286   2.754
10622SOL    HW233308   2.038   7.377   2.771
10623SOL     OW33309   2.350   7.161   2.762
10623SOL    HW133310   2.419   7.222   2.786
10623SOL    HW233311   2.393   7.096   2.706
10624SOL     OW33312   2.823   6.372   3.089
10624SOL    HW133313   2.886   6.350   3.158
10624SOL    HW233314   2.743   6.324   3.113
10625SOL     OW33315   1.903   6.153   2.974
10625SOL    HW133316   1.985   6.141   2.927
10625SOL    HW233317   1.926   6.147   3.067
10626SOL     OW33318   2.045   6.112   3.605
10626SOL    HW133319   2.110   6.063   3.555
10626SOL    HW233320   2.019   6.184   3.548
10627SOL     OW33321   3.246   6.514   3.520
10627SOL    HW133322   3.264   6.608   3.515
10627SOL    HW233323   3.242   6.486   3.429
10628SOL     OW33324   2.681   6.156   2.229
10628SOL    HW133325   2.689   6.080   2.171
10628SOL    HW233326   2.604   6.203   2.197
10629SOL     OW33327   3.499   6.191   3.036
10629SOL    HW133328   3.491   6.128   3.108
10629SOL    HW233329   3.588   6.177   3.003
10630SOL     OW33330   2.094   7.129   3.585
10630SOL    HW133331   2.074   7.186   3.659
10630SOL    HW233332   2.107   7.042   3.623
10631SOL     OW33333   2.582   6.028   3.111
10631SOL    HW133334   2.525   5.953   3.095
10631SOL    HW233335   2.567   6.086   3.036
10632SOL     OW33336   2.778   7.263   3.339
10632SOL    HW133337   2.755   7.219   3.257
10632SOL    HW233338   2.772   7.357   3.319
10633SOL     OW33339   2.311   6.074   2.024
10633SOL    HW133340   2.375   6.139   2.053
10633SOL    HW233341   2.227   6.120   2.026
10634SOL     OW33342   2.002   6.730   3.332
10634SOL    HW133343   2.004   6.686   3.417
10634SOL    HW233344   2.020   6.661   3.268
10635SOL     OW33345   3.184   6.630   3.072
10635SOL    HW133346   3.196   6.563   3.004
10635SOL    HW233347   3.120   6.690   3.034
10636SOL     OW33348   3.180   6.451   2.162
10636SOL    HW133349   3.115   6.411   2.220
10636SOL    HW233350   3.149   6.429   2.073
10637SOL     OW33351   3.651   7.317   3.028
10637SOL    HW133352   3.707   7.340   2.954
10637SOL    HW233353   3.615   7.231   3.005
10638SOL     OW33354   3.099   7.316   2.960
10638SOL    HW133355   3.183   7.343   2.923
10638SOL    HW233356   3.112   7.224   2.985
10639SOL     OW33357   1.949   6.858   2.865
10639SOL    HW133358   1.932   6.870   2.959
10639SOL    HW233359   1.884   6.794   2.836
10640SOL     OW33360   2.546   7.262   3.607
10640SOL    HW133361   2.487   7.336   3.594
10640SOL    HW233362   2.620   7.280   3.550
10641SOL     OW33363   3.585   5.752   2.361
10641SOL    HW133364   3.655   5.731   2.300
10641SOL    HW233365   3.565   5.669   2.404
10642SOL     OW33366   3.257   7.155   2.359
10642SOL    HW133367   3.311   7.192   2.289
10642SOL    HW233368   3.204   7.228   2.390
10643SOL     OW33369   2.000   7.389   3.705
10643SOL    HW133370   1.954   7.318   3.749
10643SOL    HW233371   2.050   7.432   3.775
10644SOL     OW33372   3.139   6.517   2.532
10644SOL    HW133373   3.212   6.456   2.547
10644SOL    HW233374   3.177   6.587   2.480
10645SOL     OW33375   2.659   6.865   3.275
10645SOL    HW133376   2.632   6.909   3.356
10645SOL    HW233377   2.581   6.871   3.219
10646SOL     OW33378   2.528   7.217   2.019
10646SOL    HW133379   2.542   7.230   1.925
10646SOL    HW233380   2.474   7.137   2.024
10647SOL     OW33381   3.478   7.316   3.258
10647SOL    HW133382   3.534   7.318   3.181
10647SOL    HW233383   3.462   7.408   3.279
10648SOL     OW33384   3.710   5.752   2.818
10648SOL    HW133385   3.739   5.663   2.801
10648SOL    HW233386   3.620   5.754   2.785
10649SOL     OW33387   2.115   5.900   2.575
10649SOL    HW133388   2.028   5.935   2.556
10649SOL    HW233389   2.118   5.894   2.671
10650SOL     OW33390   3.071   7.179   1.897
10650SOL    HW133391   3.059   7.089   1.927
10650SOL    HW233392   3.002   7.193   1.832
10651SOL     OW33393   2.683   6.591   3.244
10651SOL    HW133394   2.734   6.574   3.164
10651SOL    HW233395   2.683   6.686   3.253
10652SOL     OW33396   2.778   6.496   2.146
10652SOL    HW133397   2.841   6.531   2.084
10652SOL    HW233398   2.827   6.430   2.196
10653SOL     OW33399   3.346   7.226   1.911
10653SOL    HW133400   3.254   7.208   1.896
10653SOL    HW233401   3.385   7.229   1.824
10654SOL     OW33402   2.227   6.893   3.355
10654SOL    HW133403   2.213   6.968   3.298
10654SOL    HW233404   2.151   6.837   3.340
10655SOL     OW33405   3.476   6.874   3.148
10655SOL    HW133406   3.524   6.848   3.227
10655SOL    HW233407   3.412   6.938   3.180
10656SOL     OW33408   2.929   6.698   2.576
10656SOL    HW133409   2.856   6.648   2.613
10656SOL    HW233410   2.994   6.631   2.554
10657SOL     OW33411   2.889   5.827   2.824
10657SOL    HW133412   2.887   5.781   2.741
10657SOL    HW233413   2.884   5.758   2.891
10658SOL     OW33414   2.469   7.070   2.338
10658SOL    HW133415   2.521   7.021   2.275
10658SOL    HW233416   2.387   7.089   2.291
10659SOL     OW33417   3.586   5.985   3.234
10659SOL    HW133418   3.662   6.043   3.239
10659SOL    HW233419   3.614   5.912   3.180
10660SOL     OW33420   2.124   6.930   2.151
10660SOL    HW133421   2.032   6.922   2.127
10660SOL    HW233422   2.123   6.972   2.237
10661SOL     OW33423   1.975   6.630   3.588
10661SOL    HW133424   1.901   6.599   3.639
10661SOL    HW233425   2.051   6.584   3.626
10662SOL     OW33426   2.539   5.791   3.358
10662SOL    HW133427   2.623   5.768   3.318
10662SOL    HW233428   2.560   5.813   3.449
10663SOL     OW33429   1.947   5.909   1.896
10663SOL    HW133430   1.859   5.889   1.863
10663SOL    HW233431   1.973   5.988   1.850
10664SOL     OW33432   3.286   6.448   3.259
10664SOL    HW133433   3.236   6.506   3.201
10664SOL    HW233434   3.374   6.446   3.220
10665SOL     OW33435   1.919   5.736   2.155
10665SOL    HW133436   1.911   5.815   2.101
10665SOL    HW233437   2.005   5.701   2.134
10666SOL     OW33438   3.041   6.914   1.984
10666SOL    HW133439   2.957   6.870   1.987
10666SOL    HW233440   3.070   6.919   2.075
10667SOL     OW33441   2.479   6.419   3.300
10667SOL    HW133442   2.539   6.492   3.288
10667SOL    HW233443   2.536   6.342   3.305
10668SOL     OW33444   3.344   7.378   2.851
10668SOL    HW133445   3.371   7.446   2.789
10668SOL    HW233446   3.426   7.335   2.875
10669SOL     OW33447   2.583   6.140   3.560
10669SOL    HW133448   2.631   6.191   3.625
10669SOL    HW233449   2.594   6.049   3.589
10670SOL     OW33450   3.330   6.780   3.489
10670SOL    HW133451   3.319   6.792   3.583
10670SOL    HW233452   3.423   6.797   3.473
10671SOL     OW33453   2.227   7.324   3.430
10671SOL    HW133454   2.144   7.371   3.418
10671SOL    HW233455   2.202   7.241   3.471
10672SOL     OW33456   3.524   6.461   3.117
10672SOL    HW133457   3.521   6.373   3.079
10672SOL    HW233458   3.518   6.520   3.041
10673SOL     OW33459   3.083   5.912   2.315
10673SOL    HW133460   3.142   5.836   2.310
10673SOL    HW233461   3.111   5.960   2.393
10674SOL     OW33462   2.447   6.316   2.532
10674SOL    HW133463   2.487   6.402   2.520
10674SOL    HW233464   2.382   6.310   2.463
10675SOL     OW33465   3.613   5.954   3.510
10675SOL    HW133466   3.592   5.967   3.417
10675SOL    HW233467   3.550   5.889   3.540
10676SOL     OW33468   3.615   6.527   3.366
10676SOL    HW133469   3.590   6.619   3.372
10676SOL    HW233470   3.593   6.502   3.277
10677SOL     OW33471   2.714   6.949   1.910
10677SOL    HW133472   2.687   6.964   2.000
10677SOL    HW233473   2.735   7.037   1.877
10678SOL     OW33474   2.524   7.369   2.787
10678SOL    HW133475   2.510   7.463   2.776
10678SOL    HW233476   2.619   7.359   2.789
10679SOL     OW33477   2.734   6.559   2.715
10679SOL    HW133478   2.783   6.485   2.752
10679SOL    HW233479   2.689   6.598   2.790
10680SOL     OW33480   2.942   6.582   1.949
10680SOL    HW133481   2.920   6.628   1.868
10680SOL    HW233482   3.012   6.522   1.924
10681SOL     OW33483   3.705   7.137   2.701
10681SOL    HW133484   3.622   7.124   2.656
10681SOL    HW233485   3.710   7.064   2.764
10682SOL     OW33486   2.090   6.878   3.710
10682SOL    HW133487   2.037   6.806   3.677
10682SOL    HW233488   2.066   6.887   3.802
10683SOL     OW33489   1.965   6.814   2.527
10683SOL    HW133490   1.976   6.773   2.612
10683SOL    HW233491   2.029   6.770   2.471
10684SOL     OW33492   2.547   7.003   3.484
10684SOL    HW133493   2.476   6.954   3.526
10684SOL    HW233494   2.550   7.086   3.531
10685SOL     OW33495   3.674   5.778   3.090
10685SOL    HW133496   3.676   5.687   3.120
10685SOL    HW233497   3.688   5.773   2.996
10686SOL     OW33498   2.282   6.019   2.380
10686SOL    HW133499   2.318   5.945   2.330
10686SOL    HW233500   2.237   5.978   2.454
10687SOL     OW33501   3.551   7.074   2.959
10687SOL    HW133502   3.477   7.051   2.903
10687SOL    HW233503   3.553   7.005   3.025
10688SOL     OW33504   2.204   6.145   3.154
10688SOL    HW133505   2.252   6.087   3.213
10688SOL    HW233506   2.220   6.110   3.067
10689SOL     OW33507   2.698   7.166   2.533
10689SOL    HW133508   2.668   7.237   2.475
10689SOL    HW233509   2.622   7.107   2.539
10690SOL     OW33510   3.292   5.819   2.973
10690SOL    HW133511   3.309   5.733   3.011
10690SOL    HW233512   3.245   5.867   3.041
10691SOL     OW33513   2.873   5.606   2.994
10691SOL    HW133514   2.813   5.536   2.966
10691SOL    HW233515   2.959   5.565   2.993
10692SOL     OW33516   2.643   6.918   2.182
10692SOL    HW133517   2.617   6.827   2.195
10692SOL    HW233518   2.721   6.929   2.236
10693SOL     OW33519   2.481   7.147   3.144
10693SOL    HW133520   2.478   7.230   3.193
10693SOL    HW233521   2.571   7.141   3.113
10694SOL     OW33522   3.233   5.633   2.034
10694SOL    HW133523   3.272   5.553   2.000
10694SOL    HW233524   3.141   5.610   2.050
10695SOL     OW33525   3.163   6.054   2.539
10695SOL    HW133526   3.108   6.132   2.541
10695SOL    HW233527   3.154   6.015   2.626
10696SOL     OW33528   3.448   5.774   2.746
10696SOL    HW133529   3.394   5.796   2.822
10696SOL    HW233530   3.446   5.852   2.691
10697SOL     OW33531   1.903   6.645   2.167
10697SOL    HW133532   1.997   6.634   2.149
10697SOL    HW233533   1.873   6.556   2.189
10698SOL     OW33534   2.758   7.250   2.188
10698SOL    HW133535   2.679   7.233   2.135
10698SOL    HW233536   2.729   7.312   2.254
10699SOL     OW33537   2.075   6.225   3.860
10699SOL    HW133538   1.991   6.207   3.901
10699SOL    HW233539   2.065   6.196   3.769
10700SOL     OW33540   2.080   5.877   4.719
10700SOL    HW133541   2.113   5.838   4.800
10700SOL    HW233542   1.994   5.838   4.707
10701SOL     OW33543   1.860   5.979   4.361
10701SOL    HW133544   1.779   5.997   4.408
10701SOL    HW233545   1.840   5.901   4.310
10702SOL     OW33546   2.434   6.889   4.918
10702SOL    HW133547   2.349   6.892   4.875
10702SOL    HW233548   2.451   6.979   4.946
10703SOL     OW33549   3.437   7.100   4.441
10703SOL    HW133550   3.395   7.069   4.522
10703SOL    HW233551   3.367   7.097   4.376
10704SOL     OW33552   2.994   6.288   4.413
10704SOL    HW133553   3.040   6.371   4.409
10704SOL    HW233554   2.945   6.291   4.496
10705SOL     OW33555   3.642   6.185   3.951
10705SOL    HW133556   3.617   6.176   3.859
10705SOL    HW233557   3.604   6.108   3.994
10706SOL     OW33558   2.598   6.720   4.773
10706SOL    HW133559   2.537   6.759   4.836
10706SOL    HW233560   2.641   6.795   4.731
10707SOL     OW33561   2.747   6.341   5.557
10707SOL    HW133562   2.738   6.412   5.620
10707SOL    HW233563   2.766   6.385   5.474
10708SOL     OW33564   2.548   6.584   4.365
10708SOL    HW133565   2.614   6.573   4.433
10708SOL    HW233566   2.480   6.638   4.406
10709SOL     OW33567   2.574   6.732   5.545
10709SOL    HW133568   2.619   6.810   5.577
10709SOL    HW233569   2.494   6.765   5.504
10710SOL     OW33570   2.193   6.999   4.791
10710SOL    HW133571   2.118   6.960   4.747
10710SOL    HW233572   2.237   7.050   4.722
10711SOL     OW33573   3.318   7.089   5.089
10711SOL    HW133574   3.372   7.168   5.100
10711SOL    HW233575   3.249   7.098   5.155
10712SOL     OW33576   2.312   5.976   5.203
10712SOL    HW133577   2.392   5.925   5.209
10712SOL    HW233578   2.242   5.915   5.225
10713SOL     OW33579   3.459   6.037   4.472
10713SOL    HW133580   3.386   6.043   4.410
10713SOL    HW233581   3.433   6.093   4.545
10714SOL     OW33582   2.079   7.312   4.193
10714SOL    HW133583   2.104   7.385   4.250
10714SOL    HW233584   2.155   7.298   4.137
10715SOL     OW33585   2.998   6.929   5.422
10715SOL    HW133586   3.040   6.919   5.507
10715SOL    HW233587   2.946   6.849   5.411
10716SOL     OW33588   2.097   7.034   4.255
10716SOL    HW133589   2.072   7.125   4.267
10716SOL    HW233590   2.046   6.986   4.321
10717SOL     OW33591   2.131   6.675   4.613
10717SOL    HW133592   2.139   6.584   4.642
10717SOL    HW233593   2.078   6.717   4.680
10718SOL     OW33594   2.447   7.386   5.138
10718SOL    HW133595   2.373   7.362   5.194
10718SOL    HW233596   2.478   7.469   5.173
10719SOL     OW33597   2.430   6.575   3.870
10719SOL    HW133598   2.484   6.612   3.800
10719SOL    HW233599   2.473   6.604   3.951
10720SOL     OW33600   3.449   5.724   5.182
10720SOL    HW133601   3.474   5.807   5.141
10720SOL    HW233602   3.430   5.747   5.273
10721SOL     OW33603   1.977   6.247   4.285
10721SOL    HW133604   1.954   6.156   4.305
10721SOL    HW233605   1.973   6.293   4.368
10722SOL     OW33606   3.697   7.364   4.068
10722SOL    HW133607   3.675   7.326   4.153
10722SOL    HW233608   3.792   7.372   4.068
10723SOL     OW33609   1.907   7.173   3.838
10723SOL    HW133610   1.889   7.080   3.856
10723SOL    HW233611   1.879   7.218   3.917
10724SOL     OW33612   3.564   6.511   4.380
10724SOL    HW133613   3.642   6.457   4.364
10724SOL    HW233614   3.543   6.547   4.294
10725SOL     OW33615   3.517   6.686   4.149
10725SOL    HW133616   3.604   6.679   4.110
10725SOL    HW233617   3.526   6.754   4.216
10726SOL     OW33618   1.998   6.328   5.305
10726SOL    HW133619   2.091   6.351   5.309
10726SOL    HW233620   1.953   6.412   5.314
10727SOL     OW33621   2.481   6.981   4.457
10727SOL    HW133622   2.438   6.896   4.466
10727SOL    HW233623   2.466   7.007   4.366
10728SOL     OW33624   3.145   6.821   5.140
10728SOL    HW133625   3.173   6.751   5.082
10728SOL    HW233626   3.202   6.814   5.216
10729SOL     OW33627   2.692   5.608   4.227
10729SOL    HW133628   2.724   5.697   4.212
10729SOL    HW233629   2.598   5.618   4.239
10730SOL     OW33630   2.050   6.545   5.000
10730SOL    HW133631   2.138   6.508   4.990
10730SOL    HW233632   1.992   6.484   4.954
10731SOL     OW33633   3.394   6.592   3.922
10731SOL    HW133634   3.323   6.534   3.952
10731SOL    HW233635   3.438   6.620   4.002
10732SOL     OW33636   3.044   7.400   5.355
10732SOL    HW133637   3.048   7.460   5.281
10732SOL    HW233638   3.060   7.313   5.316
10733SOL     OW33639   2.209   5.846   5.555
10733SOL    HW133640   2.254   5.919   5.598
10733SOL    HW233641   2.118   5.853   5.586
10734SOL     OW33642   3.329   6.999   4.667
10734SOL    HW133643   3.265   7.015   4.736
10734SOL    HW233644   3.313   6.909   4.640
10735SOL     OW33645   3.522   7.321   4.295
10735SOL    HW133646   3.472   7.294   4.219
10735SOL    HW233647   3.503   7.255   4.362
10736SOL     OW33648   2.451   6.292   3.992
10736SOL    HW133649   2.456   6.379   3.954
10736SOL    HW233650   2.387   6.300   4.063
10737SOL     OW33651   3.136   5.963   4.658
10737SOL    HW133652   3.049   5.923   4.666
10737SOL    HW233653   3.193   5.908   4.712
10738SOL     OW33654   3.429   7.278   4.033
10738SOL    HW133655   3.517   7.312   4.019
10738SOL    HW233656   3.398   7.253   3.946
10739SOL     OW33657   2.642   6.206   5.169
10739SOL    HW133658   2.624   6.175   5.258
10739SOL    HW233659   2.617   6.133   5.113
10740SOL     OW33660   3.261   6.054   5.404
10740SOL    HW133661   3.267   6.095   5.491
10740SOL    HW233662   3.308   5.971   5.414
10741SOL     OW33663   2.813   6.466   5.315
10741SOL    HW133664   2.866   6.397   5.276
10741SOL    HW233665   2.758   6.498   5.244
10742SOL     OW33666   2.861   6.004   4.943
10742SOL    HW133667   2.772   6.004   4.980
10742SOL    HW233668   2.858   5.936   4.876
10743SOL     OW33669   2.915   6.291   4.146
10743SOL    HW133670   2.937   6.282   4.239
10743SOL    HW233671   2.833   6.242   4.136
10744SOL     OW33672   1.951   6.418   4.501
10744SOL    HW133673   2.032   6.402   4.549
10744SOL    HW233674   1.911   6.493   4.544
10745SOL     OW33675   1.986   7.459   5.308
10745SOL    HW133676   1.990   7.441   5.401
10745SOL    HW233677   1.908   7.413   5.277
10746SOL     OW33678   2.757   5.936   3.921
10746SOL    HW133679   2.802   5.989   3.856
10746SOL    HW233680   2.758   5.847   3.885
10747SOL     OW33681   3.578   6.163   5.556
10747SOL    HW133682   3.539   6.233   5.504
10747SOL    HW233683   3.597   6.093   5.493
10748SOL     OW33684   3.253   6.733   4.271
10748SOL    HW133685   3.329   6.714   4.217
10748SOL    HW233686   3.198   6.788   4.216
10749SOL     OW33687   2.401   5.766   4.625
10749SOL    HW133688   2.413   5.786   4.718
10749SOL    HW233689   2.412   5.850   4.580
10750SOL     OW33690   2.860   7.033   4.190
10750SOL    HW133691   2.833   7.109   4.139
10750SOL    HW233692   2.832   7.053   4.280
10751SOL     OW33693   2.215   7.402   4.599
10751SOL    HW133694   2.259   7.317   4.603
10751SOL    HW233695   2.284   7.465   4.620
10752SOL     OW33696   3.668   6.659   4.593
10752SOL    HW133697   3.620   6.621   4.519
10752SOL    HW233698   3.605   6.658   4.665
10753SOL     OW33699   3.083   7.127   5.239
10753SOL    HW133700   3.074   7.058   5.305
10753SOL    HW233701   3.021   7.102   5.170
10754SOL     OW33702   2.166   6.545   3.980
10754SOL    HW133703   2.252   6.561   3.939
10754SOL    HW233704   2.144   6.456   3.954
10755SOL     OW33705   3.342   6.349   4.447
10755SOL    HW133706   3.341   6.295   4.526
10755SOL    HW233707   3.427   6.394   4.451
10756SOL     OW33708   2.338   6.860   5.463
10756SOL    HW133709   2.311   6.865   5.371
10756SOL    HW233710   2.256   6.852   5.512
10757SOL     OW33711   2.992   7.366   3.945
10757SOL    HW133712   2.914   7.332   3.989
10757SOL    HW233713   3.014   7.298   3.881
10758SOL     OW33714   2.062   5.842   5.227
10758SOL    HW133715   1.985   5.892   5.254
10758SOL    HW233716   2.046   5.753   5.260
10759SOL     OW33717   3.495   6.976   3.815
10759SOL    HW133718   3.447   7.057   3.802
10759SOL    HW233719   3.431   6.907   3.796
10760SOL     OW33720   2.320   7.324   4.041
10760SOL    HW133721   2.368   7.374   4.108
10760SOL    HW233722   2.388   7.283   3.988
10761SOL     OW33723   3.266   5.697   4.161
10761SOL    HW133724   3.262   5.667   4.070
10761SOL    HW233725   3.350   5.663   4.193
10762SOL     OW33726   2.119   7.374   4.949
10762SOL    HW133727   2.167   7.303   4.992
10762SOL    HW233728   2.117   7.348   4.856
10763SOL     OW33729   2.799   7.286   4.618
10763SOL    HW133730   2.875   7.237   4.648
10763SOL    HW233731   2.762   7.234   4.547
10764SOL     OW33732   2.255   6.281   4.192
10764SOL    HW133733   2.272   6.188   4.206
10764SOL    HW233734   2.162   6.292   4.212
10765SOL     OW33735   3.392   5.802   5.455
10765SOL    HW133736   3.394   5.832   5.545
10765SOL    HW233737   3.359   5.712   5.460
10766SOL     OW33738   2.509   5.698   3.828
10766SOL    HW133739   2.555   5.620   3.861
10766SOL    HW233740   2.460   5.666   3.752
10767SOL     OW33741   2.620   5.868   5.487
10767SOL    HW133742   2.703   5.821   5.476
10767SOL    HW233743   2.578   5.826   5.561
10768SOL     OW33744   2.739   7.115   4.920
10768SOL    HW133745   2.719   7.071   4.837
10768SOL    HW233746   2.805   7.060   4.961
10769SOL     OW33747   3.199   6.178   5.166
10769SOL    HW133748   3.232   6.139   5.247
10769SOL    HW233749   3.245   6.262   5.160
10770SOL     OW33750   2.681   6.974   4.676
10770SOL    HW133751   2.766   6.961   4.635
10770SOL    HW233752   2.619   6.980   4.603
10771SOL     OW33753   2.792   6.099   4.621
10771SOL    HW133754   2.768   6.085   4.529
10771SOL    HW233755   2.821   6.014   4.652
10772SOL     OW33756   2.416   5.654   4.218
10772SOL    HW133757   2.340   5.651   4.275
10772SOL    HW233758   2.401   5.728   4.160
10773SOL     OW33759   3.295   6.791   3.762
10773SOL    HW133760   3.326   6.716   3.811
10773SOL    HW233761   3.208   6.810   3.798
10774SOL     OW33762   2.158   5.634   3.916
10774SOL    HW133763   2.225   5.700   3.899
10774SOL    HW233764   2.205   5.563   3.960
10775SOL     OW33765   2.811   5.855   4.182
10775SOL    HW133766   2.792   5.883   4.092
10775SOL    HW233767   2.907   5.858   4.188
10776SOL     OW33768   2.942   6.269   5.177
10776SOL    HW133769   2.884   6.194   5.188
10776SOL    HW233770   3.030   6.232   5.176
10777SOL     OW33771   3.078   7.157   4.519
10777SOL    HW133772   3.095   7.226   4.455
10777SOL    HW233773   3.147   7.169   4.585
10778SOL     OW33774   2.335   6.747   4.446
10778SOL    HW133775   2.272   6.722   4.514
10778SOL    HW233776   2.287   6.734   4.364
10779SOL     OW33777   3.122   7.376   4.340
10779SOL    HW133778   3.164   7.442   4.284
10779SOL    HW233779   3.050   7.423   4.381
10780SOL     OW33780   2.893   6.110   3.751
10780SOL    HW133781   2.849   6.194   3.738
10780SOL    HW233782   2.952   6.124   3.825
10781SOL     OW33783   1.950   6.145   5.109
10781SOL    HW133784   2.042   6.136   5.085
10781SOL    HW233785   1.949   6.211   5.178
10782SOL     OW33786   2.422   5.807   4.899
10782SOL    HW133787   2.466   5.734   4.942
10782SOL    HW233788   2.331   5.801   4.929
10783SOL     OW33789   2.727   6.052   4.361
10783SOL    HW133790   2.687   6.103   4.290
10783SOL    HW233791   2.756   5.971   4.318
10784SOL     OW33792   2.865   5.645   4.466
10784SOL    HW133793   2.814   5.624   4.387
10784SOL    HW233794   2.852   5.571   4.524
10785SOL     OW33795   3.287   6.744   4.572
10785SOL    HW133796   3.232   6.668   4.590
10785SOL    HW233797   3.294   6.747   4.477
10786SOL     OW33798   3.326   6.191   4.683
10786SOL    HW133799   3.263   6.120   4.690
10786SOL    HW233800   3.381   6.183   4.760
10787SOL     OW33801   3.698   6.396   4.110
10787SOL    HW133802   3.755   6.348   4.170
10787SOL    HW233803   3.672   6.332   4.044
10788SOL     OW33804   2.353   7.011   3.877
10788SOL    HW133805   2.274   6.982   3.923
10788SOL    HW233806   2.360   6.952   3.801
10789SOL     OW33807   3.559   6.869   4.337
10789SOL    HW133808   3.650   6.861   4.366
10789SOL    HW233809   3.526   6.946   4.382
10790SOL     OW33810   3.255   6.152   3.800
10790SOL    HW133811   3.188   6.134   3.865
10790SOL    HW233812   3.328   6.095   3.825
10791SOL     OW33813   2.378   5.847   4.025
10791SOL    HW133814   2.438   5.804   3.965
10791SOL    HW233815   2.354   5.929   3.981
10792SOL     OW33816   3.603   6.828   5.283
10792SOL    HW133817   3.678   6.777   5.315
10792SOL    HW233818   3.624   6.918   5.305
10793SOL     OW33819   2.914   6.949   5.062
10793SOL    HW133820   2.838   6.911   5.106
10793SOL    HW233821   2.989   6.900   5.098
10794SOL     OW33822   3.471   7.222   5.389
10794SOL    HW133823   3.462   7.253   5.299
10794SOL    HW233824   3.549   7.166   5.387
10795SOL     OW33825   3.006   6.812   4.825
10795SOL    HW133826   2.938   6.838   4.886
10795SOL    HW233827   2.974   6.840   4.739
10796SOL     OW33828   3.489   6.685   4.799
10796SOL    HW133829   3.485   6.744   4.874
10796SOL    HW233830   3.405   6.696   4.754
10797SOL     OW33831   2.768   5.722   5.093
10797SOL    HW133832   2.793   5.673   5.015
10797SOL    HW233833   2.851   5.738   5.138
10798SOL     OW33834   2.843   6.702   5.442
10798SOL    HW133835   2.752   6.715   5.470
10798SOL    HW233836   2.841   6.621   5.391
10799SOL     OW33837   2.576   6.651   4.095
10799SOL    HW133838   2.562   6.628   4.187
10799SOL    HW233839   2.650   6.597   4.068
10800SOL     OW33840   2.285   6.406   4.977
10800SOL    HW133841   2.352   6.416   5.045
10800SOL    HW233842   2.254   6.316   4.987
10801SOL     OW33843   3.130   5.966   5.003
10801SOL    HW133844   3.160   6.042   5.054
10801SOL    HW233845   3.039   5.988   4.979
10802SOL     OW33846   1.941   7.159   5.086
10802SOL    HW133847   1.916   7.229   5.025
10802SOL    HW233848   2.036   7.153   5.077
10803SOL     OW33849   2.183   6.711   4.215
10803SOL    HW133850   2.189   6.779   4.148
10803SOL    HW233851   2.184   6.629   4.166
10804SOL     OW33852   2.401   6.115   4.581
10804SOL    HW133853   2.418   6.174   4.507
10804SOL    HW233854   2.470   6.134   4.644
10805SOL     OW33855   3.110   6.939   4.114
10805SOL    HW133856   3.165   7.007   4.154
10805SOL    HW233857   3.022   6.957   4.149
10806SOL     OW33858   3.157   7.049   4.871
10806SOL    HW133859   3.209   7.052   4.951
10806SOL    HW233860   3.105   6.969   4.879
10807SOL     OW33861   3.423   6.205   4.209
10807SOL    HW133862   3.379   6.249   4.281
10807SOL    HW233863   3.470   6.275   4.164
10808SOL     OW33864   2.208   7.116   5.032
10808SOL    HW133865   2.198   7.070   4.949
10808SOL    HW233866   2.302   7.128   5.041
10809SOL     OW33867   2.281   6.328   5.332
10809SOL    HW133868   2.345   6.369   5.274
10809SOL    HW233869   2.318   6.242   5.351
10810SOL     OW33870   3.480   6.373   5.412
10810SOL    HW133871   3.392   6.410   5.407
10810SOL    HW233872   3.528   6.416   5.341
10811SOL     OW33873   2.849   5.728   5.464
10811SOL    HW133874   2.919   5.790   5.446
10811SOL    HW233875   2.884   5.643   5.436
10812SOL     OW33876   2.364   5.629   5.473
10812SOL    HW133877   2.317   5.571   5.413
10812SOL    HW233878   2.307   5.705   5.483
10813SOL     OW33879   2.442   6.466   4.754
10813SOL    HW133880   2.486   6.550   4.767
10813SOL    HW233881   2.392   6.452   4.834
10814SOL     OW33882   3.198   6.443   4.737
10814SOL    HW133883   3.110   6.416   4.710
10814SOL    HW233884   3.251   6.364   4.728
10815SOL     OW33885   3.052   6.115   3.981
10815SOL    HW133886   3.069   6.038   4.034
10815SOL    HW233887   3.011   6.177   4.041
10816SOL     OW33888   2.154   5.781   4.968
10816SOL    HW133889   2.123   5.809   5.054
10816SOL    HW233890   2.141   5.686   4.967
10817SOL     OW33891   1.906   6.899   4.992
10817SOL    HW133892   1.937   6.839   5.060
10817SOL    HW233893   1.913   6.986   5.032
10818SOL     OW33894   2.580   6.208   4.767
10818SOL    HW133895   2.659   6.188   4.716
10818SOL    HW233896   2.560   6.299   4.745
10819SOL     OW33897   3.602   6.558   5.581
10819SOL    HW133898   3.568   6.482   5.534
10819SOL    HW233899   3.543   6.569   5.656
10820SOL     OW33900   2.174   5.649   4.355
10820SOL    HW133901   2.152   5.739   4.378
10820SOL    HW233902   2.186   5.605   4.439
10821SOL     OW33903   3.499   5.973   4.077
10821SOL    HW133904   3.526   5.902   4.134
10821SOL    HW233905   3.463   6.040   4.136
10822SOL     OW33906   2.890   6.347   4.686
10822SOL    HW133907   2.877   6.361   4.780
10822SOL    HW233908   2.866   6.255   4.672
10823SOL     OW33909   2.843   7.153   5.453
10823SOL    HW133910   2.824   7.195   5.369
10823SOL    HW233911   2.884   7.069   5.429
10824SOL     OW33912   3.707   7.084   5.330
10824SOL    HW133913   3.732   7.113   5.242
10824SOL    HW233914   3.786   7.093   5.383
10825SOL     OW33915   2.213   6.513   5.525
10825SOL    HW133916   2.287   6.524   5.584
10825SOL    HW233917   2.241   6.445   5.464
10826SOL     OW33918   3.374   5.882   3.849
10826SOL    HW133919   3.322   5.805   3.872
10826SOL    HW233920   3.420   5.905   3.929
10827SOL     OW33921   3.146   6.404   3.753
10827SOL    HW133922   3.187   6.318   3.761
10827SOL    HW233923   3.181   6.439   3.671
10828SOL     OW33924   2.928   6.928   4.580
10828SOL    HW133925   2.935   6.854   4.520
10828SOL    HW233926   2.986   6.995   4.544
10829SOL     OW33927   2.174   6.400   4.665
10829SOL    HW133928   2.268   6.416   4.669
10829SOL    HW233929   2.165   6.309   4.695
10830SOL     OW33930   2.177   6.125   4.728
10830SOL    HW133931   2.143   6.035   4.723
10830SOL    HW233932   2.256   6.124   4.675
10831SOL     OW33933   2.997   5.971   5.398
10831SOL    HW133934   2.952   6.015   5.470
10831SOL    HW233935   3.087   6.003   5.402
10832SOL     OW33936   3.020   5.791   5.191
10832SOL    HW133937   3.009   5.855   5.261
10832SOL    HW233938   3.070   5.837   5.124
10833SOL     OW33939   1.870   6.899   3.916
10833SOL    HW133940   1.782   6.917   3.882
10833SOL    HW233941   1.865   6.810   3.950
10834SOL     OW33942   1.949   7.365   4.663
10834SOL    HW133943   1.920   7.285   4.618
10834SOL    HW233944   2.039   7.378   4.633
10835SOL     OW33945   2.350   7.161   4.625
10835SOL    HW133946   2.419   7.222   4.649
10835SOL    HW233947   2.393   7.097   4.568
10836SOL     OW33948   2.821   6.374   4.952
10836SOL    HW133949   2.883   6.351   5.021
10836SOL    HW233950   2.745   6.319   4.969
10837SOL     OW33951   1.902   6.155   4.836
10837SOL    HW133952   1.982   6.140   4.787
10837SOL    HW233953   1.928   6.147   4.928
10838SOL     OW33954   2.051   6.110   5.466
10838SOL    HW133955   2.114   6.061   5.414
10838SOL    HW233956   2.023   6.182   5.409
10839SOL     OW33957   3.244   6.516   5.383
10839SOL    HW133958   3.264   6.609   5.377
10839SOL    HW233959   3.241   6.486   5.291
10840SOL     OW33960   2.682   6.157   4.089
10840SOL    HW133961   2.693   6.079   4.035
10840SOL    HW233962   2.604   6.200   4.055
10841SOL     OW33963   3.497   6.191   4.901
10841SOL    HW133964   3.489   6.125   4.970
10841SOL    HW233965   3.585   6.178   4.865
10842SOL     OW33966   2.093   7.129   5.448
10842SOL    HW133967   2.075   7.183   5.525
10842SOL    HW233968   2.106   7.041   5.483
10843SOL     OW33969   2.577   6.029   4.975
10843SOL    HW133970   2.524   5.952   4.955
10843SOL    HW233971   2.566   6.087   4.899
10844SOL     OW33972   2.768   7.266   5.208
10844SOL    HW133973   2.753   7.220   5.126
10844SOL    HW233974   2.768   7.359   5.184
10845SOL     OW33975   2.309   6.074   3.884
10845SOL    HW133976   2.375   6.137   3.912
10845SOL    HW233977   2.227   6.123   3.887
10846SOL     OW33978   2.000   6.730   5.193
10846SOL    HW133979   2.005   6.686   5.279
10846SOL    HW233980   2.019   6.661   5.130
10847SOL     OW33981   3.184   6.631   4.934
10847SOL    HW133982   3.196   6.563   4.868
10847SOL    HW233983   3.120   6.691   4.895
10848SOL     OW33984   3.177   6.455   4.026
10848SOL    HW133985   3.116   6.408   4.083
10848SOL    HW233986   3.152   6.428   3.937
10849SOL     OW33987   3.648   7.320   4.886
10849SOL    HW133988   3.706   7.341   4.813
10849SOL    HW233989   3.614   7.233   4.866
10850SOL     OW33990   3.098   7.316   4.824
10850SOL    HW133991   3.183   7.342   4.787
10850SOL    HW233992   3.110   7.224   4.848
10851SOL     OW33993   1.942   6.867   4.724
10851SOL    HW133994   1.925   6.873   4.818
10851SOL    HW233995   1.884   6.797   4.694
10852SOL     OW33996   2.550   7.262   5.469
10852SOL    HW133997   2.492   7.337   5.452
10852SOL    HW233998   2.623   7.276   5.410
10853SOL     OW33999   3.601   5.762   4.229
10853SOL    HW134000   3.667   5.736   4.164
10853SOL    HW234001   3.570   5.680   4.267
10854SOL     OW34002   3.256   7.156   4.222
10854SOL    HW134003   3.302   7.194   4.147
10854SOL    HW234004   3.201   7.228   4.254
10855SOL     OW34005   1.995   7.392   5.568
10855SOL    HW134006   1.951   7.318   5.610
10855SOL    HW234007   2.046   7.432   5.638
10856SOL     OW34008   3.138   6.521   4.399
10856SOL    HW134009   3.210   6.459   4.414
10856SOL    HW234010   3.176   6.589   4.343
10857SOL     OW34011   2.660   6.865   5.135
10857SOL    HW134012   2.633   6.909   5.216
10857SOL    HW234013   2.583   6.869   5.079
10858SOL     OW34014   2.528   7.218   3.881
10858SOL    HW134015   2.543   7.231   3.788
10858SOL    HW234016   2.475   7.139   3.886
10859SOL     OW34017   3.477   7.316   5.119
10859SOL    HW134018   3.534   7.318   5.042
10859SOL    HW234019   3.461   7.409   5.140
10860SOL     OW34020   3.710   5.758   4.687
10860SOL    HW134021   3.741   5.669   4.673
10860SOL    HW234022   3.623   5.760   4.647
10861SOL     OW34023   2.118   5.902   4.440
10861SOL    HW134024   2.031   5.936   4.420
10861SOL    HW234025   2.121   5.896   4.535
10862SOL     OW34026   3.070   7.178   3.760
10862SOL    HW134027   3.058   7.088   3.789
10862SOL    HW234028   3.002   7.191   3.694
10863SOL     OW34029   2.683   6.589   5.106
10863SOL    HW134030   2.734   6.567   5.028
10863SOL    HW234031   2.687   6.685   5.111
10864SOL     OW34032   2.781   6.500   4.007
10864SOL    HW134033   2.846   6.535   3.946
10864SOL    HW234034   2.828   6.432   4.056
10865SOL     OW34035   3.344   7.231   3.773
10865SOL    HW134036   3.252   7.209   3.757
10865SOL    HW234037   3.384   7.232   3.686
10866SOL     OW34038   2.224   6.895   5.220
10866SOL    HW134039   2.214   6.968   5.159
10866SOL    HW234040   2.150   6.838   5.202
10867SOL     OW34041   3.475   6.873   5.010
10867SOL    HW134042   3.524   6.848   5.088
10867SOL    HW234043   3.411   6.937   5.042
10868SOL     OW34044   2.927   6.699   4.438
10868SOL    HW134045   2.854   6.648   4.474
10868SOL    HW234046   2.994   6.633   4.418
10869SOL     OW34047   2.885   5.828   4.687
10869SOL    HW134048   2.878   5.782   4.603
10869SOL    HW234049   2.881   5.758   4.753
10870SOL     OW34050   2.469   7.070   4.199
10870SOL    HW134051   2.524   7.020   4.137
10870SOL    HW234052   2.388   7.086   4.151
10871SOL     OW34053   3.589   5.983   5.098
10871SOL    HW134054   3.665   6.042   5.099
10871SOL    HW234055   3.616   5.909   5.044
10872SOL     OW34056   2.125   6.930   4.012
10872SOL    HW134057   2.032   6.922   3.988
10872SOL    HW234058   2.124   6.971   4.098
10873SOL     OW34059   1.977   6.635   5.454
10873SOL    HW134060   1.902   6.602   5.503
10873SOL    HW234061   2.052   6.586   5.489
10874SOL     OW34062   2.535   5.797   5.223
10874SOL    HW134063   2.617   5.776   5.178
10874SOL    HW234064   2.562   5.817   5.313
10875SOL     OW34065   1.942   5.913   3.767
10875SOL    HW134066   1.862   5.886   3.722
10875SOL    HW234067   1.971   5.991   3.719
10876SOL     OW34068   3.287   6.450   5.122
10876SOL    HW134069   3.237   6.507   5.064
10876SOL    HW234070   3.374   6.446   5.082
10877SOL     OW34071   1.920   5.737   4.015
10877SOL    HW134072   1.914   5.812   3.955
10877SOL    HW234073   2.007   5.701   3.998
10878SOL     OW34074   3.042   6.912   3.846
10878SOL    HW134075   2.964   6.857   3.849
10878SOL    HW234076   3.070   6.919   3.937
10879SOL     OW34077   2.478   6.420   5.164
10879SOL    HW134078   2.539   6.492   5.151
10879SOL    HW234079   2.534   6.342   5.168
10880SOL     OW34080   3.345   7.376   4.716
10880SOL    HW134081   3.374   7.442   4.654
10880SOL    HW234082   3.426   7.333   4.744
10881SOL     OW34083   2.582   6.140   5.425
10881SOL    HW134084   2.633   6.191   5.489
10881SOL    HW234085   2.594   6.049   5.452
10882SOL     OW34086   3.331   6.781   5.350
10882SOL    HW134087   3.321   6.793   5.445
10882SOL    HW234088   3.423   6.798   5.333
10883SOL     OW34089   2.228   7.325   5.294
10883SOL    HW134090   2.145   7.371   5.281
10883SOL    HW234091   2.203   7.241   5.333
10884SOL     OW34092   3.524   6.460   4.980
10884SOL    HW134093   3.521   6.371   4.943
10884SOL    HW234094   3.520   6.517   4.903
10885SOL     OW34095   3.090   5.914   4.174
10885SOL    HW134096   3.148   5.838   4.165
10885SOL    HW234097   3.121   5.959   4.252
10886SOL     OW34098   2.442   6.321   4.398
10886SOL    HW134099   2.486   6.405   4.381
10886SOL    HW234100   2.380   6.311   4.326
10887SOL     OW34101   3.611   5.960   5.374
10887SOL    HW134102   3.594   5.969   5.281
10887SOL    HW234103   3.549   5.893   5.403
10888SOL     OW34104   3.616   6.527   5.229
10888SOL    HW134105   3.591   6.619   5.232
10888SOL    HW234106   3.595   6.500   5.139
10889SOL     OW34107   2.706   6.953   3.770
10889SOL    HW134108   2.685   6.965   3.862
10889SOL    HW234109   2.734   7.039   3.740
10890SOL     OW34110   2.524   7.369   4.652
10890SOL    HW134111   2.511   7.463   4.638
10890SOL    HW234112   2.619   7.358   4.651
10891SOL     OW34113   2.732   6.558   4.577
10891SOL    HW134114   2.782   6.484   4.611
10891SOL    HW234115   2.689   6.596   4.653
10892SOL     OW34116   2.948   6.588   3.810
10892SOL    HW134117   2.923   6.627   3.726
10892SOL    HW234118   3.016   6.524   3.788
10893SOL     OW34119   3.711   7.130   4.562
10893SOL    HW134120   3.623   7.116   4.527
10893SOL    HW234121   3.727   7.055   4.620
10894SOL     OW34122   2.087   6.876   5.569
10894SOL    HW134123   2.039   6.801   5.533
10894SOL    HW234124   2.058   6.881   5.660
10895SOL     OW34125   1.966   6.814   4.388
10895SOL    HW134126   1.981   6.772   4.473
10895SOL    HW234127   2.028   6.771   4.329
10896SOL     OW34128   2.546   7.002   5.344
10896SOL    HW134129   2.476   6.954   5.388
10896SOL    HW234130   2.552   7.085   5.392
10897SOL     OW34131   3.675   5.773   4.958
10897SOL    HW134132   3.679   5.681   4.984
10897SOL    HW234133   3.686   5.773   4.863
10898SOL     OW34134   2.281   6.020   4.240
10898SOL    HW134135   2.319   5.948   4.189
10898SOL    HW234136   2.239   5.976   4.314
10899SOL     OW34137   3.548   7.077   4.823
10899SOL    HW134138   3.475   7.050   4.766
10899SOL    HW234139   3.555   7.006   4.887
10900SOL     OW34140   2.206   6.145   5.017
10900SOL    HW134141   2.254   6.088   5.077
10900SOL    HW234142   2.223   6.109   4.930
10901SOL     OW34143   2.696   7.166   4.396
10901SOL    HW134144   2.667   7.235   4.337
10901SOL    HW234145   2.622   7.106   4.402
10902SOL     OW34146   3.290   5.814   4.823
10902SOL    HW134147   3.304   5.721   4.841
10902SOL    HW234148   3.248   5.848   4.901
10903SOL     OW34149   2.867   5.604   4.854
10903SOL    HW134150   2.816   5.537   4.808
10903SOL    HW234151   2.954   5.567   4.861
10904SOL     OW34152   2.644   6.918   4.044
10904SOL    HW134153   2.618   6.827   4.056
10904SOL    HW234154   2.724   6.927   4.097
10905SOL     OW34155   2.480   7.149   5.006
10905SOL    HW134156   2.478   7.232   5.053
10905SOL    HW234157   2.571   7.141   4.976
10906SOL     OW34158   3.233   5.647   3.888
10906SOL    HW134159   3.276   5.571   3.849
10906SOL    HW234160   3.143   5.619   3.903
10907SOL     OW34161   3.165   6.058   4.402
10907SOL    HW134162   3.106   6.133   4.403
10907SOL    HW234163   3.154   6.017   4.488
10908SOL     OW34164   3.458   5.784   4.598
10908SOL    HW134165   3.396   5.797   4.670
10908SOL    HW234166   3.450   5.864   4.545
10909SOL     OW34167   1.903   6.645   4.029
10909SOL    HW134168   1.996   6.634   4.009
10909SOL    HW234169   1.873   6.557   4.051
10910SOL     OW34170   2.757   7.250   4.051
10910SOL    HW134171   2.679   7.233   3.998
10910SOL    HW234172   2.728   7.313   4.117
10911SOL     OW34173   2.078   6.228   5.719
10911SOL    HW134174   1.994   6.205   5.759
10911SOL    HW234175   2.071   6.198   5.629
10912SOL     OW34176   2.078   5.880   6.583
10912SOL    HW134177   2.113   5.839   6.662
10912SOL    HW234178   1.992   5.839   6.571
10913SOL     OW34179   1.862   5.976   6.223
10913SOL    HW134180   1.780   5.991   6.269
10913SOL    HW234181   1.846   5.899   6.168
10914SOL     OW34182   2.434   6.890   6.782
10914SOL    HW134183   2.351   6.894   6.735
10914SOL    HW234184   2.451   6.980   6.808
10915SOL     OW34185   3.443   7.106   6.297
10915SOL    HW134186   3.399   7.075   6.376
10915SOL    HW234187   3.376   7.106   6.229
10916SOL     OW34188   2.991   6.292   6.277
10916SOL    HW134189   3.040   6.375   6.271
10916SOL    HW234190   2.945   6.298   6.360
10917SOL     OW34191   3.620   6.190   5.821
10917SOL    HW134192   3.605   6.181   5.727
10917SOL    HW234193   3.593   6.106   5.858
10918SOL     OW34194   2.598   6.719   6.638
10918SOL    HW134195   2.537   6.760   6.700
10918SOL    HW234196   2.639   6.793   6.593
10919SOL     OW34197   2.749   6.342   7.416
10919SOL    HW134198   2.737   6.417   7.475
10919SOL    HW234199   2.767   6.382   7.331
10920SOL     OW34200   2.548   6.585   6.227
10920SOL    HW134201   2.614   6.574   6.295
10920SOL    HW234202   2.480   6.639   6.269
10921SOL     OW34203   2.574   6.733   7.411
10921SOL    HW134204   2.622   6.810   7.441
10921SOL    HW234205   2.496   6.768   7.368
10922SOL     OW34206   2.192   6.999   6.651
10922SOL    HW134207   2.117   6.961   6.605
10922SOL    HW234208   2.238   7.050   6.584
10923SOL     OW34209   3.317   7.087   6.953
10923SOL    HW134210   3.372   7.166   6.962
10923SOL    HW234211   3.248   7.099   7.018
10924SOL     OW34212   2.309   5.981   7.074
10924SOL    HW134213   2.390   5.929   7.076
10924SOL    HW234214   2.240   5.916   7.088
10925SOL     OW34215   3.466   6.036   6.329
10925SOL    HW134216   3.404   6.050   6.257
10925SOL    HW234217   3.444   6.103   6.393
10926SOL     OW34218   2.079   7.311   6.055
10926SOL    HW134219   2.105   7.384   6.111
10926SOL    HW234220   2.154   7.298   5.997
10927SOL     OW34221   2.999   6.928   7.284
10927SOL    HW134222   3.042   6.915   7.368
10927SOL    HW234223   2.948   6.848   7.271
10928SOL     OW34224   2.097   7.035   6.117
10928SOL    HW134225   2.074   7.127   6.126
10928SOL    HW234226   2.046   6.990   6.184
10929SOL     OW34227   2.126   6.673   6.474
10929SOL    HW134228   2.139   6.582   6.500
10929SOL    HW234229   2.076   6.712   6.545
10930SOL     OW34230   2.446   7.387   7.001
10930SOL    HW134231   2.372   7.364   7.057
10930SOL    HW234232   2.477   7.470   7.035
10931SOL     OW34233   2.430   6.575   5.732
10931SOL    HW134234   2.483   6.612   5.662
10931SOL    HW234235   2.473   6.604   5.813
10932SOL     OW34236   3.438   5.718   7.036
10932SOL    HW134237   3.485   5.786   6.987
10932SOL    HW234238   3.430   5.753   7.124
10933SOL     OW34239   1.976   6.246   6.146
10933SOL    HW134240   1.955   6.155   6.166
10933SOL    HW234241   1.973   6.290   6.231
10934SOL     OW34242   3.705   7.335   5.909
10934SOL    HW134243   3.774   7.312   5.971
10934SOL    HW234244   3.720   7.427   5.888
10935SOL     OW34245   1.906   7.174   5.701
10935SOL    HW134246   1.890   7.081   5.718
10935SOL    HW234247   1.879   7.218   5.781
10936SOL     OW34248   3.565   6.509   6.243
10936SOL    HW134249   3.641   6.453   6.227
10936SOL    HW234250   3.543   6.544   6.157
10937SOL     OW34251   3.515   6.685   6.013
10937SOL    HW134252   3.602   6.680   5.974
10937SOL    HW234253   3.524   6.751   6.083
10938SOL     OW34254   1.995   6.326   7.168
10938SOL    HW134255   2.087   6.351   7.170
10938SOL    HW234256   1.947   6.409   7.167
10939SOL     OW34257   2.477   6.982   6.320
10939SOL    HW134258   2.435   6.896   6.328
10939SOL    HW234259   2.464   7.007   6.229
10940SOL     OW34260   3.143   6.820   7.005
10940SOL    HW134261   3.169   6.751   6.945
10940SOL    HW234262   3.204   6.812   7.078
10941SOL     OW34263   2.688   5.606   6.081
10941SOL    HW134264   2.724   5.695   6.071
10941SOL    HW234265   2.595   5.620   6.097
10942SOL     OW34266   2.049   6.545   6.864
10942SOL    HW134267   2.137   6.508   6.855
10942SOL    HW234268   1.993   6.489   6.809
10943SOL     OW34269   3.392   6.592   5.785
10943SOL    HW134270   3.323   6.533   5.815
10943SOL    HW234271   3.437   6.619   5.865
10944SOL     OW34272   3.041   7.397   7.219
10944SOL    HW134273   3.046   7.459   7.146
10944SOL    HW234274   3.058   7.312   7.179
10945SOL     OW34275   2.204   5.840   7.432
10945SOL    HW134276   2.250   5.918   7.462
10945SOL    HW234277   2.112   5.857   7.455
10946SOL     OW34278   3.324   7.007   6.521
10946SOL    HW134279   3.263   7.020   6.593
10946SOL    HW234280   3.313   6.915   6.496
10947SOL     OW34281   3.509   7.350   6.160
10947SOL    HW134282   3.488   7.312   6.075
10947SOL    HW234283   3.500   7.277   6.221
10948SOL     OW34284   2.452   6.292   5.854
10948SOL    HW134285   2.457   6.379   5.814
10948SOL    HW234286   2.388   6.302   5.925
10949SOL     OW34287   3.137   5.966   6.523
10949SOL    HW134288   3.051   5.925   6.531
10949SOL    HW234289   3.195   5.909   6.574
10950SOL     OW34290   3.437   7.266   5.899
10950SOL    HW134291   3.531   7.282   5.890
10950SOL    HW234292   3.407   7.247   5.810
10951SOL     OW34293   2.637   6.205   7.035
10951SOL    HW134294   2.619   6.172   7.123
10951SOL    HW234295   2.613   6.133   6.976
10952SOL     OW34296   3.257   6.058   7.263
10952SOL    HW134297   3.267   6.098   7.349
10952SOL    HW234298   3.306   5.976   7.269
10953SOL     OW34299   2.813   6.465   7.176
10953SOL    HW134300   2.865   6.395   7.136
10953SOL    HW234301   2.758   6.498   7.104
10954SOL     OW34302   2.858   6.006   6.804
10954SOL    HW134303   2.770   5.997   6.840
10954SOL    HW234304   2.860   5.945   6.731
10955SOL     OW34305   2.915   6.291   6.009
10955SOL    HW134306   2.936   6.282   6.102
10955SOL    HW234307   2.833   6.241   5.998
10956SOL     OW34308   1.951   6.414   6.366
10956SOL    HW134309   2.033   6.399   6.413
10956SOL    HW234310   1.912   6.491   6.407
10957SOL     OW34311   1.986   7.458   7.169
10957SOL    HW134312   1.986   7.440   7.263
10957SOL    HW234313   1.909   7.411   7.136
10958SOL     OW34314   2.759   5.936   5.784
10958SOL    HW134315   2.803   5.990   5.719
10958SOL    HW234316   2.762   5.847   5.748
10959SOL     OW34317   3.573   6.168   7.426
10959SOL    HW134318   3.538   6.239   7.371
10959SOL    HW234319   3.594   6.098   7.364
10960SOL     OW34320   3.251   6.732   6.128
10960SOL    HW134321   3.328   6.712   6.076
10960SOL    HW234322   3.198   6.788   6.072
10961SOL     OW34323   2.394   5.763   6.483
10961SOL    HW134324   2.411   5.786   6.575
10961SOL    HW234325   2.412   5.844   6.435
10962SOL     OW34326   2.862   7.034   6.054
10962SOL    HW134327   2.834   7.109   6.001
10962SOL    HW234328   2.834   7.055   6.143
10963SOL     OW34329   2.216   7.404   6.462
10963SOL    HW134330   2.261   7.320   6.466
10963SOL    HW234331   2.285   7.468   6.480
10964SOL     OW34332   3.670   6.656   6.457
10964SOL    HW134333   3.624   6.619   6.381
10964SOL    HW234334   3.606   6.654   6.528
10965SOL     OW34335   3.081   7.127   7.102
10965SOL    HW134336   3.074   7.056   7.166
10965SOL    HW234337   3.025   7.100   7.029
10966SOL     OW34338   2.166   6.545   5.840
10966SOL    HW134339   2.251   6.562   5.800
10966SOL    HW234340   2.143   6.456   5.811
10967SOL     OW34341   3.339   6.357   6.317
10967SOL    HW134342   3.339   6.300   6.394
10967SOL    HW234343   3.427   6.396   6.316
10968SOL     OW34344   2.335   6.863   7.329
10968SOL    HW134345   2.309   6.868   7.237
10968SOL    HW234346   2.254   6.852   7.377
10969SOL     OW34347   2.991   7.367   5.806
10969SOL    HW134348   2.914   7.331   5.851
10969SOL    HW234349   3.015   7.300   5.742
10970SOL     OW34350   2.066   5.840   7.088
10970SOL    HW134351   1.984   5.888   7.101
10970SOL    HW234352   2.047   5.752   7.120
10971SOL     OW34353   3.496   6.974   5.680
10971SOL    HW134354   3.450   7.056   5.665
10971SOL    HW234355   3.431   6.906   5.659
10972SOL     OW34356   2.320   7.325   5.902
10972SOL    HW134357   2.369   7.373   5.969
10972SOL    HW234358   2.387   7.284   5.848
10973SOL     OW34359   3.266   5.694   6.024
10973SOL    HW134360   3.262   5.661   5.934
10973SOL    HW234361   3.347   5.659   6.059
10974SOL     OW34362   2.120   7.373   6.808
10974SOL    HW134363   2.169   7.300   6.847
10974SOL    HW234364   2.115   7.351   6.715
10975SOL     OW34365   2.804   7.284   6.479
10975SOL    HW134366   2.888   7.240   6.494
10975SOL    HW234367   2.763   7.234   6.409
10976SOL     OW34368   2.255   6.282   6.055
10976SOL    HW134369   2.272   6.188   6.067
10976SOL    HW234370   2.162   6.291   6.072
10977SOL     OW34371   3.390   5.809   7.313
10977SOL    HW134372   3.388   5.832   7.406
10977SOL    HW234373   3.359   5.719   7.309
10978SOL     OW34374   2.509   5.698   5.692
10978SOL    HW134375   2.559   5.622   5.722
10978SOL    HW234376   2.460   5.666   5.616
10979SOL     OW34377   2.624   5.867   7.351
10979SOL    HW134378   2.707   5.820   7.340
10979SOL    HW234379   2.579   5.819   7.421
10980SOL     OW34380   2.737   7.113   6.784
10980SOL    HW134381   2.721   7.072   6.699
10980SOL    HW234382   2.806   7.061   6.823
10981SOL     OW34383   3.197   6.181   7.024
10981SOL    HW134384   3.230   6.141   7.105
10981SOL    HW234385   3.245   6.263   7.017
10982SOL     OW34386   2.678   6.972   6.538
10982SOL    HW134387   2.764   6.961   6.498
10982SOL    HW234388   2.618   6.981   6.464
10983SOL     OW34389   2.788   6.098   6.483
10983SOL    HW134390   2.766   6.084   6.390
10983SOL    HW234391   2.819   6.012   6.512
10984SOL     OW34392   2.414   5.655   6.082
10984SOL    HW134393   2.335   5.653   6.136
10984SOL    HW234394   2.401   5.729   6.023
10985SOL     OW34395   3.296   6.791   5.623
10985SOL    HW134396   3.327   6.715   5.673
10985SOL    HW234397   3.209   6.809   5.660
10986SOL     OW34398   2.156   5.632   5.775
10986SOL    HW134399   2.221   5.690   5.736
10986SOL    HW234400   2.207   5.566   5.821
10987SOL     OW34401   2.813   5.853   6.045
10987SOL    HW134402   2.793   5.881   5.955
10987SOL    HW234403   2.908   5.855   6.050
10988SOL     OW34404   2.940   6.267   7.038
10988SOL    HW134405   2.884   6.190   7.042
10988SOL    HW234406   3.029   6.233   7.034
10989SOL     OW34407   3.068   7.166   6.387
10989SOL    HW134408   3.089   7.229   6.318
10989SOL    HW234409   3.148   7.161   6.439
10990SOL     OW34410   2.332   6.747   6.308
10990SOL    HW134411   2.269   6.720   6.375
10990SOL    HW234412   2.287   6.733   6.225
10991SOL     OW34413   3.122   7.377   6.203
10991SOL    HW134414   3.169   7.439   6.147
10991SOL    HW234415   3.052   7.429   6.242
10992SOL     OW34416   2.893   6.111   5.614
10992SOL    HW134417   2.850   6.196   5.601
10992SOL    HW234418   2.953   6.125   5.687
10993SOL     OW34419   1.953   6.141   6.973
10993SOL    HW134420   2.045   6.135   6.948
10993SOL    HW234421   1.952   6.207   7.042
10994SOL     OW34422   2.424   5.806   6.757
10994SOL    HW134423   2.469   5.730   6.794
10994SOL    HW234424   2.334   5.798   6.788
10995SOL     OW34425   2.726   6.051   6.222
10995SOL    HW134426   2.690   6.101   6.148
10995SOL    HW234427   2.756   5.969   6.182
10996SOL     OW34428   2.851   5.657   6.344
10996SOL    HW134429   2.819   5.631   6.257
10996SOL    HW234430   2.848   5.576   6.395
10997SOL     OW34431   3.294   6.746   6.436
10997SOL    HW134432   3.234   6.671   6.446
10997SOL    HW234433   3.312   6.750   6.342
10998SOL     OW34434   3.326   6.196   6.548
10998SOL    HW134435   3.267   6.121   6.550
10998SOL    HW234436   3.382   6.183   6.625
10999SOL     OW34437   3.699   6.397   5.974
10999SOL    HW134438   3.756   6.347   6.032
10999SOL    HW234439   3.667   6.333   5.910
11000SOL     OW34440   2.353   7.012   5.738
11000SOL    HW134441   2.274   6.980   5.783
11000SOL    HW234442   2.363   6.954   5.663
11001SOL     OW34443   3.553   6.862   6.210
11001SOL    HW134444   3.646   6.857   6.231
11001SOL    HW234445   3.526   6.948   6.241
11002SOL     OW34446   3.256   6.151   5.663
11002SOL    HW134447   3.189   6.133   5.728
11002SOL    HW234448   3.328   6.092   5.686
11003SOL     OW34449   2.383   5.851   5.892
11003SOL    HW134450   2.439   5.804   5.830
11003SOL    HW234451   2.356   5.929   5.844
11004SOL     OW34452   3.605   6.831   7.142
11004SOL    HW134453   3.687   6.784   7.153
11004SOL    HW234454   3.624   6.921   7.168
11005SOL     OW34455   2.916   6.955   6.931
11005SOL    HW134456   2.839   6.914   6.971
11005SOL    HW234457   2.990   6.903   6.962
11006SOL     OW34458   3.472   7.222   7.254
11006SOL    HW134459   3.460   7.253   7.164
11006SOL    HW234460   3.551   7.168   7.250
11007SOL     OW34461   3.007   6.815   6.687
11007SOL    HW134462   2.931   6.833   6.743
11007SOL    HW234463   2.978   6.841   6.600
11008SOL     OW34464   3.486   6.680   6.659
11008SOL    HW134465   3.477   6.740   6.733
11008SOL    HW234466   3.407   6.694   6.607
11009SOL     OW34467   2.764   5.721   6.954
11009SOL    HW134468   2.788   5.672   6.875
11009SOL    HW234469   2.847   5.739   6.997
11010SOL     OW34470   2.844   6.700   7.306
11010SOL    HW134471   2.752   6.712   7.331
11010SOL    HW234472   2.843   6.620   7.253
11011SOL     OW34473   2.575   6.651   5.957
11011SOL    HW134474   2.562   6.628   6.049
11011SOL    HW234475   2.650   6.598   5.930
11012SOL     OW34476   2.285   6.408   6.841
11012SOL    HW134477   2.352   6.417   6.908
11012SOL    HW234478   2.255   6.317   6.849
11013SOL     OW34479   3.126   5.962   6.870
11013SOL    HW134480   3.158   6.040   6.915
11013SOL    HW234481   3.037   5.985   6.843
11014SOL     OW34482   1.942   7.158   6.946
11014SOL    HW134483   1.915   7.227   6.886
11014SOL    HW234484   2.037   7.153   6.937
11015SOL     OW34485   2.182   6.711   6.076
11015SOL    HW134486   2.191   6.778   6.009
11015SOL    HW234487   2.184   6.628   6.028
11016SOL     OW34488   2.401   6.120   6.447
11016SOL    HW134489   2.417   6.179   6.373
11016SOL    HW234490   2.474   6.135   6.506
11017SOL     OW34491   3.111   6.940   5.976
11017SOL    HW134492   3.167   7.007   6.014
11017SOL    HW234493   3.024   6.959   6.010
11018SOL     OW34494   3.158   7.049   6.731
11018SOL    HW134495   3.210   7.049   6.812
11018SOL    HW234496   3.106   6.969   6.737
11019SOL     OW34497   3.427   6.199   6.078
11019SOL    HW134498   3.378   6.260   6.133
11019SOL    HW234499   3.469   6.254   6.012
11020SOL     OW34500   2.209   7.116   6.892
11020SOL    HW134501   2.199   7.070   6.809
11020SOL    HW234502   2.303   7.129   6.901
11021SOL     OW34503   2.278   6.328   7.192
11021SOL    HW134504   2.344   6.370   7.136
11021SOL    HW234505   2.313   6.239   7.205
11022SOL     OW34506   3.480   6.378   7.278
11022SOL    HW134507   3.392   6.413   7.266
11022SOL    HW234508   3.530   6.413   7.204
11023SOL     OW34509   2.855   5.730   7.336
11023SOL    HW134510   2.918   5.796   7.309
11023SOL    HW234511   2.892   5.647   7.305
11024SOL     OW34512   2.360   5.631   7.340
11024SOL    HW134513   2.317   5.573   7.277
11024SOL    HW234514   2.300   5.704   7.350
11025SOL     OW34515   2.442   6.468   6.616
11025SOL    HW134516   2.487   6.551   6.629
11025SOL    HW234517   2.393   6.454   6.697
11026SOL     OW34518   3.199   6.444   6.605
11026SOL    HW134519   3.114   6.419   6.568
11026SOL    HW234520   3.253   6.365   6.596
11027SOL     OW34521   3.053   6.115   5.844
11027SOL    HW134522   3.070   6.036   5.896
11027SOL    HW234523   3.012   6.176   5.905
11028SOL     OW34524   2.157   5.780   6.829
11028SOL    HW134525   2.127   5.805   6.916
11028SOL    HW234526   2.145   5.685   6.826
11029SOL     OW34527   1.896   6.898   6.857
11029SOL    HW134528   1.933   6.839   6.923
11029SOL    HW234529   1.910   6.985   6.893
11030SOL     OW34530   2.585   6.211   6.633
11030SOL    HW134531   2.661   6.186   6.580
11030SOL    HW234532   2.564   6.300   6.605
11031SOL     OW34533   3.603   6.558   7.447
11031SOL    HW134534   3.570   6.486   7.395
11031SOL    HW234535   3.541   6.567   7.519
11032SOL     OW34536   2.172   5.648   6.217
11032SOL    HW134537   2.152   5.738   6.240
11032SOL    HW234538   2.185   5.604   6.302
11033SOL     OW34539   3.497   5.966   5.942
11033SOL    HW134540   3.526   5.892   5.996
11033SOL    HW234541   3.465   6.030   6.006
11034SOL     OW34542   2.887   6.346   6.545
11034SOL    HW134543   2.877   6.360   6.639
11034SOL    HW234544   2.863   6.254   6.532
11035SOL     OW34545   2.841   7.148   7.315
11035SOL    HW134546   2.822   7.193   7.232
11035SOL    HW234547   2.886   7.068   7.290
11036SOL     OW34548   3.708   7.087   7.193
11036SOL    HW134549   3.732   7.114   7.105
11036SOL    HW234550   3.788   7.095   7.244
11037SOL     OW34551   2.213   6.509   7.389
11037SOL    HW134552   2.290   6.521   7.444
11037SOL    HW234553   2.239   6.442   7.325
11038SOL     OW34554   3.370   5.882   5.713
11038SOL    HW134555   3.320   5.803   5.735
11038SOL    HW234556   3.418   5.903   5.793
11039SOL     OW34557   3.148   6.404   5.616
11039SOL    HW134558   3.189   6.318   5.624
11039SOL    HW234559   3.182   6.440   5.534
11040SOL     OW34560   2.927   6.928   6.445
11040SOL    HW134561   2.933   6.855   6.383
11040SOL    HW234562   2.982   6.997   6.407
11041SOL     OW34563   2.175   6.401   6.529
11041SOL    HW134564   2.269   6.417   6.529
11041SOL    HW234565   2.166   6.310   6.558
11042SOL     OW34566   2.177   6.126   6.593
11042SOL    HW134567   2.144   6.037   6.586
11042SOL    HW234568   2.257   6.126   6.540
11043SOL     OW34569   2.995   5.968   7.264
11043SOL    HW134570   2.952   6.016   7.335
11043SOL    HW234571   3.085   6.002   7.263
11044SOL     OW34572   3.011   5.789   7.054
11044SOL    HW134573   3.006   5.854   7.125
11044SOL    HW234574   3.066   5.831   6.987
11045SOL     OW34575   1.870   6.901   5.781
11045SOL    HW134576   1.782   6.918   5.747
11045SOL    HW234577   1.866   6.811   5.814
11046SOL     OW34578   1.951   7.364   6.529
11046SOL    HW134579   1.922   7.285   6.484
11046SOL    HW234580   2.040   7.379   6.497
11047SOL     OW34581   2.351   7.162   6.489
11047SOL    HW134582   2.421   7.222   6.513
11047SOL    HW234583   2.393   7.099   6.431
11048SOL     OW34584   2.820   6.376   6.813
11048SOL    HW134585   2.881   6.352   6.883
11048SOL    HW234586   2.747   6.315   6.822
11049SOL     OW34587   1.901   6.154   6.699
11049SOL    HW134588   1.979   6.137   6.646
11049SOL    HW234589   1.931   6.145   6.790
11050SOL     OW34590   2.057   6.107   7.325
11050SOL    HW134591   2.114   6.057   7.267
11050SOL    HW234592   2.026   6.180   7.270
11051SOL     OW34593   3.241   6.519   7.244
11051SOL    HW134594   3.264   6.612   7.237
11051SOL    HW234595   3.238   6.487   7.154
11052SOL     OW34596   2.682   6.156   5.953
11052SOL    HW134597   2.694   6.078   5.898
11052SOL    HW234598   2.605   6.198   5.917
11053SOL     OW34599   3.499   6.189   6.767
11053SOL    HW134600   3.490   6.121   6.834
11053SOL    HW234601   3.586   6.175   6.730
11054SOL     OW34602   2.092   7.129   7.311
11054SOL    HW134603   2.075   7.180   7.391
11054SOL    HW234604   2.106   7.039   7.343
11055SOL     OW34605   2.570   6.031   6.840
11055SOL    HW134606   2.521   5.952   6.814
11055SOL    HW234607   2.565   6.088   6.763
11056SOL     OW34608   2.760   7.268   7.076
11056SOL    HW134609   2.752   7.217   6.995
11056SOL    HW234610   2.763   7.359   7.048
11057SOL     OW34611   2.309   6.074   5.748
11057SOL    HW134612   2.377   6.136   5.774
11057SOL    HW234613   2.228   6.125   5.749
11058SOL     OW34614   1.999   6.730   7.056
11058SOL    HW134615   2.006   6.687   7.141
11058SOL    HW234616   2.018   6.661   6.993
11059SOL     OW34617   3.179   6.631   6.801
11059SOL    HW134618   3.194   6.563   6.735
11059SOL    HW234619   3.119   6.692   6.758
11060SOL     OW34620   3.175   6.451   5.889
11060SOL    HW134621   3.111   6.404   5.943
11060SOL    HW234622   3.154   6.426   5.799
11061SOL     OW34623   3.656   7.317   6.756
11061SOL    HW134624   3.711   7.340   6.682
11061SOL    HW234625   3.616   7.233   6.732
11062SOL     OW34626   3.103   7.319   6.696
11062SOL    HW134627   3.185   7.346   6.655
11062SOL    HW234628   3.113   7.226   6.713
11063SOL     OW34629   1.935   6.873   6.585
11063SOL    HW134630   1.917   6.875   6.679
11063SOL    HW234631   1.883   6.800   6.552
11064SOL     OW34632   2.552   7.263   7.329
11064SOL    HW134633   2.492   7.334   7.309
11064SOL    HW234634   2.624   7.272   7.266
11065SOL     OW34635   3.594   5.754   6.094
11065SOL    HW134636   3.661   5.726   6.031
11065SOL    HW234637   3.564   5.673   6.135
11066SOL     OW34638   3.258   7.155   6.086
11066SOL    HW134639   3.312   7.189   6.014
11066SOL    HW234640   3.205   7.229   6.114
11067SOL     OW34641   1.990   7.395   7.431
11067SOL    HW134642   1.948   7.318   7.471
11067SOL    HW234643   2.042   7.433   7.500
11068SOL     OW34644   3.137   6.526   6.266
11068SOL    HW134645   3.209   6.465   6.282
11068SOL    HW234646   3.174   6.592   6.207
11069SOL     OW34647   2.662   6.865   6.997
11069SOL    HW134648   2.633   6.908   7.077
11069SOL    HW234649   2.586   6.871   6.938
11070SOL     OW34650   2.527   7.220   5.743
11070SOL    HW134651   2.545   7.232   5.650
11070SOL    HW234652   2.475   7.139   5.747
11071SOL     OW34653   3.476   7.314   6.984
11071SOL    HW134654   3.534   7.314   6.907
11071SOL    HW234655   3.460   7.407   7.002
11072SOL     OW34656   3.712   5.752   6.549
11072SOL    HW134657   3.742   5.663   6.529
11072SOL    HW234658   3.625   5.758   6.509
11073SOL     OW34659   2.120   5.902   6.303
11073SOL    HW134660   2.033   5.935   6.283
11073SOL    HW234661   2.122   5.896   6.399
11074SOL     OW34662   3.069   7.178   5.622
11074SOL    HW134663   3.058   7.087   5.651
11074SOL    HW234664   3.001   7.191   5.556
11075SOL     OW34665   2.683   6.588   6.967
11075SOL    HW134666   2.733   6.562   6.890
11075SOL    HW234667   2.689   6.684   6.968
11076SOL     OW34668   2.783   6.503   5.873
11076SOL    HW134669   2.847   6.536   5.809
11076SOL    HW234670   2.829   6.434   5.920
11077SOL     OW34671   3.344   7.231   5.636
11077SOL    HW134672   3.253   7.209   5.620
11077SOL    HW234673   3.385   7.232   5.549
11078SOL     OW34674   2.222   6.898   7.087
11078SOL    HW134675   2.217   6.968   7.021
11078SOL    HW234676   2.149   6.840   7.065
11079SOL     OW34677   3.469   6.870   6.868
11079SOL    HW134678   3.523   6.847   6.943
11079SOL    HW234679   3.407   6.935   6.902
11080SOL     OW34680   2.924   6.701   6.302
11080SOL    HW134681   2.852   6.648   6.336
11080SOL    HW234682   2.992   6.637   6.280
11081SOL     OW34683   2.881   5.832   6.560
11081SOL    HW134684   2.871   5.788   6.476
11081SOL    HW234685   2.882   5.761   6.624
11082SOL     OW34686   2.470   7.070   6.062
11082SOL    HW134687   2.526   7.021   6.003
11082SOL    HW234688   2.391   7.087   6.012
11083SOL     OW34689   3.598   5.976   6.964
11083SOL    HW134690   3.672   6.036   6.960
11083SOL    HW234691   3.623   5.903   6.907
11084SOL     OW34692   2.126   6.928   5.875
11084SOL    HW134693   2.034   6.922   5.850
11084SOL    HW234694   2.125   6.970   5.961
11085SOL     OW34695   1.980   6.638   7.320
11085SOL    HW134696   1.904   6.604   7.367
11085SOL    HW234697   2.054   6.586   7.353
11086SOL     OW34698   2.535   5.800   7.088
11086SOL    HW134699   2.614   5.778   7.039
11086SOL    HW234700   2.565   5.819   7.176
11087SOL     OW34701   1.940   5.917   5.629
11087SOL    HW134702   1.865   5.885   5.578
11087SOL    HW234703   1.971   5.993   5.580
11088SOL     OW34704   3.288   6.451   6.986
11088SOL    HW134705   3.237   6.507   6.927
11088SOL    HW234706   3.375   6.446   6.944
11089SOL     OW34707   1.922   5.739   5.875
11089SOL    HW134708   1.914   5.811   5.813
11089SOL    HW234709   2.009   5.703   5.859
11090SOL     OW34710   3.043   6.910   5.707
11090SOL    HW134711   2.968   6.851   5.711
11090SOL    HW234712   3.072   6.918   5.798
11091SOL     OW34713   2.478   6.421   7.028
11091SOL    HW134714   2.540   6.492   7.013
11091SOL    HW234715   2.533   6.342   7.032
11092SOL     OW34716   3.346   7.384   6.582
11092SOL    HW134717   3.374   7.445   6.513
11092SOL    HW234718   3.421   7.328   6.596
11093SOL     OW34719   2.580   6.137   7.292
11093SOL    HW134720   2.634   6.189   7.352
11093SOL    HW234721   2.595   6.046   7.318
11094SOL     OW34722   3.334   6.781   7.212
11094SOL    HW134723   3.327   6.794   7.307
11094SOL    HW234724   3.426   6.798   7.192
11095SOL     OW34725   2.229   7.326   7.159
11095SOL    HW134726   2.146   7.372   7.143
11095SOL    HW234727   2.203   7.242   7.196
11096SOL     OW34728   3.524   6.458   6.842
11096SOL    HW134729   3.522   6.369   6.807
11096SOL    HW234730   3.518   6.515   6.766
11097SOL     OW34731   3.090   5.912   6.035
11097SOL    HW134732   3.148   5.837   6.027
11097SOL    HW234733   3.121   5.957   6.114
11098SOL     OW34734   2.437   6.325   6.264
11098SOL    HW134735   2.484   6.406   6.244
11098SOL    HW234736   2.378   6.313   6.189
11099SOL     OW34737   3.606   5.967   7.243
11099SOL    HW134738   3.601   5.972   7.147
11099SOL    HW234739   3.541   5.900   7.266
11100SOL     OW34740   3.620   6.522   7.090
11100SOL    HW134741   3.596   6.614   7.094
11100SOL    HW234742   3.599   6.495   7.001
11101SOL     OW34743   2.700   6.956   5.628
11101SOL    HW134744   2.686   6.974   5.721
11101SOL    HW234745   2.737   7.038   5.594
11102SOL     OW34746   2.527   7.369   6.519
11102SOL    HW134747   2.514   7.462   6.500
11102SOL    HW234748   2.622   7.356   6.514
11103SOL     OW34749   2.730   6.558   6.439
11103SOL    HW134750   2.780   6.483   6.471
11103SOL    HW234751   2.689   6.594   6.516
11104SOL     OW34752   2.948   6.588   5.672
11104SOL    HW134753   2.923   6.625   5.587
11104SOL    HW234754   3.016   6.524   5.651
11105SOL     OW34755   3.714   7.133   6.429
11105SOL    HW134756   3.630   7.117   6.385
11105SOL    HW234757   3.731   7.052   6.477
11106SOL     OW34758   2.080   6.874   7.429
11106SOL    HW134759   2.041   6.798   7.387
11106SOL    HW234760   2.034   6.881   7.513
11107SOL     OW34761   1.966   6.813   6.250
11107SOL    HW134762   1.987   6.770   6.332
11107SOL    HW234763   2.026   6.774   6.186
11108SOL     OW34764   2.547   6.999   7.209
11108SOL    HW134765   2.474   6.954   7.251
11108SOL    HW234766   2.552   7.084   7.253
11109SOL     OW34767   3.671   5.761   6.821
11109SOL    HW134768   3.669   5.667   6.838
11109SOL    HW234769   3.685   5.768   6.726
11110SOL     OW34770   2.282   6.021   6.103
11110SOL    HW134771   2.321   5.952   6.049
11110SOL    HW234772   2.241   5.974   6.175
11111SOL     OW34773   3.539   7.082   6.688
11111SOL    HW134774   3.471   7.056   6.626
11111SOL    HW234775   3.548   7.008   6.748
11112SOL     OW34776   2.208   6.146   6.880
11112SOL    HW134777   2.257   6.089   6.938
11112SOL    HW234778   2.224   6.112   6.793
11113SOL     OW34779   2.695   7.171   6.257
11113SOL    HW134780   2.671   7.242   6.198
11113SOL    HW234781   2.619   7.112   6.255
11114SOL     OW34782   3.290   5.805   6.679
11114SOL    HW134783   3.308   5.711   6.684
11114SOL    HW234784   3.252   5.827   6.764
11115SOL     OW34785   2.868   5.601   6.718
11115SOL    HW134786   2.821   5.535   6.667
11115SOL    HW234787   2.956   5.565   6.729
11116SOL     OW34788   2.644   6.920   5.910
11116SOL    HW134789   2.618   6.828   5.918
11116SOL    HW234790   2.726   6.926   5.960
11117SOL     OW34791   2.480   7.149   6.870
11117SOL    HW134792   2.479   7.233   6.916
11117SOL    HW234793   2.570   7.141   6.838
11118SOL     OW34794   3.234   5.644   5.748
11118SOL    HW134795   3.277   5.567   5.712
11118SOL    HW234796   3.144   5.615   5.764
11119SOL     OW34797   3.158   6.058   6.263
11119SOL    HW134798   3.099   6.134   6.268
11119SOL    HW234799   3.153   6.019   6.349
11120SOL     OW34800   3.462   5.789   6.458
11120SOL    HW134801   3.397   5.801   6.528
11120SOL    HW234802   3.454   5.868   6.404
11121SOL     OW34803   1.903   6.646   5.893
11121SOL    HW134804   1.996   6.635   5.872
11121SOL    HW234805   1.873   6.558   5.915
11122SOL     OW34806   2.756   7.250   5.914
11122SOL    HW134807   2.679   7.232   5.861
11122SOL    HW234808   2.727   7.313   5.979
11123SOL     OW34809   2.082   6.227   7.578
11123SOL    HW134810   1.997   6.200   7.613
11123SOL    HW234811   2.080   6.198   7.486
11124SOL     OW34812   2.078   5.881   8.446
11124SOL    HW134813   2.113   5.838   8.524
11124SOL    HW234814   1.992   5.840   8.433
11125SOL     OW34815   1.864   5.972   8.086
11125SOL    HW134816   1.780   5.987   8.130
11125SOL    HW234817   1.847   5.897   8.028
11126SOL     OW34818   2.433   6.890   8.644
11126SOL    HW134819   2.351   6.894   8.595
11126SOL    HW234820   2.451   6.981   8.669
11127SOL     OW34821   3.443   7.107   8.156
11127SOL    HW134822   3.397   7.074   8.233
11127SOL    HW234823   3.377   7.106   8.087
11128SOL     OW34824   2.994   6.292   8.139
11128SOL    HW134825   3.042   6.374   8.130
11128SOL    HW234826   2.947   6.300   8.222
11129SOL     OW34827   3.596   6.192   7.693
11129SOL    HW134828   3.590   6.191   7.597
11129SOL    HW234829   3.581   6.101   7.719
11130SOL     OW34830   2.600   6.720   8.503
11130SOL    HW134831   2.539   6.761   8.564
11130SOL    HW234832   2.638   6.793   8.455
11131SOL     OW34833   2.747   6.342   9.276
11131SOL    HW134834   2.739   6.417   9.335
11131SOL    HW234835   2.766   6.381   9.190
11132SOL     OW34836   2.547   6.584   8.089
11132SOL    HW134837   2.614   6.574   8.158
11132SOL    HW234838   2.480   6.638   8.129
11133SOL     OW34839   2.575   6.734   9.274
11133SOL    HW134840   2.624   6.810   9.304
11133SOL    HW234841   2.498   6.771   9.230
11134SOL     OW34842   2.193   6.998   8.513
11134SOL    HW134843   2.119   6.958   8.467
11134SOL    HW234844   2.238   7.050   8.446
11135SOL     OW34845   3.314   7.083   8.820
11135SOL    HW134846   3.368   7.161   8.829
11135SOL    HW234847   3.243   7.095   8.882
11136SOL     OW34848   2.310   5.981   8.939
11136SOL    HW134849   2.390   5.928   8.940
11136SOL    HW234850   2.240   5.917   8.949
11137SOL     OW34851   3.459   6.031   8.189
11137SOL    HW134852   3.379   6.031   8.137
11137SOL    HW234853   3.495   6.119   8.175
11138SOL     OW34854   2.080   7.311   7.915
11138SOL    HW134855   2.106   7.384   7.971
11138SOL    HW234856   2.154   7.299   7.855
11139SOL     OW34857   3.000   6.928   9.147
11139SOL    HW134858   3.042   6.915   9.232
11139SOL    HW234859   2.949   6.848   9.133
11140SOL     OW34860   2.098   7.038   7.983
11140SOL    HW134861   2.075   7.130   7.987
11140SOL    HW234862   2.043   6.996   8.050
11141SOL     OW34863   2.127   6.675   8.335
11141SOL    HW134864   2.137   6.585   8.365
11141SOL    HW234865   2.072   6.717   8.402
11142SOL     OW34866   2.452   7.384   8.870
11142SOL    HW134867   2.374   7.364   8.921
11142SOL    HW234868   2.479   7.471   8.901
11143SOL     OW34869   2.430   6.574   7.594
11143SOL    HW134870   2.482   6.613   7.524
11143SOL    HW234871   2.473   6.603   7.675
11144SOL     OW34872   3.439   5.729   8.900
11144SOL    HW134873   3.483   5.800   8.854
11144SOL    HW234874   3.426   5.762   8.989
11145SOL     OW34875   1.977   6.244   8.008
11145SOL    HW134876   1.956   6.153   8.028
11145SOL    HW234877   1.973   6.288   8.093
11146SOL     OW34878   3.704   7.338   7.774
11146SOL    HW134879   3.777   7.316   7.832
11146SOL    HW234880   3.722   7.428   7.747
11147SOL     OW34881   1.908   7.174   7.564
11147SOL    HW134882   1.892   7.081   7.582
11147SOL    HW234883   1.880   7.219   7.644
11148SOL     OW34884   3.567   6.510   8.102
11148SOL    HW134885   3.635   6.447   8.075
11148SOL    HW234886   3.536   6.549   8.021
11149SOL     OW34887   3.513   6.685   7.878
11149SOL    HW134888   3.599   6.679   7.837
11149SOL    HW234889   3.523   6.749   7.947
11150SOL     OW34890   1.992   6.326   9.035
11150SOL    HW134891   2.084   6.353   9.032
11150SOL    HW234892   1.943   6.407   9.022
11151SOL     OW34893   2.473   6.980   8.186
11151SOL    HW134894   2.432   6.894   8.190
11151SOL    HW234895   2.462   7.008   8.094
11152SOL     OW34896   3.141   6.820   8.869
11152SOL    HW134897   3.166   6.751   8.808
11152SOL    HW234898   3.203   6.811   8.942
11153SOL     OW34899   2.688   5.608   7.967
11153SOL    HW134900   2.727   5.691   7.939
11153SOL    HW234901   2.594   5.624   7.967
11154SOL     OW34902   2.046   6.543   8.732
11154SOL    HW134903   2.134   6.507   8.721
11154SOL    HW234904   1.994   6.499   8.666
11155SOL     OW34905   3.391   6.590   7.648
11155SOL    HW134906   3.324   6.528   7.677
11155SOL    HW234907   3.436   6.617   7.728
11156SOL     OW34908   3.046   7.397   9.081
11156SOL    HW134909   3.045   7.458   9.007
11156SOL    HW234910   3.059   7.311   9.041
11157SOL     OW34911   2.202   5.837   9.298
11157SOL    HW134912   2.252   5.917   9.317
11157SOL    HW234913   2.111   5.861   9.316
11158SOL     OW34914   3.318   7.012   8.380
11158SOL    HW134915   3.257   7.023   8.453
11158SOL    HW234916   3.310   6.920   8.355
11159SOL     OW34917   3.510   7.348   8.023
11159SOL    HW134918   3.491   7.315   7.936
11159SOL    HW234919   3.498   7.272   8.081
11160SOL     OW34920   2.455   6.296   7.719
11160SOL    HW134921   2.457   6.381   7.674
11160SOL    HW234922   2.389   6.307   7.788
11161SOL     OW34923   3.136   5.964   8.384
11161SOL    HW134924   3.050   5.922   8.391
11161SOL    HW234925   3.194   5.909   8.437
11162SOL     OW34926   3.437   7.267   7.762
11162SOL    HW134927   3.531   7.283   7.751
11162SOL    HW234928   3.406   7.250   7.673
11163SOL     OW34929   2.636   6.204   8.898
11163SOL    HW134930   2.617   6.170   8.986
11163SOL    HW234931   2.614   6.131   8.839
11164SOL     OW34932   3.255   6.059   9.124
11164SOL    HW134933   3.265   6.099   9.210
11164SOL    HW234934   3.305   5.977   9.130
11165SOL     OW34935   2.813   6.465   9.037
11165SOL    HW134936   2.864   6.395   8.996
11165SOL    HW234937   2.759   6.500   8.965
11166SOL     OW34938   2.857   6.003   8.668
11166SOL    HW134939   2.766   6.002   8.695
11166SOL    HW234940   2.859   5.948   8.590
11167SOL     OW34941   2.916   6.289   7.871
11167SOL    HW134942   2.936   6.280   7.964
11167SOL    HW234943   2.834   6.241   7.859
11168SOL     OW34944   1.950   6.405   8.232
11168SOL    HW134945   2.033   6.397   8.279
11168SOL    HW234946   1.910   6.484   8.268
11169SOL     OW34947   1.986   7.459   9.031
11169SOL    HW134948   1.986   7.440   9.125
11169SOL    HW234949   1.908   7.415   8.998
11170SOL     OW34950   2.759   5.938   7.646
11170SOL    HW134951   2.804   5.995   7.583
11170SOL    HW234952   2.751   5.854   7.602
11171SOL     OW34953   3.570   6.167   9.288
11171SOL    HW134954   3.537   6.238   9.233
11171SOL    HW234955   3.591   6.097   9.226
11172SOL     OW34956   3.250   6.732   7.987
11172SOL    HW134957   3.326   6.710   7.934
11172SOL    HW234958   3.196   6.788   7.931
11173SOL     OW34959   2.399   5.758   8.344
11173SOL    HW134960   2.414   5.789   8.433
11173SOL    HW234961   2.412   5.835   8.289
11174SOL     OW34962   2.865   7.038   7.919
11174SOL    HW134963   2.835   7.109   7.862
11174SOL    HW234964   2.830   7.060   8.005
11175SOL     OW34965   2.217   7.405   8.324
11175SOL    HW134966   2.263   7.320   8.328
11175SOL    HW234967   2.286   7.470   8.341
11176SOL     OW34968   3.674   6.654   8.319
11176SOL    HW134969   3.630   6.617   8.242
11176SOL    HW234970   3.609   6.650   8.389
11177SOL     OW34971   3.081   7.128   8.966
11177SOL    HW134972   3.074   7.057   9.030
11177SOL    HW234973   3.022   7.102   8.895
11178SOL     OW34974   2.166   6.544   7.702
11178SOL    HW134975   2.250   6.563   7.661
11178SOL    HW234976   2.141   6.458   7.667
11179SOL     OW34977   3.334   6.366   8.195
11179SOL    HW134978   3.339   6.302   8.265
11179SOL    HW234979   3.425   6.391   8.179
11180SOL     OW34980   2.334   6.864   9.191
11180SOL    HW134981   2.308   6.869   9.099
11180SOL    HW234982   2.251   6.854   9.239
11181SOL     OW34983   2.992   7.362   7.674
11181SOL    HW134984   2.913   7.327   7.715
11181SOL    HW234985   3.016   7.298   7.607
11182SOL     OW34986   2.068   5.841   8.949
11182SOL    HW134987   1.985   5.888   8.942
11182SOL    HW234988   2.045   5.754   8.982
11183SOL     OW34989   3.493   6.977   7.552
11183SOL    HW134990   3.450   7.059   7.526
11183SOL    HW234991   3.432   6.909   7.527
11184SOL     OW34992   2.320   7.326   7.762
11184SOL    HW134993   2.371   7.373   7.828
11184SOL    HW234994   2.386   7.284   7.707
11185SOL     OW34995   3.262   5.692   7.886
11185SOL    HW134996   3.254   5.664   7.795
11185SOL    HW234997   3.350   5.666   7.912
11186SOL     OW34998   2.121   7.373   8.669
11186SOL    HW134999   2.169   7.298   8.704
11186SOL    HW235000   2.109   7.353   8.576
11187SOL     OW35001   2.808   7.283   8.338
11187SOL    HW135002   2.893   7.241   8.345
11187SOL    HW235003   2.762   7.234   8.270
11188SOL     OW35004   2.257   6.280   7.919
11188SOL    HW135005   2.274   6.187   7.930
11188SOL    HW235006   2.162   6.289   7.933
11189SOL     OW35007   3.387   5.810   9.173
11189SOL    HW135008   3.386   5.832   9.266
11189SOL    HW235009   3.354   5.720   9.170
11190SOL     OW35010   2.512   5.694   7.554
11190SOL    HW135011   2.563   5.616   7.576
11190SOL    HW235012   2.459   5.667   7.479
11191SOL     OW35013   2.624   5.866   9.212
11191SOL    HW135014   2.707   5.820   9.203
11191SOL    HW235015   2.579   5.820   9.283
11192SOL     OW35016   2.737   7.114   8.646
11192SOL    HW135017   2.721   7.074   8.560
11192SOL    HW235018   2.807   7.062   8.684
11193SOL     OW35019   3.195   6.180   8.884
11193SOL    HW135020   3.229   6.142   8.965
11193SOL    HW235021   3.243   6.263   8.875
11194SOL     OW35022   2.677   6.973   8.399
11194SOL    HW135023   2.762   6.961   8.359
11194SOL    HW235024   2.616   6.982   8.326
11195SOL     OW35025   2.785   6.096   8.343
11195SOL    HW135026   2.763   6.085   8.250
11195SOL    HW235027   2.818   6.011   8.370
11196SOL     OW35028   2.419   5.656   7.945
11196SOL    HW135029   2.336   5.651   7.993
11196SOL    HW235030   2.406   5.727   7.883
11197SOL     OW35031   3.299   6.792   7.486
11197SOL    HW135032   3.329   6.715   7.534
11197SOL    HW235033   3.210   6.808   7.519
11198SOL     OW35034   2.150   5.633   7.633
11198SOL    HW135035   2.207   5.688   7.579
11198SOL    HW235036   2.210   5.572   7.676
11199SOL     OW35037   2.811   5.848   7.903
11199SOL    HW135038   2.789   5.877   7.815
11199SOL    HW235039   2.907   5.855   7.907
11200SOL     OW35040   2.938   6.267   8.898
11200SOL    HW135041   2.883   6.189   8.900
11200SOL    HW235042   3.027   6.233   8.893
11201SOL     OW35043   3.065   7.171   8.252
11201SOL    HW135044   3.086   7.233   8.183
11201SOL    HW235045   3.149   7.149   8.292
11202SOL     OW35046   2.333   6.745   8.169
11202SOL    HW135047   2.268   6.719   8.235
11202SOL    HW235048   2.289   6.732   8.085
11203SOL     OW35049   3.123   7.380   8.068
11203SOL    HW135050   3.170   7.438   8.008
11203SOL    HW235051   3.051   7.432   8.102
11204SOL     OW35052   2.892   6.114   7.479
11204SOL    HW135053   2.851   6.199   7.461
11204SOL    HW235054   2.956   6.132   7.547
11205SOL     OW35055   1.957   6.136   8.842
11205SOL    HW135056   2.048   6.135   8.813
11205SOL    HW235057   1.953   6.205   8.908
11206SOL     OW35058   2.425   5.810   8.618
11206SOL    HW135059   2.468   5.730   8.650
11206SOL    HW235060   2.334   5.801   8.646
11207SOL     OW35061   2.726   6.047   8.081
11207SOL    HW135062   2.690   6.099   8.009
11207SOL    HW235063   2.756   5.966   8.040
11208SOL     OW35064   2.855   5.654   8.203
11208SOL    HW135065   2.807   5.637   8.121
11208SOL    HW235066   2.849   5.573   8.252
11209SOL     OW35067   3.299   6.751   8.298
11209SOL    HW135068   3.236   6.679   8.301
11209SOL    HW235069   3.328   6.753   8.206
11210SOL     OW35070   3.317   6.205   8.425
11210SOL    HW135071   3.270   6.123   8.412
11210SOL    HW235072   3.380   6.186   8.494
11211SOL     OW35073   3.700   6.399   7.836
11211SOL    HW135074   3.758   6.346   7.891
11211SOL    HW235075   3.663   6.338   7.773
11212SOL     OW35076   2.352   7.012   7.598
11212SOL    HW135077   2.276   6.978   7.645
11212SOL    HW235078   2.360   6.956   7.521
11213SOL     OW35079   3.549   6.857   8.081
11213SOL    HW135080   3.643   6.853   8.095
11213SOL    HW235081   3.525   6.947   8.102
11214SOL     OW35082   3.259   6.154   7.524
11214SOL    HW135083   3.192   6.132   7.589
11214SOL    HW235084   3.332   6.096   7.543
11215SOL     OW35085   2.389   5.849   7.755
11215SOL    HW135086   2.439   5.800   7.690
11215SOL    HW235087   2.359   5.928   7.708
11216SOL     OW35088   3.605   6.832   9.002
11216SOL    HW135089   3.690   6.787   9.005
11216SOL    HW235090   3.624   6.920   9.033
11217SOL     OW35091   2.916   6.961   8.799
11217SOL    HW135092   2.838   6.918   8.835
11217SOL    HW235093   2.989   6.906   8.826
11218SOL     OW35094   3.473   7.224   9.117
11218SOL    HW135095   3.459   7.250   9.026
11218SOL    HW235096   3.551   7.169   9.115
11219SOL     OW35097   3.005   6.818   8.549
11219SOL    HW135098   2.924   6.821   8.598
11219SOL    HW235099   2.981   6.843   8.460
11220SOL     OW35100   3.487   6.679   8.520
11220SOL    HW135101   3.475   6.739   8.595
11220SOL    HW235102   3.409   6.693   8.466
11221SOL     OW35103   2.770   5.688   8.829
11221SOL    HW135104   2.793   5.658   8.741
11221SOL    HW235105   2.851   5.720   8.866
11222SOL     OW35106   2.845   6.699   9.168
11222SOL    HW135107   2.753   6.713   9.192
11222SOL    HW235108   2.845   6.620   9.114
11223SOL     OW35109   2.574   6.650   7.819
11223SOL    HW135110   2.561   6.626   7.911
11223SOL    HW235111   2.651   6.599   7.792
11224SOL     OW35112   2.284   6.411   8.705
11224SOL    HW135113   2.353   6.419   8.771
11224SOL    HW235114   2.255   6.319   8.712
11225SOL     OW35115   3.124   5.957   8.736
11225SOL    HW135116   3.158   6.037   8.777
11225SOL    HW235117   3.036   5.981   8.706
11226SOL     OW35118   1.941   7.157   8.807
11226SOL    HW135119   1.911   7.225   8.747
11226SOL    HW235120   2.036   7.155   8.796
11227SOL     OW35121   2.184   6.711   7.936
11227SOL    HW135122   2.191   6.779   7.869
11227SOL    HW235123   2.186   6.629   7.887
11228SOL     OW35124   2.402   6.123   8.312
11228SOL    HW135125   2.415   6.181   8.238
11228SOL    HW235126   2.480   6.136   8.367
11229SOL     OW35127   3.110   6.938   7.840
11229SOL    HW135128   3.167   7.006   7.875
11229SOL    HW235129   3.023   6.960   7.873
11230SOL     OW35130   3.156   7.049   8.594
11230SOL    HW135131   3.206   7.046   8.676
11230SOL    HW235132   3.101   6.971   8.597
11231SOL     OW35133   3.454   6.208   7.950
11231SOL    HW135134   3.376   6.262   7.953
11231SOL    HW235135   3.495   6.229   7.865
11232SOL     OW35136   2.209   7.117   8.753
11232SOL    HW135137   2.199   7.070   8.670
11232SOL    HW235138   2.304   7.130   8.761
11233SOL     OW35139   2.278   6.326   9.053
11233SOL    HW135140   2.343   6.371   8.998
11233SOL    HW235141   2.313   6.238   9.064
11234SOL     OW35142   3.480   6.377   9.140
11234SOL    HW135143   3.392   6.413   9.128
11234SOL    HW235144   3.530   6.411   9.066
11235SOL     OW35145   2.856   5.730   9.204
11235SOL    HW135146   2.917   5.798   9.178
11235SOL    HW235147   2.897   5.648   9.175
11236SOL     OW35148   2.358   5.628   9.206
11236SOL    HW135149   2.315   5.571   9.143
11236SOL    HW235150   2.297   5.702   9.216
11237SOL     OW35151   2.448   6.464   8.481
11237SOL    HW135152   2.489   6.550   8.490
11237SOL    HW235153   2.393   6.455   8.559
11238SOL     OW35154   3.197   6.447   8.473
11238SOL    HW135155   3.119   6.430   8.421
11238SOL    HW235156   3.250   6.368   8.464
11239SOL     OW35157   3.058   6.114   7.708
11239SOL    HW135158   3.070   6.034   7.759
11239SOL    HW235159   3.014   6.174   7.769
11240SOL     OW35160   2.160   5.779   8.691
11240SOL    HW135161   2.131   5.803   8.779
11240SOL    HW235162   2.147   5.684   8.686
11241SOL     OW35163   1.890   6.897   8.723
11241SOL    HW135164   1.931   6.840   8.788
11241SOL    HW235165   1.907   6.986   8.755
11242SOL     OW35166   2.590   6.214   8.502
11242SOL    HW135167   2.661   6.192   8.443
11242SOL    HW235168   2.561   6.301   8.474
11243SOL     OW35169   3.604   6.557   9.310
11243SOL    HW135170   3.569   6.485   9.257
11243SOL    HW235171   3.540   6.567   9.381
11244SOL     OW35172   2.174   5.645   8.077
11244SOL    HW135173   2.152   5.736   8.099
11244SOL    HW235174   2.185   5.602   8.162
11245SOL     OW35175   3.489   5.960   7.811
11245SOL    HW135176   3.526   5.885   7.859
11245SOL    HW235177   3.468   6.023   7.880
11246SOL     OW35178   2.883   6.346   8.403
11246SOL    HW135179   2.878   6.360   8.498
11246SOL    HW235180   2.861   6.254   8.391
11247SOL     OW35181   2.841   7.149   9.176
11247SOL    HW135182   2.822   7.192   9.093
11247SOL    HW235183   2.886   7.068   9.151
11248SOL     OW35184   3.708   7.089   9.058
11248SOL    HW135185   3.734   7.114   8.970
11248SOL    HW235186   3.788   7.095   9.110
11249SOL     OW35187   2.212   6.502   9.255
11249SOL    HW135188   2.292   6.519   9.306
11249SOL    HW235189   2.239   6.438   9.190
11250SOL     OW35190   3.363   5.876   7.577
11250SOL    HW135191   3.314   5.797   7.597
11250SOL    HW235192   3.411   5.897   7.658
11251SOL     OW35193   3.152   6.407   7.480
11251SOL    HW135194   3.193   6.321   7.485
11251SOL    HW235195   3.183   6.444   7.397
11252SOL     OW35196   2.927   6.929   8.307
11252SOL    HW135197   2.931   6.855   8.246
11252SOL    HW235198   2.978   6.998   8.266
11253SOL     OW35199   2.175   6.401   8.393
11253SOL    HW135200   2.269   6.415   8.384
11253SOL    HW235201   2.168   6.310   8.423
11254SOL     OW35202   2.181   6.126   8.461
11254SOL    HW135203   2.146   6.037   8.450
11254SOL    HW235204   2.260   6.127   8.407
11255SOL     OW35205   2.995   5.964   9.131
11255SOL    HW135206   2.952   6.015   9.199
11255SOL    HW235207   3.083   6.000   9.126
11256SOL     OW35208   3.010   5.784   8.919
11256SOL    HW135209   3.005   5.848   8.990
11256SOL    HW235210   3.063   5.827   8.851
11257SOL     OW35211   1.875   6.900   7.641
11257SOL    HW135212   1.787   6.918   7.610
11257SOL    HW235213   1.870   6.811   7.677
11258SOL     OW35214   1.954   7.363   8.395
11258SOL    HW135215   1.923   7.285   8.347
11258SOL    HW235216   2.042   7.378   8.360
11259SOL     OW35217   2.352   7.163   8.354
11259SOL    HW135218   2.423   7.223   8.377
11259SOL    HW235219   2.392   7.100   8.294
11260SOL     OW35220   2.820   6.378   8.673
11260SOL    HW135221   2.879   6.352   8.744
11260SOL    HW235222   2.747   6.317   8.679
11261SOL     OW35223   1.899   6.147   8.564
11261SOL    HW135224   1.974   6.132   8.506
11261SOL    HW235225   1.936   6.141   8.653
11262SOL     OW35226   2.060   6.104   9.184
11262SOL    HW135227   2.114   6.053   9.123
11262SOL    HW235228   2.028   6.178   9.133
11263SOL     OW35229   3.242   6.519   9.106
11263SOL    HW135230   3.264   6.611   9.098
11263SOL    HW235231   3.239   6.487   9.015
11264SOL     OW35232   2.682   6.156   7.817
11264SOL    HW135233   2.694   6.080   7.760
11264SOL    HW235234   2.606   6.201   7.781
11265SOL     OW35235   3.502   6.189   8.634
11265SOL    HW135236   3.494   6.118   8.699
11265SOL    HW235237   3.588   6.175   8.595
11266SOL     OW35238   2.094   7.130   9.172
11266SOL    HW135239   2.075   7.184   9.249
11266SOL    HW235240   2.106   7.042   9.207
11267SOL     OW35241   2.576   6.028   8.701
11267SOL    HW135242   2.524   5.952   8.674
11267SOL    HW235243   2.570   6.089   8.628
11268SOL     OW35244   2.762   7.267   8.936
11268SOL    HW135245   2.755   7.216   8.855
11268SOL    HW235246   2.762   7.358   8.907
11269SOL     OW35247   2.311   6.076   7.620
11269SOL    HW135248   2.379   6.139   7.643
11269SOL    HW235249   2.230   6.127   7.615
11270SOL     OW35250   1.997   6.731   8.922
11270SOL    HW135251   2.006   6.688   9.007
11270SOL    HW235252   2.016   6.661   8.858
11271SOL     OW35253   3.178   6.634   8.665
11271SOL    HW135254   3.192   6.565   8.600
11271SOL    HW235255   3.119   6.696   8.622
11272SOL     OW35256   3.175   6.442   7.754
11272SOL    HW135257   3.103   6.400   7.801
11272SOL    HW235258   3.158   6.424   7.662
11273SOL     OW35259   3.664   7.299   8.600
11273SOL    HW135260   3.708   7.302   8.514
11273SOL    HW235261   3.607   7.222   8.595
11274SOL     OW35262   3.107   7.323   8.570
11274SOL    HW135263   3.188   7.346   8.524
11274SOL    HW235264   3.112   7.229   8.582
11275SOL     OW35265   1.938   6.864   8.451
11275SOL    HW135266   1.915   6.870   8.544
11275SOL    HW235267   1.882   6.796   8.416
11276SOL     OW35268   2.550   7.262   9.190
11276SOL    HW135269   2.489   7.333   9.171
11276SOL    HW235270   2.620   7.273   9.126
11277SOL     OW35271   3.605   5.755   7.951
11277SOL    HW135272   3.668   5.730   7.883
11277SOL    HW235273   3.576   5.671   7.988
11278SOL     OW35274   3.260   7.154   7.948
11278SOL    HW135275   3.313   7.187   7.875
11278SOL    HW235276   3.204   7.228   7.972
11279SOL     OW35277   1.993   7.392   9.292
11279SOL    HW135278   1.950   7.318   9.334
11279SOL    HW235279   2.044   7.432   9.362
11280SOL     OW35280   3.135   6.530   8.130
11280SOL    HW135281   3.207   6.470   8.151
11280SOL    HW235282   3.173   6.593   8.069
11281SOL     OW35283   2.661   6.865   8.859
11281SOL    HW135284   2.632   6.908   8.940
11281SOL    HW235285   2.587   6.874   8.799
11282SOL     OW35286   2.528   7.218   7.603
11282SOL    HW135287   2.546   7.231   7.510
11282SOL    HW235288   2.475   7.139   7.607
11283SOL     OW35289   3.476   7.309   8.847
11283SOL    HW135290   3.526   7.303   8.765
11283SOL    HW235291   3.466   7.403   8.862
11284SOL     OW35292   3.709   5.754   8.414
11284SOL    HW135293   3.739   5.665   8.395
11284SOL    HW235294   3.622   5.760   8.374
11285SOL     OW35295   2.120   5.898   8.165
11285SOL    HW135296   2.034   5.931   8.141
11285SOL    HW235297   2.120   5.895   8.260
11286SOL     OW35298   3.069   7.179   7.485
11286SOL    HW135299   3.059   7.087   7.510
11286SOL    HW235300   3.003   7.192   7.417
11287SOL     OW35301   2.683   6.589   8.830
11287SOL    HW135302   2.730   6.563   8.751
11287SOL    HW235303   2.687   6.684   8.830
11288SOL     OW35304   2.787   6.507   7.741
11288SOL    HW135305   2.848   6.537   7.673
11288SOL    HW235306   2.833   6.435   7.784
11289SOL     OW35307   3.343   7.237   7.498
11289SOL    HW135308   3.252   7.212   7.481
11289SOL    HW235309   3.385   7.236   7.412
11290SOL     OW35310   2.222   6.899   8.948
11290SOL    HW135311   2.219   6.969   8.883
11290SOL    HW235312   2.149   6.841   8.926
11291SOL     OW35313   3.468   6.868   8.736
11291SOL    HW135314   3.519   6.842   8.812
11291SOL    HW235315   3.403   6.929   8.770
11292SOL     OW35316   2.922   6.702   8.166
11292SOL    HW135317   2.850   6.648   8.197
11292SOL    HW235318   2.990   6.640   8.142
11293SOL     OW35319   2.881   5.831   8.420
11293SOL    HW135320   2.874   5.788   8.335
11293SOL    HW235321   2.881   5.759   8.484
11294SOL     OW35322   2.470   7.074   7.929
11294SOL    HW135323   2.527   7.023   7.871
11294SOL    HW235324   2.391   7.089   7.878
11295SOL     OW35325   3.598   5.975   8.829
11295SOL    HW135326   3.672   6.036   8.825
11295SOL    HW235327   3.624   5.903   8.772
11296SOL     OW35328   2.132   6.925   7.744
11296SOL    HW135329   2.042   6.921   7.714
11296SOL    HW235330   2.127   6.969   7.829
11297SOL     OW35331   1.983   6.636   9.185
11297SOL    HW135332   1.907   6.602   9.232
11297SOL    HW235333   2.057   6.583   9.217
11298SOL     OW35334   2.537   5.791   8.951
11298SOL    HW135335   2.617   5.765   8.905
11298SOL    HW235336   2.566   5.816   9.038
11299SOL     OW35337   1.936   5.923   7.490
11299SOL    HW135338   1.866   5.886   7.436
11299SOL    HW235339   1.970   5.996   7.438
11300SOL     OW35340   3.288   6.450   8.847
11300SOL    HW135341   3.236   6.506   8.789
11300SOL    HW235342   3.373   6.445   8.805
11301SOL     OW35343   1.921   5.742   7.737
11301SOL    HW135344   1.910   5.813   7.673
11301SOL    HW235345   2.007   5.705   7.717
11302SOL     OW35346   3.043   6.911   7.569
11302SOL    HW135347   2.965   6.856   7.570
11302SOL    HW235348   3.071   6.915   7.660
11303SOL     OW35349   2.478   6.421   8.891
11303SOL    HW135350   2.540   6.493   8.875
11303SOL    HW235351   2.534   6.343   8.894
11304SOL     OW35352   3.346   7.380   8.444
11304SOL    HW135353   3.366   7.426   8.363
11304SOL    HW235354   3.404   7.304   8.443
11305SOL     OW35355   2.576   6.137   9.155
11305SOL    HW135356   2.631   6.191   9.213
11305SOL    HW235357   2.595   6.047   9.181
11306SOL     OW35358   3.335   6.780   9.074
11306SOL    HW135359   3.327   6.794   9.169
11306SOL    HW235360   3.427   6.797   9.055
11307SOL     OW35361   2.229   7.327   9.021
11307SOL    HW135362   2.147   7.373   9.002
11307SOL    HW235363   2.202   7.243   9.057
11308SOL     OW35364   3.524   6.458   8.704
11308SOL    HW135365   3.521   6.369   8.669
11308SOL    HW235366   3.517   6.515   8.627
11309SOL     OW35367   3.085   5.909   7.902
11309SOL    HW135368   3.144   5.834   7.891
11309SOL    HW235369   3.118   5.955   7.979
11310SOL     OW35370   2.433   6.327   8.130
11310SOL    HW135371   2.482   6.406   8.107
11310SOL    HW235372   2.376   6.312   8.054
11311SOL     OW35373   3.607   5.964   9.108
11311SOL    HW135374   3.604   5.971   9.012
11311SOL    HW235375   3.541   5.898   9.129
11312SOL     OW35376   3.623   6.518   8.952
11312SOL    HW135377   3.599   6.610   8.958
11312SOL    HW235378   3.600   6.492   8.862
11313SOL     OW35379   2.707   6.956   7.489
11313SOL    HW135380   2.688   6.988   7.578
11313SOL    HW235381   2.741   7.033   7.444
11314SOL     OW35382   2.529   7.369   8.384
11314SOL    HW135383   2.514   7.461   8.363
11314SOL    HW235384   2.624   7.358   8.375
11315SOL     OW35385   2.729   6.558   8.301
11315SOL    HW135386   2.778   6.482   8.332
11315SOL    HW235387   2.688   6.594   8.380
11316SOL     OW35388   2.948   6.586   7.536
11316SOL    HW135389   2.922   6.624   7.452
11316SOL    HW235390   3.017   6.524   7.513
11317SOL     OW35391   3.713   7.136   8.308
11317SOL    HW135392   3.639   7.116   8.249
11317SOL    HW235393   3.737   7.051   8.345
11318SOL     OW35394   2.078   6.875   9.292
11318SOL    HW135395   2.042   6.798   9.248
11318SOL    HW235396   2.024   6.886   9.371
11319SOL     OW35397   1.963   6.814   8.111
11319SOL    HW135398   1.987   6.768   8.192
11319SOL    HW235399   2.022   6.778   8.045
11320SOL     OW35400   2.549   6.997   9.074
11320SOL    HW135401   2.473   6.954   9.114
11320SOL    HW235402   2.552   7.083   9.115
11321SOL     OW35403   3.673   5.762   8.686
11321SOL    HW135404   3.673   5.668   8.701
11321SOL    HW235405   3.685   5.770   8.591
11322SOL     OW35406   2.286   6.019   7.967
11322SOL    HW135407   2.324   5.952   7.910
11322SOL    HW235408   2.242   5.969   8.036
11323SOL     OW35409   3.520   7.081   8.564
11323SOL    HW135410   3.462   7.054   8.493
11323SOL    HW235411   3.526   7.004   8.621
11324SOL     OW35412   2.207   6.148   8.743
11324SOL    HW135413   2.260   6.089   8.796
11324SOL    HW235414   2.221   6.118   8.653
11325SOL     OW35415   2.693   7.174   8.117
11325SOL    HW135416   2.676   7.248   8.059
11325SOL    HW235417   2.617   7.117   8.106
11326SOL     OW35418   3.287   5.811   8.549
11326SOL    HW135419   3.302   5.717   8.559
11326SOL    HW235420   3.245   5.838   8.630
11327SOL     OW35421   2.866   5.599   8.579
11327SOL    HW135422   2.819   5.534   8.527
11327SOL    HW235423   2.954   5.563   8.589
11328SOL     OW35424   2.640   6.920   7.780
11328SOL    HW135425   2.613   6.828   7.781
11328SOL    HW235426   2.726   6.920   7.822
11329SOL     OW35427   2.481   7.149   8.734
11329SOL    HW135428   2.480   7.232   8.781
11329SOL    HW235429   2.570   7.141   8.700
11330SOL     OW35430   3.229   5.633   7.618
11330SOL    HW135431   3.274   5.560   7.575
11330SOL    HW235432   3.140   5.603   7.631
11331SOL     OW35433   3.162   6.057   8.125
11331SOL    HW135434   3.106   6.135   8.127
11331SOL    HW235435   3.155   6.020   8.213
11332SOL     OW35436   3.456   5.789   8.327
11332SOL    HW135437   3.395   5.805   8.399
11332SOL    HW235438   3.451   5.868   8.274
11333SOL     OW35439   1.904   6.647   7.759
11333SOL    HW135440   1.996   6.637   7.735
11333SOL    HW235441   1.874   6.559   7.780
11334SOL     OW35442   2.754   7.250   7.778
11334SOL    HW135443   2.678   7.233   7.723
11334SOL    HW235444   2.724   7.315   7.841
11335SOL     OW35445   2.089   6.226   9.435
11335SOL    HW135446   1.996   6.219   9.457
11335SOL    HW235447   2.094   6.199   9.343
11336SOL     OW35448   2.080   5.876  10.307
11336SOL    HW135449   2.112   5.837  10.387
11336SOL    HW235450   1.993   5.838  10.294
11337SOL     OW35451   1.870   5.971   9.945
11337SOL    HW135452   1.788   5.988   9.991
11337SOL    HW235453   1.852   5.893   9.892
11338SOL     OW35454   2.431   6.889  10.504
11338SOL    HW135455   2.350   6.897  10.454
11338SOL    HW235456   2.451   6.979  10.531
11339SOL     OW35457   3.444   7.105  10.018
11339SOL    HW135458   3.398   7.076  10.097
11339SOL    HW235459   3.376   7.107   9.950
11340SOL     OW35460   2.995   6.291  10.002
11340SOL    HW135461   3.043   6.373   9.991
11340SOL    HW235462   2.948   6.302  10.085
11341SOL     OW35463   3.602   6.190   9.553
11341SOL    HW135464   3.593   6.190   9.458
11341SOL    HW235465   3.586   6.099   9.579
11342SOL     OW35466   2.597   6.719  10.363
11342SOL    HW135467   2.535   6.761  10.424
11342SOL    HW235468   2.638   6.791  10.316
11343SOL     OW35469   2.744   6.341  11.136
11343SOL    HW135470   2.734   6.413  11.197
11343SOL    HW235471   2.764   6.383  11.052
11344SOL     OW35472   2.547   6.580   9.953
11344SOL    HW135473   2.614   6.574  10.020
11344SOL    HW235474   2.480   6.637   9.990
11345SOL     OW35475   2.575   6.735  11.137
11345SOL    HW135476   2.624   6.811  11.167
11345SOL    HW235477   2.498   6.772  11.094
11346SOL     OW35478   2.195   6.997  10.375
11346SOL    HW135479   2.120   6.959  10.329
11346SOL    HW235480   2.239   7.050  10.309
11347SOL     OW35481   3.318   7.087  10.678
11347SOL    HW135482   3.373   7.165  10.685
11347SOL    HW235483   3.249   7.101  10.742
11348SOL     OW35484   2.311   5.977  10.793
11348SOL    HW135485   2.389   5.922  10.796
11348SOL    HW235486   2.238   5.917  10.806
11349SOL     OW35487   3.464   6.025  10.052
11349SOL    HW135488   3.393   6.032   9.988
11349SOL    HW235489   3.489   6.115  10.070
11350SOL     OW35490   2.083   7.309   9.777
11350SOL    HW135491   2.107   7.383   9.833
11350SOL    HW235492   2.156   7.300   9.716
11351SOL     OW35493   3.000   6.928  11.007
11351SOL    HW135494   3.045   6.915  11.091
11351SOL    HW235495   2.950   6.847  10.995
11352SOL     OW35496   2.090   7.039   9.846
11352SOL    HW135497   2.076   7.134   9.844
11352SOL    HW235498   2.036   7.009   9.920
11353SOL     OW35499   2.123   6.676  10.190
11353SOL    HW135500   2.132   6.587  10.225
11353SOL    HW235501   2.073   6.723  10.257
11354SOL     OW35502   2.451   7.380  10.732
11354SOL    HW135503   2.371   7.363  10.782
11354SOL    HW235504   2.480   7.466  10.761
11355SOL     OW35505   2.432   6.575   9.457
11355SOL    HW135506   2.483   6.615   9.386
11355SOL    HW235507   2.475   6.604   9.537
11356SOL     OW35508   3.452   5.715  10.771
11356SOL    HW135509   3.486   5.786  10.717
11356SOL    HW235510   3.431   5.756  10.854
11357SOL     OW35511   1.971   6.244   9.870
11357SOL    HW135512   1.958   6.152   9.893
11357SOL    HW235513   1.970   6.290   9.954
11358SOL     OW35514   3.706   7.335   9.634
11358SOL    HW135515   3.777   7.313   9.694
11358SOL    HW235516   3.722   7.427   9.611
11359SOL     OW35517   1.909   7.174   9.427
11359SOL    HW135518   1.892   7.082   9.445
11359SOL    HW235519   1.880   7.220   9.506
11360SOL     OW35520   3.562   6.507   9.960
11360SOL    HW135521   3.630   6.449   9.927
11360SOL    HW235522   3.532   6.555   9.882
11361SOL     OW35523   3.513   6.686   9.741
11361SOL    HW135524   3.599   6.682   9.700
11361SOL    HW235525   3.523   6.751   9.811
11362SOL     OW35526   1.992   6.329  10.894
11362SOL    HW135527   2.084   6.357  10.894
11362SOL    HW235528   1.942   6.410  10.891
11363SOL     OW35529   2.472   6.979  10.049
11363SOL    HW135530   2.431   6.893  10.052
11363SOL    HW235531   2.462   7.007   9.958
11364SOL     OW35532   3.141   6.818  10.732
11364SOL    HW135533   3.167   6.750  10.670
11364SOL    HW235534   3.205   6.812  10.803
11365SOL     OW35535   2.688   5.605   9.834
11365SOL    HW135536   2.728   5.686   9.803
11365SOL    HW235537   2.594   5.621   9.832
11366SOL     OW35538   2.047   6.544  10.592
11366SOL    HW135539   2.135   6.508  10.582
11366SOL    HW235540   1.995   6.499  10.526
11367SOL     OW35541   3.392   6.591   9.511
11367SOL    HW135542   3.324   6.530   9.540
11367SOL    HW235543   3.436   6.618   9.591
11368SOL     OW35544   3.039   7.396  10.943
11368SOL    HW135545   3.045   7.460  10.873
11368SOL    HW235546   3.058   7.312  10.900
11369SOL     OW35547   2.208   5.832  11.165
11369SOL    HW135548   2.250   5.916  11.186
11369SOL    HW235549   2.114   5.850  11.174
11370SOL     OW35550   3.326   7.008  10.245
11370SOL    HW135551   3.264   7.022  10.316
11370SOL    HW235552   3.315   6.916  10.221
11371SOL     OW35553   3.510   7.349   9.884
11371SOL    HW135554   3.489   7.314   9.797
11371SOL    HW235555   3.499   7.275   9.944
11372SOL     OW35556   2.458   6.299   9.582
11372SOL    HW135557   2.461   6.382   9.535
11372SOL    HW235558   2.392   6.312   9.650
11373SOL     OW35559   3.137   5.966  10.247
11373SOL    HW135560   3.051   5.925  10.252
11373SOL    HW235561   3.194   5.911  10.301
11374SOL     OW35562   3.438   7.264   9.625
11374SOL    HW135563   3.532   7.281   9.614
11374SOL    HW235564   3.406   7.248   9.536
11375SOL     OW35565   2.644   6.203  10.754
11375SOL    HW135566   2.621   6.173  10.842
11375SOL    HW235567   2.618   6.131  10.697
11376SOL     OW35568   3.252   6.062  10.986
11376SOL    HW135569   3.259   6.104  11.071
11376SOL    HW235570   3.305   5.983  10.994
11377SOL     OW35571   2.811   6.466  10.899
11377SOL    HW135572   2.864   6.398  10.858
11377SOL    HW235573   2.760   6.504  10.827
11378SOL     OW35574   2.859   5.995  10.532
11378SOL    HW135575   2.766   6.002  10.556
11378SOL    HW235576   2.859   5.949  10.448
11379SOL     OW35577   2.917   6.286   9.733
11379SOL    HW135578   2.936   6.279   9.827
11379SOL    HW235579   2.834   6.240   9.722
11380SOL     OW35580   1.947   6.406  10.093
11380SOL    HW135581   2.031   6.399  10.138
11380SOL    HW235582   1.906   6.484  10.131
11381SOL     OW35583   1.983   7.459  10.893
11381SOL    HW135584   1.986   7.437  10.987
11381SOL    HW235585   1.901   7.421  10.863
11382SOL     OW35586   2.760   5.938   9.508
11382SOL    HW135587   2.805   5.998   9.447
11382SOL    HW235588   2.756   5.855   9.461
11383SOL     OW35589   3.560   6.158  11.146
11383SOL    HW135590   3.530   6.232  11.093
11383SOL    HW235591   3.587   6.093  11.081
11384SOL     OW35592   3.248   6.730   9.848
11384SOL    HW135593   3.325   6.712   9.794
11384SOL    HW235594   3.195   6.789   9.794
11385SOL     OW35595   2.404   5.755  10.206
11385SOL    HW135596   2.414   5.791  10.294
11385SOL    HW235597   2.414   5.831  10.148
11386SOL     OW35598   2.863   7.036   9.779
11386SOL    HW135599   2.834   7.108   9.723
11386SOL    HW235600   2.832   7.059   9.866
11387SOL     OW35601   2.217   7.406  10.186
11387SOL    HW135602   2.264   7.322  10.191
11387SOL    HW235603   2.284   7.472  10.202
11388SOL     OW35604   3.669   6.642  10.183
11388SOL    HW135605   3.624   6.613  10.104
11388SOL    HW235606   3.602   6.642  10.251
11389SOL     OW35607   3.082   7.127  10.825
11389SOL    HW135608   3.074   7.055  10.887
11389SOL    HW235609   3.024   7.103  10.752
11390SOL     OW35610   2.168   6.545   9.564
11390SOL    HW135611   2.253   6.568   9.525
11390SOL    HW235612   2.145   6.462   9.523
11391SOL     OW35613   3.337   6.361  10.047
11391SOL    HW135614   3.342   6.304  10.124
11391SOL    HW235615   3.425   6.397  10.036
11392SOL     OW35616   2.331   6.865  11.057
11392SOL    HW135617   2.305   6.870  10.965
11392SOL    HW235618   2.249   6.854  11.104
11393SOL     OW35619   2.991   7.364   9.533
11393SOL    HW135620   2.913   7.328   9.575
11393SOL    HW235621   3.015   7.299   9.467
11394SOL     OW35622   2.066   5.844  10.811
11394SOL    HW135623   1.987   5.897  10.824
11394SOL    HW235624   2.042   5.757  10.843
11395SOL     OW35625   3.494   6.977   9.411
11395SOL    HW135626   3.449   7.059   9.390
11395SOL    HW235627   3.432   6.909   9.387
11396SOL     OW35628   2.322   7.324   9.624
11396SOL    HW135629   2.371   7.373   9.690
11396SOL    HW235630   2.388   7.284   9.569
11397SOL     OW35631   3.259   5.689   9.751
11397SOL    HW135632   3.249   5.664   9.659
11397SOL    HW235633   3.351   5.672   9.770
11398SOL     OW35634   2.118   7.372  10.532
11398SOL    HW135635   2.169   7.298  10.566
11398SOL    HW235636   2.109   7.354  10.439
11399SOL     OW35637   2.806   7.283  10.202
11399SOL    HW135638   2.892   7.242  10.210
11399SOL    HW235639   2.762   7.234  10.132
11400SOL     OW35640   2.258   6.281   9.781
11400SOL    HW135641   2.273   6.187   9.791
11400SOL    HW235642   2.164   6.292   9.792
11401SOL     OW35643   3.382   5.814  11.031
11401SOL    HW135644   3.388   5.833  11.125
11401SOL    HW235645   3.328   5.735  11.026
11402SOL     OW35646   2.514   5.694   9.416
11402SOL    HW135647   2.570   5.619   9.434
11402SOL    HW235648   2.459   5.667   9.343
11403SOL     OW35649   2.625   5.866  11.069
11403SOL    HW135650   2.708   5.817  11.063
11403SOL    HW235651   2.580   5.828  11.144
11404SOL     OW35652   2.735   7.110  10.507
11404SOL    HW135653   2.720   7.072  10.421
11404SOL    HW235654   2.807   7.059  10.544
11405SOL     OW35655   3.196   6.178  10.743
11405SOL    HW135656   3.229   6.145  10.826
11405SOL    HW235657   3.238   6.263  10.732
11406SOL     OW35658   2.678   6.970  10.260
11406SOL    HW135659   2.764   6.960  10.220
11406SOL    HW235660   2.618   6.981  10.186
11407SOL     OW35661   2.785   6.095  10.205
11407SOL    HW135662   2.763   6.086  10.112
11407SOL    HW235663   2.818   6.009  10.231
11408SOL     OW35664   2.420   5.654   9.807
11408SOL    HW135665   2.336   5.650   9.854
11408SOL    HW235666   2.408   5.726   9.745
11409SOL     OW35667   3.298   6.793   9.348
11409SOL    HW135668   3.328   6.716   9.397
11409SOL    HW235669   3.210   6.810   9.382
11410SOL     OW35670   2.149   5.633   9.496
11410SOL    HW135671   2.203   5.689   9.440
11410SOL    HW235672   2.210   5.572   9.537
11411SOL     OW35673   2.810   5.844   9.764
11411SOL    HW135674   2.787   5.875   9.677
11411SOL    HW235675   2.905   5.854   9.769
11412SOL     OW35676   2.940   6.269  10.762
11412SOL    HW135677   2.881   6.194  10.761
11412SOL    HW235678   3.027   6.232  10.755
11413SOL     OW35679   3.066   7.171  10.113
11413SOL    HW135680   3.084   7.232  10.041
11413SOL    HW235681   3.147   7.169  10.164
11414SOL     OW35682   2.333   6.742  10.029
11414SOL    HW135683   2.266   6.719  10.093
11414SOL    HW235684   2.289   6.732   9.944
11415SOL     OW35685   3.120   7.378   9.927
11415SOL    HW135686   3.169   7.437   9.869
11415SOL    HW235687   3.051   7.432   9.965
11416SOL     OW35688   2.890   6.115   9.341
11416SOL    HW135689   2.849   6.199   9.321
11416SOL    HW235690   2.957   6.136   9.407
11417SOL     OW35691   1.952   6.139  10.701
11417SOL    HW135692   2.044   6.137  10.674
11417SOL    HW235693   1.948   6.207  10.768
11418SOL     OW35694   2.421   5.814  10.480
11418SOL    HW135695   2.464   5.734  10.512
11418SOL    HW235696   2.330   5.806  10.508
11419SOL     OW35697   2.725   6.045   9.943
11419SOL    HW135698   2.690   6.098   9.872
11419SOL    HW235699   2.755   5.964   9.900
11420SOL     OW35700   2.858   5.654  10.064
11420SOL    HW135701   2.808   5.641   9.983
11420SOL    HW235702   2.849   5.571  10.111
11421SOL     OW35703   3.304   6.746  10.162
11421SOL    HW135704   3.235   6.680  10.159
11421SOL    HW235705   3.335   6.752  10.071
11422SOL     OW35706   3.322   6.205  10.280
11422SOL    HW135707   3.271   6.125  10.271
11422SOL    HW235708   3.382   6.188  10.352
11423SOL     OW35709   3.700   6.398   9.700
11423SOL    HW135710   3.760   6.346   9.753
11423SOL    HW235711   3.665   6.337   9.636
11424SOL     OW35712   2.352   7.011   9.459
11424SOL    HW135713   2.277   6.976   9.508
11424SOL    HW235714   2.357   6.956   9.381
11425SOL     OW35715   3.547   6.853   9.949
11425SOL    HW135716   3.642   6.850   9.962
11425SOL    HW235717   3.523   6.943   9.968
11426SOL     OW35718   3.259   6.156   9.384
11426SOL    HW135719   3.194   6.132   9.451
11426SOL    HW235720   3.335   6.101   9.403
11427SOL     OW35721   2.390   5.848   9.618
11427SOL    HW135722   2.440   5.799   9.552
11427SOL    HW235723   2.362   5.927   9.572
11428SOL     OW35724   3.607   6.830  10.864
11428SOL    HW135725   3.694   6.792  10.854
11428SOL    HW235726   3.623   6.919  10.895
11429SOL     OW35727   2.915   6.951  10.653
11429SOL    HW135728   2.839   6.912  10.695
11429SOL    HW235729   2.989   6.901  10.686
11430SOL     OW35730   3.472   7.219  10.975
11430SOL    HW135731   3.460   7.252  10.886
11430SOL    HW235732   3.552   7.166  10.971
11431SOL     OW35733   3.006   6.814  10.413
11431SOL    HW135734   2.934   6.841  10.470
11431SOL    HW235735   2.979   6.842  10.326
11432SOL     OW35736   3.481   6.676  10.382
11432SOL    HW135737   3.470   6.740  10.453
11432SOL    HW235738   3.408   6.693  10.323
11433SOL     OW35739   2.775   5.676  10.695
11433SOL    HW135740   2.797   5.653  10.605
11433SOL    HW235741   2.856   5.713  10.731
11434SOL     OW35742   2.844   6.700  11.032
11434SOL    HW135743   2.753   6.714  11.055
11434SOL    HW235744   2.843   6.621  10.978
11435SOL     OW35745   2.574   6.649   9.683
11435SOL    HW135746   2.561   6.625   9.774
11435SOL    HW235747   2.651   6.598   9.656
11436SOL     OW35748   2.284   6.411  10.567
11436SOL    HW135749   2.353   6.419  10.632
11436SOL    HW235750   2.254   6.320  10.576
11437SOL     OW35751   3.123   5.952  10.601
11437SOL    HW135752   3.156   6.033  10.640
11437SOL    HW235753   3.034   5.974  10.572
11438SOL     OW35754   1.941   7.156  10.667
11438SOL    HW135755   1.913   7.227  10.609
11438SOL    HW235756   2.036   7.154  10.658
11439SOL     OW35757   2.185   6.712   9.796
11439SOL    HW135758   2.190   6.783   9.732
11439SOL    HW235759   2.188   6.632   9.744
11440SOL     OW35760   2.400   6.121  10.174
11440SOL    HW135761   2.413   6.179  10.099
11440SOL    HW235762   2.474   6.138  10.232
11441SOL     OW35763   3.110   6.937   9.703
11441SOL    HW135764   3.166   7.006   9.738
11441SOL    HW235765   3.022   6.960   9.735
11442SOL     OW35766   3.160   7.048  10.456
11442SOL    HW135767   3.211   7.049  10.536
11442SOL    HW235768   3.108   6.968  10.462
11443SOL     OW35769   3.449   6.197   9.808
11443SOL    HW135770   3.381   6.261   9.830
11443SOL    HW235771   3.489   6.232   9.728
11444SOL     OW35772   2.210   7.114  10.616
11444SOL    HW135773   2.200   7.068  10.532
11444SOL    HW235774   2.304   7.128  10.624
11445SOL     OW35775   2.281   6.330  10.916
11445SOL    HW135776   2.345   6.373  10.859
11445SOL    HW235777   2.318   6.243  10.931
11446SOL     OW35778   3.479   6.374  11.001
11446SOL    HW135779   3.392   6.413  10.992
11446SOL    HW235780   3.530   6.411  10.930
11447SOL     OW35781   2.858   5.724  11.070
11447SOL    HW135782   2.916   5.796  11.046
11447SOL    HW235783   2.903   5.645  11.040
11448SOL     OW35784   2.357   5.620  11.069
11448SOL    HW135785   2.310   5.568  11.004
11448SOL    HW235786   2.301   5.696  11.084
11449SOL     OW35787   2.449   6.463  10.344
11449SOL    HW135788   2.489   6.550  10.350
11449SOL    HW235789   2.393   6.458  10.421
11450SOL     OW35790   3.198   6.446  10.333
11450SOL    HW135791   3.119   6.431  10.281
11450SOL    HW235792   3.249   6.366  10.321
11451SOL     OW35793   3.060   6.113   9.571
11451SOL    HW135794   3.070   6.033   9.621
11451SOL    HW235795   3.016   6.174   9.630
11452SOL     OW35796   2.158   5.779  10.554
11452SOL    HW135797   2.124   5.806  10.639
11452SOL    HW235798   2.144   5.684  10.552
11453SOL     OW35799   1.890   6.896  10.585
11453SOL    HW135800   1.931   6.840  10.650
11453SOL    HW235801   1.906   6.985  10.615
11454SOL     OW35802   2.585   6.213  10.361
11454SOL    HW135803   2.658   6.195  10.303
11454SOL    HW235804   2.557   6.302  10.339
11455SOL     OW35805   3.607   6.550  11.174
11455SOL    HW135806   3.569   6.481  11.121
11455SOL    HW235807   3.543   6.565  11.244
11456SOL     OW35808   2.174   5.643   9.938
11456SOL    HW135809   2.154   5.734   9.960
11456SOL    HW235810   2.185   5.600  10.022
11457SOL     OW35811   3.488   5.957   9.671
11457SOL    HW135812   3.525   5.886   9.724
11457SOL    HW235813   3.466   6.025   9.735
11458SOL     OW35814   2.883   6.346  10.264
11458SOL    HW135815   2.876   6.360  10.358
11458SOL    HW235816   2.860   6.253  10.252
11459SOL     OW35817   2.839   7.145  11.038
11459SOL    HW135818   2.821   7.191  10.956
11459SOL    HW235819   2.888   7.067  11.011
11460SOL     OW35820   3.709   7.086  10.915
11460SOL    HW135821   3.732   7.113  10.826
11460SOL    HW235822   3.790   7.096  10.965
11461SOL     OW35823   2.213   6.505  11.117
11461SOL    HW135824   2.292   6.521  11.169
11461SOL    HW235825   2.240   6.440  11.052
11462SOL     OW35826   3.364   5.874   9.438
11462SOL    HW135827   3.314   5.794   9.459
11462SOL    HW235828   3.411   5.896   9.518
11463SOL     OW35829   3.152   6.408   9.341
11463SOL    HW135830   3.193   6.322   9.345
11463SOL    HW235831   3.182   6.445   9.258
11464SOL     OW35832   2.930   6.930  10.172
11464SOL    HW135833   2.935   6.858  10.109
11464SOL    HW235834   2.983   7.000  10.133
11465SOL     OW35835   2.174   6.401  10.253
11465SOL    HW135836   2.268   6.417  10.245
11465SOL    HW235837   2.168   6.311  10.284
11466SOL     OW35838   2.178   6.124  10.322
11466SOL    HW135839   2.145   6.035  10.312
11466SOL    HW235840   2.257   6.126  10.268
11467SOL     OW35841   2.996   5.957  10.999
11467SOL    HW135842   2.950   6.012  11.063
11467SOL    HW235843   3.082   5.997  10.990
11468SOL     OW35844   3.015   5.777  10.787
11468SOL    HW135845   3.007   5.843  10.857
11468SOL    HW235846   3.062   5.823  10.717
11469SOL     OW35847   1.877   6.900   9.499
11469SOL    HW135848   1.788   6.919   9.470
11469SOL    HW235849   1.872   6.812   9.537
11470SOL     OW35850   1.954   7.362  10.256
11470SOL    HW135851   1.924   7.286  10.206
11470SOL    HW235852   2.042   7.379  10.222
11471SOL     OW35853   2.352   7.163  10.216
11471SOL    HW135854   2.422   7.224  10.238
11471SOL    HW235855   2.393   7.100  10.157
11472SOL     OW35856   2.823   6.375  10.533
11472SOL    HW135857   2.884   6.355  10.603
11472SOL    HW235858   2.746   6.321  10.551
11473SOL     OW35859   1.902   6.148  10.424
11473SOL    HW135860   1.982   6.139  10.372
11473SOL    HW235861   1.933   6.142  10.515
11474SOL     OW35862   2.058   6.109  11.046
11474SOL    HW135863   2.117   6.065  10.984
11474SOL    HW235864   2.024   6.184  10.997
11475SOL     OW35865   3.245   6.517  10.966
11475SOL    HW135866   3.267   6.610  10.959
11475SOL    HW235867   3.240   6.487  10.875
11476SOL     OW35868   2.681   6.154   9.681
11476SOL    HW135869   2.693   6.080   9.622
11476SOL    HW235870   2.607   6.203   9.644
11477SOL     OW35871   3.501   6.187  10.492
11477SOL    HW135872   3.491   6.121  10.560
11477SOL    HW235873   3.588   6.173  10.456
11478SOL     OW35874   2.093   7.128  11.033
11478SOL    HW135875   2.074   7.183  11.109
11478SOL    HW235876   2.104   7.040  11.069
11479SOL     OW35877   2.580   6.027  10.559
11479SOL    HW135878   2.524   5.954  10.533
11479SOL    HW235879   2.572   6.090  10.488
11480SOL     OW35880   2.761   7.265  10.798
11480SOL    HW135881   2.752   7.217  10.716
11480SOL    HW235882   2.766   7.357  10.772
11481SOL     OW35883   2.315   6.077   9.489
11481SOL    HW135884   2.382   6.141   9.510
11481SOL    HW235885   2.234   6.128   9.481
11482SOL     OW35886   1.998   6.731  10.783
11482SOL    HW135887   2.004   6.687  10.868
11482SOL    HW235888   2.016   6.662  10.719
11483SOL     OW35889   3.174   6.629  10.529
11483SOL    HW135890   3.192   6.563  10.462
11483SOL    HW235891   3.116   6.692  10.487
11484SOL     OW35892   3.177   6.442   9.615
11484SOL    HW135893   3.104   6.401   9.661
11484SOL    HW235894   3.159   6.425   9.522
11485SOL     OW35895   3.656   7.317  10.480
11485SOL    HW135896   3.712   7.340  10.407
11485SOL    HW235897   3.616   7.234  10.455
11486SOL     OW35898   3.105   7.319  10.422
11486SOL    HW135899   3.186   7.346  10.379
11486SOL    HW235900   3.115   7.225  10.437
11487SOL     OW35901   1.945   6.856  10.317
11487SOL    HW135902   1.920   6.866  10.409
11487SOL    HW235903   1.884   6.790  10.283
11488SOL     OW35904   2.551   7.262  11.049
11488SOL    HW135905   2.487   7.328  11.024
11488SOL    HW235906   2.623   7.272  10.987
11489SOL     OW35907   3.606   5.752   9.814
11489SOL    HW135908   3.668   5.733   9.744
11489SOL    HW235909   3.580   5.667   9.847
11490SOL     OW35910   3.259   7.154   9.810
11490SOL    HW135911   3.313   7.188   9.738
11490SOL    HW235912   3.204   7.228   9.835
11491SOL     OW35913   1.999   7.391  11.156
11491SOL    HW135914   1.957   7.316  11.198
11491SOL    HW235915   2.023   7.449  11.228
11492SOL     OW35916   3.136   6.528   9.990
11492SOL    HW135917   3.208   6.467  10.007
11492SOL    HW235918   3.172   6.592   9.929
11493SOL     OW35919   2.661   6.864  10.725
11493SOL    HW135920   2.632   6.907  10.806
11493SOL    HW235921   2.589   6.879  10.664
11494SOL     OW35922   2.528   7.217   9.465
11494SOL    HW135923   2.545   7.231   9.372
11494SOL    HW235924   2.474   7.138   9.468
11495SOL     OW35925   3.477   7.314  10.707
11495SOL    HW135926   3.535   7.315  10.630
11495SOL    HW235927   3.461   7.406  10.727
11496SOL     OW35928   3.708   5.751  10.278
11496SOL    HW135929   3.736   5.663  10.256
11496SOL    HW235930   3.622   5.760  10.237
11497SOL     OW35931   2.123   5.894  10.029
11497SOL    HW135932   2.038   5.930  10.004
11497SOL    HW235933   2.122   5.892  10.124
11498SOL     OW35934   3.069   7.179   9.346
11498SOL    HW135935   3.059   7.087   9.372
11498SOL    HW235936   3.003   7.192   9.278
11499SOL     OW35937   2.685   6.591  10.691
11499SOL    HW135938   2.730   6.573  10.608
11499SOL    HW235939   2.683   6.687  10.697
11500SOL     OW35940   2.787   6.505   9.606
11500SOL    HW135941   2.845   6.535   9.536
11500SOL    HW235942   2.834   6.433   9.647
11501SOL     OW35943   3.343   7.234   9.362
11501SOL    HW135944   3.252   7.211   9.344
11501SOL    HW235945   3.385   7.235   9.275
11502SOL     OW35946   2.223   6.898  10.812
11502SOL    HW135947   2.220   6.968  10.747
11502SOL    HW235948   2.149   6.841  10.790
11503SOL     OW35949   3.463   6.869  10.586
11503SOL    HW135950   3.525   6.850  10.656
11503SOL    HW235951   3.405   6.935  10.623
11504SOL     OW35952   2.924   6.703  10.029
11504SOL    HW135953   2.851   6.650  10.060
11504SOL    HW235954   2.991   6.640  10.004
11505SOL     OW35955   2.884   5.831  10.281
11505SOL    HW135956   2.877   5.788  10.196
11505SOL    HW235957   2.882   5.759  10.344
11506SOL     OW35958   2.470   7.074   9.793
11506SOL    HW135959   2.526   7.022   9.735
11506SOL    HW235960   2.393   7.096   9.741
11507SOL     OW35961   3.599   5.973  10.694
11507SOL    HW135962   3.671   6.035  10.689
11507SOL    HW235963   3.625   5.902  10.635
11508SOL     OW35964   2.134   6.924   9.610
11508SOL    HW135965   2.045   6.921   9.575
11508SOL    HW235966   2.125   6.969   9.694
11509SOL     OW35967   1.981   6.633  11.043
11509SOL    HW135968   1.904   6.602  11.091
11509SOL    HW235969   2.054   6.582  11.079
11510SOL     OW35970   2.538   5.783  10.811
11510SOL    HW135971   2.619   5.759  10.767
11510SOL    HW235972   2.566   5.815  10.897
11511SOL     OW35973   1.924   5.934   9.354
11511SOL    HW135974   1.862   5.895   9.293
11511SOL    HW235975   1.969   6.002   9.304
11512SOL     OW35976   3.285   6.445  10.707
11512SOL    HW135977   3.233   6.503  10.651
11512SOL    HW235978   3.372   6.444  10.666
11513SOL     OW35979   1.920   5.748   9.591
11513SOL    HW135980   1.913   5.813   9.522
11513SOL    HW235981   2.006   5.708   9.577
11514SOL     OW35982   3.043   6.912   9.431
11514SOL    HW135983   2.959   6.866   9.432
11514SOL    HW235984   3.070   6.915   9.523
11515SOL     OW35985   2.482   6.420  10.750
11515SOL    HW135986   2.541   6.493  10.735
11515SOL    HW235987   2.538   6.343  10.753
11516SOL     OW35988   3.345   7.384  10.302
11516SOL    HW135989   3.369   7.448  10.235
11516SOL    HW235990   3.424   7.331  10.315
11517SOL     OW35991   2.578   6.140  11.010
11517SOL    HW135992   2.629   6.195  11.070
11517SOL    HW235993   2.596   6.051  11.040
11518SOL     OW35994   3.337   6.778  10.935
11518SOL    HW135995   3.329   6.794  11.030
11518SOL    HW235996   3.428   6.797  10.915
11519SOL     OW35997   2.225   7.326  10.879
11519SOL    HW135998   2.144   7.372  10.860
11519SOL    HW235999   2.198   7.241  10.915
11520SOL     OW36000   3.522   6.461  10.566
11520SOL    HW136001   3.520   6.374  10.526
11520SOL    HW236002   3.513   6.521  10.493
11521SOL     OW36003   3.082   5.906   9.765
11521SOL    HW136004   3.142   5.833   9.755
11521SOL    HW236005   3.115   5.954   9.841
11522SOL     OW36006   2.434   6.325   9.992
11522SOL    HW136007   2.482   6.405   9.973
11522SOL    HW236008   2.377   6.312   9.916
11523SOL     OW36009   3.613   5.952  10.970
11523SOL    HW136010   3.607   5.966  10.875
11523SOL    HW236011   3.539   5.895  10.990
11524SOL     OW36012   3.622   6.516  10.817
11524SOL    HW136013   3.603   6.609  10.827
11524SOL    HW236014   3.598   6.497  10.726
11525SOL     OW36015   2.716   6.954   9.354
11525SOL    HW136016   2.688   6.988   9.440
11525SOL    HW236017   2.744   7.032   9.306
11526SOL     OW36018   2.528   7.369  10.245
11526SOL    HW136019   2.513   7.461  10.225
11526SOL    HW236020   2.623   7.358  10.238
11527SOL     OW36021   2.729   6.559  10.163
11527SOL    HW136022   2.779   6.484  10.195
11527SOL    HW236023   2.689   6.596  10.242
11528SOL     OW36024   2.943   6.579   9.397
11528SOL    HW136025   2.920   6.623   9.315
11528SOL    HW236026   3.015   6.520   9.374
11529SOL     OW36027   3.710   7.138  10.150
11529SOL    HW136028   3.629   7.124  10.102
11529SOL    HW236029   3.723   7.056  10.199
11530SOL     OW36030   2.072   6.874  11.153
11530SOL    HW136031   2.039   6.796  11.108
11530SOL    HW236032   2.013   6.886  11.228
11531SOL     OW36033   1.956   6.803   9.974
11531SOL    HW136034   1.995   6.764  10.052
11531SOL    HW236035   2.016   6.779   9.903
11532SOL     OW36036   2.548   6.995  10.939
11532SOL    HW136037   2.471   6.955  10.979
11532SOL    HW236038   2.552   7.083  10.976
11533SOL     OW36039   3.672   5.758  10.549
11533SOL    HW136040   3.671   5.663  10.559
11533SOL    HW236041   3.684   5.772  10.455
11534SOL     OW36042   2.281   6.018   9.827
11534SOL    HW136043   2.322   5.953   9.771
11534SOL    HW236044   2.242   5.967   9.899
11535SOL     OW36045   3.541   7.081  10.411
11535SOL    HW136046   3.473   7.058  10.348
11535SOL    HW236047   3.547   7.006  10.470
11536SOL     OW36048   2.204   6.148  10.604
11536SOL    HW136049   2.256   6.089  10.659
11536SOL    HW236050   2.220   6.118  10.515
11537SOL     OW36051   2.694   7.177   9.977
11537SOL    HW136052   2.681   7.254   9.922
11537SOL    HW236053   2.617   7.122   9.961
11538SOL     OW36054   3.285   5.814  10.417
11538SOL    HW136055   3.295   5.721  10.435
11538SOL    HW236056   3.239   5.849  10.494
11539SOL     OW36057   2.869   5.597  10.440
11539SOL    HW136058   2.822   5.534  10.385
11539SOL    HW236059   2.957   5.560  10.449
11540SOL     OW36060   2.637   6.920   9.643
11540SOL    HW136061   2.612   6.828   9.644
11540SOL    HW236062   2.724   6.922   9.684
11541SOL     OW36063   2.482   7.145  10.598
11541SOL    HW136064   2.480   7.229  10.645
11541SOL    HW236065   2.570   7.139  10.563
11542SOL     OW36066   3.228   5.634   9.485
11542SOL    HW136067   3.272   5.564   9.437
11542SOL    HW236068   3.138   5.603   9.495
11543SOL     OW36069   3.159   6.055   9.986
11543SOL    HW136070   3.105   6.135   9.988
11543SOL    HW236071   3.154   6.021  10.075
11544SOL     OW36072   3.452   5.785  10.194
11544SOL    HW136073   3.394   5.809  10.266
11544SOL    HW236074   3.451   5.861  10.137
11545SOL     OW36075   1.903   6.650   9.623
11545SOL    HW136076   1.995   6.641   9.600
11545SOL    HW236077   1.874   6.561   9.642
11546SOL     OW36078   2.754   7.249   9.638
11546SOL    HW136079   2.678   7.232   9.583
11546SOL    HW236080   2.724   7.313   9.702
11547SOL     OW36081   2.078   6.215  11.306
11547SOL    HW136082   1.990   6.204  11.340
11547SOL    HW236083   2.072   6.191  11.214
11548SOL     OW36084   2.084   5.872  12.165
11548SOL    HW136085   2.116   5.836  12.248
11548SOL    HW236086   1.995   5.838  12.157
11549SOL     OW36087   1.858   5.973  11.812
11549SOL    HW136088   1.778   5.999  11.857
11549SOL    HW236089   1.832   5.898  11.758
11550SOL     OW36090   2.406   6.835  12.338
11550SOL    HW136091   2.331   6.876  12.296
11550SOL    HW236092   2.409   6.873  12.426
11551SOL     OW36093   3.444   7.105  11.884
11551SOL    HW136094   3.401   7.079  11.965
11551SOL    HW236095   3.374   7.106  11.819
11552SOL     OW36096   2.996   6.288  11.864
11552SOL    HW136097   3.042   6.371  11.854
11552SOL    HW236098   2.946   6.298  11.946
11553SOL     OW36099   3.634   6.183  11.402
11553SOL    HW136100   3.609   6.180  11.310
11553SOL    HW236101   3.599   6.101  11.438
11554SOL     OW36102   2.626   6.722  12.234
11554SOL    HW136103   2.544   6.752  12.274
11554SOL    HW236104   2.657   6.797  12.183
11555SOL     OW36105   2.546   6.579  11.816
11555SOL    HW136106   2.613   6.573  11.885
11555SOL    HW236107   2.479   6.637  11.853
11556SOL     OW36108   2.199   6.992  12.229
11556SOL    HW136109   2.118   6.957  12.191
11556SOL    HW236110   2.236   7.046  12.160
11557SOL     OW36111   3.464   6.023  11.919
11557SOL    HW136112   3.405   6.041  11.846
11557SOL    HW236113   3.454   6.098  11.978
11558SOL     OW36114   2.065   7.312  11.642
11558SOL    HW136115   2.091   7.382  11.702
11558SOL    HW236116   2.146   7.290  11.595
11559SOL     OW36117   2.097   7.037  11.717
11559SOL    HW136118   2.059   7.124  11.729
11559SOL    HW236119   2.047   6.981  11.776
11560SOL     OW36120   2.137   6.677  12.065
11560SOL    HW136121   2.138   6.587  12.097
11560SOL    HW236122   2.083   6.724  12.129
11561SOL     OW36123   2.433   6.573  11.318
11561SOL    HW136124   2.484   6.614  11.249
11561SOL    HW236125   2.474   6.603  11.399
11562SOL     OW36126   1.981   6.246  11.735
11562SOL    HW136127   1.952   6.158  11.758
11562SOL    HW236128   1.974   6.295  11.817
11563SOL     OW36129   3.704   7.337  11.497
11563SOL    HW136130   3.775   7.315  11.556
11563SOL    HW236131   3.719   7.429  11.474
11564SOL     OW36132   1.917   7.173  11.291
11564SOL    HW136133   1.895   7.081  11.306
11564SOL    HW236134   1.878   7.219  11.365
11565SOL     OW36135   3.556   6.508  11.824
11565SOL    HW136136   3.636   6.459  11.801
11565SOL    HW236137   3.534   6.556  11.744
11566SOL     OW36138   3.514   6.687  11.604
11566SOL    HW136139   3.601   6.684  11.562
11566SOL    HW236140   3.523   6.752  11.674
11567SOL     OW36141   2.039   6.333   0.222
11567SOL    HW136142   2.019   6.305   0.312
11567SOL    HW236143   1.960   6.378   0.193
11568SOL     OW36144   2.477   6.986  11.888
11568SOL    HW136145   2.435   6.901  11.901
11568SOL    HW236146   2.450   7.013  11.800
11569SOL     OW36147   2.686   5.593  11.697
11569SOL    HW136148   2.728   5.673  11.666
11569SOL    HW236149   2.593   5.612  11.695
11570SOL     OW36150   2.055   6.578  12.402
11570SOL    HW136151   2.134   6.523  12.409
11570SOL    HW236152   1.988   6.529  12.449
11571SOL     OW36153   3.393   6.591  11.373
11571SOL    HW136154   3.324   6.532  11.405
11571SOL    HW236155   3.437   6.620  11.453
11572SOL     OW36156   3.330   7.001  12.113
11572SOL    HW136157   3.265   7.016  12.181
11572SOL    HW236158   3.316   6.911  12.085
11573SOL     OW36159   3.512   7.351  11.746
11573SOL    HW136160   3.491   7.313  11.661
11573SOL    HW236161   3.501   7.278  11.808
11574SOL     OW36162   2.456   6.297  11.446
11574SOL    HW136163   2.457   6.382  11.401
11574SOL    HW236164   2.390   6.308  11.514
11575SOL     OW36165   3.143   5.963  12.108
11575SOL    HW136166   3.055   5.925  12.114
11575SOL    HW236167   3.197   5.908  12.166
11576SOL     OW36168   3.438   7.261  11.486
11576SOL    HW136169   3.531   7.281  11.477
11576SOL    HW236170   3.408   7.245  11.396
11577SOL     OW36171   2.844   5.938  12.385
11577SOL    HW136172   2.767   5.982  12.419
11577SOL    HW236173   2.823   5.919  12.294
11578SOL     OW36174   2.918   6.285  11.594
11578SOL    HW136175   2.937   6.279  11.688
11578SOL    HW236176   2.834   6.240  11.584
11579SOL     OW36177   1.951   6.416  11.951
11579SOL    HW136178   2.033   6.407  11.999
11579SOL    HW236179   1.907   6.490  11.992
11580SOL     OW36180   2.764   5.935  11.369
11580SOL    HW136181   2.805   5.999  11.311
11580SOL    HW236182   2.768   5.853  11.321
11581SOL     OW36183   3.247   6.728  11.708
11581SOL    HW136184   3.327   6.713  11.657
11581SOL    HW236185   3.196   6.789  11.656
11582SOL     OW36186   2.413   5.764  12.066
11582SOL    HW136187   2.418   5.813  12.148
11582SOL    HW236188   2.410   5.831  11.998
11583SOL     OW36189   2.866   7.035  11.638
11583SOL    HW136190   2.832   7.109  11.589
11583SOL    HW236191   2.846   7.056  11.730
11584SOL     OW36192   2.217   7.397  12.027
11584SOL    HW136193   2.259   7.312  12.041
11584SOL    HW236194   2.279   7.461  12.062
11585SOL     OW36195   3.664   6.645  12.050
11585SOL    HW136196   3.616   6.619  11.971
11585SOL    HW236197   3.598   6.648  12.119
11586SOL     OW36198   2.168   6.545  11.427
11586SOL    HW136199   2.252   6.564  11.385
11586SOL    HW236200   2.143   6.460  11.391
11587SOL     OW36201   3.342   6.346  11.890
11587SOL    HW136202   3.343   6.301  11.974
11587SOL    HW236203   3.423   6.397  11.889
11588SOL     OW36204   2.987   7.363  11.397
11588SOL    HW136205   2.911   7.325  11.440
11588SOL    HW236206   3.012   7.298  11.331
11589SOL     OW36207   3.495   6.974  11.274
11589SOL    HW136208   3.454   7.058  11.253
11589SOL    HW236209   3.431   6.908  11.248
11590SOL     OW36210   2.369   7.344  11.534
11590SOL    HW136211   2.389   7.270  11.591
11590SOL    HW236212   2.419   7.328  11.454
11591SOL     OW36213   3.259   5.691  11.618
11591SOL    HW136214   3.253   5.665  11.526
11591SOL    HW236215   3.353   5.689  11.636
11592SOL     OW36216   2.114   7.366  12.391
11592SOL    HW136217   2.122   7.289  12.447
11592SOL    HW236218   2.061   7.336  12.317
11593SOL     OW36219   2.806   7.282  12.063
11593SOL    HW136220   2.888   7.233  12.070
11593SOL    HW236221   2.756   7.236  11.995
11594SOL     OW36222   2.259   6.280  11.645
11594SOL    HW136223   2.274   6.186  11.657
11594SOL    HW236224   2.165   6.290  11.661
11595SOL     OW36225   2.515   5.697  11.275
11595SOL    HW136226   2.579   5.626  11.284
11595SOL    HW236227   2.458   5.668  11.204
11596SOL     OW36228   2.671   6.952  12.098
11596SOL    HW136229   2.760   6.957  12.065
11596SOL    HW236230   2.616   6.965  12.021
11597SOL     OW36231   2.792   6.095  12.064
11597SOL    HW136232   2.764   6.086  11.973
11597SOL    HW236233   2.825   6.008  12.087
11598SOL     OW36234   2.419   5.649  11.665
11598SOL    HW136235   2.337   5.648  11.714
11598SOL    HW236236   2.411   5.725  11.606
11599SOL     OW36237   3.298   6.792  11.210
11599SOL    HW136238   3.326   6.716  11.260
11599SOL    HW236239   3.210   6.812  11.244
11600SOL     OW36240   2.149   5.633  11.360
11600SOL    HW136241   2.199   5.695  11.308
11600SOL    HW236242   2.214   5.574  11.397
11601SOL     OW36243   2.808   5.834  11.625
11601SOL    HW136244   2.784   5.870  11.540
11601SOL    HW236245   2.902   5.849  11.632
11602SOL     OW36246   3.073   7.169  11.970
11602SOL    HW136247   3.089   7.230  11.898
11602SOL    HW236248   3.153   7.174  12.024
11603SOL     OW36249   2.336   6.748  11.892
11603SOL    HW136250   2.273   6.724  11.961
11603SOL    HW236251   2.288   6.733  11.810
11604SOL     OW36252   3.124   7.379  11.789
11604SOL    HW136253   3.173   7.435  11.729
11604SOL    HW236254   3.069   7.439  11.838
11605SOL     OW36255   2.888   6.115  11.203
11605SOL    HW136256   2.846   6.198  11.181
11605SOL    HW236257   2.956   6.138  11.267
11606SOL     OW36258   2.425   5.801  12.351
11606SOL    HW136259   2.443   5.709  12.330
11606SOL    HW236260   2.332   5.803  12.372
11607SOL     OW36261   2.726   6.041  11.804
11607SOL    HW136262   2.688   6.097  11.736
11607SOL    HW236263   2.753   5.962  11.757
11608SOL     OW36264   2.879   5.638  11.914
11608SOL    HW136265   2.820   5.633  11.839
11608SOL    HW236266   2.857   5.560  11.966
11609SOL     OW36267   3.297   6.742  12.023
11609SOL    HW136268   3.232   6.672  12.018
11609SOL    HW236269   3.328   6.752  11.933
11610SOL     OW36270   3.325   6.199  12.128
11610SOL    HW136271   3.268   6.123  12.133
11610SOL    HW236272   3.386   6.188  12.201
11611SOL     OW36273   3.698   6.394  11.561
11611SOL    HW136274   3.758   6.346  11.617
11611SOL    HW236275   3.672   6.331  11.493
11612SOL     OW36276   2.346   7.017  11.322
11612SOL    HW136277   2.271   6.980  11.369
11612SOL    HW236278   2.355   6.962  11.244
11613SOL     OW36279   3.546   6.852  11.812
11613SOL    HW136280   3.641   6.848  11.827
11613SOL    HW236281   3.522   6.943  11.834
11614SOL     OW36282   3.256   6.160  11.242
11614SOL    HW136283   3.197   6.134  11.313
11614SOL    HW236284   3.341   6.123  11.267
11615SOL     OW36285   2.390   5.846  11.479
11615SOL    HW136286   2.440   5.802  11.411
11615SOL    HW236287   2.360   5.927  11.437
11616SOL     OW36288   2.966   6.827  12.286
11616SOL    HW136289   2.883   6.844  12.332
11616SOL    HW236290   2.950   6.856  12.196
11617SOL     OW36291   3.467   6.679  12.242
11617SOL    HW136292   3.432   6.713  12.325
11617SOL    HW236293   3.399   6.700  12.178
11618SOL     OW36294   2.574   6.650  11.545
11618SOL    HW136295   2.559   6.625  11.637
11618SOL    HW236296   2.649   6.598  11.518
11619SOL     OW36297   2.295   6.415  12.451
11619SOL    HW136298   2.340   6.461  12.522
11619SOL    HW236299   2.313   6.322  12.467
11620SOL     OW36300   3.110   5.948  12.432
11620SOL    HW136301   3.138   6.033  12.466
11620SOL    HW236302   3.016   5.960  12.414
11621SOL     OW36303   2.188   6.710  11.661
11621SOL    HW136304   2.185   6.779  11.594
11621SOL    HW236305   2.189   6.629  11.611
11622SOL     OW36306   2.400   6.110  12.033
11622SOL    HW136307   2.414   6.169  11.959
11622SOL    HW236308   2.466   6.136  12.098
11623SOL     OW36309   3.112   6.936  11.563
11623SOL    HW136310   3.169   7.005  11.597
11623SOL    HW236311   3.025   6.959  11.594
11624SOL     OW36312   3.151   7.031  12.317
11624SOL    HW136313   3.207   7.025  12.394
11624SOL    HW236314   3.093   6.956  12.324
11625SOL     OW36315   3.436   6.196  11.665
11625SOL    HW136316   3.385   6.250  11.726
11625SOL    HW236317   3.479   6.259  11.607
11626SOL     OW36318   2.239   7.121  12.464
11626SOL    HW136319   2.205   7.066  12.393
11626SOL    HW236320   2.305   7.176  12.421
11627SOL     OW36321   2.440   6.461  12.214
11627SOL    HW136322   2.470   6.551  12.212
11627SOL    HW236323   2.386   6.456  12.293
11628SOL     OW36324   3.186   6.442  12.173
11628SOL    HW136325   3.101   6.415  12.138
11628SOL    HW236326   3.242   6.364  12.165
11629SOL     OW36327   3.061   6.111  11.433
11629SOL    HW136328   3.070   6.032  11.487
11629SOL    HW236329   3.019   6.175  11.490
11630SOL     OW36330   2.160   5.773  12.413
11630SOL    HW136331   2.149   5.798  12.504
11630SOL    HW236332   2.138   5.680  12.411
11631SOL     OW36333   1.927   6.918  12.430
11631SOL    HW136334   1.957   6.842  12.480
11631SOL    HW236335   1.925   6.989  12.494
11632SOL     OW36336   2.574   6.213  12.218
11632SOL    HW136337   2.653   6.204  12.164
11632SOL    HW236338   2.546   6.304  12.204
11633SOL     OW36339   2.174   5.644  11.794
11633SOL    HW136340   2.147   5.734  11.813
11633SOL    HW236341   2.182   5.603  11.880
11634SOL     OW36342   3.487   5.964  11.527
11634SOL    HW136343   3.520   5.897  11.587
11634SOL    HW236344   3.462   6.037  11.584
11635SOL     OW36345   2.890   6.340  12.134
11635SOL    HW136346   2.882   6.350  12.229
11635SOL    HW236347   2.862   6.250  12.117
11636SOL     OW36348   3.375   5.863  11.296
11636SOL    HW136349   3.320   5.790  11.326
11636SOL    HW236350   3.416   5.896  11.376
11637SOL     OW36351   3.148   6.410  11.199
11637SOL    HW136352   3.189   6.324  11.204
11637SOL    HW236353   3.180   6.447  11.117
11638SOL     OW36354   2.932   6.933  12.030
11638SOL    HW136355   2.940   6.858  11.970
11638SOL    HW236356   2.990   6.999  11.993
11639SOL     OW36357   2.177   6.399  12.109
11639SOL    HW136358   2.271   6.414  12.113
11639SOL    HW236359   2.165   6.309  12.137
11640SOL     OW36360   2.168   6.128  12.168
11640SOL    HW136361   2.139   6.037  12.168
11640SOL    HW236362   2.251   6.127  12.120
11641SOL     OW36363   3.035   5.801   0.152
11641SOL    HW136364   3.018   5.867   0.220
11641SOL    HW236365   3.060   5.853   0.075
11642SOL     OW36366   1.880   6.896  11.357
11642SOL    HW136367   1.791   6.915  11.329
11642SOL    HW236368   1.874   6.809  11.397
11643SOL     OW36369   1.955   7.364  12.112
11643SOL    HW136370   1.923   7.287  12.066
11643SOL    HW236371   2.043   7.379  12.078
11644SOL     OW36372   2.358   7.165  12.072
11644SOL    HW136373   2.428   7.225  12.097
11644SOL    HW236374   2.402   7.101  12.015
11645SOL     OW36375   2.839   6.370  12.405
11645SOL    HW136376   2.879   6.442  12.454
11645SOL    HW236377   2.746   6.374  12.429
11646SOL     OW36378   1.918   6.154  12.285
11646SOL    HW136379   1.997   6.157  12.232
11646SOL    HW236380   1.934   6.087  12.351
11647SOL     OW36381   2.680   6.154  11.542
11647SOL    HW136382   2.689   6.081  11.481
11647SOL    HW236383   2.605   6.204  11.509
11648SOL     OW36384   3.518   6.190  12.325
11648SOL    HW136385   3.513   6.134  12.402
11648SOL    HW236386   3.612   6.195  12.305
11649SOL     OW36387   2.588   6.025  12.417
11649SOL    HW136388   2.521   5.960  12.396
11649SOL    HW236389   2.573   6.095  12.355
11650SOL     OW36390   2.746   7.236   0.031
11650SOL    HW136391   2.765   7.299  -0.039
11650SOL    HW236392   2.783   7.276   0.110
11651SOL     OW36393   2.314   6.075  11.349
11651SOL    HW136394   2.377   6.143  11.373
11651SOL    HW236395   2.230   6.121  11.344
11652SOL     OW36396   3.144   6.627  12.369
11652SOL    HW136397   3.165   6.567  12.297
11652SOL    HW236398   3.091   6.695  12.327
11653SOL     OW36399   3.179   6.443  11.473
11653SOL    HW136400   3.106   6.405  11.522
11653SOL    HW236401   3.156   6.428  11.381
11654SOL     OW36402   3.627   7.340  12.312
11654SOL    HW136403   3.693   7.353  12.243
11654SOL    HW236404   3.606   7.247  12.306
11655SOL     OW36405   3.109   7.302  12.282
11655SOL    HW136406   3.186   7.340  12.240
11655SOL    HW236407   3.127   7.208  12.285
11656SOL     OW36408   1.948   6.870  12.165
11656SOL    HW136409   1.935   6.885  12.259
11656SOL    HW236410   1.888   6.800  12.143
11657SOL     OW36411   3.596   5.753  11.675
11657SOL    HW136412   3.660   5.734  11.607
11657SOL    HW236413   3.574   5.667  11.712
11658SOL     OW36414   3.258   7.153  11.670
11658SOL    HW136415   3.315   7.186  11.600
11658SOL    HW236416   3.207   7.229  11.697
11659SOL     OW36417   3.139   6.522  11.847
11659SOL    HW136418   3.212   6.460  11.857
11659SOL    HW236419   3.174   6.589  11.788
11660SOL     OW36420   2.524   7.225  11.324
11660SOL    HW136421   2.541   7.233  11.230
11660SOL    HW236422   2.466   7.149  11.332
11661SOL     OW36423   3.482   7.378   0.043
11661SOL    HW136424   3.538   7.362  -0.034
11661SOL    HW236425   3.510   7.464   0.075
11662SOL     OW36426   3.705   5.754  12.142
11662SOL    HW136427   3.736   5.667  12.118
11662SOL    HW236428   3.619   5.761  12.100
11663SOL     OW36429   2.115   5.894  11.883
11663SOL    HW136430   2.030   5.931  11.860
11663SOL    HW236431   2.117   5.896  11.978
11664SOL     OW36432   3.070   7.182  11.208
11664SOL    HW136433   3.059   7.089  11.231
11664SOL    HW236434   3.006   7.196  11.138
11665SOL     OW36435   2.654   6.601  12.488
11665SOL    HW136436   2.659   6.645  12.404
11665SOL    HW236437   2.735   6.623  12.533
11666SOL     OW36438   2.783   6.502  11.467
11666SOL    HW136439   2.842   6.534  11.398
11666SOL    HW236440   2.833   6.432  11.510
11667SOL     OW36441   3.347   7.227  11.222
11667SOL    HW136442   3.255   7.208  11.204
11667SOL    HW236443   3.388   7.229  11.135
11668SOL     OW36444   2.928   6.701  11.891
11668SOL    HW136445   2.854   6.649  11.923
11668SOL    HW236446   2.994   6.637  11.864
11669SOL     OW36447   2.889   5.825  12.124
11669SOL    HW136448   2.887   5.776  12.041
11669SOL    HW236449   2.889   5.758  12.191
11670SOL     OW36450   2.439   7.084  11.628
11670SOL    HW136451   2.510   7.037  11.584
11670SOL    HW236452   2.359   7.045  11.591
11671SOL     OW36453   3.625   6.014   0.023
11671SOL    HW136454   3.693   6.008   0.091
11671SOL    HW236455   3.616   5.925  -0.010
11672SOL     OW36456   2.135   6.926  11.478
11672SOL    HW136457   2.048   6.919  11.439
11672SOL    HW236458   2.120   6.969  11.563
11673SOL     OW36459   1.941   5.913  11.201
11673SOL    HW136460   1.862   5.890  11.151
11673SOL    HW236461   1.974   5.992  11.157
11674SOL     OW36462   1.918   5.739  11.463
11674SOL    HW136463   1.905   5.813  11.404
11674SOL    HW236464   2.005   5.706  11.440
11675SOL     OW36465   3.045   6.912  11.291
11675SOL    HW136466   2.959   6.870  11.294
11675SOL    HW236467   3.072   6.916  11.383
11676SOL     OW36468   3.346   7.374  12.155
11676SOL    HW136469   3.368   7.450  12.102
11676SOL    HW236470   3.428   7.348  12.196
11677SOL     OW36471   3.533   6.458  12.407
11677SOL    HW136472   3.515   6.373  12.369
11677SOL    HW236473   3.514   6.521  12.337
11678SOL     OW36474   3.077   5.904  11.629
11678SOL    HW136475   3.140   5.831  11.623
11678SOL    HW236476   3.108   5.955  11.704
11679SOL     OW36477   2.442   6.318  11.852
11679SOL    HW136478   2.485   6.402  11.835
11679SOL    HW236479   2.380   6.308  11.780
11680SOL     OW36480   3.687   6.475   0.126
11680SOL    HW136481   3.662   6.556   0.170
11680SOL    HW236482   3.625   6.467   0.053
11681SOL     OW36483   2.717   6.955  11.218
11681SOL    HW136484   2.689   6.997  11.299
11681SOL    HW236485   2.745   7.028  11.162
11682SOL     OW36486   2.525   7.384  12.114
11682SOL    HW136487   2.511   7.474  12.086
11682SOL    HW236488   2.620   7.372  12.109
11683SOL     OW36489   2.732   6.556  12.027
11683SOL    HW136490   2.781   6.482  12.062
11683SOL    HW236491   2.698   6.602  12.104
11684SOL     OW36492   2.940   6.578  11.260
11684SOL    HW136493   2.917   6.625  11.180
11684SOL    HW236494   3.012   6.521  11.235
11685SOL     OW36495   3.714   7.137  12.012
11685SOL    HW136496   3.628   7.125  11.971
11685SOL    HW236497   3.725   7.059  12.067
11686SOL     OW36498   1.965   6.815  11.835
11686SOL    HW136499   1.974   6.777  11.922
11686SOL    HW236500   2.026   6.766  11.781
11687SOL     OW36501   3.667   5.762  12.413
11687SOL    HW136502   3.695   5.671  12.427
11687SOL    HW236503   3.674   5.775  12.319
11688SOL     OW36504   2.288   6.018  11.694
11688SOL    HW136505   2.321   5.949  11.636
11688SOL    HW236506   2.237   5.971  11.761
11689SOL     OW36507   3.560   7.082  12.282
11689SOL    HW136508   3.487   7.041  12.236
11689SOL    HW236509   3.590   7.015  12.344
11690SOL     OW36510   2.684   7.170  11.847
11690SOL    HW136511   2.661   7.220  11.768
11690SOL    HW236512   2.613   7.106  11.856
11691SOL     OW36513   3.302   5.825  12.288
11691SOL    HW136514   3.358   5.770  12.343
11691SOL    HW236515   3.238   5.864  12.348
11692SOL     OW36516   2.868   5.573  12.294
11692SOL    HW136517   2.833   5.518  12.223
11692SOL    HW236518   2.958   5.543  12.306
11693SOL     OW36519   2.631   6.925  11.516
11693SOL    HW136520   2.609   6.832  11.515
11693SOL    HW236521   2.720   6.928  11.552
11694SOL     OW36522   3.227   5.630  11.351
11694SOL    HW136523   3.266   5.560  11.300
11694SOL    HW236524   3.136   5.603  11.365
11695SOL     OW36525   3.155   6.052  11.846
11695SOL    HW136526   3.104   6.133  11.850
11695SOL    HW236527   3.153   6.019  11.936
11696SOL     OW36528   3.447   5.776  12.056
11696SOL    HW136529   3.390   5.802  12.129
11696SOL    HW236530   3.447   5.851  11.997
11697SOL     OW36531   1.906   6.646  11.481
11697SOL    HW136532   1.998   6.634  11.459
11697SOL    HW236533   1.874   6.558  11.503
11698SOL     OW36534   2.744   7.248  11.509
11698SOL    HW136535   2.672   7.234  11.447
11698SOL    HW236536   2.715   7.321  11.563
11699SOL     OW36537   2.092   7.724   0.994
11699SOL    HW136538   2.119   7.692   1.080
11699SOL    HW236539   2.003   7.691   0.983
11700SOL     OW36540   1.845   7.829   0.647
11700SOL    HW136541   1.763   7.869   0.674
11700SOL    HW236542   1.819   7.747   0.604
11701SOL     OW36543   3.487   8.025   0.194
11701SOL    HW136544   3.531   7.964   0.134
11701SOL    HW236545   3.490   7.981   0.279
11702SOL     OW36546   2.289   7.854   1.541
11702SOL    HW136547   2.366   7.811   1.505
11702SOL    HW236548   2.217   7.793   1.524
11703SOL     OW36549   3.456   7.936   0.699
11703SOL    HW136550   3.365   7.919   0.673
11703SOL    HW236551   3.449   7.965   0.790
11704SOL     OW36552   3.450   7.580   1.460
11704SOL    HW136553   3.486   7.659   1.421
11704SOL    HW236554   3.423   7.607   1.548
11705SOL     OW36555   1.923   0.104   0.579
11705SOL    HW136556   1.920   0.010   0.595
11705SOL    HW236557   1.991   0.137   0.637
11706SOL     OW36558   2.679   7.442   0.529
11706SOL    HW136559   2.723   7.522   0.501
11706SOL    HW236560   2.586   7.465   0.530
11707SOL     OW36561   2.206   7.693   1.829
11707SOL    HW136562   2.247   7.780   1.836
11707SOL    HW236563   2.114   7.708   1.850
11708SOL     OW36564   3.126   7.801   0.930
11708SOL    HW136565   3.038   7.765   0.941
11708SOL    HW236566   3.181   7.746   0.986
11709SOL     OW36567   3.269   7.941   1.701
11709SOL    HW136568   3.245   7.960   1.792
11709SOL    HW236569   3.320   7.861   1.706
11710SOL     OW36570   2.790   0.401   1.504
11710SOL    HW136571   2.851   0.330   1.484
11710SOL    HW236572   2.704   0.367   1.479
11711SOL     OW36573   2.857   7.817   1.248
11711SOL    HW136574   2.772   7.844   1.282
11711SOL    HW236575   2.837   7.751   1.182
11712SOL     OW36576   2.743   7.786   0.219
11712SOL    HW136577   2.823   7.809   0.172
11712SOL    HW236578   2.725   7.695   0.193
11713SOL     OW36579   3.612   0.015   1.816
11713SOL    HW136580   3.573   0.086   1.765
11713SOL    HW236581   3.625  -0.056   1.752
11714SOL     OW36582   2.414   7.629   0.906
11714SOL    HW136583   2.416   7.647   1.000
11714SOL    HW236584   2.410   7.716   0.866
11715SOL     OW36585   2.049   7.716   1.510
11715SOL    HW136586   1.993   7.764   1.571
11715SOL    HW236587   2.034   7.624   1.532
11716SOL     OW36588   3.274   7.544   0.454
11716SOL    HW136589   3.264   7.510   0.365
11716SOL    HW236590   3.367   7.537   0.472
11717SOL     OW36591   3.377   7.674   1.729
11717SOL    HW136592   3.384   7.696   1.822
11717SOL    HW236593   3.317   7.600   1.727
11718SOL     OW36594   2.492   7.552   0.129
11718SOL    HW136595   2.588   7.542   0.126
11718SOL    HW236596   2.459   7.476   0.081
11719SOL     OW36597   2.629   7.718   1.748
11719SOL    HW136598   2.711   7.670   1.746
11719SOL    HW236599   2.586   7.690   1.829
11720SOL     OW36600   3.208   0.014   1.437
11720SOL    HW136601   3.237  -0.010   1.525
11720SOL    HW236602   3.142   0.082   1.451
11721SOL     OW36603   2.415   7.507   0.498
11721SOL    HW136604   2.336   7.511   0.553
11721SOL    HW236605   2.413   7.588   0.447
11722SOL     OW36606   2.172   7.534   0.213
11722SOL    HW136607   2.252   7.587   0.213
11722SOL    HW236608   2.201   7.447   0.240
11723SOL     OW36609   2.814   7.665   0.460
11723SOL    HW136610   2.779   7.724   0.394
11723SOL    HW236611   2.906   7.688   0.468
11724SOL     OW36612   1.955  -0.008   1.386
11724SOL    HW136613   2.014  -0.057   1.444
11724SOL    HW236614   1.946   0.078   1.428
11725SOL     OW36615   2.416   7.667   1.180
11725SOL    HW136616   2.458   7.603   1.238
11725SOL    HW236617   2.324   7.667   1.206
11726SOL     OW36618   2.890   7.494   0.738
11726SOL    HW136619   2.825   7.498   0.667
11726SOL    HW236620   2.860   7.422   0.794
11727SOL     OW36621   3.365   7.947   0.956
11727SOL    HW136622   3.273   7.920   0.965
11727SOL    HW236623   3.388   7.981   1.043
11728SOL     OW36624   2.405   7.721   0.327
11728SOL    HW136625   2.444   7.675   0.253
11728SOL    HW236626   2.450   7.806   0.329
11729SOL     OW36627   2.782   7.532   1.391
11729SOL    HW136628   2.806   7.511   1.301
11729SOL    HW236629   2.860   7.572   1.429
11730SOL     OW36630   3.127   7.807   1.281
11730SOL    HW136631   3.157   7.884   1.330
11730SOL    HW236632   3.033   7.819   1.272
11731SOL     OW36633   2.408   7.924   0.869
11731SOL    HW136634   2.389   7.992   0.805
11731SOL    HW236635   2.482   7.958   0.920
11732SOL     OW36636   2.867   7.589   1.750
11732SOL    HW136637   2.929   7.660   1.731
11732SOL    HW236638   2.915   7.509   1.730
11733SOL     OW36639   2.359   7.480   1.749
11733SOL    HW136640   2.309   7.426   1.687
11733SOL    HW236641   2.302   7.555   1.766
11734SOL     OW36642   2.153   7.643   1.253
11734SOL    HW136643   2.109   7.673   1.332
11734SOL    HW236644   2.137   7.548   1.252
11735SOL     OW36645   2.610   0.055   1.015
11735SOL    HW136646   2.662   0.086   0.941
11735SOL    HW236647   2.556   0.130   1.040
11736SOL     OW36648   2.173   7.518   0.631
11736SOL    HW136649   2.147   7.607   0.655
11736SOL    HW236650   2.182   7.472   0.715
11737SOL     OW36651   3.467   7.818   0.385
11737SOL    HW136652   3.514   7.744   0.424
11737SOL    HW236653   3.405   7.845   0.452
11738SOL     OW36654   3.359   7.683   0.104
11738SOL    HW136655   3.312   7.618   0.156
11738SOL    HW236656   3.393   7.745   0.168
11739SOL     OW36657   2.162   7.983   1.030
11739SOL    HW136658   2.155   7.889   1.014
11739SOL    HW236659   2.243   8.009   0.987
11740SOL     OW36660   3.015   7.822   1.675
11740SOL    HW136661   2.961   7.898   1.695
11740SOL    HW236662   3.105   7.854   1.682
11741SOL     OW36663   3.026   7.633   1.473
11741SOL    HW136664   3.016   7.699   1.542
11741SOL    HW236665   3.072   7.679   1.403
11742SOL     OW36666   1.894   7.956   1.122
11742SOL    HW136667   1.977   7.950   1.075
11742SOL    HW236668   1.919   7.960   1.214
11743SOL     OW36669   2.053   7.973   1.676
11743SOL    HW136670   2.140   7.941   1.653
11743SOL    HW236671   2.070   8.050   1.730
11744SOL     OW36672   2.655   0.033   0.268
11744SOL    HW136673   2.688  -0.056   0.263
11744SOL    HW236674   2.609   0.037   0.352
11745SOL     OW36675   3.490   8.021   1.198
11745SOL    HW136676   3.477   7.972   1.280
11745SOL    HW236677   3.564   7.979   1.156
11746SOL     OW36678   2.588   7.882   1.232
11746SOL    HW136679   2.522   7.814   1.217
11746SOL    HW236680   2.581   7.940   1.156
11747SOL     OW36681   2.767   7.532   0.114
11747SOL    HW136682   2.811   7.579   0.044
11747SOL    HW236683   2.838   7.499   0.169
11748SOL     OW36684   3.593   7.602   0.508
11748SOL    HW136685   3.662   7.581   0.445
11748SOL    HW236686   3.572   7.518   0.549
11749SOL     OW36687   3.708   7.617   0.958
11749SOL    HW136688   3.732   7.527   0.937
11749SOL    HW236689   3.620   7.628   0.923
11750SOL     OW36690   2.108   7.774   0.718
11750SOL    HW136691   2.015   7.793   0.705
11750SOL    HW236692   2.117   7.760   0.812
11751SOL     OW36693   2.892   7.667   0.962
11751SOL    HW136694   2.887   7.622   0.877
11751SOL    HW236695   2.882   7.597   1.027
11752SOL     OW36696   3.594   7.818   1.384
11752SOL    HW136697   3.662   7.886   1.385
11752SOL    HW236698   3.630   7.751   1.326
11753SOL     OW36699   2.540   7.634   1.493
11753SOL    HW136700   2.626   7.611   1.457
11753SOL    HW236701   2.560   7.667   1.581
11754SOL     OW36702   1.922   7.594   0.307
11754SOL    HW136703   1.914   7.687   0.287
11754SOL    HW236704   2.011   7.571   0.278
11755SOL     OW36705   2.646   7.996   1.720
11755SOL    HW136706   2.553   8.018   1.720
11755SOL    HW236707   2.648   7.901   1.725
11756SOL     OW36708   3.084   7.742   0.450
11756SOL    HW136709   3.149   7.672   0.456
11756SOL    HW236710   3.110   7.805   0.517
11757SOL     OW36711   2.509   0.230   0.641
11757SOL    HW136712   2.492   0.324   0.636
11757SOL    HW236713   2.425   0.192   0.666
11758SOL     OW36714   3.618   7.790   1.657
11758SOL    HW136715   3.607   7.807   1.563
11758SOL    HW236716   3.540   7.742   1.683
11759SOL     OW36717   3.680   7.617   1.230
11759SOL    HW136718   3.677   7.521   1.238
11759SOL    HW236719   3.691   7.632   1.136
11760SOL     OW36720   2.192   7.850   0.461
11760SOL    HW136721   2.261   7.794   0.426
11760SOL    HW236722   2.172   7.813   0.547
11761SOL     OW36723   3.286   7.667   1.112
11761SOL    HW136724   3.299   7.581   1.152
11761SOL    HW236725   3.238   7.717   1.178
11762SOL     OW36726   2.868   7.455   1.138
11762SOL    HW136727   2.811   7.389   1.099
11762SOL    HW236728   2.955   7.415   1.136
11763SOL     OW36729   3.215   7.470   0.198
11763SOL    HW136730   3.228   7.437   0.109
11763SOL    HW236731   3.122   7.456   0.215
11764SOL     OW36732   3.182   7.892   0.672
11764SOL    HW136733   3.139   7.978   0.669
11764SOL    HW236734   3.160   7.858   0.759
11765SOL     OW36735   3.446   7.650   0.889
11765SOL    HW136736   3.395   7.664   0.969
11765SOL    HW236737   3.431   7.729   0.838
11766SOL     OW36738   2.090   7.722   2.857
11766SOL    HW136739   2.117   7.689   2.943
11766SOL    HW236740   2.001   7.689   2.846
11767SOL     OW36741   1.848   7.818   2.513
11767SOL    HW136742   1.767   7.860   2.540
11767SOL    HW236743   1.821   7.738   2.469
11768SOL     OW36744   3.488   0.026   2.061
11768SOL    HW136745   3.548   0.018   1.987
11768SOL    HW236746   3.518  -0.040   2.124
11769SOL     OW36747   2.288   7.854   3.400
11769SOL    HW136748   2.366   7.811   3.365
11769SOL    HW236749   2.217   7.792   3.384
11770SOL     OW36750   3.457   7.923   2.564
11770SOL    HW136751   3.366   7.913   2.536
11770SOL    HW236752   3.451   7.957   2.653
11771SOL     OW36753   3.452   7.580   3.323
11771SOL    HW136754   3.487   7.659   3.283
11771SOL    HW236755   3.422   7.607   3.410
11772SOL     OW36756   1.914   0.101   2.481
11772SOL    HW136757   1.919   0.006   2.482
11772SOL    HW236758   2.005   0.130   2.488
11773SOL     OW36759   2.682   7.435   2.379
11773SOL    HW136760   2.726   7.515   2.351
11773SOL    HW236761   2.589   7.457   2.383
11774SOL     OW36762   2.207   7.695   3.690
11774SOL    HW136763   2.248   7.781   3.699
11774SOL    HW236764   2.115   7.710   3.713
11775SOL     OW36765   3.125   7.803   2.795
11775SOL    HW136766   3.037   7.767   2.805
11775SOL    HW236767   3.180   7.747   2.850
11776SOL     OW36768   3.270   7.940   3.562
11776SOL    HW136769   3.246   7.960   3.652
11776SOL    HW236770   3.319   7.858   3.567
11777SOL     OW36771   2.788   0.393   3.380
11777SOL    HW136772   2.855   0.328   3.361
11777SOL    HW236773   2.708   0.357   3.341
11778SOL     OW36774   2.855   7.817   3.112
11778SOL    HW136775   2.771   7.847   3.147
11778SOL    HW236776   2.832   7.750   3.048
11779SOL     OW36777   2.755   7.789   2.047
11779SOL    HW136778   2.812   7.793   1.969
11779SOL    HW236779   2.781   7.708   2.091
11780SOL     OW36780   3.622   0.020   3.675
11780SOL    HW136781   3.562   0.082   3.633
11780SOL    HW236782   3.627  -0.054   3.614
11781SOL     OW36783   2.414   7.631   2.768
11781SOL    HW136784   2.416   7.647   2.862
11781SOL    HW236785   2.410   7.719   2.729
11782SOL     OW36786   2.046   7.717   3.372
11782SOL    HW136787   1.990   7.764   3.434
11782SOL    HW236788   2.034   7.625   3.393
11783SOL     OW36789   3.262   7.547   2.305
11783SOL    HW136790   3.256   7.523   2.213
11783SOL    HW236791   3.355   7.538   2.326
11784SOL     OW36792   3.376   7.674   3.590
11784SOL    HW136793   3.384   7.693   3.684
11784SOL    HW236794   3.313   7.602   3.586
11785SOL     OW36795   2.505   7.568   1.962
11785SOL    HW136796   2.558   7.495   1.991
11785SOL    HW236797   2.454   7.534   1.888
11786SOL     OW36798   2.628   7.716   3.611
11786SOL    HW136799   2.711   7.668   3.609
11786SOL    HW236800   2.585   7.686   3.691
11787SOL     OW36801   3.202   0.012   3.297
11787SOL    HW136802   3.235  -0.010   3.385
11787SOL    HW236803   3.138   0.082   3.312
11788SOL     OW36804   2.419   7.506   2.358
11788SOL    HW136805   2.341   7.510   2.414
11788SOL    HW236806   2.415   7.586   2.305
11789SOL     OW36807   2.152   7.497   2.048
11789SOL    HW136808   2.212   7.559   2.006
11789SOL    HW236809   2.209   7.434   2.091
11790SOL     OW36810   2.808   7.670   2.313
11790SOL    HW136811   2.767   7.757   2.314
11790SOL    HW236812   2.901   7.687   2.323
11791SOL     OW36813   1.958  -0.005   3.250
11791SOL    HW136814   2.015  -0.062   3.301
11791SOL    HW236815   1.958   0.078   3.298
11792SOL     OW36816   2.416   7.665   3.042
11792SOL    HW136817   2.457   7.602   3.100
11792SOL    HW236818   2.324   7.665   3.068
11793SOL     OW36819   2.889   7.493   2.600
11793SOL    HW136820   2.827   7.492   2.527
11793SOL    HW236821   2.860   7.421   2.657
11794SOL     OW36822   3.366   7.947   2.820
11794SOL    HW136823   3.274   7.920   2.830
11794SOL    HW236824   3.389   7.985   2.905
11795SOL     OW36825   2.410   7.718   2.185
11795SOL    HW136826   2.448   7.679   2.105
11795SOL    HW236827   2.444   7.808   2.186
11796SOL     OW36828   2.780   7.533   3.253
11796SOL    HW136829   2.805   7.511   3.163
11796SOL    HW236830   2.859   7.572   3.291
11797SOL     OW36831   3.125   7.806   3.141
11797SOL    HW136832   3.155   7.882   3.191
11797SOL    HW236833   3.031   7.818   3.133
11798SOL     OW36834   2.407   7.925   2.734
11798SOL    HW136835   2.385   7.990   2.667
11798SOL    HW236836   2.481   7.963   2.782
11799SOL     OW36837   2.868   7.589   3.613
11799SOL    HW136838   2.929   7.660   3.593
11799SOL    HW236839   2.916   7.509   3.593
11800SOL     OW36840   2.359   7.480   3.611
11800SOL    HW136841   2.309   7.426   3.550
11800SOL    HW236842   2.302   7.556   3.628
11801SOL     OW36843   2.152   7.642   3.116
11801SOL    HW136844   2.108   7.672   3.195
11801SOL    HW236845   2.137   7.548   3.114
11802SOL     OW36846   2.609   0.054   2.876
11802SOL    HW136847   2.668   0.082   2.805
11802SOL    HW236848   2.558   0.132   2.897
11803SOL     OW36849   2.176   7.516   2.491
11803SOL    HW136850   2.148   7.604   2.515
11803SOL    HW236851   2.185   7.470   2.574
11804SOL     OW36852   3.478   7.807   2.240
11804SOL    HW136853   3.522   7.735   2.286
11804SOL    HW236854   3.442   7.862   2.310
11805SOL     OW36855   3.364   7.734   1.994
11805SOL    HW136856   3.310   7.658   2.016
11805SOL    HW236857   3.406   7.758   2.077
11806SOL     OW36858   3.135   0.263   1.941
11806SOL    HW136859   3.153   0.170   1.937
11806SOL    HW236860   3.091   0.283   1.859
11807SOL     OW36861   2.164   7.978   2.894
11807SOL    HW136862   2.151   7.884   2.878
11807SOL    HW236863   2.247   7.998   2.849
11808SOL     OW36864   3.016   7.819   3.536
11808SOL    HW136865   2.961   7.896   3.552
11808SOL    HW236866   3.106   7.853   3.542
11809SOL     OW36867   3.025   7.632   3.334
11809SOL    HW136868   3.016   7.698   3.404
11809SOL    HW236869   3.071   7.678   3.264
11810SOL     OW36870   1.894   7.956   2.988
11810SOL    HW136871   1.976   7.950   2.938
11810SOL    HW236872   1.922   7.956   3.079
11811SOL     OW36873   2.054   7.974   3.545
11811SOL    HW136874   2.138   7.939   3.517
11811SOL    HW236875   2.076   8.053   3.595
11812SOL     OW36876   2.660   0.039   2.103
11812SOL    HW136877   2.698  -0.048   2.088
11812SOL    HW236878   2.617   0.032   2.188
11813SOL     OW36879   3.491   8.025   3.060
11813SOL    HW136880   3.477   7.983   3.145
11813SOL    HW236881   3.563   7.975   3.021
11814SOL     OW36882   2.585   7.882   3.093
11814SOL    HW136883   2.520   7.814   3.076
11814SOL    HW236884   2.579   7.940   3.017
11815SOL     OW36885   3.602   7.601   2.373
11815SOL    HW136886   3.670   7.583   2.308
11815SOL    HW236887   3.578   7.515   2.408
11816SOL     OW36888   3.708   7.616   2.822
11816SOL    HW136889   3.731   7.526   2.799
11816SOL    HW236890   3.620   7.628   2.786
11817SOL     OW36891   2.109   7.769   2.581
11817SOL    HW136892   2.016   7.787   2.567
11817SOL    HW236893   2.117   7.757   2.675
11818SOL     OW36894   2.892   7.666   2.823
11818SOL    HW136895   2.888   7.620   2.739
11818SOL    HW236896   2.882   7.597   2.889
11819SOL     OW36897   3.598   7.817   3.248
11819SOL    HW136898   3.664   7.886   3.246
11819SOL    HW236899   3.632   7.749   3.189
11820SOL     OW36900   2.539   7.635   3.356
11820SOL    HW136901   2.624   7.612   3.318
11820SOL    HW236902   2.559   7.667   3.444
11821SOL     OW36903   1.948   7.776   1.886
11821SOL    HW136904   1.874   7.751   1.830
11821SOL    HW236905   1.959   7.870   1.872
11822SOL     OW36906   1.921   7.596   2.156
11822SOL    HW136907   1.910   7.677   2.106
11822SOL    HW236908   2.006   7.563   2.130
11823SOL     OW36909   2.645   7.993   3.583
11823SOL    HW136910   2.553   8.017   3.582
11823SOL    HW236911   2.645   7.898   3.587
11824SOL     OW36912   3.072   7.746   2.335
11824SOL    HW136913   3.138   7.678   2.322
11824SOL    HW236914   3.109   7.804   2.400
11825SOL     OW36915   2.508   0.221   2.478
11825SOL    HW136916   2.513   0.314   2.502
11825SOL    HW236917   2.431   0.189   2.524
11826SOL     OW36918   3.617   7.796   3.519
11826SOL    HW136919   3.603   7.810   3.425
11826SOL    HW236920   3.542   7.743   3.546
11827SOL     OW36921   3.684   7.615   3.094
11827SOL    HW136922   3.676   7.520   3.100
11827SOL    HW236923   3.693   7.632   3.000
11828SOL     OW36924   2.207   7.853   2.334
11828SOL    HW136925   2.261   7.785   2.294
11828SOL    HW236926   2.178   7.815   2.416
11829SOL     OW36927   3.285   7.666   2.974
11829SOL    HW136928   3.296   7.578   3.011
11829SOL    HW236929   3.237   7.715   3.040
11830SOL     OW36930   2.868   7.455   3.000
11830SOL    HW136931   2.810   7.388   2.964
11830SOL    HW236932   2.955   7.415   2.998
11831SOL     OW36933   3.229   7.495   2.033
11831SOL    HW136934   3.268   7.418   1.991
11831SOL    HW236935   3.139   7.470   2.049
11832SOL     OW36936   3.181   7.899   2.542
11832SOL    HW136937   3.139   7.985   2.542
11832SOL    HW236938   3.161   7.862   2.628
11833SOL     OW36939   3.447   7.650   2.751
11833SOL    HW136940   3.395   7.665   2.830
11833SOL    HW236941   3.435   7.729   2.698
11834SOL     OW36942   2.089   7.726   4.720
11834SOL    HW136943   2.117   7.691   4.804
11834SOL    HW236944   2.001   7.691   4.708
11835SOL     OW36945   1.849   7.818   4.375
11835SOL    HW136946   1.767   7.859   4.402
11835SOL    HW236947   1.823   7.738   4.330
11836SOL     OW36948   3.491   8.021   3.921
11836SOL    HW136949   3.557   8.017   3.852
11836SOL    HW236950   3.519   7.956   3.985
11837SOL     OW36951   2.286   7.854   5.263
11837SOL    HW136952   2.365   7.816   5.224
11837SOL    HW236953   2.217   7.790   5.245
11838SOL     OW36954   3.460   7.914   4.423
11838SOL    HW136955   3.368   7.907   4.397
11838SOL    HW236956   3.458   7.954   4.510
11839SOL     OW36957   3.450   7.581   5.184
11839SOL    HW136958   3.488   7.659   5.144
11839SOL    HW236959   3.422   7.609   5.271
11840SOL     OW36960   1.917   0.099   4.343
11840SOL    HW136961   1.918   0.004   4.343
11840SOL    HW236962   2.008   0.124   4.328
11841SOL     OW36963   2.682   7.435   4.241
11841SOL    HW136964   2.726   7.516   4.214
11841SOL    HW236965   2.589   7.458   4.245
11842SOL     OW36966   2.206   7.694   5.558
11842SOL    HW136967   2.246   7.780   5.551
11842SOL    HW236968   2.114   7.711   5.579
11843SOL     OW36969   3.125   7.803   4.657
11843SOL    HW136970   3.037   7.766   4.667
11843SOL    HW236971   3.180   7.747   4.711
11844SOL     OW36972   3.274   7.945   5.423
11844SOL    HW136973   3.253   7.965   5.515
11844SOL    HW236974   3.324   7.863   5.427
11845SOL     OW36975   2.780   0.383   5.259
11845SOL    HW136976   2.859   0.331   5.244
11845SOL    HW236977   2.716   0.348   5.197
11846SOL     OW36978   2.849   7.819   4.973
11846SOL    HW136979   2.765   7.847   5.010
11846SOL    HW236980   2.826   7.748   4.913
11847SOL     OW36981   2.756   7.788   3.910
11847SOL    HW136982   2.805   7.800   3.829
11847SOL    HW236983   2.783   7.702   3.942
11848SOL     OW36984   3.611   0.015   5.536
11848SOL    HW136985   3.578   0.086   5.480
11848SOL    HW236986   3.625  -0.059   5.477
11849SOL     OW36987   2.413   7.631   4.628
11849SOL    HW136988   2.416   7.647   4.722
11849SOL    HW236989   2.409   7.718   4.589
11850SOL     OW36990   2.046   7.716   5.233
11850SOL    HW136991   1.987   7.762   5.294
11850SOL    HW236992   2.034   7.623   5.253
11851SOL     OW36993   3.261   7.546   4.162
11851SOL    HW136994   3.248   7.521   4.071
11851SOL    HW236995   3.356   7.537   4.176
11852SOL     OW36996   3.377   7.675   5.454
11852SOL    HW136997   3.382   7.697   5.547
11852SOL    HW236998   3.318   7.599   5.451
11853SOL     OW36999   2.505   7.566   3.824
11853SOL    HW137000   2.556   7.491   3.854
11853SOL    HW237001   2.454   7.533   3.751
11854SOL     OW37002   2.627   7.716   5.474
11854SOL    HW137003   2.710   7.669   5.471
11854SOL    HW237004   2.583   7.682   5.553
11855SOL     OW37005   3.194   0.008   5.159
11855SOL    HW137006   3.233  -0.010   5.245
11855SOL    HW237007   3.132   0.079   5.176
11856SOL     OW37008   2.418   7.506   4.220
11856SOL    HW137009   2.340   7.511   4.275
11856SOL    HW237010   2.415   7.586   4.167
11857SOL     OW37011   2.152   7.498   3.910
11857SOL    HW137012   2.212   7.559   3.868
11857SOL    HW237013   2.209   7.434   3.953
11858SOL     OW37014   2.809   7.668   4.177
11858SOL    HW137015   2.768   7.753   4.163
11858SOL    HW237016   2.902   7.688   4.187
11859SOL     OW37017   1.960  -0.004   5.113
11859SOL    HW137018   2.020  -0.061   5.161
11859SOL    HW237019   1.965   0.080   5.159
11860SOL     OW37020   2.416   7.664   4.902
11860SOL    HW137021   2.458   7.598   4.957
11860SOL    HW237022   2.324   7.664   4.929
11861SOL     OW37023   2.890   7.492   4.461
11861SOL    HW137024   2.827   7.492   4.389
11861SOL    HW237025   2.860   7.420   4.518
11862SOL     OW37026   3.369   7.944   4.681
11862SOL    HW137027   3.277   7.919   4.692
11862SOL    HW237028   3.393   7.983   4.765
11863SOL     OW37029   2.411   7.719   4.047
11863SOL    HW137030   2.449   7.680   3.968
11863SOL    HW237031   2.445   7.808   4.048
11864SOL     OW37032   2.781   7.534   5.114
11864SOL    HW137033   2.805   7.510   5.025
11864SOL    HW237034   2.860   7.572   5.152
11865SOL     OW37035   3.122   7.804   5.000
11865SOL    HW137036   3.152   7.879   5.051
11865SOL    HW237037   3.027   7.817   4.991
11866SOL     OW37038   2.405   7.927   4.595
11866SOL    HW137039   2.388   7.992   4.526
11866SOL    HW237040   2.479   7.962   4.644
11867SOL     OW37041   2.867   7.591   5.477
11867SOL    HW137042   2.929   7.661   5.457
11867SOL    HW237043   2.913   7.510   5.454
11868SOL     OW37044   2.359   7.481   5.475
11868SOL    HW137045   2.310   7.426   5.413
11868SOL    HW237046   2.301   7.556   5.491
11869SOL     OW37047   2.153   7.641   4.977
11869SOL    HW137048   2.108   7.671   5.056
11869SOL    HW237049   2.138   7.547   4.975
11870SOL     OW37050   2.607   0.050   4.737
11870SOL    HW137051   2.673   0.075   4.671
11870SOL    HW237052   2.563   0.133   4.758
11871SOL     OW37053   2.176   7.516   4.354
11871SOL    HW137054   2.149   7.605   4.378
11871SOL    HW237055   2.185   7.470   4.437
11872SOL     OW37056   3.487   7.806   4.103
11872SOL    HW137057   3.526   7.732   4.149
11872SOL    HW237058   3.452   7.862   4.172
11873SOL     OW37059   3.373   7.726   3.856
11873SOL    HW137060   3.314   7.654   3.879
11873SOL    HW237061   3.410   7.753   3.940
11874SOL     OW37062   3.081   0.248   3.814
11874SOL    HW137063   3.150   0.182   3.805
11874SOL    HW237064   3.080   0.293   3.730
11875SOL     OW37065   2.166   7.981   4.760
11875SOL    HW137066   2.153   7.887   4.743
11875SOL    HW237067   2.247   8.003   4.714
11876SOL     OW37068   3.019   7.818   5.401
11876SOL    HW137069   2.965   7.895   5.416
11876SOL    HW237070   3.109   7.851   5.406
11877SOL     OW37071   3.025   7.633   5.197
11877SOL    HW137072   3.017   7.699   5.266
11877SOL    HW237073   3.071   7.679   5.126
11878SOL     OW37074   1.893   7.954   4.853
11878SOL    HW137075   1.973   7.945   4.800
11878SOL    HW237076   1.924   7.956   4.943
11879SOL     OW37077   2.057   7.971   5.416
11879SOL    HW137078   2.139   7.940   5.377
11879SOL    HW237079   2.080   8.055   5.457
11880SOL     OW37080   2.658   0.036   3.966
11880SOL    HW137081   2.697  -0.050   3.953
11880SOL    HW237082   2.618   0.032   4.053
11881SOL     OW37083   3.492   8.024   4.921
11881SOL    HW137084   3.479   7.987   5.008
11881SOL    HW237085   3.565   7.973   4.884
11882SOL     OW37086   2.578   7.885   4.958
11882SOL    HW137087   2.516   7.815   4.937
11882SOL    HW237088   2.578   7.941   4.880
11883SOL     OW37089   3.591   7.585   4.232
11883SOL    HW137090   3.635   7.533   4.165
11883SOL    HW237091   3.561   7.521   4.296
11884SOL     OW37092   3.707   7.617   4.681
11884SOL    HW137093   3.729   7.526   4.661
11884SOL    HW237094   3.618   7.628   4.647
11885SOL     OW37095   2.110   7.770   4.443
11885SOL    HW137096   2.017   7.788   4.428
11885SOL    HW237097   2.118   7.758   4.538
11886SOL     OW37098   2.891   7.665   4.684
11886SOL    HW137099   2.889   7.619   4.601
11886SOL    HW237100   2.882   7.596   4.750
11887SOL     OW37101   3.600   7.817   5.112
11887SOL    HW137102   3.666   7.886   5.109
11887SOL    HW237103   3.633   7.750   5.052
11888SOL     OW37104   2.540   7.634   5.219
11888SOL    HW137105   2.625   7.611   5.181
11888SOL    HW237106   2.561   7.666   5.307
11889SOL     OW37107   1.948   7.777   3.747
11889SOL    HW137108   1.876   7.752   3.690
11889SOL    HW237109   1.963   7.870   3.729
11890SOL     OW37110   1.920   7.596   4.018
11890SOL    HW137111   1.910   7.677   3.968
11890SOL    HW237112   2.006   7.563   3.992
11891SOL     OW37113   2.645   7.993   5.444
11891SOL    HW137114   2.553   8.018   5.440
11891SOL    HW237115   2.645   7.898   5.447
11892SOL     OW37116   3.073   7.746   4.197
11892SOL    HW137117   3.139   7.678   4.184
11892SOL    HW237118   3.110   7.805   4.262
11893SOL     OW37119   2.509   0.220   4.346
11893SOL    HW137120   2.515   0.313   4.366
11893SOL    HW237121   2.428   0.192   4.388
11894SOL     OW37122   3.620   7.788   5.384
11894SOL    HW137123   3.610   7.804   5.290
11894SOL    HW237124   3.541   7.740   5.409
11895SOL     OW37125   3.680   7.616   4.954
11895SOL    HW137126   3.676   7.521   4.961
11895SOL    HW237127   3.690   7.633   4.860
11896SOL     OW37128   2.200   7.850   4.189
11896SOL    HW137129   2.261   7.786   4.152
11896SOL    HW237130   2.177   7.814   4.275
11897SOL     OW37131   3.286   7.664   4.834
11897SOL    HW137132   3.299   7.578   4.874
11897SOL    HW237133   3.237   7.714   4.900
11898SOL     OW37134   2.867   7.454   4.863
11898SOL    HW137135   2.810   7.388   4.824
11898SOL    HW237136   2.954   7.415   4.861
11899SOL     OW37137   3.227   7.493   3.891
11899SOL    HW137138   3.264   7.418   3.847
11899SOL    HW237139   3.136   7.468   3.908
11900SOL     OW37140   3.184   7.898   4.403
11900SOL    HW137141   3.144   7.985   4.403
11900SOL    HW237142   3.163   7.862   4.490
11901SOL     OW37143   3.446   7.652   4.609
11901SOL    HW137144   3.394   7.663   4.689
11901SOL    HW237145   3.437   7.735   4.562
11902SOL     OW37146   2.089   7.735   6.581
11902SOL    HW137147   2.120   7.698   6.664
11902SOL    HW237148   2.001   7.698   6.569
11903SOL     OW37149   1.850   7.816   6.237
11903SOL    HW137150   1.767   7.855   6.266
11903SOL    HW237151   1.824   7.736   6.191
11904SOL     OW37152   3.512   0.031   5.792
11904SOL    HW137153   3.561   0.018   5.710
11904SOL    HW237154   3.531  -0.047   5.844
11905SOL     OW37155   2.282   7.853   7.133
11905SOL    HW137156   2.361   7.819   7.090
11905SOL    HW237157   2.214   7.789   7.110
11906SOL     OW37158   3.458   7.905   6.295
11906SOL    HW137159   3.368   7.902   6.263
11906SOL    HW237160   3.452   7.949   6.380
11907SOL     OW37161   3.449   7.579   7.047
11907SOL    HW137162   3.490   7.653   7.002
11907SOL    HW237163   3.423   7.614   7.132
11908SOL     OW37164   1.917   0.095   6.211
11908SOL    HW137165   1.918  -0.001   6.207
11908SOL    HW237166   2.005   0.120   6.181
11909SOL     OW37167   2.680   7.433   6.106
11909SOL    HW137168   2.725   7.513   6.079
11909SOL    HW237169   2.588   7.458   6.109
11910SOL     OW37170   2.202   7.693   7.426
11910SOL    HW137171   2.235   7.776   7.393
11910SOL    HW237172   2.110   7.710   7.445
11911SOL     OW37173   3.119   7.810   6.524
11911SOL    HW137174   3.033   7.770   6.533
11911SOL    HW237175   3.178   7.753   6.574
11912SOL     OW37176   3.272   7.946   7.287
11912SOL    HW137177   3.263   7.964   7.381
11912SOL    HW237178   3.324   7.866   7.284
11913SOL     OW37179   2.782   0.379   7.126
11913SOL    HW137180   2.851   0.323   7.088
11913SOL    HW237181   2.707   0.366   7.069
11914SOL     OW37182   2.849   7.814   6.829
11914SOL    HW137183   2.762   7.840   6.862
11914SOL    HW237184   2.831   7.753   6.758
11915SOL     OW37185   2.763   7.783   5.779
11915SOL    HW137186   2.802   7.814   5.697
11915SOL    HW237187   2.788   7.691   5.784
11916SOL     OW37188   3.591   0.023   7.403
11916SOL    HW137189   3.572   0.089   7.337
11916SOL    HW237190   3.612  -0.056   7.353
11917SOL     OW37191   2.409   7.629   6.488
11917SOL    HW137192   2.415   7.648   6.581
11917SOL    HW237193   2.408   7.715   6.446
11918SOL     OW37194   2.050   7.711   7.091
11918SOL    HW137195   1.981   7.759   7.138
11918SOL    HW237196   2.036   7.619   7.114
11919SOL     OW37197   3.263   7.546   6.028
11919SOL    HW137198   3.256   7.521   5.936
11919SOL    HW237199   3.356   7.538   6.048
11920SOL     OW37200   3.377   7.675   7.315
11920SOL    HW137201   3.376   7.698   7.408
11920SOL    HW237202   3.323   7.596   7.309
11921SOL     OW37203   2.508   7.561   5.687
11921SOL    HW137204   2.560   7.485   5.713
11921SOL    HW237205   2.455   7.530   5.614
11922SOL     OW37206   2.629   7.717   7.339
11922SOL    HW137207   2.712   7.670   7.336
11922SOL    HW237208   2.583   7.678   7.414
11923SOL     OW37209   3.199   0.011   7.019
11923SOL    HW137210   3.238  -0.007   7.105
11923SOL    HW237211   3.136   0.080   7.035
11924SOL     OW37212   2.418   7.505   6.084
11924SOL    HW137213   2.339   7.510   6.137
11924SOL    HW237214   2.415   7.584   6.029
11925SOL     OW37215   2.150   7.498   5.771
11925SOL    HW137216   2.208   7.557   5.722
11925SOL    HW237217   2.210   7.436   5.813
11926SOL     OW37218   2.809   7.664   6.043
11926SOL    HW137219   2.775   7.739   5.993
11926SOL    HW237220   2.901   7.685   6.057
11927SOL     OW37221   1.961  -0.006   6.978
11927SOL    HW137222   2.037  -0.050   7.015
11927SOL    HW237223   1.962   0.081   7.018
11928SOL     OW37224   2.418   7.665   6.761
11928SOL    HW137225   2.459   7.594   6.810
11928SOL    HW237226   2.327   7.664   6.788
11929SOL     OW37227   2.885   7.500   6.329
11929SOL    HW137228   2.827   7.500   6.254
11929SOL    HW237229   2.858   7.424   6.381
11930SOL     OW37230   3.360   7.956   6.546
11930SOL    HW137231   3.270   7.925   6.555
11930SOL    HW237232   3.381   7.994   6.631
11931SOL     OW37233   2.413   7.713   5.904
11931SOL    HW137234   2.446   7.666   5.827
11931SOL    HW237235   2.458   7.797   5.901
11932SOL     OW37236   2.780   7.532   6.977
11932SOL    HW137237   2.803   7.508   6.887
11932SOL    HW237238   2.860   7.571   7.012
11933SOL     OW37239   3.121   7.799   6.868
11933SOL    HW137240   3.151   7.877   6.914
11933SOL    HW237241   3.027   7.813   6.855
11934SOL     OW37242   2.408   7.921   6.447
11934SOL    HW137243   2.393   7.989   6.382
11934SOL    HW237244   2.478   7.955   6.502
11935SOL     OW37245   2.869   7.591   7.346
11935SOL    HW137246   2.930   7.660   7.322
11935SOL    HW237247   2.912   7.510   7.318
11936SOL     OW37248   2.356   7.482   7.342
11936SOL    HW137249   2.310   7.427   7.278
11936SOL    HW237250   2.297   7.556   7.358
11937SOL     OW37251   2.155   7.641   6.836
11937SOL    HW137252   2.111   7.669   6.915
11937SOL    HW237253   2.140   7.546   6.832
11938SOL     OW37254   2.609   0.046   6.595
11938SOL    HW137255   2.672   0.062   6.525
11938SOL    HW237256   2.574   0.132   6.617
11939SOL     OW37257   2.175   7.516   6.215
11939SOL    HW137258   2.150   7.605   6.239
11939SOL    HW237259   2.184   7.471   6.299
11940SOL     OW37260   3.478   7.807   5.962
11940SOL    HW137261   3.522   7.735   6.009
11940SOL    HW237262   3.446   7.864   6.031
11941SOL     OW37263   3.358   7.736   5.721
11941SOL    HW137264   3.308   7.657   5.741
11941SOL    HW237265   3.404   7.756   5.803
11942SOL     OW37266   3.072   0.242   5.672
11942SOL    HW137267   3.162   0.211   5.683
11942SOL    HW237268   3.076   0.296   5.593
11943SOL     OW37269   2.163   7.996   6.627
11943SOL    HW137270   2.161   7.903   6.604
11943SOL    HW237271   2.237   8.032   6.579
11944SOL     OW37272   3.016   7.824   7.267
11944SOL    HW137273   2.963   7.901   7.286
11944SOL    HW237274   3.106   7.857   7.267
11945SOL     OW37275   3.021   7.634   7.066
11945SOL    HW137276   3.014   7.702   7.132
11945SOL    HW237277   3.067   7.675   6.993
11946SOL     OW37278   1.888   7.940   6.720
11946SOL    HW137279   1.967   7.933   6.666
11946SOL    HW237280   1.922   7.956   6.809
11947SOL     OW37281   2.064   7.962   7.293
11947SOL    HW137282   2.138   7.939   7.237
11947SOL    HW237283   2.081   8.052   7.319
11948SOL     OW37284   2.649   0.028   5.827
11948SOL    HW137285   2.697  -0.055   5.822
11948SOL    HW237286   2.612   0.030   5.915
11949SOL     OW37287   3.492   8.025   6.792
11949SOL    HW137288   3.477   7.968   6.867
11949SOL    HW237289   3.562   7.982   6.743
11950SOL     OW37290   2.579   7.886   6.819
11950SOL    HW137291   2.517   7.815   6.799
11950SOL    HW237292   2.578   7.941   6.741
11951SOL     OW37293   3.601   7.601   6.095
11951SOL    HW137294   3.669   7.583   6.029
11951SOL    HW237295   3.578   7.515   6.129
11952SOL     OW37296   3.710   7.616   6.549
11952SOL    HW137297   3.733   7.526   6.527
11952SOL    HW237298   3.623   7.628   6.510
11953SOL     OW37299   2.113   7.772   6.302
11953SOL    HW137300   2.019   7.787   6.287
11953SOL    HW237301   2.121   7.762   6.396
11954SOL     OW37302   2.888   7.667   6.557
11954SOL    HW137303   2.885   7.626   6.471
11954SOL    HW237304   2.882   7.593   6.618
11955SOL     OW37305   3.603   7.817   6.979
11955SOL    HW137306   3.668   7.887   6.973
11955SOL    HW237307   3.634   7.751   6.917
11956SOL     OW37308   2.541   7.633   7.084
11956SOL    HW137309   2.624   7.610   7.043
11956SOL    HW237310   2.565   7.668   7.170
11957SOL     OW37311   1.946   7.779   5.609
11957SOL    HW137312   1.876   7.754   5.548
11957SOL    HW237313   1.969   7.869   5.584
11958SOL     OW37314   1.920   7.598   5.877
11958SOL    HW137315   1.908   7.675   5.822
11958SOL    HW237316   2.006   7.564   5.853
11959SOL     OW37317   2.648   7.994   7.310
11959SOL    HW137318   2.556   8.020   7.300
11959SOL    HW237319   2.646   7.899   7.310
11960SOL     OW37320   3.071   7.742   6.064
11960SOL    HW137321   3.138   7.676   6.048
11960SOL    HW237322   3.111   7.801   6.128
11961SOL     OW37323   2.497   0.243   6.286
11961SOL    HW137324   2.503   0.329   6.245
11961SOL    HW237325   2.426   0.199   6.239
11962SOL     OW37326   3.618   7.795   7.253
11962SOL    HW137327   3.610   7.813   7.160
11962SOL    HW237328   3.541   7.742   7.274
11963SOL     OW37329   3.679   7.614   6.821
11963SOL    HW137330   3.676   7.518   6.826
11963SOL    HW237331   3.689   7.632   6.727
11964SOL     OW37332   2.216   7.856   6.049
11964SOL    HW137333   2.271   7.788   6.009
11964SOL    HW237334   2.188   7.820   6.133
11965SOL     OW37335   3.285   7.669   6.691
11965SOL    HW137336   3.297   7.577   6.717
11965SOL    HW237337   3.237   7.709   6.763
11966SOL     OW37338   2.866   7.449   6.725
11966SOL    HW137339   2.813   7.383   6.680
11966SOL    HW237340   2.954   7.412   6.726
11967SOL     OW37341   3.230   7.493   5.757
11967SOL    HW137342   3.269   7.416   5.715
11967SOL    HW237343   3.139   7.467   5.772
11968SOL     OW37344   3.183   7.898   6.266
11968SOL    HW137345   3.147   7.986   6.263
11968SOL    HW237346   3.160   7.866   6.353
11969SOL     OW37347   3.452   7.653   6.469
11969SOL    HW137348   3.397   7.674   6.544
11969SOL    HW237349   3.443   7.729   6.411
11970SOL     OW37350   2.087   7.742   8.446
11970SOL    HW137351   2.119   7.702   8.526
11970SOL    HW237352   2.001   7.702   8.433
11971SOL     OW37353   1.849   7.809   8.099
11971SOL    HW137354   1.768   7.849   8.129
11971SOL    HW237355   1.821   7.730   8.052
11972SOL     OW37356   3.537   0.036   7.671
11972SOL    HW137357   3.570   0.029   7.581
11972SOL    HW237358   3.541  -0.053   7.705
11973SOL     OW37359   2.284   7.849   8.996
11973SOL    HW137360   2.363   7.811   8.956
11973SOL    HW237361   2.214   7.787   8.973
11974SOL     OW37362   3.460   7.904   8.164
11974SOL    HW137363   3.372   7.901   8.126
11974SOL    HW237364   3.450   7.957   8.243
11975SOL     OW37365   3.469   7.578   8.900
11975SOL    HW137366   3.486   7.664   8.862
11975SOL    HW237367   3.440   7.596   8.989
11976SOL     OW37368   1.909   0.085   8.086
11976SOL    HW137369   1.916  -0.009   8.070
11976SOL    HW237370   1.986   0.123   8.044
11977SOL     OW37371   2.681   7.435   7.972
11977SOL    HW137372   2.726   7.515   7.943
11977SOL    HW237373   2.588   7.459   7.973
11978SOL     OW37374   2.198   7.692   9.289
11978SOL    HW137375   2.225   7.776   9.250
11978SOL    HW237376   2.105   7.704   9.310
11979SOL     OW37377   3.124   7.811   8.386
11979SOL    HW137378   3.037   7.772   8.395
11979SOL    HW237379   3.181   7.754   8.439
11980SOL     OW37380   3.270   7.943   9.148
11980SOL    HW137381   3.251   7.963   9.240
11980SOL    HW237382   3.324   7.864   9.151
11981SOL     OW37383   2.788   0.378   8.960
11981SOL    HW137384   2.807   0.294   8.917
11981SOL    HW237385   2.695   0.393   8.943
11982SOL     OW37386   2.861   7.816   8.681
11982SOL    HW137387   2.772   7.836   8.712
11982SOL    HW237388   2.848   7.757   8.607
11983SOL     OW37389   2.766   7.776   7.642
11983SOL    HW137390   2.788   7.824   7.563
11983SOL    HW237391   2.785   7.684   7.621
11984SOL     OW37392   3.598   0.018   9.252
11984SOL    HW137393   3.613   0.091   9.191
11984SOL    HW237394   3.611  -0.060   9.199
11985SOL     OW37395   2.411   7.627   8.351
11985SOL    HW137396   2.417   7.648   8.445
11985SOL    HW237397   2.409   7.711   8.307
11986SOL     OW37398   2.054   7.709   8.948
11986SOL    HW137399   1.976   7.757   8.977
11986SOL    HW237400   2.038   7.619   8.976
11987SOL     OW37401   3.262   7.543   7.888
11987SOL    HW137402   3.251   7.520   7.796
11987SOL    HW237403   3.357   7.537   7.903
11988SOL     OW37404   3.379   7.672   9.174
11988SOL    HW137405   3.382   7.692   9.267
11988SOL    HW237406   3.316   7.599   9.168
11989SOL     OW37407   2.511   7.556   7.550
11989SOL    HW137408   2.564   7.479   7.571
11989SOL    HW237409   2.456   7.528   7.477
11990SOL     OW37410   2.635   7.724   9.203
11990SOL    HW137411   2.716   7.673   9.198
11990SOL    HW237412   2.586   7.685   9.275
11991SOL     OW37413   3.217   0.014   8.881
11991SOL    HW137414   3.243  -0.012   8.969
11991SOL    HW237415   3.155   0.085   8.893
11992SOL     OW37416   2.419   7.506   7.945
11992SOL    HW137417   2.339   7.510   7.997
11992SOL    HW237418   2.415   7.584   7.889
11993SOL     OW37419   2.148   7.499   7.633
11993SOL    HW137420   2.201   7.558   7.579
11993SOL    HW237421   2.211   7.438   7.671
11994SOL     OW37422   2.809   7.665   7.902
11994SOL    HW137423   2.783   7.721   7.829
11994SOL    HW237424   2.900   7.689   7.920
11995SOL     OW37425   1.964  -0.008   8.841
11995SOL    HW137426   2.053  -0.037   8.862
11995SOL    HW237427   1.956   0.078   8.881
11996SOL     OW37428   2.422   7.670   8.625
11996SOL    HW137429   2.461   7.594   8.668
11996SOL    HW237430   2.330   7.668   8.650
11997SOL     OW37431   2.883   7.505   8.193
11997SOL    HW137432   2.825   7.507   8.117
11997SOL    HW237433   2.856   7.426   8.241
11998SOL     OW37434   3.341   7.987   8.399
11998SOL    HW137435   3.258   7.939   8.406
11998SOL    HW237436   3.368   8.001   8.490
11999SOL     OW37437   2.410   7.711   7.761
11999SOL    HW137438   2.440   7.659   7.686
11999SOL    HW237439   2.460   7.793   7.755
12000SOL     OW37440   2.778   7.533   8.838
12000SOL    HW137441   2.800   7.509   8.748
12000SOL    HW237442   2.858   7.571   8.873
12001SOL     OW37443   3.130   7.797   8.736
12001SOL    HW137444   3.160   7.878   8.777
12001SOL    HW237445   3.038   7.813   8.715
12002SOL     OW37446   2.406   7.910   8.307
12002SOL    HW137447   2.370   7.969   8.241
12002SOL    HW237448   2.472   7.961   8.354
12003SOL     OW37449   2.869   7.589   9.208
12003SOL    HW137450   2.931   7.658   9.184
12003SOL    HW237451   2.913   7.508   9.182
12004SOL     OW37452   2.355   7.483   9.204
12004SOL    HW137453   2.309   7.429   9.140
12004SOL    HW237454   2.296   7.556   9.221
12005SOL     OW37455   2.159   7.640   8.696
12005SOL    HW137456   2.115   7.668   8.776
12005SOL    HW237457   2.143   7.546   8.691
12006SOL     OW37458   2.618   0.059   8.459
12006SOL    HW137459   2.669   0.065   8.379
12006SOL    HW237460   2.549   0.125   8.449
12007SOL     OW37461   2.176   7.514   8.076
12007SOL    HW137462   2.148   7.602   8.100
12007SOL    HW237463   2.185   7.468   8.160
12008SOL     OW37464   3.474   7.800   7.818
12008SOL    HW137465   3.520   7.730   7.865
12008SOL    HW237466   3.440   7.857   7.886
12009SOL     OW37467   3.343   7.741   7.582
12009SOL    HW137468   3.296   7.659   7.599
12009SOL    HW237469   3.396   7.755   7.660
12010SOL     OW37470   3.085   0.249   7.550
12010SOL    HW137471   3.165   0.198   7.544
12010SOL    HW237472   3.076   0.291   7.465
12011SOL     OW37473   2.170   7.999   8.493
12011SOL    HW137474   2.159   7.907   8.468
12011SOL    HW237475   2.242   8.030   8.439
12012SOL     OW37476   3.015   7.824   9.127
12012SOL    HW137477   2.963   7.902   9.145
12012SOL    HW237478   3.106   7.855   9.130
12013SOL     OW37479   3.020   7.632   8.927
12013SOL    HW137480   3.012   7.701   8.994
12013SOL    HW237481   3.067   7.675   8.855
12014SOL     OW37482   1.882   7.932   8.586
12014SOL    HW137483   1.957   7.924   8.526
12014SOL    HW237484   1.922   7.953   8.670
12015SOL     OW37485   2.066   7.951   9.167
12015SOL    HW137486   2.129   7.932   9.097
12015SOL    HW237487   2.066   8.046   9.175
12016SOL     OW37488   2.650   8.024   7.694
12016SOL    HW137489   2.701   7.943   7.698
12016SOL    HW237490   2.607   8.031   7.779
12017SOL     OW37491   3.480   8.029   8.646
12017SOL    HW137492   3.468   7.971   8.721
12017SOL    HW237493   3.553   7.990   8.597
12018SOL     OW37494   2.590   7.888   8.679
12018SOL    HW137495   2.526   7.819   8.662
12018SOL    HW237496   2.585   7.945   8.602
12019SOL     OW37497   3.601   7.597   7.953
12019SOL    HW137498   3.667   7.583   7.885
12019SOL    HW237499   3.580   7.510   7.985
12020SOL     OW37500   3.708   7.607   8.439
12020SOL    HW137501   3.730   7.538   8.377
12020SOL    HW237502   3.624   7.642   8.408
12021SOL     OW37503   2.110   7.765   8.164
12021SOL    HW137504   2.017   7.781   8.149
12021SOL    HW237505   2.119   7.763   8.259
12022SOL     OW37506   2.893   7.666   8.424
12022SOL    HW137507   2.886   7.629   8.336
12022SOL    HW237508   2.884   7.591   8.482
12023SOL     OW37509   3.604   7.829   8.828
12023SOL    HW137510   3.653   7.905   8.858
12023SOL    HW237511   3.633   7.815   8.738
12024SOL     OW37512   2.540   7.636   8.949
12024SOL    HW137513   2.622   7.613   8.905
12024SOL    HW237514   2.567   7.671   9.033
12025SOL     OW37515   1.941   7.779   7.476
12025SOL    HW137516   1.874   7.754   7.412
12025SOL    HW237517   1.973   7.864   7.446
12026SOL     OW37518   1.918   7.601   7.736
12026SOL    HW137519   1.904   7.674   7.676
12026SOL    HW237520   2.004   7.567   7.713
12027SOL     OW37521   2.643   8.005   9.177
12027SOL    HW137522   2.550   8.021   9.164
12027SOL    HW237523   2.651   7.909   9.178
12028SOL     OW37524   3.071   7.739   7.930
12028SOL    HW137525   3.138   7.673   7.910
12028SOL    HW237526   3.115   7.799   7.991
12029SOL     OW37527   2.498   0.249   8.147
12029SOL    HW137528   2.502   0.334   8.103
12029SOL    HW237529   2.437   0.197   8.095
12030SOL     OW37530   3.620   7.787   9.106
12030SOL    HW137531   3.613   7.799   9.011
12030SOL    HW237532   3.541   7.738   9.130
12031SOL     OW37533   2.238   7.861   7.935
12031SOL    HW137534   2.278   7.792   7.881
12031SOL    HW237535   2.199   7.814   8.009
12032SOL     OW37536   3.286   7.666   8.552
12032SOL    HW137537   3.288   7.572   8.566
12032SOL    HW237538   3.238   7.701   8.627
12033SOL     OW37539   2.866   7.447   8.587
12033SOL    HW137540   2.815   7.381   8.540
12033SOL    HW237541   2.954   7.410   8.591
12034SOL     OW37542   3.228   7.492   7.617
12034SOL    HW137543   3.268   7.418   7.573
12034SOL    HW237544   3.137   7.464   7.633
12035SOL     OW37545   3.187   7.897   8.127
12035SOL    HW137546   3.146   7.983   8.116
12035SOL    HW237547   3.159   7.868   8.214
12036SOL     OW37548   3.470   7.678   8.342
12036SOL    HW137549   3.399   7.688   8.406
12036SOL    HW237550   3.453   7.745   8.277
12037SOL     OW37551   2.090   7.737  10.305
12037SOL    HW137552   2.120   7.701  10.388
12037SOL    HW237553   2.002   7.702  10.294
12038SOL     OW37554   1.851   7.810   9.961
12038SOL    HW137555   1.769   7.850   9.991
12038SOL    HW237556   1.823   7.731   9.915
12039SOL     OW37557   3.507   8.028   9.510
12039SOL    HW137558   3.552   8.017   9.426
12039SOL    HW237559   3.532   7.951   9.561
12040SOL     OW37560   2.285   7.853  10.854
12040SOL    HW137561   2.362   7.821  10.808
12040SOL    HW237562   2.216   7.791  10.831
12041SOL     OW37563   3.460   7.899  10.024
12041SOL    HW137564   3.371   7.899   9.988
12041SOL    HW237565   3.452   7.943  10.108
12042SOL     OW37566   3.451   7.577  10.774
12042SOL    HW137567   3.491   7.650  10.727
12042SOL    HW237568   3.425   7.614  10.858
12043SOL     OW37569   1.914   0.085   9.949
12043SOL    HW137570   1.918  -0.009   9.932
12043SOL    HW237571   1.989   0.121   9.901
12044SOL     OW37572   2.680   7.432   9.834
12044SOL    HW137573   2.726   7.511   9.805
12044SOL    HW237574   2.588   7.456   9.835
12045SOL     OW37575   2.199   7.693  11.157
12045SOL    HW137576   2.243   7.773  11.130
12045SOL    HW237577   2.107   7.717  11.164
12046SOL     OW37578   3.119   7.812  10.248
12046SOL    HW137579   3.033   7.772  10.258
12046SOL    HW237580   3.178   7.756  10.298
12047SOL     OW37581   3.270   7.945  11.009
12047SOL    HW137582   3.253   7.965  11.101
12047SOL    HW237583   3.323   7.865  11.011
12048SOL     OW37584   2.777   0.372  10.863
12048SOL    HW137585   2.848   0.323  10.821
12048SOL    HW237586   2.701   0.358  10.806
12049SOL     OW37587   2.854   7.812  10.554
12049SOL    HW137588   2.768   7.840  10.584
12049SOL    HW237589   2.837   7.758  10.477
12050SOL     OW37590   2.765   7.778   9.506
12050SOL    HW137591   2.791   7.819   9.424
12050SOL    HW237592   2.785   7.685   9.494
12051SOL     OW37593   3.607   0.031  11.111
12051SOL    HW137594   3.571   0.090  11.044
12051SOL    HW237595   3.620  -0.052  11.065
12052SOL     OW37596   2.409   7.626  10.212
12052SOL    HW137597   2.415   7.647  10.305
12052SOL    HW237598   2.408   7.711  10.168
12053SOL     OW37599   2.054   7.710  10.814
12053SOL    HW137600   1.984   7.761  10.855
12053SOL    HW237601   2.035   7.620  10.838
12054SOL     OW37602   3.262   7.544   9.752
12054SOL    HW137603   3.253   7.521   9.659
12054SOL    HW237604   3.356   7.540   9.769
12055SOL     OW37605   3.378   7.678  11.039
12055SOL    HW137606   3.380   7.700  11.132
12055SOL    HW237607   3.321   7.601  11.033
12056SOL     OW37608   2.513   7.560   9.409
12056SOL    HW137609   2.567   7.484   9.428
12056SOL    HW237610   2.456   7.532   9.337
12057SOL     OW37611   2.633   7.719  11.056
12057SOL    HW137612   2.718   7.675  11.052
12057SOL    HW237613   2.588   7.677  11.129
12058SOL     OW37614   3.205   0.014  10.745
12058SOL    HW137615   3.236  -0.008  10.833
12058SOL    HW237616   3.139   0.082  10.759
12059SOL     OW37617   2.419   7.504   9.808
12059SOL    HW137618   2.339   7.509   9.860
12059SOL    HW237619   2.416   7.582   9.752
12060SOL     OW37620   2.149   7.499   9.496
12060SOL    HW137621   2.201   7.559   9.443
12060SOL    HW237622   2.213   7.438   9.534
12061SOL     OW37623   2.809   7.661   9.766
12061SOL    HW137624   2.780   7.724   9.700
12061SOL    HW237625   2.901   7.685   9.783
12062SOL     OW37626   1.963  -0.004  10.705
12062SOL    HW137627   2.043  -0.041  10.743
12062SOL    HW237628   1.958   0.085  10.742
12063SOL     OW37629   2.419   7.666  10.485
12063SOL    HW137630   2.459   7.595  10.534
12063SOL    HW237631   2.327   7.665  10.511
12064SOL     OW37632   2.884   7.504  10.056
12064SOL    HW137633   2.827   7.507   9.980
12064SOL    HW237634   2.856   7.426  10.104
12065SOL     OW37635   3.359   7.958  10.270
12065SOL    HW137636   3.269   7.928  10.277
12065SOL    HW237637   3.375   8.005  10.353
12066SOL     OW37638   2.413   7.709   9.625
12066SOL    HW137639   2.444   7.661   9.548
12066SOL    HW237640   2.457   7.793   9.621
12067SOL     OW37641   2.782   7.529  10.701
12067SOL    HW137642   2.803   7.508  10.611
12067SOL    HW237643   2.861   7.570  10.736
12068SOL     OW37644   3.125   7.799  10.597
12068SOL    HW137645   3.154   7.879  10.640
12068SOL    HW237646   3.031   7.813  10.583
12069SOL     OW37647   2.408   7.913  10.170
12069SOL    HW137648   2.382   7.980  10.106
12069SOL    HW237649   2.477   7.955  10.221
12070SOL     OW37650   2.871   7.591  11.071
12070SOL    HW137651   2.931   7.662  11.048
12070SOL    HW237652   2.915   7.511  11.042
12071SOL     OW37653   2.346   7.475  11.070
12071SOL    HW137654   2.301   7.424  11.002
12071SOL    HW237655   2.291   7.552  11.083
12072SOL     OW37656   2.157   7.639  10.559
12072SOL    HW137657   2.112   7.670  10.638
12072SOL    HW237658   2.139   7.545  10.556
12073SOL     OW37659   2.613   0.049  10.320
12073SOL    HW137660   2.668   0.066  10.244
12073SOL    HW237661   2.563   0.130  10.332
12074SOL     OW37662   2.175   7.514   9.938
12074SOL    HW137663   2.148   7.603   9.961
12074SOL    HW237664   2.184   7.469  10.022
12075SOL     OW37665   3.476   7.802   9.683
12075SOL    HW137666   3.521   7.733   9.731
12075SOL    HW237667   3.443   7.861   9.750
12076SOL     OW37668   3.358   7.734   9.440
12076SOL    HW137669   3.306   7.656   9.460
12076SOL    HW237670   3.403   7.755   9.522
12077SOL     OW37671   3.113   0.260   9.409
12077SOL    HW137672   3.161   0.179   9.396
12077SOL    HW237673   3.084   0.286   9.321
12078SOL     OW37674   2.162   7.999  10.352
12078SOL    HW137675   2.159   7.907  10.328
12078SOL    HW237676   2.236   8.035  10.303
12079SOL     OW37677   3.015   7.822  10.993
12079SOL    HW137678   2.962   7.899  11.011
12079SOL    HW237679   3.106   7.854  10.994
12080SOL     OW37680   3.023   7.632  10.792
12080SOL    HW137681   3.014   7.701  10.857
12080SOL    HW237682   3.069   7.674  10.719
12081SOL     OW37683   1.885   7.930  10.452
12081SOL    HW137684   1.958   7.938  10.390
12081SOL    HW237685   1.924   7.953  10.537
12082SOL     OW37686   2.064   7.961  11.017
12082SOL    HW137687   2.140   7.939  10.965
12082SOL    HW237688   2.078   8.052  11.044
12083SOL     OW37689   2.650   0.027   9.553
12083SOL    HW137690   2.699  -0.056   9.556
12083SOL    HW237691   2.605   0.031   9.637
12084SOL     OW37692   3.493   8.027  10.522
12084SOL    HW137693   3.474   7.958  10.586
12084SOL    HW237694   3.561   7.990  10.467
12085SOL     OW37695   2.583   7.884  10.541
12085SOL    HW137696   2.521   7.815  10.520
12085SOL    HW237697   2.581   7.942  10.464
12086SOL     OW37698   3.602   7.600   9.818
12086SOL    HW137699   3.669   7.582   9.752
12086SOL    HW237700   3.579   7.513   9.852
12087SOL     OW37701   3.711   7.616  10.275
12087SOL    HW137702   3.735   7.527  10.251
12087SOL    HW237703   3.624   7.629  10.236
12088SOL     OW37704   2.112   7.767  10.025
12088SOL    HW137705   2.019   7.783  10.011
12088SOL    HW237706   2.121   7.761  10.120
12089SOL     OW37707   2.888   7.669  10.285
12089SOL    HW137708   2.884   7.630  10.198
12089SOL    HW237709   2.882   7.594  10.345
12090SOL     OW37710   3.604   7.816  10.704
12090SOL    HW137711   3.666   7.888  10.696
12090SOL    HW237712   3.633   7.751  10.639
12091SOL     OW37713   2.542   7.628  10.808
12091SOL    HW137714   2.625   7.607  10.765
12091SOL    HW237715   2.567   7.668  10.891
12092SOL     OW37716   1.934   7.775   9.345
12092SOL    HW137717   1.870   7.754   9.278
12092SOL    HW237718   1.974   7.857   9.316
12093SOL     OW37719   1.917   7.600   9.597
12093SOL    HW137720   1.902   7.672   9.536
12093SOL    HW237721   2.004   7.567   9.575
12094SOL     OW37722   2.650   7.994  11.020
12094SOL    HW137723   2.559   8.022  11.021
12094SOL    HW237724   2.646   7.898  11.021
12095SOL     OW37725   3.071   7.740   9.791
12095SOL    HW137726   3.138   7.674   9.773
12095SOL    HW237727   3.112   7.800   9.853
12096SOL     OW37728   2.496   0.247  10.016
12096SOL    HW137729   2.499   0.332   9.971
12096SOL    HW237730   2.430   0.197   9.968
12097SOL     OW37731   3.621   7.795  10.977
12097SOL    HW137732   3.611   7.811  10.883
12097SOL    HW237733   3.543   7.743  11.000
12098SOL     OW37734   3.680   7.611  10.547
12098SOL    HW137735   3.676   7.516  10.549
12098SOL    HW237736   3.691   7.633  10.454
12099SOL     OW37737   2.231   7.858   9.787
12099SOL    HW137738   2.275   7.787   9.740
12099SOL    HW237739   2.196   7.815   9.865
12100SOL     OW37740   3.284   7.670  10.416
12100SOL    HW137741   3.296   7.579  10.442
12100SOL    HW237742   3.237   7.710  10.488
12101SOL     OW37743   2.867   7.447  10.447
12101SOL    HW137744   2.816   7.383  10.398
12101SOL    HW237745   2.955   7.411  10.450
12102SOL     OW37746   3.229   7.492   9.480
12102SOL    HW137747   3.268   7.417   9.436
12102SOL    HW237748   3.138   7.465   9.496
12103SOL     OW37749   3.184   7.898   9.990
12103SOL    HW137750   3.147   7.986   9.983
12103SOL    HW237751   3.159   7.868  10.077
12104SOL     OW37752   3.452   7.652  10.193
12104SOL    HW137753   3.397   7.677  10.267
12104SOL    HW237754   3.446   7.726  10.133
12105SOL     OW37755   2.093   7.712  12.170
12105SOL    HW137756   2.120   7.681  12.257
12105SOL    HW237757   2.001   7.686  12.163
12106SOL     OW37758   1.844   7.821  11.825
12106SOL    HW137759   1.761   7.861  11.851
12106SOL    HW237760   1.819   7.739  11.782
12107SOL     OW37761   3.515   0.028  11.370
12107SOL    HW137762   3.561   0.024  11.286
12107SOL    HW237763   3.555  -0.041  11.422
12108SOL     OW37764   3.458   7.911  11.884
12108SOL    HW137765   3.369   7.908  11.848
12108SOL    HW237766   3.448   7.950  11.971
12109SOL     OW37767   1.915   0.100  11.794
12109SOL    HW137768   1.913   0.004  11.797
12109SOL    HW237769   2.008   0.121  11.798
12110SOL     OW37770   2.667   7.447  11.683
12110SOL    HW137771   2.719   7.521  11.651
12110SOL    HW237772   2.606   7.486  11.745
12111SOL     OW37773   3.122   7.797  12.107
12111SOL    HW137774   3.033   7.767  12.124
12111SOL    HW237775   3.177   7.745  12.166
12112SOL     OW37776   2.827   7.787  12.425
12112SOL    HW137777   2.762   7.856  12.441
12112SOL    HW237778   2.825   7.774  12.330
12113SOL     OW37779   2.769   7.777  11.357
12113SOL    HW137780   2.791   7.821  11.275
12113SOL    HW237781   2.797   7.686  11.343
12114SOL     OW37782   2.429   7.641  12.051
12114SOL    HW137783   2.422   7.663  12.144
12114SOL    HW237784   2.421   7.725  12.006
12115SOL     OW37785   3.262   7.543  11.614
12115SOL    HW137786   3.254   7.522  11.521
12115SOL    HW237787   3.356   7.550  11.628
12116SOL     OW37788   2.536   7.542  11.248
12116SOL    HW137789   2.593   7.466  11.258
12116SOL    HW237790   2.470   7.514  11.185
12117SOL     OW37791   2.182   7.527  11.375
12117SOL    HW137792   2.198   7.590  11.305
12117SOL    HW237793   2.228   7.448  11.347
12118SOL     OW37794   2.811   7.667  11.625
12118SOL    HW137795   2.783   7.727  11.556
12118SOL    HW237796   2.902   7.690  11.641
12119SOL     OW37797   1.978   0.004   0.058
12119SOL    HW137798   2.063  -0.016   0.099
12119SOL    HW237799   1.942   0.075   0.110
12120SOL     OW37800   2.417   7.671  12.321
12120SOL    HW137801   2.457   7.588  12.347
12120SOL    HW237802   2.329   7.668  12.360
12121SOL     OW37803   2.889   7.511  11.929
12121SOL    HW137804   2.849   7.515  11.842
12121SOL    HW237805   2.858   7.428  11.965
12122SOL     OW37806   3.356   7.952  12.134
12122SOL    HW137807   3.267   7.918  12.138
12122SOL    HW237808   3.364   8.007  12.212
12123SOL     OW37809   2.448   7.694  11.457
12123SOL    HW137810   2.492   7.655  11.381
12123SOL    HW237811   2.476   7.785  11.457
12124SOL     OW37812   3.103   7.844  12.429
12124SOL    HW137813   3.132   7.894  12.505
12124SOL    HW237814   3.012   7.820  12.448
12125SOL     OW37815   2.415   7.935  12.035
12125SOL    HW137816   2.405   7.995  11.961
12125SOL    HW237817   2.489   7.971  12.085
12126SOL     OW37818   2.166   7.627  12.421
12126SOL    HW137819   2.128   7.652  12.505
12126SOL    HW237820   2.149   7.534  12.413
12127SOL     OW37821   2.612   0.050  12.189
12127SOL    HW137822   2.707   0.059  12.189
12127SOL    HW237823   2.580   0.140  12.198
12128SOL     OW37824   2.177   7.517  11.786
12128SOL    HW137825   2.149   7.604  11.814
12128SOL    HW237826   2.191   7.469  11.868
12129SOL     OW37827   3.468   7.796  11.548
12129SOL    HW137828   3.518   7.733  11.600
12129SOL    HW237829   3.443   7.864  11.611
12130SOL     OW37830   3.353   7.737  11.304
12130SOL    HW137831   3.303   7.658  11.325
12130SOL    HW237832   3.400   7.757  11.385
12131SOL     OW37833   3.080   0.251  11.271
12131SOL    HW137834   3.161   0.201  11.268
12131SOL    HW237835   3.074   0.292  11.185
12132SOL     OW37836   2.169   7.970  12.172
12132SOL    HW137837   2.153   7.875  12.171
12132SOL    HW237838   2.260   7.979  12.144
12133SOL     OW37839   3.018   7.703   0.177
12133SOL    HW137840   3.039   7.723   0.268
12133SOL    HW237841   3.098   7.722   0.129
12134SOL     OW37842   1.915   7.964  12.290
12134SOL    HW137843   2.000   7.966  12.245
12134SOL    HW237844   1.938   7.972  12.383
12135SOL     OW37845   2.643   8.010  11.431
12135SOL    HW137846   2.696   7.932  11.415
12135SOL    HW237847   2.652   8.026  11.525
12136SOL     OW37848   3.505   0.035  12.370
12136SOL    HW137849   3.504  -0.034  12.437
12136SOL    HW237850   3.567   0.003  12.304
12137SOL     OW37851   2.531   7.908  12.407
12137SOL    HW137852   2.493   7.825  12.378
12137SOL    HW237853   2.557   7.953  12.326
12138SOL     OW37854   3.607   7.602  11.685
12138SOL    HW137855   3.671   7.586  11.615
12138SOL    HW237856   3.583   7.515  11.716
12139SOL     OW37857   3.707   7.620  12.136
12139SOL    HW137858   3.731   7.531  12.110
12139SOL    HW237859   3.618   7.631  12.102
12140SOL     OW37860   2.100   7.761  11.900
12140SOL    HW137861   2.010   7.786  11.882
12140SOL    HW237862   2.103   7.747  11.995
12141SOL     OW37863   2.881   7.670  12.160
12141SOL    HW137864   2.881   7.628  12.074
12141SOL    HW237865   2.876   7.597  12.222
12142SOL     OW37866   3.614   7.840   0.042
12142SOL    HW137867   3.702   7.877   0.045
12142SOL    HW237868   3.626   7.754   0.002
12143SOL     OW37869   1.940   7.774  11.195
12143SOL    HW137870   1.870   7.755  11.132
12143SOL    HW237871   1.971   7.862  11.171
12144SOL     OW37872   1.923   7.597  11.460
12144SOL    HW137873   1.902   7.674  11.407
12144SOL    HW237874   2.015   7.580  11.441
12145SOL     OW37875   3.071   7.739  11.657
12145SOL    HW137876   3.139   7.674  11.637
12145SOL    HW237877   3.112   7.800  11.717
12146SOL     OW37878   2.499   0.215  11.815
12146SOL    HW137879   2.532   0.302  11.793
12146SOL    HW237880   2.458   0.224  11.900
12147SOL     OW37881   3.687   7.607  12.411
12147SOL    HW137882   3.681   7.512  12.404
12147SOL    HW237883   3.693   7.638  12.321
12148SOL     OW37884   2.264   7.780  11.681
12148SOL    HW137885   2.299   7.864  11.651
12148SOL    HW237886   2.214   7.801  11.760
12149SOL     OW37887   3.291   7.690  12.305
12149SOL    HW137888   3.346   7.654  12.374
12149SOL    HW237889   3.227   7.745  12.351
12150SOL     OW37890   2.863   7.421  12.302
12150SOL    HW137891   2.830   7.373  12.226
12150SOL    HW237892   2.955   7.395  12.308
12151SOL     OW37893   3.225   7.493  11.344
12151SOL    HW137894   3.264   7.419  11.298
12151SOL    HW237895   3.134   7.466  11.360
12152SOL     OW37896   3.181   7.899  11.854
12152SOL    HW137897   3.138   7.984  11.852
12152SOL    HW237898   3.159   7.862  11.940
12153SOL     OW37899   3.442   7.649  12.069
12153SOL    HW137900   3.391   7.674  12.146
12153SOL    HW237901   3.432   7.723  12.009
12154SOL     OW37902   3.983   0.587   0.028
12154SOL    HW137903   3.947   0.643   0.096
12154SOL    HW237904   3.923   0.597  -0.046
12155SOL     OW37905   3.944   0.301   0.989
12155SOL    HW137906   3.975   0.259   1.070
12155SOL    HW237907   3.864   0.254   0.968
12156SOL     OW37908   3.732   0.394   0.634
12156SOL    HW137909   3.649   0.420   0.674
12156SOL    HW237910   3.716   0.305   0.601
12157SOL     OW37911   5.301   1.520   0.714
12157SOL    HW137912   5.257   1.496   0.795
12157SOL    HW237913   5.232   1.523   0.648
12158SOL     OW37914   4.859   0.700   0.693
12158SOL    HW137915   4.904   0.784   0.683
12158SOL    HW237916   4.810   0.710   0.775
12159SOL     OW37917   5.458   0.628   0.271
12159SOL    HW137918   5.443   0.625   0.177
12159SOL    HW237919   5.432   0.541   0.302
12160SOL     OW37920   4.460   1.116   1.043
12160SOL    HW137921   4.494   1.124   1.132
12160SOL    HW237922   4.478   1.202   1.003
12161SOL     OW37923   4.606   0.748   1.829
12161SOL    HW137924   4.600   0.811   1.901
12161SOL    HW237925   4.627   0.801   1.752
12162SOL     OW37926   4.409   0.987   0.641
12162SOL    HW137927   4.478   0.983   0.707
12162SOL    HW237928   4.343   1.046   0.678
12163SOL     OW37929   4.437   1.148   1.811
12163SOL    HW137930   4.479   1.225   1.850
12163SOL    HW237931   4.353   1.181   1.779
12164SOL     OW37932   4.076   1.409   1.078
12164SOL    HW137933   3.999   1.366   1.040
12164SOL    HW237934   4.113   1.460   1.006
12165SOL     OW37935   5.185   1.507   1.365
12165SOL    HW137936   5.240   1.585   1.376
12165SOL    HW237937   5.115   1.518   1.429
12166SOL     OW37938   4.172   0.384   1.460
12166SOL    HW137939   4.251   0.331   1.475
12166SOL    HW237940   4.099   0.327   1.483
12167SOL     OW37941   5.336   0.463   0.735
12167SOL    HW137942   5.291   0.498   0.659
12167SOL    HW237943   5.314   0.523   0.806
12168SOL     OW37944   3.941   1.716   0.471
12168SOL    HW137945   3.960   1.791   0.527
12168SOL    HW237946   4.018   1.706   0.417
12169SOL     OW37947   4.859   1.346   1.696
12169SOL    HW137948   4.904   1.338   1.779
12169SOL    HW237949   4.807   1.265   1.689
12170SOL     OW37950   3.950   1.450   0.547
12170SOL    HW137951   3.933   1.544   0.543
12170SOL    HW237952   3.891   1.418   0.615
12171SOL     OW37953   4.016   1.089   0.906
12171SOL    HW137954   3.997   0.999   0.933
12171SOL    HW237955   3.950   1.142   0.951
12172SOL     OW37956   4.314   1.781   1.417
12172SOL    HW137957   4.237   1.768   1.472
12172SOL    HW237958   4.348   1.866   1.443
12173SOL     OW37959   4.303   0.961   0.148
12173SOL    HW137960   4.369   0.979   0.081
12173SOL    HW237961   4.333   1.010   0.225
12174SOL     OW37962   5.378   0.122   1.480
12174SOL    HW137963   5.334   0.180   1.419
12174SOL    HW237964   5.338   0.142   1.565
12175SOL     OW37965   3.849   0.646   0.564
12175SOL    HW137966   3.812   0.560   0.586
12175SOL    HW237967   3.839   0.698   0.644
12176SOL     OW37968   5.585   1.730   0.304
12176SOL    HW137969   5.651   1.709   0.369
12176SOL    HW237970   5.592   1.824   0.291
12177SOL     OW37971   3.760   1.518   0.135
12177SOL    HW137972   3.672   1.483   0.122
12177SOL    HW237973   3.747   1.596   0.189
12178SOL     OW37974   5.406   0.934   0.651
12178SOL    HW137975   5.476   0.888   0.605
12178SOL    HW237976   5.373   0.998   0.587
12179SOL     OW37977   5.370   1.118   0.434
12179SOL    HW137978   5.457   1.116   0.393
12179SOL    HW237979   5.380   1.180   0.507
12180SOL     OW37980   3.845   0.754   1.583
12180SOL    HW137981   3.933   0.790   1.598
12180SOL    HW237982   3.787   0.830   1.588
12181SOL     OW37983   4.337   1.393   0.733
12181SOL    HW137984   4.295   1.308   0.739
12181SOL    HW237985   4.324   1.420   0.642
12182SOL     OW37986   5.010   1.232   1.416
12182SOL    HW137987   5.042   1.164   1.357
12182SOL    HW237988   5.069   1.228   1.492
12183SOL     OW37989   4.568   0.035   0.574
12183SOL    HW137990   4.609   0.110   0.530
12183SOL    HW237991   4.477   0.062   0.588
12184SOL     OW37992   3.912   0.960   1.280
12184SOL    HW137993   3.995   0.917   1.261
12184SOL    HW237994   3.848   0.913   1.226
12185SOL     OW37995   5.229   1.009   0.226
12185SOL    HW137996   5.164   0.952   0.265
12185SOL    HW237997   5.279   1.042   0.301
12186SOL     OW37998   4.900   1.819   1.626
12186SOL    HW137999   4.911   1.885   1.558
12186SOL    HW238000   4.932   1.738   1.586
12187SOL     OW38001   4.031   0.230   1.774
12187SOL    HW138002   4.098   0.286   1.813
12187SOL    HW238003   3.952   0.248   1.824
12188SOL     OW38004   5.190   1.418   0.945
12188SOL    HW138005   5.126   1.434   1.014
12188SOL    HW238006   5.177   1.327   0.920
12189SOL     OW38007   5.379   1.764   0.581
12189SOL    HW138008   5.355   1.727   0.496
12189SOL    HW238009   5.363   1.693   0.643
12190SOL     OW38010   4.309   0.716   0.282
12190SOL    HW138011   4.313   0.802   0.241
12190SOL    HW238012   4.244   0.725   0.352
12191SOL     OW38013   5.019   0.378   0.935
12191SOL    HW138014   4.928   0.349   0.938
12191SOL    HW238015   5.065   0.321   0.996
12192SOL     OW38016   5.315   1.677   0.325
12192SOL    HW138017   5.410   1.683   0.314
12192SOL    HW238018   5.279   1.712   0.244
12193SOL     OW38019   4.489   0.647   1.438
12193SOL    HW138020   4.481   0.615   1.527
12193SOL    HW238021   4.484   0.568   1.383
12194SOL     OW38022   5.134   0.487   1.681
12194SOL    HW138023   5.133   0.532   1.765
12194SOL    HW238024   5.203   0.421   1.690
12195SOL     OW38025   4.669   0.880   1.585
12195SOL    HW138026   4.722   0.808   1.551
12195SOL    HW238027   4.607   0.899   1.515
12196SOL     OW38028   4.737   0.416   1.205
12196SOL    HW138029   4.651   0.432   1.245
12196SOL    HW238030   4.717   0.375   1.121
12197SOL     OW38031   4.780   0.702   0.425
12197SOL    HW138032   4.796   0.697   0.519
12197SOL    HW238033   4.695   0.661   0.413
12198SOL     OW38034   3.816   0.812   0.777
12198SOL    HW138035   3.894   0.810   0.832
12198SOL    HW238036   3.767   0.888   0.808
12199SOL     OW38037   3.836   1.832   1.575
12199SOL    HW138038   3.844   1.819   1.670
12199SOL    HW238039   3.755   1.882   1.565
12200SOL     OW38040   4.606   0.364   0.204
12200SOL    HW138041   4.659   0.431   0.160
12200SOL    HW238042   4.536   0.344   0.141
12201SOL     OW38043   5.437   0.572   1.830
12201SOL    HW138044   5.400   0.647   1.783
12201SOL    HW238045   5.459   0.510   1.761
12202SOL     OW38046   5.105   1.143   0.536
12202SOL    HW138047   5.187   1.141   0.486
12202SOL    HW238048   5.050   1.205   0.489
12203SOL     OW38049   4.270   0.242   0.928
12203SOL    HW138050   4.256   0.260   1.021
12203SOL    HW238051   4.271   0.329   0.887
12204SOL     OW38052   4.718   1.437   0.475
12204SOL    HW138053   4.683   1.513   0.428
12204SOL    HW238054   4.695   1.453   0.567
12205SOL     OW38055   4.078   1.817   0.877
12205SOL    HW138056   4.128   1.736   0.884
12205SOL    HW238057   4.142   1.886   0.897
12206SOL     OW38058   5.528   1.040   0.881
12206SOL    HW138059   5.476   1.024   0.802
12206SOL    HW238060   5.463   1.052   0.950
12207SOL     OW38061   4.952   1.545   1.513
12207SOL    HW138062   4.939   1.473   1.575
12207SOL    HW238063   4.869   1.551   1.466
12208SOL     OW38064   4.041   0.980   0.270
12208SOL    HW138065   4.115   0.992   0.210
12208SOL    HW238066   3.999   0.899   0.240
12209SOL     OW38067   5.203   0.761   0.722
12209SOL    HW138068   5.202   0.720   0.808
12209SOL    HW238069   5.280   0.818   0.723
12210SOL     OW38070   4.198   1.259   1.725
12210SOL    HW138071   4.169   1.240   1.636
12210SOL    HW238072   4.117   1.261   1.777
12211SOL     OW38073   4.805   1.786   0.234
12211SOL    HW138074   4.755   1.735   0.298
12211SOL    HW238075   4.867   1.723   0.198
12212SOL     OW38076   3.917   0.262   1.506
12212SOL    HW138077   3.844   0.324   1.505
12212SOL    HW238078   3.936   0.250   1.599
12213SOL     OW38079   5.377   1.409   0.024
12213SOL    HW138080   5.310   1.478   0.027
12213SOL    HW238081   5.330   1.329   0.047
12214SOL     OW38082   4.180   1.726   0.333
12214SOL    HW138083   4.226   1.787   0.391
12214SOL    HW238084   4.249   1.693   0.274
12215SOL     OW38085   5.119   0.110   0.430
12215SOL    HW138086   5.113   0.066   0.345
12215SOL    HW238087   5.213   0.123   0.443
12216SOL     OW38088   3.942   1.818   1.218
12216SOL    HW138089   3.988   1.745   1.258
12216SOL    HW238090   3.930   1.792   1.126
12217SOL     OW38091   4.672   1.697   0.896
12217SOL    HW138092   4.758   1.656   0.905
12217SOL    HW238093   4.628   1.647   0.827
12218SOL     OW38094   4.118   0.684   0.482
12218SOL    HW138095   4.140   0.591   0.493
12218SOL    HW238096   4.026   0.690   0.506
12219SOL     OW38097   5.277   0.209   1.722
12219SOL    HW138098   5.290   0.245   1.809
12219SOL    HW238099   5.192   0.165   1.727
12220SOL     OW38100   4.320   0.074   0.106
12220SOL    HW138101   4.392   0.065   0.169
12220SOL    HW238102   4.342   0.014   0.035
12221SOL     OW38103   4.456   0.296   1.757
12221SOL    HW138104   4.525   0.229   1.760
12221SOL    HW238105   4.400   0.277   1.832
12222SOL     OW38106   4.589   1.507   1.195
12222SOL    HW138107   4.579   1.477   1.104
12222SOL    HW238108   4.668   1.464   1.226
12223SOL     OW38109   5.061   0.597   1.438
12223SOL    HW138110   5.098   0.568   1.521
12223SOL    HW238111   5.098   0.684   1.424
12224SOL     OW38112   4.529   1.369   0.948
12224SOL    HW138113   4.617   1.365   0.911
12224SOL    HW238114   4.473   1.389   0.873
12225SOL     OW38115   4.653   0.522   0.889
12225SOL    HW138116   4.625   0.514   0.798
12225SOL    HW238117   4.689   0.437   0.911
12226SOL     OW38118   4.298   0.021   0.428
12226SOL    HW138119   4.233  -0.010   0.491
12226SOL    HW238120   4.280   0.115   0.420
12227SOL     OW38121   5.190   1.214   0.050
12227SOL    HW138122   5.204   1.137   0.107
12227SOL    HW238123   5.100   1.241   0.068
12228SOL     OW38124   4.063   0.013   0.206
12228SOL    HW138125   4.146   0.043   0.169
12228SOL    HW238126   4.086  -0.021   0.293
12229SOL     OW38127   4.674   0.256   0.456
12229SOL    HW138128   4.643   0.284   0.370
12229SOL    HW238129   4.768   0.278   0.455
12230SOL     OW38130   4.796   0.668   1.463
12230SOL    HW138131   4.746   0.588   1.479
12230SOL    HW238132   4.887   0.638   1.457
12231SOL     OW38133   4.931   1.581   0.802
12231SOL    HW138134   4.947   1.642   0.730
12231SOL    HW238135   5.002   1.598   0.864
12232SOL     OW38136   4.206   1.153   0.726
12232SOL    HW138137   4.143   1.131   0.795
12232SOL    HW238138   4.156   1.146   0.645
12233SOL     OW38139   4.980   1.788   0.614
12233SOL    HW138140   5.031   1.852   0.564
12233SOL    HW238141   4.910   1.840   0.654
12234SOL     OW38142   4.747   0.562   0.086
12234SOL    HW138143   4.736   0.636   0.026
12234SOL    HW238144   4.825   0.584   0.136
12235SOL     OW38145   3.818   0.564   1.391
12235SOL    HW138146   3.910   0.564   1.365
12235SOL    HW238147   3.813   0.631   1.459
12236SOL     OW38148   4.289   0.233   1.208
12236SOL    HW138149   4.328   0.197   1.288
12236SOL    HW238150   4.195   0.225   1.221
12237SOL     OW38151   4.586   0.467   0.631
12237SOL    HW138152   4.555   0.521   0.558
12237SOL    HW238153   4.602   0.381   0.592
12238SOL     OW38154   4.715   0.035   0.799
12238SOL    HW138155   4.666   0.035   0.717
12238SOL    HW238156   4.725  -0.057   0.822
12239SOL     OW38157   5.164   1.157   0.860
12239SOL    HW138158   5.092   1.094   0.858
12239SOL    HW238159   5.190   1.166   0.768
12240SOL     OW38160   5.190   0.610   0.955
12240SOL    HW138161   5.131   0.535   0.961
12240SOL    HW238162   5.244   0.604   1.034
12241SOL     OW38163   5.557   0.827   0.430
12241SOL    HW138164   5.612   0.768   0.481
12241SOL    HW238165   5.514   0.771   0.366
12242SOL     OW38166   4.219   1.402   0.180
12242SOL    HW138167   4.149   1.360   0.229
12242SOL    HW238168   4.176   1.441   0.104
12243SOL     OW38169   5.403   1.267   0.652
12243SOL    HW138170   5.497   1.261   0.667
12243SOL    HW238171   5.380   1.358   0.673
12244SOL     OW38172   5.128   0.552   0.082
12244SOL    HW138173   5.073   0.550   0.160
12244SOL    HW238174   5.179   0.472   0.086
12245SOL     OW38175   4.233   0.263   0.312
12245SOL    HW138176   4.263   0.211   0.238
12245SOL    HW238177   4.214   0.349   0.275
12246SOL     OW38178   5.467   1.243   1.548
12246SOL    HW138179   5.555   1.207   1.537
12246SOL    HW238180   5.481   1.331   1.582
12247SOL     OW38181   4.786   1.347   1.317
12247SOL    HW138182   4.712   1.326   1.374
12247SOL    HW238183   4.862   1.313   1.363
12248SOL     OW38184   5.330   1.626   1.658
12248SOL    HW138185   5.325   1.665   1.570
12248SOL    HW238186   5.412   1.576   1.657
12249SOL     OW38187   4.846   1.195   1.096
12249SOL    HW138188   4.810   1.251   1.166
12249SOL    HW238189   4.828   1.243   1.015
12250SOL     OW38190   5.343   1.096   1.076
12250SOL    HW138191   5.336   1.160   1.146
12250SOL    HW238192   5.270   1.116   1.017
12251SOL     OW38193   4.643   0.125   1.402
12251SOL    HW138194   4.658   0.112   1.309
12251SOL    HW238195   4.731   0.127   1.440
12252SOL     OW38196   4.694   1.123   1.704
12252SOL    HW138197   4.610   1.127   1.750
12252SOL    HW238198   4.696   1.037   1.663
12253SOL     OW38199   4.435   1.062   0.372
12253SOL    HW138200   4.418   1.037   0.463
12253SOL    HW238201   4.514   1.012   0.348
12254SOL     OW38202   4.148   0.825   1.247
12254SOL    HW138203   4.209   0.841   1.318
12254SOL    HW238204   4.116   0.736   1.261
12255SOL     OW38205   4.994   0.381   1.284
12255SOL    HW138206   5.023   0.461   1.328
12255SOL    HW238207   4.907   0.401   1.251
12256SOL     OW38208   3.786   1.574   1.359
12256SOL    HW138209   3.747   1.651   1.318
12256SOL    HW238210   3.881   1.589   1.353
12257SOL     OW38211   4.056   1.131   0.498
12257SOL    HW138212   4.047   1.208   0.442
12257SOL    HW238213   4.061   1.057   0.438
12258SOL     OW38214   4.279   0.513   0.853
12258SOL    HW138215   4.285   0.575   0.780
12258SOL    HW238216   4.342   0.545   0.918
12259SOL     OW38217   4.967   1.350   0.397
12259SOL    HW138218   5.022   1.421   0.430
12259SOL    HW238219   4.880   1.370   0.430
12260SOL     OW38220   5.021   1.463   1.155
12260SOL    HW138221   5.082   1.476   1.228
12260SOL    HW238222   4.955   1.403   1.189
12261SOL     OW38223   5.273   0.610   0.502
12261SOL    HW138224   5.229   0.667   0.565
12261SOL    HW238225   5.301   0.668   0.432
12262SOL     OW38226   4.055   1.579   1.289
12262SOL    HW138227   4.051   1.535   1.204
12262SOL    HW238228   4.147   1.605   1.299
12263SOL     OW38229   4.160   0.733   1.621
12263SOL    HW138230   4.208   0.784   1.556
12263SOL    HW238231   4.220   0.664   1.647
12264SOL     OW38232   5.338   0.782   1.692
12264SOL    HW138233   5.252   0.823   1.686
12264SOL    HW238234   5.389   0.825   1.623
12265SOL     OW38235   4.771   0.069   1.740
12265SOL    HW138236   4.783   0.162   1.720
12265SOL    HW238237   4.677   0.055   1.732
12266SOL     OW38238   4.232   0.033   1.732
12266SOL    HW138239   4.208  -0.024   1.659
12266SOL    HW238240   4.161   0.097   1.736
12267SOL     OW38241   4.312   0.866   1.027
12267SOL    HW138242   4.343   0.957   1.025
12267SOL    HW238243   4.253   0.863   1.103
12268SOL     OW38244   5.058   0.854   1.011
12268SOL    HW138245   4.969   0.835   0.983
12268SOL    HW238246   5.105   0.772   0.999
12269SOL     OW38247   4.946   0.536   0.284
12269SOL    HW138248   4.953   0.458   0.338
12269SOL    HW238249   4.894   0.597   0.336
12270SOL     OW38250   4.020   0.200   1.238
12270SOL    HW138251   3.971   0.219   1.318
12270SOL    HW238252   3.998   0.109   1.218
12271SOL     OW38253   3.792   1.313   1.277
12271SOL    HW138254   3.807   1.258   1.354
12271SOL    HW238255   3.779   1.400   1.312
12272SOL     OW38256   4.441   0.622   1.045
12272SOL    HW138257   4.518   0.614   0.989
12272SOL    HW238258   4.409   0.711   1.031
12273SOL     OW38259   5.468   0.961   1.864
12273SOL    HW138260   5.424   0.891   1.815
12273SOL    HW238261   5.408   0.982   1.935
12274SOL     OW38262   4.130   0.081   0.675
12274SOL    HW138263   4.075   0.157   0.690
12274SOL    HW238264   4.074   0.019   0.629
12275SOL     OW38265   5.358   0.386   0.369
12275SOL    HW138266   5.363   0.306   0.422
12275SOL    HW238267   5.316   0.450   0.426
12276SOL     OW38268   4.759   0.763   0.966
12276SOL    HW138269   4.744   0.777   1.060
12276SOL    HW238270   4.728   0.673   0.951
12277SOL     OW38271   4.702   1.569   1.725
12277SOL    HW138272   4.691   1.612   1.640
12277SOL    HW238273   4.747   1.487   1.705
12278SOL     OW38274   5.571   1.496   1.602
12278SOL    HW138275   5.596   1.527   1.515
12278SOL    HW238276   5.649   1.510   1.655
12279SOL     OW38277   4.078   0.929   1.799
12279SOL    HW138278   4.148   0.943   1.863
12279SOL    HW238279   4.108   0.855   1.746
12280SOL     OW38280   5.232   0.277   0.148
12280SOL    HW138281   5.277   0.193   0.149
12280SOL    HW238282   5.273   0.328   0.219
12281SOL     OW38283   5.021   0.811   0.053
12281SOL    HW138284   5.070   0.729   0.045
12281SOL    HW238285   5.063   0.870  -0.010
12282SOL     OW38286   4.789   1.346   0.866
12282SOL    HW138287   4.798   1.274   0.803
12282SOL    HW238288   4.844   1.416   0.831
12283SOL     OW38289   4.033   0.808   0.944
12283SOL    HW138290   4.126   0.828   0.934
12283SOL    HW238291   4.031   0.719   0.980
12284SOL     OW38292   4.061   0.538   1.014
12284SOL    HW138293   4.018   0.453   1.000
12284SOL    HW238294   4.136   0.536   0.954
12285SOL     OW38295   4.887   0.363   1.707
12285SOL    HW138296   4.827   0.419   1.755
12285SOL    HW238297   4.966   0.416   1.695
12286SOL     OW38298   4.893   0.218   1.478
12286SOL    HW138299   4.898   0.270   1.558
12286SOL    HW238300   4.930   0.274   1.410
12287SOL     OW38301   3.818   1.774   0.949
12287SOL    HW138302   3.786   1.699   0.899
12287SOL    HW238303   3.905   1.792   0.913
12288SOL     OW38304   4.218   1.571   0.909
12288SOL    HW138305   4.286   1.636   0.924
12288SOL    HW238306   4.255   1.513   0.843
12289SOL     OW38307   4.686   0.786   1.236
12289SOL    HW138308   4.746   0.755   1.303
12289SOL    HW238309   4.602   0.748   1.258
12290SOL     OW38310   3.759   0.557   1.118
12290SOL    HW138311   3.839   0.541   1.069
12290SOL    HW238312   3.786   0.555   1.210
12291SOL     OW38313   3.908   0.531   1.734
12291SOL    HW138314   3.994   0.529   1.691
12291SOL    HW238315   3.861   0.601   1.689
12292SOL     OW38316   5.109   0.928   1.654
12292SOL    HW138317   5.130   1.021   1.652
12292SOL    HW238318   5.106   0.902   1.562
12293SOL     OW38319   4.538   0.580   0.377
12293SOL    HW138320   4.546   0.506   0.317
12293SOL    HW238321   4.462   0.628   0.346
12294SOL     OW38322   5.360   0.607   1.168
12294SOL    HW138323   5.352   0.554   1.248
12294SOL    HW238324   5.449   0.590   1.138
12295SOL     OW38325   3.967   1.538   1.718
12295SOL    HW138326   3.944   1.613   1.773
12295SOL    HW238327   3.968   1.464   1.778
12296SOL     OW38328   4.462   0.448   1.252
12296SOL    HW138329   4.397   0.379   1.240
12296SOL    HW238330   4.445   0.510   1.181
12297SOL     OW38331   4.660   1.668   1.464
12297SOL    HW138332   4.617   1.639   1.384
12297SOL    HW238333   4.658   1.764   1.459
12298SOL     OW38334   4.182   0.490   0.189
12298SOL    HW138335   4.229   0.570   0.213
12298SOL    HW238336   4.114   0.519   0.128
12299SOL     OW38337   3.882   1.140   1.479
12299SOL    HW138338   3.866   1.094   1.562
12299SOL    HW238339   3.887   1.070   1.414
12300SOL     OW38340   5.039   1.038   1.212
12300SOL    HW138341   5.060   0.975   1.143
12300SOL    HW238342   4.971   1.094   1.174
12301SOL     OW38343   5.031   0.846   0.327
12301SOL    HW138344   4.954   0.813   0.373
12301SOL    HW238345   5.017   0.822   0.236
12302SOL     OW38346   5.497   1.734   1.154
12302SOL    HW138347   5.561   1.759   1.087
12302SOL    HW238348   5.475   1.643   1.132
12303SOL     OW38349   4.964   1.729   1.090
12303SOL    HW138350   5.049   1.757   1.056
12303SOL    HW238351   4.979   1.638   1.118
12304SOL     OW38352   3.835   1.259   1.018
12304SOL    HW138353   3.812   1.277   1.109
12304SOL    HW238354   3.756   1.219   0.981
12305SOL     OW38355   4.400   1.674   1.742
12305SOL    HW138356   4.343   1.750   1.737
12305SOL    HW238357   4.484   1.704   1.706
12306SOL     OW38358   4.679   0.054   0.059
12306SOL    HW138359   4.749   0.116   0.082
12306SOL    HW238360   4.616   0.061   0.131
12307SOL     OW38361   5.386   0.136   0.503
12307SOL    HW138362   5.481   0.126   0.503
12307SOL    HW238363   5.357   0.094   0.584
12308SOL     OW38364   5.118   1.567   0.498
12308SOL    HW138365   5.178   1.601   0.431
12308SOL    HW238366   5.067   1.642   0.526
12309SOL     OW38367   3.885   1.783   1.838
12309SOL    HW138368   3.831   1.723   1.890
12309SOL    HW238369   3.927   1.839   1.903
12310SOL     OW38370   4.998   0.933   0.669
12310SOL    HW138371   5.073   0.874   0.683
12310SOL    HW238372   5.033   1.002   0.613
12311SOL     OW38373   4.560   1.277   1.461
12311SOL    HW138374   4.584   1.244   1.547
12311SOL    HW238375   4.497   1.346   1.479
12312SOL     OW38376   4.392   1.610   0.194
12312SOL    HW138377   4.437   1.618   0.110
12312SOL    HW238378   4.342   1.529   0.186
12313SOL     OW38379   5.343   1.732   1.392
12313SOL    HW138380   5.396   1.736   1.312
12313SOL    HW238381   5.329   1.823   1.417
12314SOL     OW38382   5.572   0.170   0.952
12314SOL    HW138383   5.569   0.080   0.985
12314SOL    HW238384   5.486   0.184   0.913
12315SOL     OW38385   3.983   0.309   0.715
12315SOL    HW138386   3.900   0.348   0.689
12315SOL    HW238387   3.983   0.313   0.811
12316SOL     OW38388   4.921   1.595   0.071
12316SOL    HW138389   4.920   1.501   0.090
12316SOL    HW238390   4.842   1.610   0.020
12317SOL     OW38391   4.538   1.018   1.353
12317SOL    HW138392   4.615   0.987   1.305
12317SOL    HW238393   4.562   1.107   1.382
12318SOL     OW38394   4.656   0.926   0.296
12318SOL    HW138395   4.711   0.947   0.221
12318SOL    HW238396   4.700   0.853   0.340
12319SOL     OW38397   5.185   1.591   0.008
12319SOL    HW138398   5.096   1.611   0.036
12319SOL    HW238399   5.233   1.673   0.018
12320SOL     OW38400   4.086   1.310   1.462
12320SOL    HW138401   4.054   1.387   1.510
12320SOL    HW238402   4.014   1.247   1.467
12321SOL     OW38403   5.329   1.287   1.279
12321SOL    HW138404   5.387   1.267   1.353
12321SOL    HW238405   5.271   1.355   1.312
12322SOL     OW38406   4.793   1.118   0.719
12322SOL    HW138407   4.719   1.066   0.751
12322SOL    HW238408   4.858   1.053   0.692
12323SOL     OW38409   4.761   0.267   0.949
12323SOL    HW138410   4.748   0.210   0.873
12323SOL    HW238411   4.763   0.207   1.024
12324SOL     OW38412   4.330   1.481   0.477
12324SOL    HW138413   4.369   1.433   0.403
12324SOL    HW238414   4.255   1.527   0.439
12325SOL     OW38415   5.444   0.428   1.376
12325SOL    HW138416   5.519   0.486   1.385
12325SOL    HW238417   5.476   0.357   1.321
12326SOL     OW38418   3.989   1.331   0.312
12326SOL    HW138419   3.914   1.356   0.258
12326SOL    HW238420   3.976   1.378   0.395
12327SOL     OW38421   3.832   1.035   1.724
12327SOL    HW138422   3.758   1.010   1.779
12327SOL    HW238423   3.908   0.997   1.767
12328SOL     OW38424   4.399   0.224   1.490
12328SOL    HW138425   4.474   0.170   1.466
12328SOL    HW238426   4.411   0.243   1.583
12329SOL     OW38427   5.146   0.858   1.392
12329SOL    HW138428   5.096   0.919   1.337
12329SOL    HW238429   5.235   0.862   1.357
12330SOL     OW38430   3.819   0.197   0.255
12330SOL    HW138431   3.811   0.277   0.308
12330SOL    HW238432   3.901   0.157   0.284
12331SOL     OW38433   4.921   1.321   0.121
12331SOL    HW138434   4.826   1.323   0.109
12331SOL    HW238435   4.933   1.319   0.216
12332SOL     OW38436   4.332   0.858   1.439
12332SOL    HW138437   4.392   0.928   1.414
12332SOL    HW238438   4.385   0.779   1.441
12333SOL     OW38439   5.212   1.790   0.985
12333SOL    HW138440   5.233   1.864   0.928
12333SOL    HW238441   5.296   1.767   1.025
12334SOL     OW38442   4.426   0.572   1.695
12334SOL    HW138443   4.479   0.624   1.756
12334SOL    HW238444   4.440   0.482   1.723
12335SOL     OW38445   5.196   1.189   1.626
12335SOL    HW138446   5.184   1.207   1.719
12335SOL    HW238447   5.287   1.212   1.609
12336SOL     OW38448   4.089   1.736   1.565
12336SOL    HW138449   4.006   1.779   1.549
12336SOL    HW238450   4.067   1.656   1.613
12337SOL     OW38451   5.385   0.881   1.253
12337SOL    HW138452   5.381   0.797   1.207
12337SOL    HW238453   5.375   0.946   1.184
12338SOL     OW38454   4.943   0.317   0.447
12338SOL    HW138455   5.003   0.243   0.444
12338SOL    HW238456   4.967   0.364   0.527
12339SOL     OW38457   4.304   0.728   0.681
12339SOL    HW138458   4.347   0.812   0.666
12339SOL    HW238459   4.240   0.721   0.610
12340SOL     OW38460   5.479   0.381   1.641
12340SOL    HW138461   5.461   0.397   1.549
12340SOL    HW238462   5.419   0.311   1.666
12341SOL     OW38463   5.472   0.933   1.510
12341SOL    HW138464   5.460   1.027   1.523
12341SOL    HW238465   5.453   0.920   1.417
12342SOL     OW38466   4.654   1.370   0.068
12342SOL    HW138467   4.594   1.351   0.140
12342SOL    HW238468   4.632   1.459   0.041
12343SOL     OW38469   4.390   1.776   0.928
12343SOL    HW138470   4.367   1.869   0.919
12343SOL    HW238471   4.486   1.775   0.928
12344SOL     OW38472   4.598   0.967   0.846
12344SOL    HW138473   4.651   0.898   0.887
12344SOL    HW238474   4.552   1.008   0.919
12345SOL     OW38475   4.814   0.987   0.074
12345SOL    HW138476   4.852   1.071   0.047
12345SOL    HW238477   4.888   0.926   0.073
12346SOL     OW38478   5.563   1.549   0.839
12346SOL    HW138479   5.483   1.543   0.788
12346SOL    HW238480   5.545   1.501   0.919
12347SOL     OW38481   3.966   1.298   1.861
12347SOL    HW138482   3.888   1.245   1.843
12347SOL    HW238483   3.962   1.314   1.956
12348SOL     OW38484   3.807   1.229   0.670
12348SOL    HW138485   3.817   1.174   0.748
12348SOL    HW238486   3.873   1.196   0.609
12349SOL     OW38487   4.373   1.433   1.594
12349SOL    HW138488   4.316   1.381   1.651
12349SOL    HW238489   4.385   1.515   1.640
12350SOL     OW38490   5.544   0.231   1.227
12350SOL    HW138491   5.485   0.156   1.230
12350SOL    HW238492   5.567   0.240   1.134
12351SOL     OW38493   4.164   0.423   0.536
12351SOL    HW138494   4.183   0.358   0.468
12351SOL    HW238495   4.103   0.379   0.595
12352SOL     OW38496   5.426   1.479   1.081
12352SOL    HW138497   5.343   1.461   1.036
12352SOL    HW238498   5.429   1.413   1.151
12353SOL     OW38499   4.069   0.569   1.291
12353SOL    HW138500   4.115   0.505   1.346
12353SOL    HW238501   4.082   0.538   1.202
12354SOL     OW38502   4.558   1.582   0.676
12354SOL    HW138503   4.544   1.654   0.615
12354SOL    HW238504   4.480   1.527   0.667
12355SOL     OW38505   5.156   0.227   1.115
12355SOL    HW138506   5.213   0.166   1.161
12355SOL    HW238507   5.106   0.270   1.184
12356SOL     OW38508   4.730   0.074   1.138
12356SOL    HW138509   4.645   0.050   1.101
12356SOL    HW238510   4.769  -0.008   1.166
12357SOL     OW38511   4.519   1.319   0.305
12357SOL    HW138512   4.480   1.234   0.325
12357SOL    HW238513   4.586   1.331   0.372
12358SOL     OW38514   4.336   1.546   1.283
12358SOL    HW138515   4.338   1.626   1.334
12358SOL    HW238516   4.424   1.538   1.247
12359SOL     OW38517   5.050  -0.002   0.167
12359SOL    HW138518   5.139   0.027   0.145
12359SOL    HW238519   4.997   0.077   0.158
12360SOL     OW38520   5.005   0.460   0.669
12360SOL    HW138521   4.958   0.543   0.675
12360SOL    HW238522   5.017   0.432   0.760
12361SOL     OW38523   5.325   0.217   0.857
12361SOL    HW138524   5.254   0.219   0.921
12361SOL    HW238525   5.319   0.301   0.812
12362SOL     OW38526   3.761   1.079   0.343
12362SOL    HW138527   3.852   1.086   0.317
12362SOL    HW238528   3.752   0.991   0.380
12363SOL     OW38529   4.601   1.657   0.366
12363SOL    HW138530   4.524   1.638   0.314
12363SOL    HW238531   4.578   1.736   0.416
12364SOL     OW38532   3.934   0.634   1.996
12364SOL    HW138533   3.849   0.622   2.040
12364SOL    HW238534   3.918   0.605   1.906
12365SOL     OW38535   3.949   0.298   2.847
12365SOL    HW138536   3.979   0.260   2.929
12365SOL    HW238537   3.865   0.256   2.830
12366SOL     OW38538   3.734   0.404   2.492
12366SOL    HW138539   3.647   0.422   2.528
12366SOL    HW238540   3.722   0.328   2.436
12367SOL     OW38541   4.295   1.301   3.049
12367SOL    HW138542   4.209   1.309   3.008
12367SOL    HW238543   4.313   1.388   3.085
12368SOL     OW38544   5.296   1.516   2.574
12368SOL    HW138545   5.253   1.495   2.657
12368SOL    HW238546   5.225   1.522   2.510
12369SOL     OW38547   4.860   0.697   2.553
12369SOL    HW138548   4.907   0.780   2.541
12369SOL    HW238549   4.813   0.707   2.635
12370SOL     OW38550   5.527   0.591   2.082
12370SOL    HW138551   5.491   0.588   1.993
12370SOL    HW238552   5.480   0.522   2.129
12371SOL     OW38553   4.460   1.132   2.910
12371SOL    HW138554   4.396   1.172   2.969
12371SOL    HW238555   4.505   1.207   2.870
12372SOL     OW38556   4.602   0.747   3.686
12372SOL    HW138557   4.592   0.810   3.757
12372SOL    HW238558   4.623   0.801   3.609
12373SOL     OW38559   4.409   0.990   2.505
12373SOL    HW138560   4.477   0.987   2.573
12373SOL    HW238561   4.342   1.048   2.540
12374SOL     OW38562   4.441   1.151   3.683
12374SOL    HW138563   4.487   1.227   3.719
12374SOL    HW238564   4.361   1.187   3.645
12375SOL     OW38565   4.063   1.407   2.928
12375SOL    HW138566   3.984   1.371   2.888
12375SOL    HW238567   4.100   1.464   2.862
12376SOL     OW38568   5.183   1.506   3.227
12376SOL    HW138569   5.236   1.585   3.242
12376SOL    HW238570   5.109   1.516   3.287
12377SOL     OW38571   4.173   0.376   3.316
12377SOL    HW138572   4.251   0.326   3.336
12377SOL    HW238573   4.101   0.323   3.350
12378SOL     OW38574   5.328   0.455   2.591
12378SOL    HW138575   5.253   0.470   2.534
12378SOL    HW238576   5.325   0.527   2.654
12379SOL     OW38577   3.944   1.715   2.329
12379SOL    HW138578   3.961   1.789   2.388
12379SOL    HW238579   4.022   1.709   2.275
12380SOL     OW38580   4.861   1.343   3.553
12380SOL    HW138581   4.901   1.341   3.641
12380SOL    HW238582   4.808   1.264   3.549
12381SOL     OW38583   3.954   1.443   2.392
12381SOL    HW138584   3.938   1.537   2.396
12381SOL    HW238585   3.901   1.406   2.462
12382SOL     OW38586   3.998   1.092   2.749
12382SOL    HW138587   3.992   1.004   2.786
12382SOL    HW238588   3.942   1.146   2.805
12383SOL     OW38589   4.326   1.782   3.293
12383SOL    HW138590   4.242   1.768   3.338
12383SOL    HW238591   4.351   1.872   3.317
12384SOL     OW38592   4.294   0.989   2.005
12384SOL    HW138593   4.348   1.029   1.936
12384SOL    HW238594   4.334   1.021   2.087
12385SOL     OW38595   5.377   0.121   3.344
12385SOL    HW138596   5.339   0.182   3.281
12385SOL    HW238597   5.337   0.145   3.427
12386SOL     OW38598   3.850   0.661   2.424
12386SOL    HW138599   3.815   0.574   2.446
12386SOL    HW238600   3.838   0.712   2.504
12387SOL     OW38601   5.570   1.747   2.185
12387SOL    HW138602   5.637   1.724   2.249
12387SOL    HW238603   5.582   1.841   2.170
12388SOL     OW38604   3.767   1.582   1.974
12388SOL    HW138605   3.746   1.492   1.998
12388SOL    HW238606   3.741   1.633   2.051
12389SOL     OW38607   5.412   0.920   2.505
12389SOL    HW138608   5.496   0.880   2.482
12389SOL    HW238609   5.391   0.975   2.429
12390SOL     OW38610   5.378   1.104   2.290
12390SOL    HW138611   5.465   1.101   2.250
12390SOL    HW238612   5.386   1.169   2.360
12391SOL     OW38613   3.845   0.753   3.445
12391SOL    HW138614   3.932   0.790   3.457
12391SOL    HW238615   3.786   0.828   3.452
12392SOL     OW38616   4.347   1.393   2.594
12392SOL    HW138617   4.302   1.309   2.604
12392SOL    HW238618   4.329   1.419   2.504
12393SOL     OW38619   5.008   1.234   3.276
12393SOL    HW138620   5.041   1.165   3.219
12393SOL    HW238621   5.063   1.229   3.354
12394SOL     OW38622   4.567   0.032   2.416
12394SOL    HW138623   4.612   0.108   2.378
12394SOL    HW238624   4.477   0.063   2.430
12395SOL     OW38625   3.911   0.958   3.151
12395SOL    HW138626   3.997   0.921   3.131
12395SOL    HW238627   3.852   0.919   3.086
12396SOL     OW38628   5.256   1.005   2.062
12396SOL    HW138629   5.188   0.948   2.095
12396SOL    HW238630   5.300   1.039   2.141
12397SOL     OW38631   4.922   1.830   3.494
12397SOL    HW138632   4.917   1.894   3.423
12397SOL    HW238633   4.938   1.746   3.450
12398SOL     OW38634   4.045   0.230   3.647
12398SOL    HW138635   4.109   0.294   3.679
12398SOL    HW238636   3.963   0.255   3.689
12399SOL     OW38637   5.195   1.414   2.814
12399SOL    HW138638   5.126   1.432   2.878
12399SOL    HW238639   5.178   1.325   2.785
12400SOL     OW38640   5.381   1.760   2.436
12400SOL    HW138641   5.355   1.724   2.351
12400SOL    HW238642   5.360   1.690   2.499
12401SOL     OW38643   4.317   0.715   2.137
12401SOL    HW138644   4.321   0.804   2.101
12401SOL    HW238645   4.253   0.721   2.208
12402SOL     OW38646   5.019   0.375   2.793
12402SOL    HW138647   4.928   0.346   2.797
12402SOL    HW238648   5.064   0.319   2.857
12403SOL     OW38649   5.303   1.674   2.174
12403SOL    HW138650   5.395   1.697   2.166
12403SOL    HW238651   5.274   1.657   2.084
12404SOL     OW38652   4.511   0.637   3.304
12404SOL    HW138653   4.486   0.608   3.392
12404SOL    HW238654   4.486   0.563   3.248
12405SOL     OW38655   5.141   0.491   3.542
12405SOL    HW138656   5.139   0.536   3.627
12405SOL    HW238657   5.209   0.424   3.553
12406SOL     OW38658   4.669   0.885   3.449
12406SOL    HW138659   4.725   0.820   3.408
12406SOL    HW238660   4.622   0.926   3.376
12407SOL     OW38661   4.727   0.407   3.083
12407SOL    HW138662   4.640   0.435   3.111
12407SOL    HW238663   4.715   0.372   2.995
12408SOL     OW38664   4.780   0.701   2.284
12408SOL    HW138665   4.801   0.696   2.378
12408SOL    HW238666   4.695   0.658   2.277
12409SOL     OW38667   3.812   0.828   2.637
12409SOL    HW138668   3.892   0.821   2.689
12409SOL    HW238669   3.763   0.900   2.676
12410SOL     OW38670   3.829   1.826   3.432
12410SOL    HW138671   3.839   1.814   3.526
12410SOL    HW238672   3.777   1.906   3.423
12411SOL     OW38673   4.608   0.352   2.075
12411SOL    HW138674   4.652   0.394   2.001
12411SOL    HW238675   4.591   0.262   2.046
12412SOL     OW38676   5.435   0.567   3.691
12412SOL    HW138677   5.399   0.644   3.647
12412SOL    HW238678   5.461   0.508   3.620
12413SOL     OW38679   5.108   1.144   2.403
12413SOL    HW138680   5.189   1.140   2.352
12413SOL    HW238681   5.054   1.209   2.358
12414SOL     OW38682   4.282   0.248   2.784
12414SOL    HW138683   4.260   0.261   2.877
12414SOL    HW238684   4.277   0.336   2.747
12415SOL     OW38685   4.715   1.446   2.325
12415SOL    HW138686   4.693   1.524   2.275
12415SOL    HW238687   4.689   1.466   2.415
12416SOL     OW38688   4.073   1.816   2.735
12416SOL    HW138689   4.123   1.734   2.744
12416SOL    HW238690   4.135   1.884   2.761
12417SOL     OW38691   5.524   1.043   2.735
12417SOL    HW138692   5.468   1.029   2.659
12417SOL    HW238693   5.463   1.056   2.808
12418SOL     OW38694   4.946   1.547   3.368
12418SOL    HW138695   4.931   1.474   3.428
12418SOL    HW238696   4.859   1.572   3.339
12419SOL     OW38697   4.032   0.963   2.121
12419SOL    HW138698   4.116   0.977   2.078
12419SOL    HW238699   4.007   0.875   2.096
12420SOL     OW38700   5.206   0.753   2.578
12420SOL    HW138701   5.202   0.717   2.666
12420SOL    HW238702   5.282   0.811   2.578
12421SOL     OW38703   4.200   1.263   3.593
12421SOL    HW138704   4.171   1.269   3.502
12421SOL    HW238705   4.118   1.264   3.643
12422SOL     OW38706   4.852   1.783   2.083
12422SOL    HW138707   4.775   1.749   2.128
12422SOL    HW238708   4.876   1.715   2.021
12423SOL     OW38709   3.911   0.259   3.370
12423SOL    HW138710   3.848   0.329   3.351
12423SOL    HW238711   3.926   0.266   3.465
12424SOL     OW38712   5.354   1.379   1.950
12424SOL    HW138713   5.314   1.466   1.941
12424SOL    HW238714   5.284   1.318   1.929
12425SOL     OW38715   4.187   1.729   2.186
12425SOL    HW138716   4.228   1.790   2.247
12425SOL    HW238717   4.259   1.702   2.128
12426SOL     OW38718   5.153   0.131   2.253
12426SOL    HW138719   5.196   0.104   2.171
12426SOL    HW238720   5.225   0.147   2.313
12427SOL     OW38721   3.973   1.790   3.095
12427SOL    HW138722   4.024   1.724   3.142
12427SOL    HW238723   3.968   1.758   3.005
12428SOL     OW38724   4.664   1.703   2.758
12428SOL    HW138725   4.735   1.652   2.797
12428SOL    HW238726   4.630   1.647   2.688
12429SOL     OW38727   4.121   0.687   2.333
12429SOL    HW138728   4.138   0.595   2.352
12429SOL    HW238729   4.029   0.700   2.353
12430SOL     OW38730   5.273   0.215   3.582
12430SOL    HW138731   5.285   0.246   3.672
12430SOL    HW238732   5.195   0.160   3.586
12431SOL     OW38733   4.334   0.156   1.957
12431SOL    HW138734   4.400   0.107   2.006
12431SOL    HW238735   4.296   0.092   1.897
12432SOL     OW38736   4.434   0.303   3.616
12432SOL    HW138737   4.529   0.303   3.629
12432SOL    HW238738   4.399   0.264   3.697
12433SOL     OW38739   4.600   1.520   3.051
12433SOL    HW138740   4.578   1.478   2.968
12433SOL    HW238741   4.667   1.464   3.089
12434SOL     OW38742   5.065   0.593   3.299
12434SOL    HW138743   5.102   0.567   3.383
12434SOL    HW238744   5.097   0.682   3.284
12435SOL     OW38745   4.548   1.379   2.810
12435SOL    HW138746   4.634   1.372   2.768
12435SOL    HW238747   4.486   1.392   2.738
12436SOL     OW38748   4.652   0.520   2.754
12436SOL    HW138749   4.620   0.511   2.664
12436SOL    HW238750   4.689   0.434   2.775
12437SOL     OW38751   4.297   0.019   2.267
12437SOL    HW138752   4.231  -0.024   2.322
12437SOL    HW238753   4.287   0.112   2.286
12438SOL     OW38754   5.148   1.202   1.898
12438SOL    HW138755   5.180   1.129   1.952
12438SOL    HW238756   5.066   1.229   1.940
12439SOL     OW38757   4.035   0.052   2.072
12439SOL    HW138758   4.094   0.124   2.092
12439SOL    HW238759   4.050  -0.012   2.141
12440SOL     OW38760   4.683   0.263   2.327
12440SOL    HW138761   4.649   0.295   2.243
12440SOL    HW238762   4.777   0.280   2.323
12441SOL     OW38763   4.805   0.686   3.319
12441SOL    HW138764   4.743   0.616   3.337
12441SOL    HW238765   4.891   0.643   3.318
12442SOL     OW38766   4.954   1.567   2.651
12442SOL    HW138767   4.959   1.636   2.585
12442SOL    HW238768   4.999   1.603   2.727
12443SOL     OW38769   4.202   1.155   2.582
12443SOL    HW138770   4.139   1.136   2.651
12443SOL    HW238771   4.152   1.146   2.501
12444SOL     OW38772   4.983   1.788   2.475
12444SOL    HW138773   5.031   1.855   2.425
12444SOL    HW238774   4.913   1.836   2.517
12445SOL     OW38775   4.750   0.516   1.889
12445SOL    HW138776   4.704   0.598   1.871
12445SOL    HW238777   4.807   0.536   1.962
12446SOL     OW38778   3.817   0.560   3.257
12446SOL    HW138779   3.909   0.562   3.229
12446SOL    HW238780   3.810   0.630   3.322
12447SOL     OW38781   4.291   0.229   3.067
12447SOL    HW138782   4.329   0.198   3.149
12447SOL    HW238783   4.197   0.224   3.080
12448SOL     OW38784   4.579   0.463   2.497
12448SOL    HW138785   4.549   0.519   2.426
12448SOL    HW238786   4.606   0.382   2.454
12449SOL     OW38787   4.699   0.039   2.653
12449SOL    HW138788   4.655   0.038   2.568
12449SOL    HW238789   4.713  -0.053   2.674
12450SOL     OW38790   5.163   1.155   2.721
12450SOL    HW138791   5.090   1.095   2.734
12450SOL    HW238792   5.172   1.163   2.626
12451SOL     OW38793   5.187   0.612   2.817
12451SOL    HW138794   5.130   0.535   2.823
12451SOL    HW238795   5.243   0.606   2.895
12452SOL     OW38796   5.565   0.805   2.248
12452SOL    HW138797   5.625   0.760   2.308
12452SOL    HW238798   5.547   0.740   2.179
12453SOL     OW38799   4.216   1.422   2.016
12453SOL    HW138800   4.140   1.400   2.070
12453SOL    HW238801   4.204   1.370   1.937
12454SOL     OW38802   5.408   1.270   2.495
12454SOL    HW138803   5.502   1.270   2.516
12454SOL    HW238804   5.378   1.356   2.524
12455SOL     OW38805   5.120   0.581   1.937
12455SOL    HW138806   5.054   0.557   2.002
12455SOL    HW238807   5.203   0.559   1.978
12456SOL     OW38808   4.208   0.276   2.164
12456SOL    HW138809   4.267   0.236   2.100
12456SOL    HW238810   4.188   0.363   2.127
12457SOL     OW38811   5.467   1.241   3.407
12457SOL    HW138812   5.556   1.205   3.400
12457SOL    HW238813   5.480   1.329   3.443
12458SOL     OW38814   4.774   1.338   3.174
12458SOL    HW138815   4.698   1.317   3.228
12458SOL    HW238816   4.849   1.309   3.227
12459SOL     OW38817   5.334   1.627   3.523
12459SOL    HW138818   5.326   1.664   3.435
12459SOL    HW238819   5.414   1.575   3.520
12460SOL     OW38820   4.851   1.193   2.953
12460SOL    HW138821   4.808   1.240   3.024
12460SOL    HW238822   4.831   1.244   2.874
12461SOL     OW38823   5.349   1.100   2.938
12461SOL    HW138824   5.342   1.164   3.010
12461SOL    HW238825   5.274   1.120   2.882
12462SOL     OW38826   4.642   0.118   3.257
12462SOL    HW138827   4.663   0.114   3.164
12462SOL    HW238828   4.727   0.121   3.301
12463SOL     OW38829   4.708   1.117   3.586
12463SOL    HW138830   4.619   1.136   3.614
12463SOL    HW238831   4.700   1.037   3.534
12464SOL     OW38832   4.435   1.062   2.233
12464SOL    HW138833   4.420   1.041   2.326
12464SOL    HW238834   4.509   1.006   2.208
12465SOL     OW38835   4.147   0.822   3.111
12465SOL    HW138836   4.211   0.837   3.181
12465SOL    HW238837   4.114   0.734   3.129
12466SOL     OW38838   4.992   0.380   3.144
12466SOL    HW138839   5.023   0.460   3.188
12466SOL    HW238840   4.903   0.401   3.117
12467SOL     OW38841   3.802   1.571   3.220
12467SOL    HW138842   3.782   1.665   3.211
12467SOL    HW238843   3.897   1.566   3.215
12468SOL     OW38844   4.050   1.127   2.353
12468SOL    HW138845   4.048   1.204   2.297
12468SOL    HW238846   4.048   1.053   2.292
12469SOL     OW38847   4.277   0.516   2.713
12469SOL    HW138848   4.285   0.576   2.639
12469SOL    HW238849   4.338   0.550   2.779
12470SOL     OW38850   4.969   1.355   2.255
12470SOL    HW138851   5.025   1.425   2.290
12470SOL    HW238852   4.882   1.375   2.289
12471SOL     OW38853   5.016   1.461   3.018
12471SOL    HW138854   5.076   1.473   3.092
12471SOL    HW238855   4.945   1.408   3.052
12472SOL     OW38856   5.294   0.635   2.341
12472SOL    HW138857   5.246   0.671   2.416
12472SOL    HW238858   5.339   0.710   2.303
12473SOL     OW38859   4.070   1.526   3.171
12473SOL    HW138860   4.061   1.480   3.088
12473SOL    HW238861   4.164   1.541   3.180
12474SOL     OW38862   4.165   0.727   3.485
12474SOL    HW138863   4.207   0.781   3.417
12474SOL    HW238864   4.234   0.666   3.513
12475SOL     OW38865   5.342   0.781   3.553
12475SOL    HW138866   5.255   0.821   3.548
12475SOL    HW238867   5.392   0.824   3.484
12476SOL     OW38868   4.771   0.073   3.601
12476SOL    HW138869   4.780   0.165   3.576
12476SOL    HW238870   4.677   0.056   3.593
12477SOL     OW38871   4.231   0.023   3.598
12477SOL    HW138872   4.207  -0.027   3.520
12477SOL    HW238873   4.168   0.094   3.602
12478SOL     OW38874   4.311   0.876   2.895
12478SOL    HW138875   4.347   0.964   2.898
12478SOL    HW238876   4.253   0.871   2.972
12479SOL     OW38877   5.056   0.857   2.868
12479SOL    HW138878   4.965   0.837   2.846
12479SOL    HW238879   5.102   0.773   2.858
12480SOL     OW38880   4.915   0.529   2.115
12480SOL    HW138881   4.928   0.452   2.170
12480SOL    HW238882   4.876   0.594   2.174
12481SOL     OW38883   4.021   0.199   3.096
12481SOL    HW138884   3.969   0.219   3.175
12481SOL    HW238885   3.996   0.110   3.073
12482SOL     OW38886   3.776   1.313   3.133
12482SOL    HW138887   3.803   1.260   3.208
12482SOL    HW238888   3.776   1.403   3.165
12483SOL     OW38889   4.433   0.627   2.907
12483SOL    HW138890   4.515   0.623   2.857
12483SOL    HW238891   4.403   0.717   2.898
12484SOL     OW38892   5.469   0.961   3.725
12484SOL    HW138893   5.424   0.892   3.677
12484SOL    HW238894   5.409   0.984   3.796
12485SOL     OW38895   4.135   0.079   2.543
12485SOL    HW138896   4.078   0.156   2.552
12485SOL    HW238897   4.086   0.020   2.486
12486SOL     OW38898   5.362   0.403   2.215
12486SOL    HW138899   5.369   0.331   2.277
12486SOL    HW238900   5.330   0.477   2.268
12487SOL     OW38901   4.762   0.760   2.821
12487SOL    HW138902   4.745   0.775   2.914
12487SOL    HW238903   4.728   0.672   2.805
12488SOL     OW38904   4.712   1.573   3.586
12488SOL    HW138905   4.693   1.613   3.501
12488SOL    HW238906   4.744   1.486   3.566
12489SOL     OW38907   5.572   1.494   3.465
12489SOL    HW138908   5.595   1.526   3.378
12489SOL    HW238909   5.650   1.509   3.518
12490SOL     OW38910   4.077   0.910   3.676
12490SOL    HW138911   4.153   0.940   3.726
12490SOL    HW238912   4.111   0.846   3.615
12491SOL     OW38913   5.305   0.306   1.968
12491SOL    HW138914   5.210   0.295   1.975
12491SOL    HW238915   5.332   0.333   2.056
12492SOL     OW38916   5.004   0.826   1.885
12492SOL    HW138917   5.049   0.742   1.896
12492SOL    HW238918   5.041   0.862   1.805
12493SOL     OW38919   4.800   1.343   2.718
12493SOL    HW138920   4.807   1.272   2.654
12493SOL    HW238921   4.858   1.412   2.684
12494SOL     OW38922   4.034   0.813   2.803
12494SOL    HW138923   4.127   0.837   2.804
12494SOL    HW238924   4.032   0.724   2.840
12495SOL     OW38925   4.059   0.539   2.874
12495SOL    HW138926   4.016   0.455   2.860
12495SOL    HW238927   4.133   0.539   2.815
12496SOL     OW38928   4.899   0.364   3.569
12496SOL    HW138929   4.835   0.422   3.611
12496SOL    HW238930   4.976   0.419   3.557
12497SOL     OW38931   4.892   0.218   3.339
12497SOL    HW138932   4.899   0.270   3.419
12497SOL    HW238933   4.927   0.274   3.270
12498SOL     OW38934   3.729   1.309   2.047
12498SOL    HW138935   3.641   1.327   2.013
12498SOL    HW238936   3.723   1.222   2.085
12499SOL     OW38937   3.809   1.775   2.801
12499SOL    HW138938   3.783   1.696   2.752
12499SOL    HW238939   3.898   1.792   2.772
12500SOL     OW38940   4.213   1.573   2.763
12500SOL    HW138941   4.280   1.638   2.782
12500SOL    HW238942   4.257   1.510   2.706
12501SOL     OW38943   4.691   0.777   3.083
12501SOL    HW138944   4.752   0.758   3.154
12501SOL    HW238945   4.605   0.766   3.122
12502SOL     OW38946   3.761   0.549   2.983
12502SOL    HW138947   3.843   0.552   2.934
12502SOL    HW238948   3.788   0.553   3.075
12503SOL     OW38949   3.916   0.528   3.587
12503SOL    HW138950   4.005   0.544   3.558
12503SOL    HW238951   3.864   0.597   3.545
12504SOL     OW38952   5.112   0.924   3.515
12504SOL    HW138953   5.129   1.018   3.514
12504SOL    HW238954   5.104   0.900   3.423
12505SOL     OW38955   4.542   0.575   2.236
12505SOL    HW138956   4.548   0.499   2.178
12505SOL    HW238957   4.466   0.623   2.204
12506SOL     OW38958   5.360   0.608   3.029
12506SOL    HW138959   5.351   0.556   3.109
12506SOL    HW238960   5.449   0.589   2.999
12507SOL     OW38961   3.966   1.545   3.582
12507SOL    HW138962   3.944   1.620   3.638
12507SOL    HW238963   3.972   1.471   3.642
12508SOL     OW38964   4.454   0.452   3.114
12508SOL    HW138965   4.390   0.382   3.099
12508SOL    HW238966   4.437   0.515   3.044
12509SOL     OW38967   4.680   1.667   3.321
12509SOL    HW138968   4.629   1.631   3.248
12509SOL    HW238969   4.667   1.761   3.315
12510SOL     OW38970   4.175   0.507   2.025
12510SOL    HW138971   4.235   0.574   2.056
12510SOL    HW238972   4.089   0.550   2.022
12511SOL     OW38973   3.858   1.145   3.340
12511SOL    HW138974   3.860   1.099   3.424
12511SOL    HW238975   3.878   1.077   3.276
12512SOL     OW38976   5.043   1.038   3.072
12512SOL    HW138977   5.060   0.976   3.002
12512SOL    HW238978   4.975   1.095   3.037
12513SOL     OW38979   5.046   0.858   2.162
12513SOL    HW138980   4.977   0.829   2.221
12513SOL    HW238981   5.011   0.843   2.074
12514SOL     OW38982   5.503   1.733   3.022
12514SOL    HW138983   5.564   1.759   2.953
12514SOL    HW238984   5.475   1.644   2.998
12515SOL     OW38985   4.959   1.722   2.939
12515SOL    HW138986   5.045   1.753   2.911
12515SOL    HW238987   4.975   1.635   2.976
12516SOL     OW38988   3.823   1.255   2.875
12516SOL    HW138989   3.807   1.277   2.967
12516SOL    HW238990   3.740   1.220   2.844
12517SOL     OW38991   4.395   1.676   3.605
12517SOL    HW138992   4.329   1.745   3.606
12517SOL    HW238993   4.464   1.710   3.548
12518SOL     OW38994   5.401   0.169   2.368
12518SOL    HW138995   5.485   0.151   2.325
12518SOL    HW238996   5.410   0.129   2.455
12519SOL     OW38997   5.117   1.570   2.354
12519SOL    HW138998   5.174   1.608   2.288
12519SOL    HW238999   5.066   1.644   2.387
12520SOL     OW39000   3.882   1.784   3.699
12520SOL    HW139001   3.828   1.726   3.751
12520SOL    HW239002   3.923   1.843   3.763
12521SOL     OW39003   5.000   0.927   2.522
12521SOL    HW139004   5.075   0.870   2.539
12521SOL    HW239005   5.036   1.001   2.474
12522SOL     OW39006   4.522   1.284   3.284
12522SOL    HW139007   4.498   1.326   3.367
12522SOL    HW239008   4.448   1.301   3.226
12523SOL     OW39009   4.392   1.627   2.019
12523SOL    HW139010   4.401   1.642   1.925
12523SOL    HW239011   4.338   1.549   2.025
12524SOL     OW39012   5.343   1.731   3.258
12524SOL    HW139013   5.396   1.737   3.178
12524SOL    HW239014   5.329   1.822   3.284
12525SOL     OW39015   5.582   0.165   2.803
12525SOL    HW139016   5.574   0.080   2.846
12525SOL    HW239017   5.493   0.184   2.772
12526SOL     OW39018   3.979   0.302   2.574
12526SOL    HW139019   3.898   0.345   2.547
12526SOL    HW239020   3.979   0.309   2.669
12527SOL     OW39021   4.934   1.596   1.895
12527SOL    HW139022   4.919   1.506   1.926
12527SOL    HW239023   4.864   1.612   1.832
12528SOL     OW39024   4.549   1.015   3.236
12528SOL    HW139025   4.586   1.018   3.148
12528SOL    HW239026   4.540   1.107   3.261
12529SOL     OW39027   4.637   0.905   2.144
12529SOL    HW139028   4.698   0.941   2.081
12529SOL    HW239029   4.690   0.843   2.196
12530SOL     OW39030   5.213   1.626   1.910
12530SOL    HW139031   5.119   1.617   1.896
12530SOL    HW239032   5.250   1.634   1.821
12531SOL     OW39033   4.093   1.299   3.348
12531SOL    HW139034   4.077   1.380   3.300
12531SOL    HW239035   4.010   1.251   3.340
12532SOL     OW39036   5.337   1.290   3.145
12532SOL    HW139037   5.384   1.267   3.225
12532SOL    HW239038   5.273   1.356   3.174
12533SOL     OW39039   4.793   1.112   2.572
12533SOL    HW139040   4.719   1.066   2.613
12533SOL    HW239041   4.855   1.043   2.551
12534SOL     OW39042   4.762   0.265   2.807
12534SOL    HW139043   4.743   0.209   2.731
12534SOL    HW239044   4.765   0.204   2.881
12535SOL     OW39045   4.327   1.482   2.337
12535SOL    HW139046   4.371   1.438   2.265
12535SOL    HW239047   4.255   1.530   2.296
12536SOL     OW39048   5.444   0.428   3.236
12536SOL    HW139049   5.519   0.487   3.246
12536SOL    HW239050   5.476   0.357   3.180
12537SOL     OW39051   3.981   1.346   2.145
12537SOL    HW139052   3.888   1.337   2.124
12537SOL    HW239053   3.982   1.386   2.232
12538SOL     OW39054   3.838   1.018   3.581
12538SOL    HW139055   3.763   1.003   3.638
12538SOL    HW239056   3.913   0.987   3.631
12539SOL     OW39057   4.395   0.213   3.351
12539SOL    HW139058   4.473   0.161   3.328
12539SOL    HW239059   4.408   0.235   3.444
12540SOL     OW39060   3.801   0.325   1.890
12540SOL    HW139061   3.705   0.324   1.898
12540SOL    HW239062   3.820   0.403   1.838
12541SOL     OW39063   5.146   0.855   3.251
12541SOL    HW139064   5.095   0.917   3.198
12541SOL    HW239065   5.235   0.862   3.217
12542SOL     OW39066   3.798   0.197   2.147
12542SOL    HW139067   3.802   0.257   2.073
12542SOL    HW239068   3.871   0.137   2.133
12543SOL     OW39069   4.902   1.330   1.986
12543SOL    HW139070   4.813   1.296   1.994
12543SOL    HW239071   4.932   1.338   2.077
12544SOL     OW39072   4.340   0.844   3.298
12544SOL    HW139073   4.395   0.921   3.286
12544SOL    HW239074   4.401   0.771   3.304
12545SOL     OW39075   5.210   1.789   2.843
12545SOL    HW139076   5.226   1.865   2.787
12545SOL    HW239077   5.294   1.772   2.885
12546SOL     OW39078   4.411   0.580   3.554
12546SOL    HW139079   4.469   0.630   3.613
12546SOL    HW239080   4.417   0.490   3.586
12547SOL     OW39081   5.194   1.186   3.489
12547SOL    HW139082   5.179   1.206   3.581
12547SOL    HW239083   5.285   1.212   3.473
12548SOL     OW39084   4.087   1.736   3.418
12548SOL    HW139085   4.002   1.778   3.405
12548SOL    HW239086   4.066   1.655   3.466
12549SOL     OW39087   5.387   0.882   3.115
12549SOL    HW139088   5.380   0.799   3.068
12549SOL    HW239089   5.376   0.949   3.047
12550SOL     OW39090   4.951   0.323   2.305
12550SOL    HW139091   5.016   0.255   2.290
12550SOL    HW239092   4.980   0.369   2.383
12551SOL     OW39093   4.309   0.726   2.536
12551SOL    HW139094   4.349   0.813   2.527
12551SOL    HW239095   4.243   0.723   2.466
12552SOL     OW39096   5.480   0.379   3.500
12552SOL    HW139097   5.460   0.396   3.408
12552SOL    HW239098   5.416   0.313   3.527
12553SOL     OW39099   5.478   0.932   3.371
12553SOL    HW139100   5.459   1.024   3.388
12553SOL    HW239101   5.455   0.919   3.279
12554SOL     OW39102   4.570   1.366   1.901
12554SOL    HW139103   4.545   1.375   1.993
12554SOL    HW239104   4.592   1.454   1.873
12555SOL     OW39105   4.386   1.779   2.779
12555SOL    HW139106   4.363   1.872   2.777
12555SOL    HW239107   4.481   1.779   2.790
12556SOL     OW39108   4.597   0.975   2.715
12556SOL    HW139109   4.648   0.906   2.755
12556SOL    HW239110   4.553   1.019   2.788
12557SOL     OW39111   4.794   0.989   1.940
12557SOL    HW139112   4.784   1.045   1.864
12557SOL    HW239113   4.869   0.933   1.920
12558SOL     OW39114   5.557   1.551   2.705
12558SOL    HW139115   5.479   1.544   2.649
12558SOL    HW239116   5.533   1.508   2.786
12559SOL     OW39117   3.967   1.302   3.729
12559SOL    HW139118   3.883   1.262   3.705
12559SOL    HW239119   3.961   1.316   3.823
12560SOL     OW39120   3.821   1.220   2.528
12560SOL    HW139121   3.835   1.185   2.616
12560SOL    HW239122   3.891   1.181   2.475
12561SOL     OW39123   4.413   1.416   3.497
12561SOL    HW139124   4.335   1.371   3.530
12561SOL    HW239125   4.407   1.504   3.533
12562SOL     OW39126   5.544   0.233   3.084
12562SOL    HW139127   5.484   0.158   3.084
12562SOL    HW239128   5.570   0.244   2.993
12563SOL     OW39129   4.156   0.428   2.396
12563SOL    HW139130   4.174   0.362   2.329
12563SOL    HW239131   4.096   0.384   2.457
12564SOL     OW39132   5.427   1.479   2.945
12564SOL    HW139133   5.344   1.463   2.900
12564SOL    HW239134   5.428   1.416   3.017
12565SOL     OW39135   4.065   0.565   3.153
12565SOL    HW139136   4.114   0.501   3.206
12565SOL    HW239137   4.081   0.538   3.063
12566SOL     OW39138   4.564   1.577   2.533
12566SOL    HW139139   4.534   1.653   2.484
12566SOL    HW239140   4.485   1.523   2.542
12567SOL     OW39141   5.155   0.227   2.977
12567SOL    HW139142   5.213   0.167   3.026
12567SOL    HW239143   5.104   0.271   3.045
12568SOL     OW39144   4.732   0.072   2.994
12568SOL    HW139145   4.646   0.052   2.959
12568SOL    HW239146   4.766  -0.012   3.026
12569SOL     OW39147   4.509   1.329   2.171
12569SOL    HW139148   4.482   1.240   2.194
12569SOL    HW239149   4.580   1.349   2.232
12570SOL     OW39150   4.346   1.553   3.150
12570SOL    HW139151   4.343   1.634   3.201
12570SOL    HW239152   4.434   1.553   3.112
12571SOL     OW39153   5.071   7.979   1.973
12571SOL    HW139154   5.157   7.950   2.004
12571SOL    HW239155   5.013   7.970   2.048
12572SOL     OW39156   5.024   0.464   2.532
12572SOL    HW139157   4.971   0.544   2.534
12572SOL    HW239158   5.023   0.432   2.622
12573SOL     OW39159   5.331   0.220   2.729
12573SOL    HW139160   5.257   0.222   2.790
12573SOL    HW239161   5.322   0.301   2.678
12574SOL     OW39162   3.765   1.060   2.165
12574SOL    HW139163   3.859   1.051   2.151
12574SOL    HW239164   3.736   0.971   2.189
12575SOL     OW39165   4.618   1.667   2.190
12575SOL    HW139166   4.540   1.652   2.137
12575SOL    HW239167   4.592   1.734   2.253
12576SOL     OW39168   3.935   0.618   3.860
12576SOL    HW139169   3.849   0.613   3.902
12576SOL    HW239170   3.916   0.605   3.766
12577SOL     OW39171   3.954   0.294   4.709
12577SOL    HW139172   3.980   0.256   4.793
12577SOL    HW239173   3.866   0.258   4.693
12578SOL     OW39174   3.732   0.401   4.358
12578SOL    HW139175   3.647   0.427   4.394
12578SOL    HW239176   3.715   0.316   4.317
12579SOL     OW39177   4.293   1.298   4.909
12579SOL    HW139178   4.209   1.310   4.866
12579SOL    HW239179   4.313   1.384   4.947
12580SOL     OW39180   5.294   1.515   4.437
12580SOL    HW139181   5.251   1.496   4.520
12580SOL    HW239182   5.223   1.522   4.373
12581SOL     OW39183   4.858   0.696   4.417
12581SOL    HW139184   4.905   0.778   4.401
12581SOL    HW239185   4.813   0.710   4.500
12582SOL     OW39186   5.529   0.592   3.943
12582SOL    HW139187   5.491   0.588   3.855
12582SOL    HW239188   5.483   0.524   3.992
12583SOL     OW39189   4.461   1.132   4.773
12583SOL    HW139190   4.396   1.172   4.831
12583SOL    HW239191   4.504   1.206   4.731
12584SOL     OW39192   4.603   0.748   5.545
12584SOL    HW139193   4.593   0.813   5.615
12584SOL    HW239194   4.623   0.800   5.467
12585SOL     OW39195   4.409   0.987   4.370
12585SOL    HW139196   4.476   0.988   4.438
12585SOL    HW239197   4.341   1.046   4.402
12586SOL     OW39198   4.442   1.154   5.549
12586SOL    HW139199   4.488   1.230   5.584
12586SOL    HW239200   4.363   1.190   5.508
12587SOL     OW39201   4.064   1.406   4.789
12587SOL    HW139202   3.985   1.375   4.747
12587SOL    HW239203   4.103   1.466   4.725
12588SOL     OW39204   5.183   1.506   5.090
12588SOL    HW139205   5.236   1.584   5.104
12588SOL    HW239206   5.108   1.516   5.149
12589SOL     OW39207   4.175   0.378   5.175
12589SOL    HW139208   4.252   0.325   5.196
12589SOL    HW239209   4.101   0.326   5.208
12590SOL     OW39210   5.328   0.456   4.453
12590SOL    HW139211   5.254   0.472   4.395
12590SOL    HW239212   5.327   0.529   4.515
12591SOL     OW39213   3.948   1.711   4.190
12591SOL    HW139214   3.963   1.785   4.248
12591SOL    HW239215   4.025   1.708   4.134
12592SOL     OW39216   4.862   1.341   5.413
12592SOL    HW139217   4.901   1.339   5.500
12592SOL    HW239218   4.809   1.262   5.408
12593SOL     OW39219   3.947   1.446   4.260
12593SOL    HW139220   3.941   1.541   4.252
12593SOL    HW239221   3.894   1.426   4.338
12594SOL     OW39222   3.990   1.094   4.606
12594SOL    HW139223   3.986   1.005   4.642
12594SOL    HW239224   3.937   1.146   4.665
12595SOL     OW39225   4.334   1.772   5.165
12595SOL    HW139226   4.246   1.764   5.203
12595SOL    HW239227   4.358   1.863   5.179
12596SOL     OW39228   4.299   0.989   3.866
12596SOL    HW139229   4.349   1.034   3.798
12596SOL    HW239230   4.337   1.021   3.949
12597SOL     OW39231   5.378   0.121   5.204
12597SOL    HW139232   5.337   0.183   5.144
12597SOL    HW239233   5.339   0.141   5.289
12598SOL     OW39234   3.848   0.658   4.286
12598SOL    HW139235   3.813   0.572   4.309
12598SOL    HW239236   3.836   0.711   4.365
12599SOL     OW39237   5.571   1.748   4.040
12599SOL    HW139238   5.632   1.722   4.109
12599SOL    HW239239   5.583   1.842   4.031
12600SOL     OW39240   3.766   1.584   3.839
12600SOL    HW139241   3.745   1.494   3.865
12600SOL    HW239242   3.741   1.637   3.915
12601SOL     OW39243   5.410   0.919   4.365
12601SOL    HW139244   5.495   0.880   4.343
12601SOL    HW239245   5.390   0.975   4.291
12602SOL     OW39246   5.379   1.104   4.153
12602SOL    HW139247   5.466   1.103   4.112
12602SOL    HW239248   5.385   1.169   4.222
12603SOL     OW39249   3.844   0.754   5.308
12603SOL    HW139250   3.932   0.792   5.315
12603SOL    HW239251   3.785   0.830   5.311
12604SOL     OW39252   4.345   1.393   4.455
12604SOL    HW139253   4.300   1.310   4.464
12604SOL    HW239254   4.327   1.421   4.365
12605SOL     OW39255   5.008   1.232   5.140
12605SOL    HW139256   5.042   1.164   5.081
12605SOL    HW239257   5.065   1.228   5.216
12606SOL     OW39258   4.553   0.041   4.259
12606SOL    HW139259   4.607   0.117   4.233
12606SOL    HW239260   4.473   0.080   4.293
12607SOL     OW39261   3.908   0.954   5.018
12607SOL    HW139262   3.995   0.919   4.996
12607SOL    HW239263   3.855   0.935   4.940
12608SOL     OW39264   5.259   1.004   3.924
12608SOL    HW139265   5.190   0.946   3.956
12608SOL    HW239266   5.300   1.039   4.003
12609SOL     OW39267   4.915   1.831   5.357
12609SOL    HW139268   4.913   1.898   5.290
12609SOL    HW239269   4.934   1.750   5.309
12610SOL     OW39270   4.035   0.228   5.498
12610SOL    HW139271   4.101   0.290   5.529
12610SOL    HW239272   3.957   0.248   5.549
12611SOL     OW39273   5.197   1.413   4.678
12611SOL    HW139274   5.127   1.432   4.741
12611SOL    HW239275   5.179   1.324   4.648
12612SOL     OW39276   5.383   1.753   4.297
12612SOL    HW139277   5.351   1.720   4.213
12612SOL    HW239278   5.359   1.686   4.360
12613SOL     OW39279   4.319   0.717   3.999
12613SOL    HW139280   4.323   0.805   3.961
12613SOL    HW239281   4.253   0.725   4.069
12614SOL     OW39282   5.017   0.373   4.655
12614SOL    HW139283   4.926   0.344   4.660
12614SOL    HW239284   5.063   0.318   4.719
12615SOL     OW39285   5.301   1.674   4.036
12615SOL    HW139286   5.394   1.698   4.025
12615SOL    HW239287   5.270   1.659   3.947
12616SOL     OW39288   4.506   0.637   5.165
12616SOL    HW139289   4.484   0.607   5.253
12616SOL    HW239290   4.483   0.563   5.109
12617SOL     OW39291   5.138   0.488   5.405
12617SOL    HW139292   5.136   0.534   5.489
12617SOL    HW239293   5.208   0.424   5.413
12618SOL     OW39294   4.668   0.886   5.309
12618SOL    HW139295   4.723   0.819   5.268
12618SOL    HW239296   4.623   0.928   5.236
12619SOL     OW39297   4.727   0.407   4.943
12619SOL    HW139298   4.641   0.436   4.973
12619SOL    HW239299   4.713   0.377   4.853
12620SOL     OW39300   4.779   0.696   4.148
12620SOL    HW139301   4.798   0.694   4.242
12620SOL    HW239302   4.692   0.655   4.141
12621SOL     OW39303   3.808   0.823   4.499
12621SOL    HW139304   3.889   0.821   4.551
12621SOL    HW239305   3.756   0.893   4.538
12622SOL     OW39306   3.832   1.828   5.289
12622SOL    HW139307   3.834   1.818   5.385
12622SOL    HW239308   3.806   1.919   5.275
12623SOL     OW39309   4.617   0.352   3.928
12623SOL    HW139310   4.664   0.403   3.863
12623SOL    HW239311   4.622   0.262   3.896
12624SOL     OW39312   5.434   0.571   5.554
12624SOL    HW139313   5.399   0.647   5.508
12624SOL    HW239314   5.458   0.510   5.485
12625SOL     OW39315   5.106   1.144   4.267
12625SOL    HW139316   5.186   1.142   4.214
12625SOL    HW239317   5.050   1.208   4.223
12626SOL     OW39318   4.267   0.252   4.614
12626SOL    HW139319   4.245   0.247   4.707
12626SOL    HW239320   4.267   0.345   4.595
12627SOL     OW39321   4.715   1.448   4.188
12627SOL    HW139322   4.692   1.524   4.134
12627SOL    HW239323   4.686   1.472   4.276
12628SOL     OW39324   4.072   1.820   4.603
12628SOL    HW139325   4.129   1.743   4.611
12628SOL    HW239326   4.129   1.894   4.624
12629SOL     OW39327   5.523   1.044   4.595
12629SOL    HW139328   5.466   1.030   4.519
12629SOL    HW239329   5.464   1.057   4.668
12630SOL     OW39330   4.945   1.546   5.227
12630SOL    HW139331   4.929   1.472   5.286
12630SOL    HW239332   4.857   1.575   5.201
12631SOL     OW39333   4.036   0.967   3.984
12631SOL    HW139334   4.119   0.985   3.940
12631SOL    HW239335   4.006   0.884   3.945
12632SOL     OW39336   5.206   0.750   4.439
12632SOL    HW139337   5.202   0.717   4.529
12632SOL    HW239338   5.281   0.810   4.439
12633SOL     OW39339   4.198   1.263   5.457
12633SOL    HW139340   4.171   1.269   5.365
12633SOL    HW239341   4.116   1.263   5.506
12634SOL     OW39342   4.858   1.781   3.949
12634SOL    HW139343   4.778   1.751   3.993
12634SOL    HW239344   4.877   1.713   3.884
12635SOL     OW39345   3.916   0.268   5.225
12635SOL    HW139346   3.852   0.339   5.215
12635SOL    HW239347   3.927   0.258   5.319
12636SOL     OW39348   5.356   1.381   3.810
12636SOL    HW139349   5.315   1.467   3.802
12636SOL    HW239350   5.286   1.319   3.792
12637SOL     OW39351   4.194   1.726   4.051
12637SOL    HW139352   4.230   1.792   4.110
12637SOL    HW239353   4.264   1.709   3.988
12638SOL     OW39354   5.143   0.129   4.125
12638SOL    HW139355   5.180   0.100   4.041
12638SOL    HW239356   5.219   0.148   4.180
12639SOL     OW39357   3.962   1.784   4.957
12639SOL    HW139358   4.023   1.720   4.993
12639SOL    HW239359   3.970   1.774   4.862
12640SOL     OW39360   4.664   1.703   4.622
12640SOL    HW139361   4.738   1.652   4.656
12640SOL    HW239362   4.628   1.649   4.551
12641SOL     OW39363   4.123   0.687   4.196
12641SOL    HW139364   4.135   0.594   4.215
12641SOL    HW239365   4.030   0.703   4.213
12642SOL     OW39366   5.277   0.209   5.446
12642SOL    HW139367   5.289   0.241   5.535
12642SOL    HW239368   5.190   0.167   5.447
12643SOL     OW39369   4.332   0.145   3.821
12643SOL    HW139370   4.396   0.098   3.875
12643SOL    HW239371   4.305   0.081   3.756
12644SOL     OW39372   4.436   0.301   5.479
12644SOL    HW139373   4.528   0.277   5.489
12644SOL    HW239374   4.394   0.267   5.558
12645SOL     OW39375   4.599   1.515   4.911
12645SOL    HW139376   4.578   1.475   4.827
12645SOL    HW239377   4.669   1.460   4.947
12646SOL     OW39378   5.064   0.593   5.160
12646SOL    HW139379   5.101   0.567   5.244
12646SOL    HW239380   5.097   0.682   5.145
12647SOL     OW39381   4.548   1.375   4.669
12647SOL    HW139382   4.634   1.371   4.627
12647SOL    HW239383   4.487   1.393   4.598
12648SOL     OW39384   4.649   0.517   4.613
12648SOL    HW139385   4.612   0.506   4.525
12648SOL    HW239386   4.688   0.431   4.633
12649SOL     OW39387   4.222   0.022   4.144
12649SOL    HW139388   4.191   0.027   4.234
12649SOL    HW239389   4.250   0.111   4.123
12650SOL     OW39390   5.148   1.204   3.761
12650SOL    HW139391   5.176   1.131   3.816
12650SOL    HW239392   5.064   1.231   3.798
12651SOL     OW39393   4.044  -0.011   3.939
12651SOL    HW139394   4.065   0.060   3.879
12651SOL    HW239395   4.102   0.002   4.014
12652SOL     OW39396   4.680   0.268   4.183
12652SOL    HW139397   4.649   0.303   4.100
12652SOL    HW239398   4.774   0.284   4.182
12653SOL     OW39399   4.804   0.684   5.182
12653SOL    HW139400   4.744   0.611   5.200
12653SOL    HW239401   4.890   0.643   5.180
12654SOL     OW39402   4.956   1.568   4.515
12654SOL    HW139403   4.959   1.635   4.448
12654SOL    HW239404   4.994   1.610   4.593
12655SOL     OW39405   4.201   1.153   4.443
12655SOL    HW139406   4.135   1.136   4.511
12655SOL    HW239407   4.153   1.147   4.361
12656SOL     OW39408   4.983   1.785   4.336
12656SOL    HW139409   5.028   1.853   4.285
12656SOL    HW239410   4.910   1.832   4.378
12657SOL     OW39411   4.750   0.517   3.747
12657SOL    HW139412   4.704   0.599   3.727
12657SOL    HW239413   4.810   0.540   3.818
12658SOL     OW39414   3.816   0.560   5.122
12658SOL    HW139415   3.907   0.563   5.092
12658SOL    HW239416   3.810   0.631   5.185
12659SOL     OW39417   4.292   0.220   4.916
12659SOL    HW139418   4.329   0.194   5.001
12659SOL    HW239419   4.198   0.220   4.929
12660SOL     OW39420   4.561   0.447   4.358
12660SOL    HW139421   4.534   0.513   4.294
12660SOL    HW239422   4.608   0.381   4.307
12661SOL     OW39423   4.694   0.041   4.505
12661SOL    HW139424   4.648   0.036   4.421
12661SOL    HW239425   4.710  -0.051   4.529
12662SOL     OW39426   5.163   1.155   4.582
12662SOL    HW139427   5.086   1.100   4.596
12662SOL    HW239428   5.170   1.164   4.487
12663SOL     OW39429   5.187   0.612   4.681
12663SOL    HW139430   5.130   0.535   4.686
12663SOL    HW239431   5.243   0.606   4.758
12664SOL     OW39432   5.568   0.806   4.108
12664SOL    HW139433   5.626   0.760   4.169
12664SOL    HW239434   5.549   0.741   4.040
12665SOL     OW39435   4.217   1.419   3.876
12665SOL    HW139436   4.143   1.399   3.934
12665SOL    HW239437   4.195   1.376   3.793
12666SOL     OW39438   5.409   1.272   4.356
12666SOL    HW139439   5.502   1.273   4.378
12666SOL    HW239440   5.375   1.356   4.386
12667SOL     OW39441   5.120   0.578   3.798
12667SOL    HW139442   5.051   0.556   3.861
12667SOL    HW239443   5.201   0.554   3.843
12668SOL     OW39444   4.231   0.279   4.033
12668SOL    HW139445   4.275   0.235   3.961
12668SOL    HW239446   4.207   0.365   3.999
12669SOL     OW39447   5.468   1.242   5.269
12669SOL    HW139448   5.557   1.207   5.259
12669SOL    HW239449   5.481   1.330   5.305
12670SOL     OW39450   4.777   1.335   5.034
12670SOL    HW139451   4.700   1.318   5.089
12670SOL    HW239452   4.851   1.307   5.088
12671SOL     OW39453   5.335   1.623   5.385
12671SOL    HW139454   5.326   1.663   5.298
12671SOL    HW239455   5.417   1.574   5.380
12672SOL     OW39456   4.850   1.189   4.813
12672SOL    HW139457   4.809   1.237   4.885
12672SOL    HW239458   4.832   1.241   4.735
12673SOL     OW39459   5.349   1.100   4.800
12673SOL    HW139460   5.342   1.164   4.870
12673SOL    HW239461   5.274   1.119   4.742
12674SOL     OW39462   4.643   0.120   5.117
12674SOL    HW139463   4.665   0.115   5.024
12674SOL    HW239464   4.727   0.119   5.162
12675SOL     OW39465   4.708   1.115   5.450
12675SOL    HW139466   4.618   1.135   5.477
12675SOL    HW239467   4.699   1.036   5.396
12676SOL     OW39468   4.434   1.059   4.098
12676SOL    HW139469   4.419   1.039   4.190
12676SOL    HW239470   4.508   1.004   4.072
12677SOL     OW39471   4.147   0.822   4.973
12677SOL    HW139472   4.211   0.838   5.042
12677SOL    HW239473   4.113   0.735   4.992
12678SOL     OW39474   4.991   0.380   5.007
12678SOL    HW139475   5.022   0.459   5.050
12678SOL    HW239476   4.902   0.400   4.979
12679SOL     OW39477   3.798   1.569   5.077
12679SOL    HW139478   3.772   1.658   5.053
12679SOL    HW239479   3.893   1.570   5.076
12680SOL     OW39480   4.052   1.130   4.212
12680SOL    HW139481   4.051   1.208   4.157
12680SOL    HW239482   4.051   1.057   4.150
12681SOL     OW39483   4.276   0.521   4.577
12681SOL    HW139484   4.285   0.580   4.502
12681SOL    HW239485   4.336   0.556   4.642
12682SOL     OW39486   4.966   1.353   4.119
12682SOL    HW139487   5.021   1.424   4.152
12682SOL    HW239488   4.878   1.374   4.151
12683SOL     OW39489   5.016   1.459   4.881
12683SOL    HW139490   5.075   1.471   4.955
12683SOL    HW239491   4.941   1.411   4.918
12684SOL     OW39492   5.294   0.634   4.201
12684SOL    HW139493   5.247   0.669   4.277
12684SOL    HW239494   5.334   0.711   4.161
12685SOL     OW39495   4.072   1.522   5.034
12685SOL    HW139496   4.062   1.479   4.949
12685SOL    HW239497   4.166   1.539   5.042
12686SOL     OW39498   4.164   0.730   5.345
12686SOL    HW139499   4.207   0.784   5.279
12686SOL    HW239500   4.231   0.668   5.373
12687SOL     OW39501   5.341   0.783   5.415
12687SOL    HW139502   5.254   0.823   5.409
12687SOL    HW239503   5.392   0.825   5.346
12688SOL     OW39504   4.770   0.073   5.465
12688SOL    HW139505   4.781   0.165   5.440
12688SOL    HW239506   4.676   0.057   5.457
12689SOL     OW39507   4.233   0.031   5.456
12689SOL    HW139508   4.210  -0.025   5.382
12689SOL    HW239509   4.164   0.097   5.459
12690SOL     OW39510   4.311   0.876   4.758
12690SOL    HW139511   4.347   0.965   4.758
12690SOL    HW239512   4.253   0.873   4.834
12691SOL     OW39513   5.057   0.856   4.732
12691SOL    HW139514   4.966   0.837   4.708
12691SOL    HW239515   5.102   0.772   4.720
12692SOL     OW39516   4.912   0.530   3.974
12692SOL    HW139517   4.927   0.453   4.028
12692SOL    HW239518   4.875   0.594   4.034
12693SOL     OW39519   4.020   0.199   4.961
12693SOL    HW139520   3.978   0.229   5.041
12693SOL    HW239521   3.992   0.108   4.951
12694SOL     OW39522   3.766   1.311   5.001
12694SOL    HW139523   3.801   1.261   5.075
12694SOL    HW239524   3.773   1.402   5.028
12695SOL     OW39525   4.433   0.629   4.770
12695SOL    HW139526   4.515   0.628   4.721
12695SOL    HW239527   4.402   0.719   4.763
12696SOL     OW39528   5.470   0.959   5.589
12696SOL    HW139529   5.425   0.892   5.538
12696SOL    HW239530   5.408   0.983   5.658
12697SOL     OW39531   4.106   0.046   4.390
12697SOL    HW139532   4.073   0.133   4.409
12697SOL    HW239533   4.058  -0.012   4.449
12698SOL     OW39534   5.365   0.404   4.076
12698SOL    HW139535   5.369   0.332   4.139
12698SOL    HW239536   5.332   0.478   4.127
12699SOL     OW39537   4.762   0.757   4.683
12699SOL    HW139538   4.746   0.772   4.776
12699SOL    HW239539   4.727   0.669   4.667
12700SOL     OW39540   4.711   1.568   5.450
12700SOL    HW139541   4.690   1.612   5.368
12700SOL    HW239542   4.747   1.483   5.424
12701SOL     OW39543   5.575   1.493   5.327
12701SOL    HW139544   5.596   1.526   5.240
12701SOL    HW239545   5.654   1.510   5.379
12702SOL     OW39546   4.075   0.907   5.543
12702SOL    HW139547   4.154   0.940   5.587
12702SOL    HW239548   4.109   0.845   5.478
12703SOL     OW39549   5.302   0.289   3.836
12703SOL    HW139550   5.213   0.263   3.859
12703SOL    HW239551   5.336   0.328   3.916
12704SOL     OW39552   5.006   0.824   3.747
12704SOL    HW139553   5.052   0.741   3.757
12704SOL    HW239554   5.042   0.861   3.666
12705SOL     OW39555   4.804   1.343   4.581
12705SOL    HW139556   4.809   1.274   4.516
12705SOL    HW239557   4.860   1.413   4.547
12706SOL     OW39558   4.033   0.815   4.665
12706SOL    HW139559   4.125   0.839   4.665
12706SOL    HW239560   4.032   0.727   4.703
12707SOL     OW39561   4.056   0.539   4.738
12707SOL    HW139562   4.015   0.454   4.722
12707SOL    HW239563   4.131   0.541   4.678
12708SOL     OW39564   4.894   0.362   5.434
12708SOL    HW139565   4.830   0.419   5.475
12708SOL    HW239566   4.971   0.418   5.420
12709SOL     OW39567   4.893   0.217   5.202
12709SOL    HW139568   4.896   0.270   5.282
12709SOL    HW239569   4.928   0.274   5.134
12710SOL     OW39570   3.731   1.310   3.912
12710SOL    HW139571   3.643   1.328   3.878
12710SOL    HW239572   3.724   1.222   3.950
12711SOL     OW39573   3.808   1.773   4.663
12711SOL    HW139574   3.787   1.695   4.611
12711SOL    HW239575   3.897   1.796   4.636
12712SOL     OW39576   4.216   1.573   4.629
12712SOL    HW139577   4.282   1.640   4.645
12712SOL    HW239578   4.259   1.512   4.568
12713SOL     OW39579   4.692   0.774   4.945
12713SOL    HW139580   4.752   0.754   5.017
12713SOL    HW239581   4.605   0.771   4.985
12714SOL     OW39582   3.762   0.546   4.846
12714SOL    HW139583   3.843   0.557   4.797
12714SOL    HW239584   3.789   0.552   4.938
12715SOL     OW39585   3.914   0.532   5.453
12715SOL    HW139586   4.003   0.540   5.418
12715SOL    HW239587   3.865   0.602   5.411
12716SOL     OW39588   5.111   0.925   5.377
12716SOL    HW139589   5.129   1.019   5.375
12716SOL    HW239590   5.102   0.900   5.285
12717SOL     OW39591   4.538   0.570   4.099
12717SOL    HW139592   4.543   0.499   4.035
12717SOL    HW239593   4.466   0.625   4.069
12718SOL     OW39594   5.360   0.606   4.892
12718SOL    HW139595   5.351   0.555   4.972
12718SOL    HW239596   5.449   0.589   4.862
12719SOL     OW39597   3.967   1.547   5.443
12719SOL    HW139598   3.944   1.623   5.495
12719SOL    HW239599   3.972   1.475   5.506
12720SOL     OW39600   4.452   0.450   4.974
12720SOL    HW139601   4.387   0.383   4.957
12720SOL    HW239602   4.437   0.515   4.905
12721SOL     OW39603   4.683   1.664   5.183
12721SOL    HW139604   4.630   1.630   5.111
12721SOL    HW239605   4.673   1.759   5.177
12722SOL     OW39606   4.180   0.504   3.891
12722SOL    HW139607   4.237   0.575   3.921
12722SOL    HW239608   4.093   0.544   3.886
12723SOL     OW39609   3.859   1.144   5.205
12723SOL    HW139610   3.861   1.099   5.289
12723SOL    HW239611   3.877   1.075   5.141
12724SOL     OW39612   5.043   1.037   4.935
12724SOL    HW139613   5.061   0.975   4.864
12724SOL    HW239614   4.974   1.094   4.900
12725SOL     OW39615   5.050   0.855   4.023
12725SOL    HW139616   4.979   0.835   4.083
12725SOL    HW239617   5.012   0.845   3.936
12726SOL     OW39618   5.499   1.735   4.883
12726SOL    HW139619   5.561   1.760   4.814
12726SOL    HW239620   5.473   1.646   4.860
12727SOL     OW39621   4.959   1.717   4.796
12727SOL    HW139622   5.046   1.750   4.771
12727SOL    HW239623   4.976   1.632   4.836
12728SOL     OW39624   3.822   1.251   4.745
12728SOL    HW139625   3.806   1.273   4.837
12728SOL    HW239626   3.735   1.241   4.707
12729SOL     OW39627   4.392   1.677   5.465
12729SOL    HW139628   4.324   1.744   5.475
12729SOL    HW239629   4.449   1.711   5.396
12730SOL     OW39630   5.388   0.171   4.238
12730SOL    HW139631   5.465   0.137   4.193
12730SOL    HW239632   5.392   0.132   4.325
12731SOL     OW39633   5.116   1.569   4.217
12731SOL    HW139634   5.171   1.607   4.149
12731SOL    HW239635   5.063   1.641   4.250
12732SOL     OW39636   3.877   1.781   5.560
12732SOL    HW139637   3.823   1.721   5.612
12732SOL    HW239638   3.918   1.839   5.625
12733SOL     OW39639   4.999   0.923   4.380
12733SOL    HW139640   5.076   0.868   4.398
12733SOL    HW239641   5.035   1.000   4.335
12734SOL     OW39642   4.524   1.285   5.150
12734SOL    HW139643   4.500   1.326   5.233
12734SOL    HW239644   4.454   1.310   5.089
12735SOL     OW39645   4.400   1.619   3.879
12735SOL    HW139646   4.403   1.641   3.786
12735SOL    HW239647   4.341   1.544   3.884
12736SOL     OW39648   5.343   1.730   5.120
12736SOL    HW139649   5.394   1.736   5.039
12736SOL    HW239650   5.329   1.821   5.146
12737SOL     OW39651   5.581   0.167   4.669
12737SOL    HW139652   5.574   0.081   4.709
12737SOL    HW239653   5.493   0.184   4.634
12738SOL     OW39654   3.974   0.285   4.434
12738SOL    HW139655   3.899   0.339   4.409
12738SOL    HW239656   3.981   0.296   4.529
12739SOL     OW39657   4.937   1.596   3.757
12739SOL    HW139658   4.921   1.507   3.788
12739SOL    HW239659   4.866   1.612   3.694
12740SOL     OW39660   4.549   1.018   5.096
12740SOL    HW139661   4.581   1.023   5.005
12740SOL    HW239662   4.539   1.109   5.123
12741SOL     OW39663   4.636   0.901   4.012
12741SOL    HW139664   4.694   0.939   3.947
12741SOL    HW239665   4.691   0.840   4.062
12742SOL     OW39666   5.213   1.627   3.772
12742SOL    HW139667   5.119   1.617   3.759
12742SOL    HW239668   5.249   1.634   3.684
12743SOL     OW39669   4.093   1.299   5.212
12743SOL    HW139670   4.081   1.379   5.162
12743SOL    HW239671   4.010   1.252   5.203
12744SOL     OW39672   5.337   1.291   5.007
12744SOL    HW139673   5.385   1.269   5.086
12744SOL    HW239674   5.274   1.357   5.034
12745SOL     OW39675   4.795   1.111   4.436
12745SOL    HW139676   4.720   1.067   4.476
12745SOL    HW239677   4.854   1.041   4.411
12746SOL     OW39678   4.756   0.263   4.666
12746SOL    HW139679   4.739   0.206   4.591
12746SOL    HW239680   4.760   0.203   4.741
12747SOL     OW39681   4.324   1.485   4.199
12747SOL    HW139682   4.368   1.442   4.126
12747SOL    HW239683   4.263   1.546   4.158
12748SOL     OW39684   5.445   0.427   5.101
12748SOL    HW139685   5.520   0.486   5.110
12748SOL    HW239686   5.476   0.357   5.044
12749SOL     OW39687   3.982   1.344   4.015
12749SOL    HW139688   3.890   1.339   3.991
12749SOL    HW239689   3.982   1.387   4.101
12750SOL     OW39690   3.839   1.021   5.447
12750SOL    HW139691   3.764   1.002   5.503
12750SOL    HW239692   3.914   0.986   5.496
12751SOL     OW39693   4.396   0.216   5.211
12751SOL    HW139694   4.473   0.164   5.188
12751SOL    HW239695   4.408   0.236   5.304
12752SOL     OW39696   3.811   0.322   3.749
12752SOL    HW139697   3.715   0.321   3.757
12752SOL    HW239698   3.830   0.402   3.700
12753SOL     OW39699   5.145   0.855   5.114
12753SOL    HW139700   5.094   0.916   5.061
12753SOL    HW239701   5.235   0.862   5.079
12754SOL     OW39702   3.784   0.174   4.013
12754SOL    HW139703   3.798   0.246   3.951
12754SOL    HW239704   3.870   0.132   4.021
12755SOL     OW39705   4.898   1.331   3.844
12755SOL    HW139706   4.804   1.314   3.842
12755SOL    HW239707   4.921   1.334   3.937
12756SOL     OW39708   4.339   0.846   5.160
12756SOL    HW139709   4.395   0.923   5.147
12756SOL    HW239710   4.401   0.773   5.166
12757SOL     OW39711   5.211   1.787   4.704
12757SOL    HW139712   5.221   1.864   4.648
12757SOL    HW239713   5.294   1.780   4.751
12758SOL     OW39714   4.414   0.577   5.417
12758SOL    HW139715   4.471   0.628   5.474
12758SOL    HW239716   4.423   0.487   5.448
12759SOL     OW39717   5.197   1.185   5.350
12759SOL    HW139718   5.182   1.207   5.442
12759SOL    HW239719   5.287   1.213   5.333
12760SOL     OW39720   4.089   1.736   5.279
12760SOL    HW139721   4.004   1.778   5.261
12760SOL    HW239722   4.066   1.656   5.325
12761SOL     OW39723   5.386   0.883   4.977
12761SOL    HW139724   5.380   0.800   4.930
12761SOL    HW239725   5.375   0.950   4.910
12762SOL     OW39726   4.946   0.324   4.169
12762SOL    HW139727   5.011   0.256   4.156
12762SOL    HW239728   4.976   0.371   4.247
12763SOL     OW39729   4.313   0.724   4.395
12763SOL    HW139730   4.351   0.812   4.389
12763SOL    HW239731   4.246   0.721   4.327
12764SOL     OW39732   5.479   0.380   5.366
12764SOL    HW139733   5.461   0.397   5.274
12764SOL    HW239734   5.418   0.310   5.389
12765SOL     OW39735   5.478   0.933   5.233
12765SOL    HW139736   5.460   1.026   5.249
12765SOL    HW239737   5.455   0.920   5.141
12766SOL     OW39738   4.600   1.361   3.780
12766SOL    HW139739   4.559   1.369   3.866
12766SOL    HW239740   4.596   1.449   3.743
12767SOL     OW39741   4.384   1.783   4.640
12767SOL    HW139742   4.357   1.874   4.636
12767SOL    HW239743   4.479   1.786   4.654
12768SOL     OW39744   4.597   0.976   4.578
12768SOL    HW139745   4.649   0.907   4.620
12768SOL    HW239746   4.555   1.021   4.651
12769SOL     OW39747   4.796   0.983   3.813
12769SOL    HW139748   4.777   1.042   3.740
12769SOL    HW239749   4.871   0.932   3.783
12770SOL     OW39750   5.556   1.550   4.566
12770SOL    HW139751   5.477   1.544   4.511
12770SOL    HW239752   5.530   1.510   4.649
12771SOL     OW39753   3.962   1.300   5.587
12771SOL    HW139754   3.884   1.258   5.551
12771SOL    HW239755   3.941   1.314   5.679
12772SOL     OW39756   3.815   1.207   4.391
12772SOL    HW139757   3.849   1.173   4.474
12772SOL    HW239758   3.885   1.190   4.328
12773SOL     OW39759   4.415   1.414   5.366
12773SOL    HW139760   4.334   1.373   5.395
12773SOL    HW239761   4.409   1.504   5.397
12774SOL     OW39762   5.543   0.233   4.947
12774SOL    HW139763   5.485   0.157   4.948
12774SOL    HW239764   5.569   0.243   4.855
12775SOL     OW39765   4.150   0.426   4.259
12775SOL    HW139766   4.183   0.360   4.198
12775SOL    HW239767   4.097   0.376   4.321
12776SOL     OW39768   5.429   1.479   4.806
12776SOL    HW139769   5.346   1.463   4.762
12776SOL    HW239770   5.430   1.416   4.879
12777SOL     OW39771   4.063   0.566   5.016
12777SOL    HW139772   4.114   0.502   5.067
12777SOL    HW239773   4.079   0.540   4.925
12778SOL     OW39774   4.564   1.583   4.393
12778SOL    HW139775   4.542   1.663   4.345
12778SOL    HW239776   4.482   1.533   4.396
12779SOL     OW39777   5.153   0.225   4.840
12779SOL    HW139778   5.212   0.166   4.887
12779SOL    HW239779   5.104   0.270   4.909
12780SOL     OW39780   4.744   0.072   4.855
12780SOL    HW139781   4.667   0.017   4.839
12780SOL    HW239782   4.812   0.010   4.882
12781SOL     OW39783   4.506   1.328   4.037
12781SOL    HW139784   4.478   1.239   4.060
12781SOL    HW239785   4.577   1.347   4.099
12782SOL     OW39786   4.348   1.548   5.016
12782SOL    HW139787   4.346   1.627   5.068
12782SOL    HW239788   4.434   1.550   4.973
12783SOL     OW39789   5.081   7.981   3.832
12783SOL    HW139790   5.134   7.903   3.851
12783SOL    HW239791   5.023   7.989   3.908
12784SOL     OW39792   5.021   0.464   4.394
12784SOL    HW139793   4.970   0.545   4.398
12784SOL    HW239794   5.022   0.433   4.485
12785SOL     OW39795   5.330   0.218   4.587
12785SOL    HW139796   5.257   0.220   4.649
12785SOL    HW239797   5.323   0.301   4.539
12786SOL     OW39798   3.763   1.061   4.032
12786SOL    HW139799   3.858   1.056   4.018
12786SOL    HW239800   3.737   0.971   4.052
12787SOL     OW39801   4.620   1.667   4.050
12787SOL    HW139802   4.543   1.651   3.994
12787SOL    HW239803   4.591   1.732   4.113
12788SOL     OW39804   3.933   0.622   5.723
12788SOL    HW139805   3.846   0.616   5.762
12788SOL    HW239806   3.919   0.607   5.629
12789SOL     OW39807   3.949   0.302   6.567
12789SOL    HW139808   3.983   0.260   6.647
12789SOL    HW239809   3.863   0.263   6.554
12790SOL     OW39810   3.729   0.402   6.216
12790SOL    HW139811   3.643   0.425   6.252
12790SOL    HW239812   3.714   0.320   6.169
12791SOL     OW39813   4.295   1.302   6.776
12791SOL    HW139814   4.212   1.310   6.730
12791SOL    HW239815   4.313   1.390   6.810
12792SOL     OW39816   5.299   1.516   6.293
12792SOL    HW139817   5.253   1.494   6.374
12792SOL    HW239818   5.230   1.524   6.227
12793SOL     OW39819   4.863   0.697   6.280
12793SOL    HW139820   4.908   0.780   6.266
12793SOL    HW239821   4.813   0.710   6.360
12794SOL     OW39822   5.525   0.594   5.806
12794SOL    HW139823   5.489   0.591   5.717
12794SOL    HW239824   5.480   0.523   5.852
12795SOL     OW39825   4.466   1.136   6.640
12795SOL    HW139826   4.400   1.175   6.697
12795SOL    HW239827   4.505   1.210   6.594
12796SOL     OW39828   4.603   0.751   7.406
12796SOL    HW139829   4.590   0.819   7.472
12796SOL    HW239830   4.624   0.799   7.326
12797SOL     OW39831   4.409   0.987   6.232
12797SOL    HW139832   4.476   0.989   6.300
12797SOL    HW239833   4.342   1.047   6.263
12798SOL     OW39834   4.440   1.152   7.412
12798SOL    HW139835   4.488   1.227   7.446
12798SOL    HW239836   4.363   1.190   7.370
12799SOL     OW39837   4.065   1.406   6.652
12799SOL    HW139838   3.986   1.371   6.610
12799SOL    HW239839   4.103   1.465   6.586
12800SOL     OW39840   5.184   1.502   6.951
12800SOL    HW139841   5.236   1.582   6.961
12800SOL    HW239842   5.113   1.511   7.014
12801SOL     OW39843   4.167   0.379   7.057
12801SOL    HW139844   4.249   0.330   7.065
12801SOL    HW239845   4.099   0.313   7.065
12802SOL     OW39846   5.328   0.453   6.308
12802SOL    HW139847   5.252   0.466   6.253
12802SOL    HW239848   5.333   0.532   6.362
12803SOL     OW39849   3.951   1.710   6.047
12803SOL    HW139850   3.968   1.785   6.105
12803SOL    HW239851   4.026   1.707   5.989
12804SOL     OW39852   4.868   1.337   7.282
12804SOL    HW139853   4.903   1.332   7.371
12804SOL    HW239854   4.814   1.258   7.273
12805SOL     OW39855   3.947   1.448   6.127
12805SOL    HW139856   3.944   1.543   6.111
12805SOL    HW239857   3.891   1.435   6.204
12806SOL     OW39858   3.991   1.093   6.468
12806SOL    HW139859   3.987   1.004   6.503
12806SOL    HW239860   3.937   1.145   6.527
12807SOL     OW39861   4.336   1.796   7.013
12807SOL    HW139862   4.251   1.784   7.056
12807SOL    HW239863   4.360   1.886   7.033
12808SOL     OW39864   4.300   0.990   5.729
12808SOL    HW139865   4.349   1.036   5.660
12808SOL    HW239866   4.338   1.022   5.811
12809SOL     OW39867   5.389   0.117   7.077
12809SOL    HW139868   5.327   0.129   7.006
12809SOL    HW239869   5.342   0.145   7.156
12810SOL     OW39870   3.852   0.655   6.149
12810SOL    HW139871   3.813   0.570   6.170
12810SOL    HW239872   3.838   0.707   6.229
12811SOL     OW39873   5.570   1.748   5.907
12811SOL    HW139874   5.637   1.727   5.972
12811SOL    HW239875   5.581   1.842   5.891
12812SOL     OW39876   3.766   1.583   5.706
12812SOL    HW139877   3.744   1.494   5.733
12812SOL    HW239878   3.740   1.637   5.781
12813SOL     OW39879   5.414   0.921   6.228
12813SOL    HW139880   5.491   0.876   6.194
12813SOL    HW239881   5.387   0.980   6.156
12814SOL     OW39882   5.375   1.105   6.016
12814SOL    HW139883   5.462   1.104   5.976
12814SOL    HW239884   5.382   1.169   6.086
12815SOL     OW39885   3.840   0.753   7.171
12815SOL    HW139886   3.926   0.796   7.173
12815SOL    HW239887   3.778   0.825   7.161
12816SOL     OW39888   4.338   1.394   6.322
12816SOL    HW139889   4.294   1.309   6.326
12816SOL    HW239890   4.324   1.424   6.233
12817SOL     OW39891   5.005   1.230   7.006
12817SOL    HW139892   5.034   1.163   6.945
12817SOL    HW239893   5.066   1.225   7.079
12818SOL     OW39894   4.569   0.031   6.142
12818SOL    HW139895   4.610   0.110   6.107
12818SOL    HW239896   4.475   0.051   6.143
12819SOL     OW39897   3.907   0.953   6.880
12819SOL    HW139898   3.993   0.918   6.859
12819SOL    HW239899   3.856   0.941   6.800
12820SOL     OW39900   5.257   1.003   5.787
12820SOL    HW139901   5.188   0.945   5.819
12820SOL    HW239902   5.298   1.039   5.865
12821SOL     OW39903   4.867   1.804   7.168
12821SOL    HW139904   4.910   1.869   7.113
12821SOL    HW239905   4.917   1.724   7.154
12822SOL     OW39906   4.036   0.231   7.366
12822SOL    HW139907   4.098   0.300   7.390
12822SOL    HW239908   3.957   0.250   7.417
12823SOL     OW39909   5.196   1.418   6.530
12823SOL    HW139910   5.126   1.439   6.593
12823SOL    HW239911   5.178   1.327   6.505
12824SOL     OW39912   5.387   1.757   6.159
12824SOL    HW139913   5.357   1.728   6.072
12824SOL    HW239914   5.362   1.685   6.218
12825SOL     OW39915   4.318   0.720   5.859
12825SOL    HW139916   4.321   0.807   5.818
12825SOL    HW239917   4.254   0.729   5.930
12826SOL     OW39918   5.022   0.374   6.520
12826SOL    HW139919   4.930   0.347   6.522
12826SOL    HW239920   5.065   0.318   6.584
12827SOL     OW39921   5.303   1.669   5.900
12827SOL    HW139922   5.395   1.696   5.887
12827SOL    HW239923   5.270   1.658   5.811
12828SOL     OW39924   4.502   0.642   7.030
12828SOL    HW139925   4.483   0.608   7.118
12828SOL    HW239926   4.484   0.569   6.971
12829SOL     OW39927   5.133   0.489   7.265
12829SOL    HW139928   5.133   0.534   7.349
12829SOL    HW239929   5.207   0.428   7.269
12830SOL     OW39930   4.670   0.884   7.171
12830SOL    HW139931   4.722   0.815   7.131
12830SOL    HW239932   4.623   0.925   7.098
12831SOL     OW39933   4.729   0.408   6.800
12831SOL    HW139934   4.641   0.432   6.828
12831SOL    HW239935   4.717   0.375   6.711
12832SOL     OW39936   4.782   0.695   6.010
12832SOL    HW139937   4.801   0.691   6.104
12832SOL    HW239938   4.695   0.655   6.002
12833SOL     OW39939   3.808   0.816   6.365
12833SOL    HW139940   3.889   0.816   6.416
12833SOL    HW239941   3.757   0.889   6.401
12834SOL     OW39942   3.839   1.825   7.151
12834SOL    HW139943   3.840   1.816   7.246
12834SOL    HW239944   3.790   1.905   7.134
12835SOL     OW39945   4.610   0.353   5.797
12835SOL    HW139946   4.656   0.400   5.727
12835SOL    HW239947   4.605   0.263   5.766
12836SOL     OW39948   5.434   0.575   7.418
12836SOL    HW139949   5.400   0.650   7.369
12836SOL    HW239950   5.457   0.512   7.350
12837SOL     OW39951   5.105   1.144   6.124
12837SOL    HW139952   5.184   1.139   6.070
12837SOL    HW239953   5.050   1.208   6.079
12838SOL     OW39954   4.282   0.238   6.519
12838SOL    HW139955   4.268   0.262   6.611
12838SOL    HW239956   4.279   0.321   6.472
12839SOL     OW39957   4.718   1.448   6.052
12839SOL    HW139958   4.691   1.521   5.996
12839SOL    HW239959   4.688   1.473   6.140
12840SOL     OW39960   4.076   1.819   6.463
12840SOL    HW139961   4.128   1.739   6.471
12840SOL    HW239962   4.139   1.890   6.479
12841SOL     OW39963   5.527   1.041   6.460
12841SOL    HW139964   5.474   1.027   6.381
12841SOL    HW239965   5.462   1.053   6.530
12842SOL     OW39966   4.948   1.533   7.096
12842SOL    HW139967   4.939   1.466   7.164
12842SOL    HW239968   4.885   1.509   7.029
12843SOL     OW39969   4.036   0.963   5.845
12843SOL    HW139970   4.118   0.987   5.802
12843SOL    HW239971   4.006   0.885   5.797
12844SOL     OW39972   5.209   0.753   6.303
12844SOL    HW139973   5.204   0.719   6.392
12844SOL    HW239974   5.285   0.811   6.304
12845SOL     OW39975   4.193   1.268   7.325
12845SOL    HW139976   4.168   1.275   7.233
12845SOL    HW239977   4.110   1.267   7.372
12846SOL     OW39978   4.858   1.768   5.825
12846SOL    HW139979   4.774   1.739   5.859
12846SOL    HW239980   4.876   1.708   5.752
12847SOL     OW39981   3.905   0.251   7.092
12847SOL    HW139982   3.852   0.326   7.067
12847SOL    HW239983   3.922   0.263   7.185
12848SOL     OW39984   5.358   1.377   5.678
12848SOL    HW139985   5.319   1.464   5.668
12848SOL    HW239986   5.287   1.316   5.656
12849SOL     OW39987   4.203   1.721   5.918
12849SOL    HW139988   4.238   1.791   5.973
12849SOL    HW239989   4.267   1.713   5.847
12850SOL     OW39990   5.142   0.130   5.989
12850SOL    HW139991   5.167   0.115   5.898
12850SOL    HW239992   5.225   0.144   6.035
12851SOL     OW39993   3.977   1.784   6.808
12851SOL    HW139994   4.023   1.706   6.838
12851SOL    HW239995   3.955   1.766   6.716
12852SOL     OW39996   4.663   1.705   6.475
12852SOL    HW139997   4.745   1.659   6.496
12852SOL    HW239998   4.625   1.653   6.405
12853SOL     OW39999   4.127   0.682   6.061
12853SOL    HW140000   4.142   0.590   6.081
12853SOL    HW240001   4.033   0.695   6.076
12854SOL     OW40002   5.272   0.210   7.308
12854SOL    HW140003   5.285   0.245   7.397
12854SOL    HW240004   5.183   0.175   7.309
12855SOL     OW40005   4.327   0.148   5.684
12855SOL    HW140006   4.398   0.101   5.728
12855SOL    HW240007   4.297   0.087   5.616
12856SOL     OW40008   4.453   0.292   7.356
12856SOL    HW140009   4.514   0.218   7.353
12856SOL    HW240010   4.397   0.274   7.431
12857SOL     OW40011   4.602   1.530   6.779
12857SOL    HW140012   4.584   1.491   6.694
12857SOL    HW240013   4.669   1.473   6.817
12858SOL     OW40014   5.062   0.595   7.019
12858SOL    HW140015   5.099   0.568   7.103
12858SOL    HW240016   5.097   0.683   7.005
12859SOL     OW40017   4.546   1.382   6.534
12859SOL    HW140018   4.631   1.377   6.491
12859SOL    HW240019   4.484   1.398   6.463
12860SOL     OW40020   4.651   0.521   6.479
12860SOL    HW140021   4.622   0.515   6.388
12860SOL    HW240022   4.688   0.435   6.498
12861SOL     OW40023   4.305   0.025   5.999
12861SOL    HW140024   4.238  -0.016   6.053
12861SOL    HW240025   4.284   0.119   6.001
12862SOL     OW40026   5.148   1.204   5.622
12862SOL    HW140027   5.174   1.131   5.677
12862SOL    HW240028   5.064   1.233   5.657
12863SOL     OW40029   4.027   0.048   5.790
12863SOL    HW140030   4.094   0.116   5.788
12863SOL    HW240031   4.052  -0.010   5.861
12864SOL     OW40032   4.679   0.263   6.050
12864SOL    HW140033   4.645   0.298   5.967
12864SOL    HW240034   4.773   0.282   6.047
12865SOL     OW40035   4.802   0.678   7.048
12865SOL    HW140036   4.745   0.602   7.061
12865SOL    HW240037   4.890   0.641   7.040
12866SOL     OW40038   4.943   1.582   6.387
12866SOL    HW140039   4.950   1.642   6.313
12866SOL    HW240040   5.011   1.611   6.447
12867SOL     OW40041   4.201   1.152   6.304
12867SOL    HW140042   4.133   1.135   6.370
12867SOL    HW240043   4.154   1.147   6.221
12868SOL     OW40044   4.984   1.790   6.202
12868SOL    HW140045   5.033   1.852   6.148
12868SOL    HW240046   4.911   1.842   6.238
12869SOL     OW40047   4.747   0.517   5.612
12869SOL    HW140048   4.702   0.599   5.590
12869SOL    HW240049   4.807   0.540   5.682
12870SOL     OW40050   3.824   0.552   6.989
12870SOL    HW140051   3.914   0.559   6.957
12870SOL    HW240052   3.815   0.625   7.051
12871SOL     OW40053   4.289   0.243   6.798
12871SOL    HW140054   4.329   0.192   6.868
12871SOL    HW240055   4.195   0.230   6.809
12872SOL     OW40056   4.587   0.472   6.220
12872SOL    HW140057   4.554   0.524   6.147
12872SOL    HW240058   4.601   0.385   6.183
12873SOL     OW40059   4.679   0.036   6.389
12873SOL    HW140060   4.641   0.040   6.301
12873SOL    HW240061   4.713  -0.053   6.397
12874SOL     OW40062   5.166   1.157   6.442
12874SOL    HW140063   5.087   1.103   6.440
12874SOL    HW240064   5.190   1.168   6.350
12875SOL     OW40065   5.186   0.615   6.545
12875SOL    HW140066   5.132   0.536   6.546
12875SOL    HW240067   5.243   0.606   6.622
12876SOL     OW40068   5.565   0.804   5.977
12876SOL    HW140069   5.626   0.758   6.034
12876SOL    HW240070   5.546   0.743   5.907
12877SOL     OW40071   4.214   1.418   5.734
12877SOL    HW140072   4.142   1.396   5.793
12877SOL    HW240073   4.191   1.377   5.651
12878SOL     OW40074   5.404   1.264   6.229
12878SOL    HW140075   5.499   1.265   6.244
12878SOL    HW240076   5.376   1.354   6.249
12879SOL     OW40077   5.121   0.579   5.660
12879SOL    HW140078   5.054   0.557   5.725
12879SOL    HW240079   5.204   0.563   5.705
12880SOL     OW40080   4.217   0.277   5.895
12880SOL    HW140081   4.270   0.234   5.828
12880SOL    HW240082   4.197   0.363   5.858
12881SOL     OW40083   5.470   1.243   7.137
12881SOL    HW140084   5.558   1.208   7.122
12881SOL    HW240085   5.483   1.331   7.169
12882SOL     OW40086   4.775   1.355   6.920
12882SOL    HW140087   4.698   1.327   6.968
12882SOL    HW240088   4.848   1.308   6.961
12883SOL     OW40089   5.333   1.625   7.246
12883SOL    HW140090   5.325   1.664   7.159
12883SOL    HW240091   5.415   1.576   7.242
12884SOL     OW40092   4.865   1.220   6.688
12884SOL    HW140093   4.801   1.256   6.750
12884SOL    HW240094   4.839   1.256   6.603
12885SOL     OW40095   5.344   1.094   6.659
12885SOL    HW140096   5.335   1.160   6.728
12885SOL    HW240097   5.272   1.113   6.599
12886SOL     OW40098   4.646   0.124   6.989
12886SOL    HW140099   4.656   0.111   6.895
12886SOL    HW240100   4.735   0.121   7.024
12887SOL     OW40101   4.708   1.113   7.312
12887SOL    HW140102   4.618   1.133   7.337
12887SOL    HW240103   4.702   1.035   7.257
12888SOL     OW40104   4.434   1.059   5.960
12888SOL    HW140105   4.419   1.037   6.052
12888SOL    HW240106   4.509   1.005   5.935
12889SOL     OW40107   4.146   0.825   6.836
12889SOL    HW140108   4.211   0.840   6.905
12889SOL    HW240109   4.114   0.736   6.852
12890SOL     OW40110   4.989   0.378   6.871
12890SOL    HW140111   5.019   0.459   6.912
12890SOL    HW240112   4.900   0.398   6.840
12891SOL     OW40113   3.795   1.568   6.937
12891SOL    HW140114   3.760   1.650   6.900
12891SOL    HW240115   3.889   1.581   6.940
12892SOL     OW40116   4.056   1.129   6.071
12892SOL    HW140117   4.052   1.205   6.014
12892SOL    HW240118   4.054   1.054   6.012
12893SOL     OW40119   4.279   0.514   6.441
12893SOL    HW140120   4.285   0.575   6.367
12893SOL    HW240121   4.342   0.547   6.505
12894SOL     OW40122   4.967   1.352   5.982
12894SOL    HW140123   5.022   1.424   6.011
12894SOL    HW240124   4.879   1.375   6.012
12895SOL     OW40125   5.018   1.466   6.733
12895SOL    HW140126   5.073   1.470   6.812
12895SOL    HW240127   4.964   1.388   6.746
12896SOL     OW40128   5.293   0.633   6.064
12896SOL    HW140129   5.246   0.671   6.139
12896SOL    HW240130   5.331   0.708   6.019
12897SOL     OW40131   4.073   1.528   6.892
12897SOL    HW140132   4.063   1.481   6.809
12897SOL    HW240133   4.167   1.543   6.900
12898SOL     OW40134   4.158   0.735   7.204
12898SOL    HW140135   4.205   0.789   7.140
12898SOL    HW240136   4.220   0.665   7.226
12899SOL     OW40137   5.341   0.786   7.277
12899SOL    HW140138   5.254   0.826   7.270
12899SOL    HW240139   5.392   0.826   7.206
12900SOL     OW40140   4.771   0.075   7.334
12900SOL    HW140141   4.786   0.165   7.306
12900SOL    HW240142   4.678   0.061   7.321
12901SOL     OW40143   4.232   0.034   7.315
12901SOL    HW140144   4.205  -0.028   7.247
12901SOL    HW240145   4.160   0.097   7.321
12902SOL     OW40146   4.315   0.874   6.622
12902SOL    HW140147   4.347   0.964   6.620
12902SOL    HW240148   4.253   0.871   6.694
12903SOL     OW40149   5.056   0.855   6.602
12903SOL    HW140150   4.968   0.838   6.568
12903SOL    HW240151   5.104   0.773   6.587
12904SOL     OW40152   4.917   0.528   5.839
12904SOL    HW140153   4.929   0.451   5.894
12904SOL    HW240154   4.878   0.593   5.896
12905SOL     OW40155   4.023   0.195   6.816
12905SOL    HW140156   3.953   0.202   6.882
12905SOL    HW240157   4.009   0.110   6.775
12906SOL     OW40158   3.757   1.310   6.866
12906SOL    HW140159   3.798   1.260   6.937
12906SOL    HW240160   3.769   1.402   6.890
12907SOL     OW40161   4.438   0.626   6.635
12907SOL    HW140162   4.516   0.620   6.581
12907SOL    HW240163   4.407   0.716   6.623
12908SOL     OW40164   5.472   0.959   7.453
12908SOL    HW140165   5.429   0.893   7.399
12908SOL    HW240166   5.408   0.981   7.520
12909SOL     OW40167   4.144   0.082   6.264
12909SOL    HW140168   4.081   0.153   6.274
12909SOL    HW240169   4.097   0.016   6.212
12910SOL     OW40170   5.362   0.402   5.939
12910SOL    HW140171   5.371   0.330   6.001
12910SOL    HW240172   5.330   0.476   5.991
12911SOL     OW40173   4.759   0.761   6.546
12911SOL    HW140174   4.744   0.775   6.639
12911SOL    HW240175   4.725   0.673   6.529
12912SOL     OW40176   4.706   1.554   7.327
12912SOL    HW140177   4.671   1.595   7.248
12912SOL    HW240178   4.749   1.475   7.295
12913SOL     OW40179   5.574   1.497   7.189
12913SOL    HW140180   5.595   1.527   7.101
12913SOL    HW240181   5.654   1.512   7.239
12914SOL     OW40182   4.074   0.905   7.406
12914SOL    HW140183   4.154   0.937   7.448
12914SOL    HW240184   4.104   0.844   7.339
12915SOL     OW40185   5.303   0.295   5.696
12915SOL    HW140186   5.208   0.292   5.700
12915SOL    HW240187   5.329   0.329   5.782
12916SOL     OW40188   5.010   0.827   5.611
12916SOL    HW140189   5.054   0.742   5.618
12916SOL    HW240190   5.043   0.864   5.529
12917SOL     OW40191   4.802   1.346   6.448
12917SOL    HW140192   4.807   1.276   6.383
12917SOL    HW240193   4.855   1.417   6.411
12918SOL     OW40194   4.033   0.814   6.529
12918SOL    HW140195   4.125   0.836   6.517
12918SOL    HW240196   4.033   0.726   6.566
12919SOL     OW40197   4.062   0.541   6.602
12919SOL    HW140198   4.017   0.458   6.584
12919SOL    HW240199   4.137   0.541   6.543
12920SOL     OW40200   4.891   0.358   7.299
12920SOL    HW140201   4.824   0.416   7.335
12920SOL    HW240202   4.965   0.416   7.281
12921SOL     OW40203   4.899   0.211   7.066
12921SOL    HW140204   4.896   0.267   7.144
12921SOL    HW240205   4.928   0.269   6.996
12922SOL     OW40206   3.734   1.310   5.780
12922SOL    HW140207   3.646   1.329   5.745
12922SOL    HW240208   3.727   1.221   5.815
12923SOL     OW40209   3.818   1.770   6.536
12923SOL    HW140210   3.790   1.696   6.482
12923SOL    HW240211   3.903   1.794   6.502
12924SOL     OW40212   4.218   1.577   6.495
12924SOL    HW140213   4.286   1.640   6.518
12924SOL    HW240214   4.259   1.517   6.433
12925SOL     OW40215   4.692   0.776   6.810
12925SOL    HW140216   4.752   0.757   6.882
12925SOL    HW240217   4.605   0.758   6.846
12926SOL     OW40218   3.759   0.544   6.710
12926SOL    HW140219   3.835   0.550   6.653
12926SOL    HW240220   3.795   0.550   6.799
12927SOL     OW40221   3.919   0.532   7.314
12927SOL    HW140222   4.003   0.531   7.269
12927SOL    HW240223   3.870   0.603   7.273
12928SOL     OW40224   5.110   0.927   7.240
12928SOL    HW140225   5.129   1.021   7.236
12928SOL    HW240226   5.102   0.901   7.148
12929SOL     OW40227   4.539   0.576   5.961
12929SOL    HW140228   4.544   0.501   5.900
12929SOL    HW240229   4.466   0.628   5.928
12930SOL     OW40230   5.360   0.605   6.758
12930SOL    HW140231   5.352   0.552   6.837
12930SOL    HW240232   5.449   0.586   6.726
12931SOL     OW40233   3.973   1.548   7.305
12931SOL    HW140234   3.947   1.623   7.358
12931SOL    HW240235   3.969   1.474   7.366
12932SOL     OW40236   4.457   0.454   6.843
12932SOL    HW140237   4.395   0.383   6.827
12932SOL    HW240238   4.442   0.515   6.771
12933SOL     OW40239   4.640   1.657   7.080
12933SOL    HW140240   4.622   1.650   6.986
12933SOL    HW240241   4.709   1.723   7.086
12934SOL     OW40242   4.177   0.505   5.759
12934SOL    HW140243   4.236   0.577   5.785
12934SOL    HW240244   4.091   0.546   5.751
12935SOL     OW40245   3.861   1.145   7.066
12935SOL    HW140246   3.864   1.102   7.152
12935SOL    HW240247   3.877   1.075   7.003
12936SOL     OW40248   5.039   1.041   6.801
12936SOL    HW140249   5.056   0.977   6.731
12936SOL    HW240250   4.977   1.103   6.763
12937SOL     OW40251   5.048   0.852   5.887
12937SOL    HW140252   4.973   0.831   5.942
12937SOL    HW240253   5.015   0.846   5.797
12938SOL     OW40254   5.509   1.728   6.752
12938SOL    HW140255   5.567   1.757   6.682
12938SOL    HW240256   5.477   1.643   6.723
12939SOL     OW40257   4.954   1.738   6.701
12939SOL    HW140258   5.033   1.767   6.654
12939SOL    HW240259   4.967   1.644   6.714
12940SOL     OW40260   3.823   1.249   6.609
12940SOL    HW140261   3.798   1.273   6.699
12940SOL    HW240262   3.741   1.222   6.568
12941SOL     OW40263   4.398   1.681   7.319
12941SOL    HW140264   4.331   1.749   7.322
12941SOL    HW240265   4.450   1.703   7.241
12942SOL     OW40266   5.398   0.163   6.080
12942SOL    HW140267   5.451   0.126   6.010
12942SOL    HW240268   5.434   0.125   6.160
12943SOL     OW40269   5.118   1.569   6.082
12943SOL    HW140270   5.174   1.604   6.012
12943SOL    HW240271   5.064   1.643   6.109
12944SOL     OW40272   3.877   1.781   7.422
12944SOL    HW140273   3.824   1.721   7.474
12944SOL    HW240274   3.915   1.841   7.487
12945SOL     OW40275   5.002   0.928   6.250
12945SOL    HW140276   5.078   0.871   6.262
12945SOL    HW240277   5.036   1.002   6.199
12946SOL     OW40278   4.521   1.283   7.011
12946SOL    HW140279   4.496   1.325   7.093
12946SOL    HW240280   4.451   1.305   6.950
12947SOL     OW40281   4.408   1.610   5.740
12947SOL    HW140282   4.408   1.638   5.648
12947SOL    HW240283   4.343   1.539   5.742
12948SOL     OW40284   5.339   1.730   6.981
12948SOL    HW140285   5.395   1.734   6.903
12948SOL    HW240286   5.325   1.822   7.004
12949SOL     OW40287   5.583   0.164   6.532
12949SOL    HW140288   5.572   0.077   6.571
12949SOL    HW240289   5.496   0.186   6.500
12950SOL     OW40290   3.969   0.290   6.292
12950SOL    HW140291   3.892   0.340   6.267
12950SOL    HW240292   3.975   0.302   6.387
12951SOL     OW40293   4.936   1.599   5.619
12951SOL    HW140294   4.921   1.508   5.646
12951SOL    HW240295   4.867   1.616   5.555
12952SOL     OW40296   4.547   1.016   6.960
12952SOL    HW140297   4.577   1.016   6.869
12952SOL    HW240298   4.539   1.109   6.983
12953SOL     OW40299   4.640   0.905   5.881
12953SOL    HW140300   4.696   0.940   5.812
12953SOL    HW240301   4.694   0.840   5.926
12954SOL     OW40302   5.216   1.619   5.635
12954SOL    HW140303   5.121   1.616   5.623
12954SOL    HW240304   5.251   1.629   5.547
12955SOL     OW40305   4.093   1.304   7.077
12955SOL    HW140306   4.081   1.383   7.025
12955SOL    HW240307   4.012   1.255   7.064
12956SOL     OW40308   5.332   1.287   6.861
12956SOL    HW140309   5.389   1.269   6.935
12956SOL    HW240310   5.271   1.354   6.893
12957SOL     OW40311   4.795   1.114   6.305
12957SOL    HW140312   4.719   1.067   6.339
12957SOL    HW240313   4.854   1.045   6.275
12958SOL     OW40314   4.762   0.267   6.534
12958SOL    HW140315   4.737   0.214   6.459
12958SOL    HW240316   4.765   0.206   6.608
12959SOL     OW40317   4.332   1.494   6.068
12959SOL    HW140318   4.375   1.444   5.998
12959SOL    HW240319   4.273   1.554   6.022
12960SOL     OW40320   5.449   0.426   6.965
12960SOL    HW140321   5.526   0.483   6.971
12960SOL    HW240322   5.477   0.352   6.913
12961SOL     OW40323   3.985   1.340   5.885
12961SOL    HW140324   3.894   1.337   5.859
12961SOL    HW240325   3.985   1.386   5.969
12962SOL     OW40326   3.844   1.037   7.319
12962SOL    HW140327   3.766   1.010   7.368
12962SOL    HW240328   3.916   0.990   7.361
12963SOL     OW40329   4.398   0.222   7.082
12963SOL    HW140330   4.475   0.173   7.054
12963SOL    HW240331   4.416   0.247   7.172
12964SOL     OW40332   3.808   0.328   5.613
12964SOL    HW140333   3.712   0.326   5.604
12964SOL    HW240334   3.834   0.406   5.564
12965SOL     OW40335   5.145   0.857   6.977
12965SOL    HW140336   5.093   0.917   6.924
12965SOL    HW240337   5.233   0.862   6.940
12966SOL     OW40338   3.795   0.190   5.878
12966SOL    HW140339   3.795   0.259   5.811
12966SOL    HW240340   3.867   0.132   5.853
12967SOL     OW40341   4.897   1.331   5.702
12967SOL    HW140342   4.802   1.320   5.698
12967SOL    HW240343   4.917   1.333   5.796
12968SOL     OW40344   4.336   0.850   7.025
12968SOL    HW140345   4.393   0.925   7.010
12968SOL    HW240346   4.396   0.775   7.029
12969SOL     OW40347   5.193   1.786   6.561
12969SOL    HW140348   5.204   1.860   6.501
12969SOL    HW240349   5.280   1.770   6.597
12970SOL     OW40350   4.425   0.566   7.282
12970SOL    HW140351   4.478   0.623   7.337
12970SOL    HW240352   4.443   0.478   7.314
12971SOL     OW40353   5.199   1.187   7.211
12971SOL    HW140354   5.186   1.209   7.304
12971SOL    HW240355   5.289   1.212   7.193
12972SOL     OW40356   4.098   1.740   7.144
12972SOL    HW140357   4.014   1.780   7.122
12972SOL    HW240358   4.075   1.658   7.187
12973SOL     OW40359   5.385   0.880   6.840
12973SOL    HW140360   5.379   0.797   6.794
12973SOL    HW240361   5.373   0.946   6.771
12974SOL     OW40362   4.947   0.324   6.032
12974SOL    HW140363   5.011   0.254   6.021
12974SOL    HW240364   4.977   0.371   6.110
12975SOL     OW40365   4.306   0.728   6.267
12975SOL    HW140366   4.348   0.813   6.255
12975SOL    HW240367   4.244   0.722   6.194
12976SOL     OW40368   5.477   0.381   7.232
12976SOL    HW140369   5.463   0.398   7.139
12976SOL    HW240370   5.418   0.309   7.253
12977SOL     OW40371   5.482   0.932   7.094
12977SOL    HW140372   5.463   1.024   7.109
12977SOL    HW240373   5.458   0.917   7.002
12978SOL     OW40374   4.606   1.366   5.645
12978SOL    HW140375   4.556   1.386   5.724
12978SOL    HW240376   4.605   1.447   5.595
12979SOL     OW40377   4.391   1.784   6.530
12979SOL    HW140378   4.366   1.874   6.506
12979SOL    HW240379   4.485   1.780   6.511
12980SOL     OW40380   4.596   0.976   6.442
12980SOL    HW140381   4.646   0.905   6.480
12980SOL    HW240382   4.554   1.019   6.516
12981SOL     OW40383   4.795   0.980   5.676
12981SOL    HW140384   4.775   1.040   5.604
12981SOL    HW240385   4.871   0.931   5.646
12982SOL     OW40386   5.559   1.552   6.428
12982SOL    HW140387   5.485   1.547   6.368
12982SOL    HW240388   5.529   1.510   6.508
12983SOL     OW40389   3.944   1.294   7.438
12983SOL    HW140390   3.895   1.229   7.388
12983SOL    HW240391   3.888   1.312   7.514
12984SOL     OW40392   3.812   1.209   6.254
12984SOL    HW140393   3.851   1.170   6.331
12984SOL    HW240394   3.878   1.201   6.186
12985SOL     OW40395   4.416   1.409   7.230
12985SOL    HW140396   4.332   1.372   7.258
12985SOL    HW240397   4.412   1.501   7.258
12986SOL     OW40398   5.554   0.226   6.817
12986SOL    HW140399   5.485   0.159   6.816
12986SOL    HW240400   5.572   0.243   6.724
12987SOL     OW40401   4.161   0.420   6.128
12987SOL    HW140402   4.175   0.362   6.053
12987SOL    HW240403   4.093   0.376   6.179
12988SOL     OW40404   5.425   1.480   6.666
12988SOL    HW140405   5.344   1.465   6.619
12988SOL    HW240406   5.425   1.414   6.735
12989SOL     OW40407   4.068   0.565   6.880
12989SOL    HW140408   4.118   0.501   6.931
12989SOL    HW240409   4.084   0.540   6.789
12990SOL     OW40410   4.559   1.592   6.249
12990SOL    HW140411   4.548   1.671   6.196
12990SOL    HW240412   4.479   1.541   6.234
12991SOL     OW40413   5.149   0.221   6.707
12991SOL    HW140414   5.212   0.168   6.758
12991SOL    HW240415   5.098   0.267   6.773
12992SOL     OW40416   4.728   0.074   6.722
12992SOL    HW140417   4.643   0.055   6.683
12992SOL    HW240418   4.761  -0.012   6.748
12993SOL     OW40419   4.499   1.330   5.909
12993SOL    HW140420   4.473   1.239   5.923
12993SOL    HW240421   4.577   1.341   5.962
12994SOL     OW40422   4.349   1.555   6.881
12994SOL    HW140423   4.347   1.637   6.929
12994SOL    HW240424   4.436   1.554   6.840
12995SOL     OW40425   5.070   7.973   5.702
12995SOL    HW140426   5.126   7.896   5.714
12995SOL    HW240427   5.006   7.968   5.773
12996SOL     OW40428   5.024   0.464   6.257
12996SOL    HW140429   4.971   0.544   6.259
12996SOL    HW240430   5.024   0.433   6.348
12997SOL     OW40431   5.335   0.226   6.458
12997SOL    HW140432   5.252   0.224   6.507
12997SOL    HW240433   5.327   0.303   6.402
12998SOL     OW40434   3.762   1.059   5.899
12998SOL    HW140435   3.856   1.054   5.882
12998SOL    HW240436   3.736   0.970   5.919
12999SOL     OW40437   4.615   1.664   5.917
12999SOL    HW140438   4.542   1.648   5.856
12999SOL    HW240439   4.584   1.736   5.973
13000SOL     OW40440   3.935   0.622   7.583
13000SOL    HW140441   3.845   0.619   7.617
13000SOL    HW240442   3.925   0.608   7.489
13001SOL     OW40443   3.932   0.306   8.432
13001SOL    HW140444   3.987   0.254   8.492
13001SOL    HW240445   3.857   0.250   8.414
13002SOL     OW40446   3.728   0.402   8.071
13002SOL    HW140447   3.642   0.413   8.111
13002SOL    HW240448   3.712   0.352   7.991
13003SOL     OW40449   4.291   1.300   8.636
13003SOL    HW140450   4.209   1.312   8.588
13003SOL    HW240451   4.311   1.387   8.671
13004SOL     OW40452   5.298   1.516   8.155
13004SOL    HW140453   5.252   1.495   8.236
13004SOL    HW240454   5.229   1.524   8.089
13005SOL     OW40455   4.862   0.698   8.142
13005SOL    HW140456   4.908   0.780   8.127
13005SOL    HW240457   4.813   0.713   8.223
13006SOL     OW40458   5.519   0.597   7.671
13006SOL    HW140459   5.487   0.594   7.581
13006SOL    HW240460   5.477   0.523   7.714
13007SOL     OW40461   4.462   1.133   8.503
13007SOL    HW140462   4.397   1.174   8.559
13007SOL    HW240463   4.504   1.206   8.457
13008SOL     OW40464   4.603   0.750   9.267
13008SOL    HW140465   4.596   0.818   9.333
13008SOL    HW240466   4.623   0.797   9.186
13009SOL     OW40467   4.410   0.991   8.092
13009SOL    HW140468   4.477   0.991   8.161
13009SOL    HW240469   4.343   1.051   8.125
13010SOL     OW40470   4.441   1.155   9.277
13010SOL    HW140471   4.490   1.231   9.308
13010SOL    HW240472   4.365   1.192   9.233
13011SOL     OW40473   4.062   1.409   8.514
13011SOL    HW140474   3.986   1.373   8.469
13011SOL    HW240475   4.103   1.466   8.449
13012SOL     OW40476   5.183   1.503   8.816
13012SOL    HW140477   5.236   1.582   8.826
13012SOL    HW240478   5.110   1.516   8.876
13013SOL     OW40479   4.168   0.380   8.927
13013SOL    HW140480   4.249   0.330   8.931
13013SOL    HW240481   4.100   0.314   8.916
13014SOL     OW40482   5.332   0.452   8.169
13014SOL    HW140483   5.261   0.467   8.108
13014SOL    HW240484   5.339   0.534   8.219
13015SOL     OW40485   3.949   1.712   7.912
13015SOL    HW140486   3.967   1.787   7.968
13015SOL    HW240487   4.022   1.711   7.850
13016SOL     OW40488   4.863   1.341   9.139
13016SOL    HW140489   4.903   1.334   9.225
13016SOL    HW240490   4.811   1.261   9.130
13017SOL     OW40491   3.942   1.452   7.996
13017SOL    HW140492   3.941   1.546   7.975
13017SOL    HW240493   3.887   1.445   8.074
13018SOL     OW40494   3.988   1.093   8.326
13018SOL    HW140495   3.989   1.004   8.361
13018SOL    HW240496   3.935   1.143   8.389
13019SOL     OW40497   4.333   1.780   8.888
13019SOL    HW140498   4.245   1.770   8.927
13019SOL    HW240499   4.355   1.871   8.904
13020SOL     OW40500   4.301   0.988   7.592
13020SOL    HW140501   4.348   1.034   7.523
13020SOL    HW240502   4.339   1.021   7.673
13021SOL     OW40503   5.390   0.114   8.943
13021SOL    HW140504   5.337   0.128   8.864
13021SOL    HW240505   5.336   0.150   9.014
13022SOL     OW40506   3.852   0.656   8.013
13022SOL    HW140507   3.815   0.570   8.034
13022SOL    HW240508   3.839   0.707   8.093
13023SOL     OW40509   5.569   1.750   7.772
13023SOL    HW140510   5.638   1.729   7.835
13023SOL    HW240511   5.581   1.843   7.754
13024SOL     OW40512   3.768   1.585   7.570
13024SOL    HW140513   3.744   1.495   7.595
13024SOL    HW240514   3.740   1.639   7.644
13025SOL     OW40515   5.415   0.921   8.087
13025SOL    HW140516   5.487   0.872   8.047
13025SOL    HW240517   5.385   0.981   8.019
13026SOL     OW40518   5.374   1.106   7.879
13026SOL    HW140519   5.460   1.105   7.838
13026SOL    HW240520   5.380   1.171   7.949
13027SOL     OW40521   3.857   0.751   9.035
13027SOL    HW140522   3.949   0.774   9.033
13027SOL    HW240523   3.811   0.835   9.047
13028SOL     OW40524   4.341   1.395   8.181
13028SOL    HW140525   4.297   1.310   8.185
13028SOL    HW240526   4.324   1.425   8.092
13029SOL     OW40527   5.005   1.229   8.869
13029SOL    HW140528   5.034   1.163   8.807
13029SOL    HW240529   5.068   1.225   8.941
13030SOL     OW40530   4.565   0.039   8.015
13030SOL    HW140531   4.601   0.118   7.975
13030SOL    HW240532   4.473   0.039   7.988
13031SOL     OW40533   3.905   0.955   8.735
13031SOL    HW140534   3.992   0.918   8.721
13031SOL    HW240535   3.862   0.947   8.650
13032SOL     OW40536   5.258   1.003   7.648
13032SOL    HW140537   5.189   0.945   7.680
13032SOL    HW240538   5.297   1.039   7.728
13033SOL     OW40539   4.906   1.822   9.084
13033SOL    HW140540   4.907   1.891   9.017
13033SOL    HW240541   4.927   1.742   9.036
13034SOL     OW40542   4.030   0.226   9.222
13034SOL    HW140543   4.094   0.294   9.241
13034SOL    HW240544   3.955   0.247   9.278
13035SOL     OW40545   5.194   1.417   8.393
13035SOL    HW140546   5.127   1.435   8.458
13035SOL    HW240547   5.179   1.326   8.366
13036SOL     OW40548   5.386   1.758   8.022
13036SOL    HW140549   5.359   1.729   7.935
13036SOL    HW240550   5.360   1.686   8.080
13037SOL     OW40551   4.320   0.722   7.722
13037SOL    HW140552   4.321   0.807   7.678
13037SOL    HW240553   4.254   0.732   7.791
13038SOL     OW40554   5.023   0.375   8.384
13038SOL    HW140555   4.931   0.348   8.384
13038SOL    HW240556   5.064   0.317   8.448
13039SOL     OW40557   5.304   1.670   7.761
13039SOL    HW140558   5.395   1.697   7.751
13039SOL    HW240559   5.272   1.657   7.672
13040SOL     OW40560   4.512   0.638   8.897
13040SOL    HW140561   4.483   0.608   8.983
13040SOL    HW240562   4.485   0.570   8.836
13041SOL     OW40563   5.136   0.491   9.125
13041SOL    HW140564   5.138   0.536   9.210
13041SOL    HW240565   5.205   0.425   9.131
13042SOL     OW40566   4.668   0.887   9.033
13042SOL    HW140567   4.724   0.820   8.993
13042SOL    HW240568   4.622   0.927   8.959
13043SOL     OW40569   4.725   0.409   8.669
13043SOL    HW140570   4.635   0.434   8.692
13043SOL    HW240571   4.719   0.378   8.579
13044SOL     OW40572   4.782   0.695   7.872
13044SOL    HW140573   4.800   0.691   7.966
13044SOL    HW240574   4.696   0.656   7.862
13045SOL     OW40575   3.806   0.809   8.234
13045SOL    HW140576   3.889   0.814   8.283
13045SOL    HW240577   3.756   0.884   8.265
13046SOL     OW40578   3.834   1.822   9.016
13046SOL    HW140579   3.836   1.816   9.112
13046SOL    HW240580   3.770   1.890   8.997
13047SOL     OW40581   4.612   0.356   7.657
13047SOL    HW140582   4.655   0.408   7.589
13047SOL    HW240583   4.598   0.270   7.617
13048SOL     OW40584   5.433   0.576   9.280
13048SOL    HW140585   5.399   0.651   9.232
13048SOL    HW240586   5.456   0.512   9.213
13049SOL     OW40587   5.105   1.143   7.985
13049SOL    HW140588   5.183   1.136   7.931
13049SOL    HW240589   5.050   1.207   7.941
13050SOL     OW40590   4.227   0.207   8.390
13050SOL    HW140591   4.247   0.285   8.442
13050SOL    HW240592   4.265   0.226   8.304
13051SOL     OW40593   4.720   1.448   7.916
13051SOL    HW140594   4.691   1.520   7.860
13051SOL    HW240595   4.689   1.472   8.003
13052SOL     OW40596   4.077   1.822   8.328
13052SOL    HW140597   4.131   1.743   8.333
13052SOL    HW240598   4.138   1.894   8.343
13053SOL     OW40599   5.528   1.040   8.320
13053SOL    HW140600   5.476   1.025   8.241
13053SOL    HW240601   5.464   1.052   8.389
13054SOL     OW40602   4.949   1.544   8.960
13054SOL    HW140603   4.934   1.467   9.015
13054SOL    HW240604   4.869   1.554   8.909
13055SOL     OW40605   4.035   0.960   7.705
13055SOL    HW140606   4.118   0.986   7.664
13055SOL    HW240607   4.005   0.886   7.654
13056SOL     OW40608   5.209   0.756   8.167
13056SOL    HW140609   5.205   0.719   8.256
13056SOL    HW240610   5.286   0.812   8.168
13057SOL     OW40611   4.194   1.268   9.187
13057SOL    HW140612   4.169   1.273   9.095
13057SOL    HW240613   4.111   1.267   9.235
13058SOL     OW40614   4.851   1.769   7.681
13058SOL    HW140615   4.769   1.735   7.717
13058SOL    HW240616   4.873   1.708   7.609
13059SOL     OW40617   3.900   0.262   8.951
13059SOL    HW140618   3.860   0.347   8.929
13059SOL    HW240619   3.921   0.268   9.044
13060SOL     OW40620   5.359   1.380   7.545
13060SOL    HW140621   5.320   1.466   7.532
13060SOL    HW240622   5.290   1.318   7.521
13061SOL     OW40623   4.194   1.727   7.772
13061SOL    HW140624   4.233   1.794   7.828
13061SOL    HW240625   4.261   1.708   7.707
13062SOL     OW40626   5.146   0.132   7.852
13062SOL    HW140627   5.164   0.107   7.761
13062SOL    HW240628   5.233   0.149   7.889
13063SOL     OW40629   3.970   1.785   8.670
13063SOL    HW140630   4.027   1.712   8.696
13063SOL    HW240631   3.956   1.773   8.576
13064SOL     OW40632   4.671   1.693   8.347
13064SOL    HW140633   4.755   1.649   8.358
13064SOL    HW240634   4.627   1.644   8.278
13065SOL     OW40635   4.127   0.686   7.924
13065SOL    HW140636   4.143   0.594   7.942
13065SOL    HW240637   4.033   0.697   7.937
13066SOL     OW40638   5.266   0.214   9.168
13066SOL    HW140639   5.277   0.246   9.258
13066SOL    HW240640   5.185   0.164   9.170
13067SOL     OW40641   4.316   0.137   7.551
13067SOL    HW140642   4.390   0.092   7.590
13067SOL    HW240643   4.295   0.086   7.473
13068SOL     OW40644   4.439   0.302   9.214
13068SOL    HW140645   4.533   0.287   9.217
13068SOL    HW240646   4.407   0.267   9.297
13069SOL     OW40647   4.595   1.515   8.642
13069SOL    HW140648   4.579   1.482   8.554
13069SOL    HW240649   4.669   1.464   8.674
13070SOL     OW40650   5.062   0.595   8.881
13070SOL    HW140651   5.101   0.569   8.964
13070SOL    HW240652   5.097   0.683   8.865
13071SOL     OW40653   4.544   1.377   8.395
13071SOL    HW140654   4.631   1.373   8.353
13071SOL    HW240655   4.484   1.393   8.323
13072SOL     OW40656   4.648   0.520   8.339
13072SOL    HW140657   4.618   0.513   8.248
13072SOL    HW240658   4.687   0.435   8.359
13073SOL     OW40659   4.316   0.046   7.890
13073SOL    HW140660   4.242  -0.004   7.923
13073SOL    HW240661   4.279   0.128   7.859
13074SOL     OW40662   5.153   1.206   7.485
13074SOL    HW140663   5.179   1.130   7.538
13074SOL    HW240664   5.067   1.231   7.520
13075SOL     OW40665   4.011   0.057   7.665
13075SOL    HW140666   4.080   0.101   7.615
13075SOL    HW240667   4.056  -0.017   7.707
13076SOL     OW40668   4.675   0.266   7.910
13076SOL    HW140669   4.646   0.298   7.825
13076SOL    HW240670   4.770   0.279   7.909
13077SOL     OW40671   4.806   0.687   8.910
13077SOL    HW140672   4.744   0.614   8.918
13077SOL    HW240673   4.892   0.645   8.901
13078SOL     OW40674   4.941   1.582   8.248
13078SOL    HW140675   4.950   1.642   8.174
13078SOL    HW240676   5.007   1.611   8.310
13079SOL     OW40677   4.200   1.155   8.166
13079SOL    HW140678   4.131   1.136   8.230
13079SOL    HW240679   4.156   1.148   8.081
13080SOL     OW40680   4.980   1.791   8.063
13080SOL    HW140681   5.029   1.854   8.010
13080SOL    HW240682   4.907   1.840   8.099
13081SOL     OW40683   4.745   0.521   7.476
13081SOL    HW140684   4.702   0.603   7.453
13081SOL    HW240685   4.809   0.546   7.543
13082SOL     OW40686   3.825   0.543   8.863
13082SOL    HW140687   3.911   0.551   8.823
13082SOL    HW240688   3.818   0.620   8.919
13083SOL     OW40689   4.307   0.237   8.665
13083SOL    HW140690   4.339   0.183   8.737
13083SOL    HW240691   4.212   0.225   8.666
13084SOL     OW40692   4.583   0.468   8.080
13084SOL    HW140693   4.550   0.524   8.010
13084SOL    HW240694   4.612   0.388   8.036
13085SOL     OW40695   4.679   0.037   8.257
13085SOL    HW140696   4.638   0.043   8.171
13085SOL    HW240697   4.714  -0.052   8.260
13086SOL     OW40698   5.169   1.156   8.303
13086SOL    HW140699   5.088   1.106   8.298
13086SOL    HW240700   5.195   1.168   8.211
13087SOL     OW40701   5.186   0.615   8.408
13087SOL    HW140702   5.134   0.535   8.407
13087SOL    HW240703   5.243   0.605   8.484
13088SOL     OW40704   5.565   0.805   7.843
13088SOL    HW140705   5.628   0.757   7.897
13088SOL    HW240706   5.543   0.745   7.772
13089SOL     OW40707   4.214   1.420   7.598
13089SOL    HW140708   4.141   1.393   7.655
13089SOL    HW240709   4.196   1.376   7.515
13090SOL     OW40710   5.400   1.264   8.093
13090SOL    HW140711   5.495   1.265   8.107
13090SOL    HW240712   5.373   1.354   8.111
13091SOL     OW40713   5.123   0.580   7.521
13091SOL    HW140714   5.058   0.556   7.587
13091SOL    HW240715   5.207   0.555   7.559
13092SOL     OW40716   4.229   0.277   7.764
13092SOL    HW140717   4.266   0.228   7.690
13092SOL    HW240718   4.207   0.363   7.727
13093SOL     OW40719   5.470   1.242   8.999
13093SOL    HW140720   5.558   1.208   8.984
13093SOL    HW240721   5.484   1.331   9.031
13094SOL     OW40722   4.775   1.344   8.771
13094SOL    HW140723   4.699   1.319   8.823
13094SOL    HW240724   4.850   1.308   8.818
13095SOL     OW40725   5.337   1.624   9.112
13095SOL    HW140726   5.324   1.663   9.026
13095SOL    HW240727   5.419   1.575   9.104
13096SOL     OW40728   4.860   1.207   8.545
13096SOL    HW140729   4.804   1.250   8.611
13096SOL    HW240730   4.836   1.250   8.463
13097SOL     OW40731   5.345   1.094   8.520
13097SOL    HW140732   5.336   1.161   8.589
13097SOL    HW240733   5.273   1.112   8.460
13098SOL     OW40734   4.641   0.122   8.845
13098SOL    HW140735   4.655   0.110   8.751
13098SOL    HW240736   4.729   0.120   8.882
13099SOL     OW40737   4.708   1.114   9.176
13099SOL    HW140738   4.617   1.133   9.199
13099SOL    HW240739   4.702   1.037   9.119
13100SOL     OW40740   4.436   1.061   7.821
13100SOL    HW140741   4.421   1.039   7.913
13100SOL    HW240742   4.512   1.008   7.796
13101SOL     OW40743   4.144   0.825   8.703
13101SOL    HW140744   4.212   0.837   8.768
13101SOL    HW240745   4.113   0.735   8.717
13102SOL     OW40746   4.987   0.377   8.735
13102SOL    HW140747   5.020   0.458   8.774
13102SOL    HW240748   4.899   0.398   8.705
13103SOL     OW40749   3.796   1.567   8.796
13103SOL    HW140750   3.765   1.647   8.754
13103SOL    HW240751   3.892   1.577   8.797
13104SOL     OW40752   4.060   1.126   7.932
13104SOL    HW140753   4.053   1.202   7.873
13104SOL    HW240754   4.056   1.051   7.873
13105SOL     OW40755   4.269   0.535   8.311
13105SOL    HW140756   4.280   0.592   8.235
13105SOL    HW240757   4.340   0.560   8.370
13106SOL     OW40758   4.968   1.351   7.845
13106SOL    HW140759   5.024   1.424   7.874
13106SOL    HW240760   4.881   1.375   7.875
13107SOL     OW40761   5.021   1.461   8.599
13107SOL    HW140762   5.075   1.470   8.677
13107SOL    HW240763   4.959   1.392   8.620
13108SOL     OW40764   5.292   0.629   7.932
13108SOL    HW140765   5.245   0.674   8.003
13108SOL    HW240766   5.323   0.700   7.876
13109SOL     OW40767   4.073   1.524   8.757
13109SOL    HW140768   4.062   1.480   8.672
13109SOL    HW240769   4.167   1.540   8.764
13110SOL     OW40770   4.156   0.735   9.063
13110SOL    HW140771   4.205   0.788   8.999
13110SOL    HW240772   4.216   0.665   9.087
13111SOL     OW40773   5.341   0.787   9.139
13111SOL    HW140774   5.254   0.826   9.131
13111SOL    HW240775   5.392   0.826   9.068
13112SOL     OW40776   4.771   0.078   9.200
13112SOL    HW140777   4.785   0.164   9.161
13112SOL    HW240778   4.678   0.060   9.186
13113SOL     OW40779   4.231   0.029   9.182
13113SOL    HW140780   4.212  -0.024   9.105
13113SOL    HW240781   4.165   0.099   9.181
13114SOL     OW40782   4.319   0.875   8.487
13114SOL    HW140783   4.352   0.965   8.485
13114SOL    HW240784   4.254   0.876   8.558
13115SOL     OW40785   5.059   0.854   8.467
13115SOL    HW140786   4.973   0.842   8.428
13115SOL    HW240787   5.105   0.772   8.450
13116SOL     OW40788   4.921   0.528   7.703
13116SOL    HW140789   4.930   0.449   7.756
13116SOL    HW240790   4.880   0.592   7.761
13117SOL     OW40791   4.038   0.197   8.688
13117SOL    HW140792   3.960   0.202   8.744
13117SOL    HW240793   4.025   0.118   8.636
13118SOL     OW40794   3.736   1.312   8.735
13118SOL    HW140795   3.787   1.260   8.798
13118SOL    HW240796   3.759   1.402   8.755
13119SOL     OW40797   4.443   0.629   8.502
13119SOL    HW140798   4.518   0.621   8.443
13119SOL    HW240799   4.412   0.719   8.489
13120SOL     OW40800   5.472   0.959   9.316
13120SOL    HW140801   5.429   0.893   9.261
13120SOL    HW240802   5.406   0.981   9.382
13121SOL     OW40803   4.129   0.079   8.128
13121SOL    HW140804   4.071   0.154   8.139
13121SOL    HW240805   4.075   0.014   8.082
13122SOL     OW40806   5.362   0.402   7.801
13122SOL    HW140807   5.379   0.329   7.862
13122SOL    HW240808   5.330   0.473   7.857
13123SOL     OW40809   4.757   0.761   8.404
13123SOL    HW140810   4.745   0.775   8.498
13123SOL    HW240811   4.723   0.673   8.388
13124SOL     OW40812   4.705   1.562   9.172
13124SOL    HW140813   4.686   1.609   9.091
13124SOL    HW240814   4.751   1.483   9.144
13125SOL     OW40815   5.576   1.495   9.050
13125SOL    HW140816   5.595   1.527   8.962
13125SOL    HW240817   5.657   1.511   9.099
13126SOL     OW40818   4.079   0.908   9.267
13126SOL    HW140819   4.159   0.938   9.310
13126SOL    HW240820   4.109   0.847   9.200
13127SOL     OW40821   5.301   0.303   7.555
13127SOL    HW140822   5.206   0.294   7.562
13127SOL    HW240823   5.329   0.330   7.643
13128SOL     OW40824   5.012   0.828   7.475
13128SOL    HW140825   5.055   0.742   7.480
13128SOL    HW240826   5.043   0.865   7.392
13129SOL     OW40827   4.802   1.346   8.310
13129SOL    HW140828   4.807   1.276   8.246
13129SOL    HW240829   4.855   1.417   8.274
13130SOL     OW40830   4.035   0.817   8.392
13130SOL    HW140831   4.127   0.834   8.374
13130SOL    HW240832   4.034   0.728   8.429
13131SOL     OW40833   4.055   0.541   8.469
13131SOL    HW140834   4.011   0.458   8.449
13131SOL    HW240835   4.130   0.542   8.409
13132SOL     OW40836   4.897   0.361   9.160
13132SOL    HW140837   4.829   0.419   9.196
13132SOL    HW240838   4.971   0.418   9.143
13133SOL     OW40839   4.894   0.212   8.930
13133SOL    HW140840   4.897   0.268   9.008
13133SOL    HW240841   4.925   0.268   8.859
13134SOL     OW40842   3.742   1.309   7.637
13134SOL    HW140843   3.654   1.328   7.605
13134SOL    HW240844   3.735   1.222   7.677
13135SOL     OW40845   3.819   1.770   8.399
13135SOL    HW140846   3.791   1.697   8.344
13135SOL    HW240847   3.904   1.796   8.364
13136SOL     OW40848   4.218   1.574   8.356
13136SOL    HW140849   4.285   1.640   8.373
13136SOL    HW240850   4.258   1.514   8.292
13137SOL     OW40851   4.695   0.777   8.670
13137SOL    HW140852   4.754   0.763   8.743
13137SOL    HW240853   4.608   0.757   8.705
13138SOL     OW40854   3.757   0.557   8.566
13138SOL    HW140855   3.824   0.547   8.498
13138SOL    HW240856   3.806   0.559   8.648
13139SOL     OW40857   3.920   0.526   9.178
13139SOL    HW140858   4.004   0.521   9.133
13139SOL    HW240859   3.875   0.600   9.137
13140SOL     OW40860   5.109   0.927   9.102
13140SOL    HW140861   5.129   1.021   9.098
13140SOL    HW240862   5.101   0.900   9.011
13141SOL     OW40863   4.539   0.576   7.823
13141SOL    HW140864   4.546   0.503   7.761
13141SOL    HW240865   4.466   0.629   7.789
13142SOL     OW40866   5.360   0.604   8.621
13142SOL    HW140867   5.352   0.551   8.700
13142SOL    HW240868   5.448   0.585   8.589
13143SOL     OW40869   3.965   1.547   9.169
13143SOL    HW140870   3.942   1.623   9.223
13143SOL    HW240871   3.970   1.474   9.231
13144SOL     OW40872   4.455   0.457   8.710
13144SOL    HW140873   4.399   0.382   8.691
13144SOL    HW240874   4.441   0.517   8.636
13145SOL     OW40875   4.660   1.669   8.915
13145SOL    HW140876   4.622   1.633   8.835
13145SOL    HW240877   4.654   1.764   8.903
13146SOL     OW40878   4.177   0.504   7.629
13146SOL    HW140879   4.236   0.577   7.651
13146SOL    HW240880   4.091   0.545   7.618
13147SOL     OW40881   3.857   1.141   8.925
13147SOL    HW140882   3.864   1.095   9.009
13147SOL    HW240883   3.875   1.074   8.859
13148SOL     OW40884   5.039   1.039   8.664
13148SOL    HW140885   5.057   0.976   8.595
13148SOL    HW240886   4.975   1.099   8.625
13149SOL     OW40887   5.048   0.852   7.750
13149SOL    HW140888   4.972   0.828   7.802
13149SOL    HW240889   5.019   0.844   7.659
13150SOL     OW40890   5.508   1.728   8.614
13150SOL    HW140891   5.567   1.757   8.545
13150SOL    HW240892   5.476   1.643   8.584
13151SOL     OW40893   4.965   1.728   8.544
13151SOL    HW140894   5.047   1.756   8.504
13151SOL    HW240895   4.979   1.636   8.567
13152SOL     OW40896   3.821   1.244   8.479
13152SOL    HW140897   3.788   1.270   8.565
13152SOL    HW240898   3.743   1.217   8.430
13153SOL     OW40899   4.399   1.678   9.189
13153SOL    HW140900   4.331   1.746   9.191
13153SOL    HW240901   4.456   1.703   9.117
13154SOL     OW40902   5.410   0.166   7.943
13154SOL    HW140903   5.449   0.130   7.863
13154SOL    HW240904   5.416   0.096   8.007
13155SOL     OW40905   5.119   1.570   7.944
13155SOL    HW140906   5.175   1.604   7.874
13155SOL    HW240907   5.065   1.645   7.970
13156SOL     OW40908   3.870   1.784   9.287
13156SOL    HW140909   3.820   1.721   9.338
13156SOL    HW240910   3.912   1.839   9.353
13157SOL     OW40911   5.002   0.929   8.114
13157SOL    HW140912   5.077   0.872   8.126
13157SOL    HW240913   5.035   1.002   8.061
13158SOL     OW40914   4.524   1.283   8.876
13158SOL    HW140915   4.497   1.324   8.958
13158SOL    HW240916   4.460   1.313   8.812
13159SOL     OW40917   4.398   1.620   7.597
13159SOL    HW140918   4.406   1.639   7.504
13159SOL    HW240919   4.338   1.546   7.602
13160SOL     OW40920   5.343   1.727   8.845
13160SOL    HW140921   5.396   1.732   8.766
13160SOL    HW240922   5.328   1.819   8.869
13161SOL     OW40923   5.581   0.168   8.400
13161SOL    HW140924   5.573   0.077   8.430
13161SOL    HW240925   5.494   0.189   8.366
13162SOL     OW40926   3.973   0.305   8.154
13162SOL    HW140927   3.892   0.348   8.128
13162SOL    HW240928   3.977   0.316   8.249
13163SOL     OW40929   4.935   1.596   7.480
13163SOL    HW140930   4.927   1.506   7.511
13163SOL    HW240931   4.861   1.607   7.419
13164SOL     OW40932   4.547   1.016   8.821
13164SOL    HW140933   4.578   1.016   8.730
13164SOL    HW240934   4.539   1.109   8.844
13165SOL     OW40935   4.644   0.910   7.746
13165SOL    HW140936   4.699   0.943   7.675
13165SOL    HW240937   4.697   0.842   7.788
13166SOL     OW40938   5.215   1.624   7.496
13166SOL    HW140939   5.120   1.616   7.481
13166SOL    HW240940   5.252   1.632   7.409
13167SOL     OW40941   4.089   1.303   8.942
13167SOL    HW140942   4.083   1.380   8.886
13167SOL    HW240943   4.009   1.253   8.924
13168SOL     OW40944   5.332   1.289   8.723
13168SOL    HW140945   5.389   1.271   8.797
13168SOL    HW240946   5.270   1.355   8.755
13169SOL     OW40947   4.795   1.115   8.168
13169SOL    HW140948   4.718   1.068   8.201
13169SOL    HW240949   4.854   1.047   8.137
13170SOL     OW40950   4.761   0.270   8.398
13170SOL    HW140951   4.737   0.217   8.322
13170SOL    HW240952   4.764   0.208   8.470
13171SOL     OW40953   4.328   1.495   7.929
13171SOL    HW140954   4.374   1.443   7.862
13171SOL    HW240955   4.263   1.545   7.879
13172SOL     OW40956   5.450   0.424   8.829
13172SOL    HW140957   5.527   0.481   8.834
13172SOL    HW240958   5.478   0.351   8.775
13173SOL     OW40959   3.996   1.337   7.759
13173SOL    HW140960   3.909   1.337   7.719
13173SOL    HW240961   3.984   1.385   7.842
13174SOL     OW40962   3.844   1.014   9.171
13174SOL    HW140963   3.771   0.990   9.228
13174SOL    HW240964   3.922   0.982   9.216
13175SOL     OW40965   4.392   0.210   8.949
13175SOL    HW140966   4.472   0.167   8.919
13175SOL    HW240967   4.411   0.239   9.038
13176SOL     OW40968   3.806   0.331   7.474
13176SOL    HW140969   3.713   0.324   7.452
13176SOL    HW240970   3.836   0.409   7.428
13177SOL     OW40971   5.146   0.856   8.840
13177SOL    HW140972   5.093   0.917   8.787
13177SOL    HW240973   5.234   0.862   8.802
13178SOL     OW40974   3.806   0.198   7.786
13178SOL    HW140975   3.787   0.260   7.716
13178SOL    HW240976   3.875   0.142   7.749
13179SOL     OW40977   4.899   1.331   7.567
13179SOL    HW140978   4.805   1.316   7.564
13179SOL    HW240979   4.920   1.330   7.661
13180SOL     OW40980   4.341   0.845   8.887
13180SOL    HW140981   4.395   0.922   8.870
13180SOL    HW240982   4.403   0.772   8.893
13181SOL     OW40983   5.205   1.788   8.421
13181SOL    HW140984   5.213   1.864   8.363
13181SOL    HW240985   5.292   1.778   8.459
13182SOL     OW40986   4.413   0.575   9.143
13182SOL    HW140987   4.471   0.626   9.199
13182SOL    HW240988   4.423   0.485   9.175
13183SOL     OW40989   5.200   1.185   9.073
13183SOL    HW140990   5.188   1.209   9.165
13183SOL    HW240991   5.290   1.212   9.053
13184SOL     OW40992   4.093   1.738   9.010
13184SOL    HW140993   4.009   1.779   8.987
13184SOL    HW240994   4.069   1.655   9.051
13185SOL     OW40995   5.385   0.881   8.702
13185SOL    HW140996   5.379   0.797   8.656
13185SOL    HW240997   5.373   0.946   8.633
13186SOL     OW40998   4.945   0.319   7.898
13186SOL    HW140999   5.012   0.252   7.884
13186SOL    HW241000   4.976   0.368   7.974
13187SOL     OW41001   4.306   0.735   8.127
13187SOL    HW141002   4.349   0.820   8.112
13187SOL    HW241003   4.246   0.726   8.054
13188SOL     OW41004   5.477   0.380   9.097
13188SOL    HW141005   5.465   0.396   9.004
13188SOL    HW241006   5.413   0.311   9.117
13189SOL     OW41007   5.483   0.931   8.956
13189SOL    HW141008   5.464   1.024   8.971
13189SOL    HW241009   5.458   0.916   8.864
13190SOL     OW41010   4.605   1.360   7.510
13190SOL    HW141011   4.554   1.386   7.586
13190SOL    HW241012   4.611   1.439   7.457
13191SOL     OW41013   4.387   1.783   8.375
13191SOL    HW141014   4.362   1.874   8.363
13191SOL    HW241015   4.483   1.785   8.380
13192SOL     OW41016   4.595   0.976   8.303
13192SOL    HW141017   4.647   0.905   8.340
13192SOL    HW241018   4.554   1.018   8.379
13193SOL     OW41019   4.798   0.984   7.539
13193SOL    HW141020   4.776   1.040   7.465
13193SOL    HW241021   4.873   0.933   7.509
13194SOL     OW41022   5.560   1.553   8.291
13194SOL    HW141023   5.486   1.548   8.230
13194SOL    HW241024   5.527   1.511   8.371
13195SOL     OW41025   3.951   1.298   9.307
13195SOL    HW141026   3.883   1.249   9.260
13195SOL    HW241027   3.914   1.312   9.394
13196SOL     OW41028   3.810   1.206   8.117
13196SOL    HW141029   3.859   1.166   8.189
13196SOL    HW241030   3.871   1.207   8.044
13197SOL     OW41031   4.415   1.410   9.093
13197SOL    HW141032   4.331   1.374   9.120
13197SOL    HW241033   4.412   1.501   9.122
13198SOL     OW41034   5.554   0.225   8.679
13198SOL    HW141035   5.487   0.157   8.677
13198SOL    HW241036   5.575   0.241   8.587
13199SOL     OW41037   4.165   0.424   7.989
13199SOL    HW141038   4.178   0.365   7.915
13199SOL    HW241039   4.098   0.381   8.043
13200SOL     OW41040   5.425   1.480   8.527
13200SOL    HW141041   5.343   1.466   8.479
13200SOL    HW241042   5.423   1.414   8.597
13201SOL     OW41043   4.063   0.563   8.743
13201SOL    HW141044   4.118   0.501   8.791
13201SOL    HW241045   4.077   0.541   8.651
13202SOL     OW41046   4.561   1.582   8.120
13202SOL    HW141047   4.539   1.657   8.066
13202SOL    HW241048   4.483   1.527   8.117
13203SOL     OW41049   5.144   0.216   8.572
13203SOL    HW141050   5.210   0.168   8.622
13203SOL    HW241051   5.094   0.264   8.638
13204SOL     OW41052   4.737   0.075   8.582
13204SOL    HW141053   4.655   0.045   8.543
13204SOL    HW241054   4.785  -0.005   8.602
13205SOL     OW41055   4.496   1.333   7.775
13205SOL    HW141056   4.470   1.241   7.784
13205SOL    HW241057   4.577   1.340   7.825
13206SOL     OW41058   4.347   1.550   8.744
13206SOL    HW141059   4.346   1.632   8.794
13206SOL    HW241060   4.432   1.549   8.701
13207SOL     OW41061   5.069   7.974   7.567
13207SOL    HW141062   5.126   7.898   7.578
13207SOL    HW241063   4.999   7.961   7.631
13208SOL     OW41064   5.021   0.464   8.120
13208SOL    HW141065   4.970   0.545   8.122
13208SOL    HW241066   5.024   0.435   8.211
13209SOL     OW41067   5.334   0.228   8.321
13209SOL    HW141068   5.248   0.223   8.362
13209SOL    HW241069   5.330   0.304   8.263
13210SOL     OW41070   3.763   1.061   7.765
13210SOL    HW141071   3.856   1.055   7.744
13210SOL    HW241072   3.736   0.972   7.784
13211SOL     OW41073   4.611   1.661   7.778
13211SOL    HW141074   4.538   1.644   7.718
13211SOL    HW241075   4.577   1.726   7.839
13212SOL     OW41076   3.935   0.624   9.446
13212SOL    HW141077   3.846   0.618   9.481
13212SOL    HW241078   3.925   0.606   9.353
13213SOL     OW41079   3.949   0.302  10.288
13213SOL    HW141080   3.985   0.259  10.366
13213SOL    HW241081   3.862   0.264  10.277
13214SOL     OW41082   3.727   0.405   9.938
13214SOL    HW141083   3.642   0.426   9.977
13214SOL    HW241084   3.710   0.329   9.883
13215SOL     OW41085   4.293   1.301  10.501
13215SOL    HW141086   4.211   1.309  10.452
13215SOL    HW241087   4.311   1.390  10.532
13216SOL     OW41088   5.300   1.517  10.014
13216SOL    HW141089   5.252   1.493  10.093
13216SOL    HW241090   5.233   1.524   9.946
13217SOL     OW41091   4.863   0.699  10.005
13217SOL    HW141092   4.909   0.782   9.990
13217SOL    HW241093   4.813   0.713  10.085
13218SOL     OW41094   5.517   0.600   9.533
13218SOL    HW141095   5.485   0.597   9.443
13218SOL    HW241096   5.476   0.525   9.576
13219SOL     OW41097   4.467   1.136  10.367
13219SOL    HW141098   4.401   1.176  10.424
13219SOL    HW241099   4.505   1.209  10.319
13220SOL     OW41100   4.590   0.759  11.127
13220SOL    HW141101   4.569   0.829  11.189
13220SOL    HW241102   4.614   0.805  11.046
13221SOL     OW41103   4.410   0.990   9.955
13221SOL    HW141104   4.476   0.990  10.024
13221SOL    HW241105   4.342   1.049   9.987
13222SOL     OW41106   4.441   1.154  11.138
13222SOL    HW141107   4.490   1.230  11.169
13222SOL    HW241108   4.364   1.190  11.095
13223SOL     OW41109   4.060   1.408  10.376
13223SOL    HW141110   3.985   1.369  10.332
13223SOL    HW241111   4.101   1.463  10.309
13224SOL     OW41112   5.186   1.498  10.683
13224SOL    HW141113   5.236   1.580  10.689
13224SOL    HW241114   5.110   1.512  10.740
13225SOL     OW41115   4.169   0.385  10.793
13225SOL    HW141116   4.252   0.338  10.792
13225SOL    HW241117   4.102   0.316  10.791
13226SOL     OW41118   5.330   0.453  10.028
13226SOL    HW141119   5.255   0.463   9.970
13226SOL    HW241120   5.345   0.540  10.065
13227SOL     OW41121   3.949   1.713   9.772
13227SOL    HW141122   3.969   1.788   9.828
13227SOL    HW241123   4.023   1.709   9.711
13228SOL     OW41124   4.863   1.340  11.004
13228SOL    HW141125   4.898   1.334  11.092
13228SOL    HW241126   4.811   1.260  10.993
13229SOL     OW41127   3.952   1.451   9.852
13229SOL    HW141128   3.945   1.545   9.837
13229SOL    HW241129   3.892   1.434   9.925
13230SOL     OW41130   3.994   1.093  10.194
13230SOL    HW141131   3.989   1.004  10.230
13230SOL    HW241132   3.937   1.144  10.252
13231SOL     OW41133   4.328   1.785  10.751
13231SOL    HW141134   4.242   1.774  10.790
13231SOL    HW241135   4.351   1.877  10.769
13232SOL     OW41136   4.300   0.990   9.453
13232SOL    HW141137   4.348   1.036   9.385
13232SOL    HW241138   4.339   1.021   9.535
13233SOL     OW41139   5.380   0.118  10.823
13233SOL    HW141140   5.365   0.094  10.732
13233SOL    HW241141   5.305   0.173  10.846
13234SOL     OW41142   3.851   0.655   9.874
13234SOL    HW141143   3.812   0.570   9.893
13234SOL    HW241144   3.838   0.706   9.955
13235SOL     OW41145   5.569   1.752   9.635
13235SOL    HW141146   5.641   1.732   9.695
13235SOL    HW241147   5.582   1.844   9.614
13236SOL     OW41148   3.767   1.584   9.435
13236SOL    HW141149   3.746   1.494   9.459
13236SOL    HW241150   3.740   1.636   9.510
13237SOL     OW41151   5.420   0.922   9.952
13237SOL    HW141152   5.488   0.871   9.908
13237SOL    HW241153   5.387   0.982   9.884
13238SOL     OW41154   5.373   1.105   9.742
13238SOL    HW141155   5.459   1.104   9.701
13238SOL    HW241156   5.381   1.170   9.812
13239SOL     OW41157   3.839   0.753  10.893
13239SOL    HW141158   3.924   0.797  10.894
13239SOL    HW241159   3.775   0.823  10.879
13240SOL     OW41160   4.335   1.391  10.051
13240SOL    HW141161   4.292   1.306  10.051
13240SOL    HW241162   4.324   1.423   9.961
13241SOL     OW41163   5.004   1.230  10.733
13241SOL    HW141164   5.031   1.163  10.670
13241SOL    HW241165   5.068   1.224  10.804
13242SOL     OW41166   4.565   0.038   9.877
13242SOL    HW141167   4.601   0.117   9.838
13242SOL    HW241168   4.473   0.038   9.850
13243SOL     OW41169   3.907   0.955  10.604
13243SOL    HW141170   3.994   0.920  10.585
13243SOL    HW241171   3.855   0.934  10.526
13244SOL     OW41172   5.256   1.003   9.511
13244SOL    HW141173   5.188   0.945   9.543
13244SOL    HW241174   5.297   1.038   9.590
13245SOL     OW41175   4.913   1.820  10.944
13245SOL    HW141176   4.910   1.886  10.875
13245SOL    HW241177   4.925   1.737  10.898
13246SOL     OW41178   4.037   0.242  11.090
13246SOL    HW141179   4.097   0.309  11.122
13246SOL    HW241180   3.958   0.252  11.142
13247SOL     OW41181   5.191   1.420  10.249
13247SOL    HW141182   5.125   1.437  10.316
13247SOL    HW241183   5.177   1.328  10.224
13248SOL     OW41184   5.384   1.760   9.885
13248SOL    HW141185   5.361   1.732   9.796
13248SOL    HW241186   5.359   1.686   9.940
13249SOL     OW41187   4.320   0.722   9.584
13249SOL    HW141188   4.321   0.807   9.540
13249SOL    HW241189   4.254   0.733   9.653
13250SOL     OW41190   5.025   0.373  10.247
13250SOL    HW141191   4.933   0.347  10.247
13250SOL    HW241192   5.067   0.315  10.311
13251SOL     OW41193   5.304   1.671   9.624
13251SOL    HW141194   5.395   1.697   9.611
13251SOL    HW241195   5.270   1.658   9.535
13252SOL     OW41196   4.520   0.626  10.763
13252SOL    HW141197   4.487   0.595  10.848
13252SOL    HW241198   4.490   0.561  10.701
13253SOL     OW41199   5.135   0.489  10.973
13253SOL    HW141200   5.146   0.527  11.060
13253SOL    HW241201   5.181   0.405  10.978
13254SOL     OW41202   4.669   0.888  10.895
13254SOL    HW141203   4.724   0.820  10.856
13254SOL    HW241204   4.623   0.928  10.821
13255SOL     OW41205   4.722   0.412  10.529
13255SOL    HW141206   4.632   0.431  10.554
13255SOL    HW241207   4.717   0.381  10.438
13256SOL     OW41208   4.781   0.695   9.735
13256SOL    HW141209   4.799   0.689   9.829
13256SOL    HW241210   4.695   0.654   9.725
13257SOL     OW41211   3.809   0.814  10.093
13257SOL    HW141212   3.890   0.815  10.143
13257SOL    HW241213   3.760   0.890  10.126
13258SOL     OW41214   3.843   1.880  10.894
13258SOL    HW141215   3.848   1.854  10.986
13258SOL    HW241216   3.757   1.848  10.865
13259SOL     OW41217   4.613   0.351   9.516
13259SOL    HW141218   4.659   0.405   9.451
13259SOL    HW241219   4.624   0.261   9.484
13260SOL     OW41220   5.398   0.574  11.149
13260SOL    HW141221   5.382   0.651  11.095
13260SOL    HW241222   5.432   0.508  11.088
13261SOL     OW41223   5.105   1.143   9.847
13261SOL    HW141224   5.182   1.134   9.791
13261SOL    HW241225   5.050   1.207   9.801
13262SOL     OW41226   4.274   0.208  10.246
13262SOL    HW141227   4.256   0.289  10.292
13262SOL    HW241228   4.301   0.235  10.158
13263SOL     OW41229   4.721   1.450   9.777
13263SOL    HW141230   4.692   1.522   9.720
13263SOL    HW241231   4.689   1.474   9.864
13264SOL     OW41232   4.078   1.820  10.190
13264SOL    HW141233   4.127   1.738  10.194
13264SOL    HW241234   4.144   1.888  10.202
13265SOL     OW41235   5.529   1.044  10.186
13265SOL    HW141236   5.482   1.028  10.104
13265SOL    HW241237   5.460   1.050  10.252
13266SOL     OW41238   4.950   1.541  10.822
13266SOL    HW141239   4.935   1.466  10.880
13266SOL    HW241240   4.877   1.539  10.761
13267SOL     OW41241   4.035   0.961   9.567
13267SOL    HW141242   4.117   0.987   9.525
13267SOL    HW241243   4.007   0.883   9.520
13268SOL     OW41244   5.210   0.758  10.032
13268SOL    HW141245   5.207   0.720  10.120
13268SOL    HW241246   5.288   0.813  10.032
13269SOL     OW41247   4.193   1.272  11.052
13269SOL    HW141248   4.168   1.277  10.960
13269SOL    HW241249   4.109   1.266  11.099
13270SOL     OW41250   4.856   1.765   9.551
13270SOL    HW141251   4.771   1.733   9.583
13270SOL    HW241252   4.877   1.707   9.478
13271SOL     OW41253   3.906   0.251  10.817
13271SOL    HW141254   3.851   0.327  10.797
13271SOL    HW241255   3.927   0.260  10.910
13272SOL     OW41256   5.359   1.380   9.410
13272SOL    HW141257   5.320   1.467   9.395
13272SOL    HW241258   5.291   1.318   9.384
13273SOL     OW41259   4.197   1.726   9.635
13273SOL    HW141260   4.238   1.792   9.691
13273SOL    HW241261   4.263   1.704   9.570
13274SOL     OW41262   5.144   0.131   9.717
13274SOL    HW141263   5.168   0.107   9.627
13274SOL    HW241264   5.228   0.143   9.761
13275SOL     OW41265   3.976   1.787  10.531
13275SOL    HW141266   4.027   1.711  10.558
13275SOL    HW241267   3.959   1.772  10.438
13276SOL     OW41268   4.669   1.698  10.200
13276SOL    HW141269   4.754   1.655  10.206
13276SOL    HW241270   4.624   1.651  10.130
13277SOL     OW41271   4.126   0.685   9.787
13277SOL    HW141272   4.143   0.593   9.805
13277SOL    HW241273   4.032   0.695   9.800
13278SOL     OW41274   5.229   0.235  11.038
13278SOL    HW141275   5.242   0.246  11.132
13278SOL    HW241276   5.197   0.146  11.028
13279SOL     OW41277   4.312   0.131   9.418
13279SOL    HW141278   4.390   0.089   9.454
13279SOL    HW241279   4.293   0.083   9.338
13280SOL     OW41280   4.481   0.283  11.111
13280SOL    HW141281   4.514   0.196  11.090
13280SOL    HW241282   4.408   0.267  11.171
13281SOL     OW41283   4.595   1.520  10.506
13281SOL    HW141284   4.580   1.487  10.418
13281SOL    HW241285   4.668   1.467  10.539
13282SOL     OW41286   5.060   0.597  10.733
13282SOL    HW141287   5.099   0.567  10.816
13282SOL    HW241288   5.096   0.684  10.720
13283SOL     OW41289   4.543   1.381  10.257
13283SOL    HW141290   4.629   1.376  10.214
13283SOL    HW241291   4.481   1.396  10.185
13284SOL     OW41292   4.650   0.520  10.201
13284SOL    HW141293   4.622   0.514  10.110
13284SOL    HW241294   4.688   0.435  10.221
13285SOL     OW41295   4.318   0.039   9.745
13285SOL    HW141296   4.244  -0.008   9.784
13285SOL    HW241297   4.281   0.124   9.721
13286SOL     OW41298   5.153   1.207   9.347
13286SOL    HW141299   5.178   1.131   9.400
13286SOL    HW241300   5.067   1.232   9.380
13287SOL     OW41301   4.020   0.053   9.513
13287SOL    HW141302   4.097   0.101   9.482
13287SOL    HW241303   4.055  -0.013   9.572
13288SOL     OW41304   4.673   0.266   9.773
13288SOL    HW141305   4.642   0.298   9.688
13288SOL    HW241306   4.768   0.280   9.771
13289SOL     OW41307   4.806   0.689  10.771
13289SOL    HW141308   4.742   0.618  10.770
13289SOL    HW241309   4.890   0.646  10.757
13290SOL     OW41310   4.934   1.588  10.113
13290SOL    HW141311   4.945   1.646  10.037
13290SOL    HW241312   5.009   1.608  10.169
13291SOL     OW41313   4.199   1.152  10.028
13291SOL    HW141314   4.132   1.133  10.093
13291SOL    HW241315   4.154   1.145   9.944
13292SOL     OW41316   4.983   1.794   9.928
13292SOL    HW141317   5.033   1.853   9.872
13292SOL    HW241318   4.911   1.848   9.962
13293SOL     OW41319   4.744   0.519   9.338
13293SOL    HW141320   4.702   0.602   9.313
13293SOL    HW241321   4.809   0.544   9.403
13294SOL     OW41322   3.827   0.548  10.714
13294SOL    HW141323   3.916   0.556  10.681
13294SOL    HW241324   3.817   0.621  10.775
13295SOL     OW41325   4.288   0.252  10.533
13295SOL    HW141326   4.325   0.181  10.586
13295SOL    HW241327   4.194   0.235  10.532
13296SOL     OW41328   4.590   0.475   9.941
13296SOL    HW141329   4.554   0.526   9.869
13296SOL    HW241330   4.610   0.390   9.902
13297SOL     OW41331   4.675   0.036  10.120
13297SOL    HW141332   4.635   0.042  10.034
13297SOL    HW241333   4.715  -0.051  10.122
13298SOL     OW41334   5.170   1.157  10.162
13298SOL    HW141335   5.090   1.107  10.150
13298SOL    HW241336   5.205   1.169  10.074
13299SOL     OW41337   5.187   0.617  10.274
13299SOL    HW141338   5.137   0.536  10.268
13299SOL    HW241339   5.245   0.605  10.349
13300SOL     OW41340   5.562   0.806   9.708
13300SOL    HW141341   5.626   0.757   9.760
13300SOL    HW241342   5.541   0.747   9.635
13301SOL     OW41343   4.214   1.419   9.457
13301SOL    HW141344   4.140   1.392   9.511
13301SOL    HW241345   4.202   1.372   9.374
13302SOL     OW41346   5.402   1.261   9.960
13302SOL    HW141347   5.497   1.261   9.970
13302SOL    HW241348   5.376   1.352   9.973
13303SOL     OW41349   5.123   0.578   9.383
13303SOL    HW141350   5.057   0.554   9.448
13303SOL    HW241351   5.206   0.547   9.419
13304SOL     OW41352   4.226   0.277   9.627
13304SOL    HW141353   4.265   0.227   9.555
13304SOL    HW241354   4.205   0.362   9.589
13305SOL     OW41355   5.478   1.234  10.879
13305SOL    HW141356   5.560   1.205  10.839
13305SOL    HW241357   5.491   1.327  10.897
13306SOL     OW41358   4.774   1.352  10.643
13306SOL    HW141359   4.697   1.322  10.692
13306SOL    HW241360   4.848   1.310  10.685
13307SOL     OW41361   5.346   1.624  10.975
13307SOL    HW141362   5.330   1.661  10.888
13307SOL    HW241363   5.426   1.572  10.964
13308SOL     OW41364   4.867   1.222  10.412
13308SOL    HW141365   4.802   1.256  10.473
13308SOL    HW241366   4.840   1.255  10.326
13309SOL     OW41367   5.338   1.086  10.381
13309SOL    HW141368   5.326   1.153  10.448
13309SOL    HW241369   5.269   1.103  10.317
13310SOL     OW41370   4.653   0.138  10.715
13310SOL    HW141371   4.659   0.123  10.621
13310SOL    HW241372   4.741   0.118  10.748
13311SOL     OW41373   4.709   1.111  11.041
13311SOL    HW141374   4.618   1.132  11.064
13311SOL    HW241375   4.703   1.036  10.983
13312SOL     OW41376   4.434   1.059   9.684
13312SOL    HW141377   4.420   1.037   9.776
13312SOL    HW241378   4.511   1.007   9.659
13313SOL     OW41379   4.147   0.827  10.565
13313SOL    HW141380   4.216   0.837  10.630
13313SOL    HW241381   4.115   0.737  10.576
13314SOL     OW41382   4.985   0.377  10.590
13314SOL    HW141383   5.016   0.459  10.628
13314SOL    HW241384   4.895   0.395  10.564
13315SOL     OW41385   3.800   1.572  10.667
13315SOL    HW141386   3.767   1.641  10.610
13315SOL    HW241387   3.895   1.576  10.657
13316SOL     OW41388   4.054   1.127   9.795
13316SOL    HW141389   4.052   1.202   9.736
13316SOL    HW241390   4.053   1.051   9.738
13317SOL     OW41391   4.270   0.532  10.174
13317SOL    HW141392   4.280   0.590  10.098
13317SOL    HW241393   4.342   0.557  10.232
13318SOL     OW41394   4.968   1.350   9.707
13318SOL    HW141395   5.024   1.423   9.734
13318SOL    HW241396   4.880   1.376   9.736
13319SOL     OW41397   5.022   1.461  10.459
13319SOL    HW141398   5.072   1.461  10.540
13319SOL    HW241399   4.966   1.384  10.465
13320SOL     OW41400   5.293   0.631   9.794
13320SOL    HW141401   5.244   0.678   9.861
13320SOL    HW241402   5.328   0.699   9.737
13321SOL     OW41403   4.071   1.529  10.614
13321SOL    HW141404   4.061   1.482  10.532
13321SOL    HW241405   4.165   1.543  10.623
13322SOL     OW41406   4.151   0.744  10.920
13322SOL    HW141407   4.208   0.792  10.860
13322SOL    HW241408   4.190   0.658  10.927
13323SOL     OW41409   5.343   0.792  11.001
13323SOL    HW141410   5.257   0.832  10.988
13323SOL    HW241411   5.396   0.825  10.928
13324SOL     OW41412   4.767   0.069  11.060
13324SOL    HW141413   4.785   0.160  11.038
13324SOL    HW241414   4.673   0.058  11.046
13325SOL     OW41415   4.228   0.037  11.036
13325SOL    HW141416   4.201  -0.028  10.972
13325SOL    HW241417   4.152   0.095  11.044
13326SOL     OW41418   4.318   0.875  10.347
13326SOL    HW141419   4.348   0.966  10.345
13326SOL    HW241420   4.253   0.873  10.418
13327SOL     OW41421   5.059   0.855  10.333
13327SOL    HW141422   4.975   0.844  10.288
13327SOL    HW241423   5.106   0.773  10.316
13328SOL     OW41424   4.918   0.528   9.563
13328SOL    HW141425   4.929   0.449   9.615
13328SOL    HW241426   4.878   0.591   9.623
13329SOL     OW41427   4.023   0.197  10.540
13329SOL    HW141428   3.948   0.204  10.599
13329SOL    HW241429   4.011   0.114  10.495
13330SOL     OW41430   3.759   1.312  10.589
13330SOL    HW141431   3.799   1.259  10.658
13330SOL    HW241432   3.771   1.402  10.617
13331SOL     OW41433   4.446   0.632  10.362
13331SOL    HW141434   4.520   0.622  10.302
13331SOL    HW241435   4.414   0.720  10.346
13332SOL     OW41436   5.470   0.966  11.177
13332SOL    HW141437   5.430   0.900  11.120
13332SOL    HW241438   5.404   0.982  11.245
13333SOL     OW41439   4.138   0.081   9.985
13333SOL    HW141440   4.075   0.152   9.995
13333SOL    HW241441   4.092   0.015   9.932
13334SOL     OW41442   5.360   0.402   9.661
13334SOL    HW141443   5.375   0.329   9.721
13334SOL    HW241444   5.330   0.473   9.718
13335SOL     OW41445   4.755   0.763  10.265
13335SOL    HW141446   4.745   0.776  10.360
13335SOL    HW241447   4.723   0.674  10.250
13336SOL     OW41448   4.709   1.566  11.034
13336SOL    HW141449   4.687   1.611  10.953
13336SOL    HW241450   4.751   1.485  11.007
13337SOL     OW41451   5.594   1.485  10.919
13337SOL    HW141452   5.605   1.518  10.829
13337SOL    HW241453   5.667   1.523  10.967
13338SOL     OW41454   4.075   0.912  11.126
13338SOL    HW141455   4.156   0.935  11.170
13338SOL    HW241456   4.101   0.850  11.058
13339SOL     OW41457   5.292   0.302   9.418
13339SOL    HW141458   5.197   0.292   9.430
13339SOL    HW241459   5.325   0.328   9.504
13340SOL     OW41460   5.014   0.828   9.338
13340SOL    HW141461   5.057   0.742   9.343
13340SOL    HW241462   5.045   0.865   9.255
13341SOL     OW41463   4.800   1.346  10.173
13341SOL    HW141464   4.805   1.276  10.109
13341SOL    HW241465   4.851   1.417  10.134
13342SOL     OW41466   4.033   0.815  10.254
13342SOL    HW141467   4.125   0.832  10.234
13342SOL    HW241468   4.032   0.727  10.290
13343SOL     OW41469   4.055   0.542  10.330
13343SOL    HW141470   4.013   0.458  10.309
13343SOL    HW241471   4.132   0.546  10.273
13344SOL     OW41472   4.908   0.360  11.074
13344SOL    HW141473   4.825   0.407  11.066
13344SOL    HW241474   4.968   0.405  11.015
13345SOL     OW41475   4.921   0.210  10.794
13345SOL    HW141476   4.868   0.268  10.849
13345SOL    HW241477   4.945   0.264  10.718
13346SOL     OW41478   3.736   1.311   9.506
13346SOL    HW141479   3.649   1.330   9.472
13346SOL    HW241480   3.730   1.222   9.542
13347SOL     OW41481   3.819   1.773  10.263
13347SOL    HW141482   3.788   1.700  10.209
13347SOL    HW241483   3.905   1.794  10.226
13348SOL     OW41484   4.215   1.576  10.218
13348SOL    HW141485   4.285   1.638  10.240
13348SOL    HW241486   4.255   1.514  10.157
13349SOL     OW41487   4.696   0.780  10.531
13349SOL    HW141488   4.752   0.767  10.607
13349SOL    HW241489   4.610   0.746  10.558
13350SOL     OW41490   3.759   0.547  10.433
13350SOL    HW141491   3.834   0.547  10.374
13350SOL    HW241492   3.797   0.546  10.521
13351SOL     OW41493   3.914   0.532  11.041
13351SOL    HW141494   3.991   0.515  10.986
13351SOL    HW241495   3.870   0.606  10.999
13352SOL     OW41496   5.109   0.929  10.964
13352SOL    HW141497   5.128   1.023  10.959
13352SOL    HW241498   5.100   0.902  10.872
13353SOL     OW41499   4.538   0.574   9.682
13353SOL    HW141500   4.544   0.501   9.621
13353SOL    HW241501   4.466   0.628   9.649
13354SOL     OW41502   5.362   0.605  10.491
13354SOL    HW141503   5.353   0.548  10.567
13354SOL    HW241504   5.449   0.586  10.457
13355SOL     OW41505   3.960   1.547  11.029
13355SOL    HW141506   3.938   1.614  11.094
13355SOL    HW241507   3.965   1.466  11.080
13356SOL     OW41508   4.454   0.459  10.568
13356SOL    HW141509   4.393   0.387  10.555
13356SOL    HW241510   4.439   0.517  10.493
13357SOL     OW41511   4.650   1.674  10.781
13357SOL    HW141512   4.621   1.633  10.700
13357SOL    HW241513   4.643   1.768  10.764
13358SOL     OW41514   4.176   0.504   9.494
13358SOL    HW141515   4.236   0.577   9.514
13358SOL    HW241516   4.091   0.546   9.481
13359SOL     OW41517   3.861   1.147  10.790
13359SOL    HW141518   3.865   1.104  10.876
13359SOL    HW241519   3.877   1.076  10.727
13360SOL     OW41520   5.037   1.041  10.528
13360SOL    HW141521   5.054   0.977  10.459
13360SOL    HW241522   4.977   1.104  10.488
13361SOL     OW41523   5.046   0.852   9.613
13361SOL    HW141524   4.969   0.825   9.663
13361SOL    HW241525   5.020   0.844   9.521
13362SOL     OW41526   5.509   1.723  10.479
13362SOL    HW141527   5.569   1.754  10.411
13362SOL    HW241528   5.474   1.641  10.444
13363SOL     OW41529   4.968   1.733  10.421
13363SOL    HW141530   5.048   1.758  10.373
13363SOL    HW241531   4.978   1.639  10.436
13364SOL     OW41532   3.820   1.251  10.329
13364SOL    HW141533   3.792   1.273  10.418
13364SOL    HW241534   3.744   1.208  10.290
13365SOL     OW41535   4.402   1.678  11.051
13365SOL    HW141536   4.334   1.746  11.049
13365SOL    HW241537   4.460   1.700  10.979
13366SOL     OW41538   5.407   0.165   9.797
13366SOL    HW141539   5.439   0.132   9.713
13366SOL    HW241540   5.473   0.135   9.860
13367SOL     OW41541   5.120   1.570   9.806
13367SOL    HW141542   5.176   1.602   9.735
13367SOL    HW241543   5.064   1.644   9.829
13368SOL     OW41544   3.867   1.791  11.150
13368SOL    HW141545   3.817   1.724  11.197
13368SOL    HW241546   3.911   1.840  11.219
13369SOL     OW41547   5.003   0.932   9.980
13369SOL    HW141548   5.078   0.873   9.991
13369SOL    HW241549   5.035   1.002   9.925
13370SOL     OW41550   4.521   1.281  10.737
13370SOL    HW141551   4.494   1.324  10.818
13370SOL    HW241552   4.454   1.307  10.673
13371SOL     OW41553   4.399   1.618   9.464
13371SOL    HW141554   4.407   1.639   9.371
13371SOL    HW241555   4.338   1.544   9.466
13372SOL     OW41556   5.346   1.725  10.710
13372SOL    HW141557   5.395   1.729  10.628
13372SOL    HW241558   5.330   1.816  10.733
13373SOL     OW41559   5.580   0.172  10.270
13373SOL    HW141560   5.573   0.079  10.291
13373SOL    HW241561   5.496   0.195  10.230
13374SOL     OW41562   3.968   0.293  10.012
13374SOL    HW141563   3.889   0.342   9.988
13374SOL    HW241564   3.976   0.304  10.107
13375SOL     OW41565   4.935   1.601   9.344
13375SOL    HW141566   4.921   1.509   9.365
13375SOL    HW241567   4.873   1.621   9.275
13376SOL     OW41568   4.547   1.014  10.684
13376SOL    HW141569   4.575   1.012  10.592
13376SOL    HW241570   4.538   1.107  10.704
13377SOL     OW41571   4.645   0.910   9.611
13377SOL    HW141572   4.699   0.941   9.538
13377SOL    HW241573   4.697   0.841   9.652
13378SOL     OW41574   5.217   1.621   9.360
13378SOL    HW141575   5.122   1.618   9.346
13378SOL    HW241576   5.254   1.631   9.273
13379SOL     OW41577   4.092   1.307  10.805
13379SOL    HW141578   4.083   1.382  10.746
13379SOL    HW241579   4.013   1.255  10.789
13380SOL     OW41580   5.326   1.286  10.572
13380SOL    HW141581   5.408   1.284  10.622
13380SOL    HW241582   5.271   1.348  10.619
13381SOL     OW41583   4.794   1.116  10.032
13381SOL    HW141584   4.717   1.067  10.063
13381SOL    HW241585   4.853   1.048   9.999
13382SOL     OW41586   4.764   0.269  10.262
13382SOL    HW141587   4.736   0.216  10.187
13382SOL    HW241588   4.766   0.208  10.335
13383SOL     OW41589   4.334   1.497   9.799
13383SOL    HW141590   4.379   1.443   9.734
13383SOL    HW241591   4.269   1.546   9.748
13384SOL     OW41592   5.453   0.421  10.704
13384SOL    HW141593   5.531   0.476  10.707
13384SOL    HW241594   5.477   0.348  10.646
13385SOL     OW41595   3.990   1.337   9.614
13385SOL    HW141596   3.899   1.337   9.584
13385SOL    HW241597   3.988   1.385   9.697
13386SOL     OW41598   3.845   1.047  11.049
13386SOL    HW141599   3.766   1.016  11.093
13386SOL    HW241600   3.916   0.994  11.086
13387SOL     OW41601   4.401   0.223  10.811
13387SOL    HW141602   4.477   0.179  10.774
13387SOL    HW241603   4.420   0.229  10.904
13388SOL     OW41604   3.802   0.330   9.340
13388SOL    HW141605   3.708   0.328   9.324
13388SOL    HW241606   3.833   0.406   9.290
13389SOL     OW41607   5.147   0.859  10.702
13389SOL    HW141608   5.094   0.918  10.649
13389SOL    HW241609   5.234   0.863  10.663
13390SOL     OW41610   3.794   0.190   9.613
13390SOL    HW141611   3.788   0.258   9.546
13390SOL    HW241612   3.867   0.136   9.585
13391SOL     OW41613   4.898   1.330   9.425
13391SOL    HW141614   4.803   1.318   9.420
13391SOL    HW241615   4.918   1.331   9.518
13392SOL     OW41616   4.347   0.836  10.748
13392SOL    HW141617   4.401   0.913  10.731
13392SOL    HW241618   4.410   0.764  10.754
13393SOL     OW41619   5.202   1.791  10.287
13393SOL    HW141620   5.210   1.862  10.222
13393SOL    HW241621   5.292   1.771  10.311
13394SOL     OW41622   4.451   0.542  11.008
13394SOL    HW141623   4.484   0.611  11.066
13394SOL    HW241624   4.461   0.462  11.058
13395SOL     OW41625   5.202   1.187  10.939
13395SOL    HW141626   5.190   1.211  11.031
13395SOL    HW241627   5.293   1.209  10.920
13396SOL     OW41628   4.088   1.745  10.877
13396SOL    HW141629   4.007   1.794  10.857
13396SOL    HW241630   4.057   1.662  10.914
13397SOL     OW41631   5.388   0.879  10.567
13397SOL    HW141632   5.382   0.794  10.525
13397SOL    HW241633   5.373   0.942  10.497
13398SOL     OW41634   4.943   0.321   9.759
13398SOL    HW141635   5.009   0.253   9.744
13398SOL    HW241636   4.975   0.369   9.835
13399SOL     OW41637   4.304   0.735   9.991
13399SOL    HW141638   4.348   0.818   9.976
13399SOL    HW241639   4.244   0.725   9.918
13400SOL     OW41640   5.469   0.371  10.978
13400SOL    HW141641   5.468   0.389  10.884
13400SOL    HW241642   5.398   0.308  10.991
13401SOL     OW41643   5.494   0.933  10.817
13401SOL    HW141644   5.465   1.022  10.835
13401SOL    HW241645   5.467   0.916  10.727
13402SOL     OW41646   4.606   1.370   9.367
13402SOL    HW141647   4.552   1.405   9.438
13402SOL    HW241648   4.615   1.443   9.305
13403SOL     OW41649   4.391   1.780  10.251
13403SOL    HW141650   4.368   1.870  10.230
13403SOL    HW241651   4.486   1.775  10.238
13404SOL     OW41652   4.594   0.976  10.166
13404SOL    HW141653   4.645   0.903  10.201
13404SOL    HW241654   4.554   1.017  10.242
13405SOL     OW41655   4.795   0.978   9.400
13405SOL    HW141656   4.775   1.037   9.327
13405SOL    HW241657   4.872   0.930   9.371
13406SOL     OW41658   5.561   1.558  10.153
13406SOL    HW141659   5.491   1.552  10.088
13406SOL    HW241660   5.528   1.507  10.228
13407SOL     OW41661   3.939   1.292  11.157
13407SOL    HW141662   3.900   1.217  11.112
13407SOL    HW241663   3.882   1.307  11.233
13408SOL     OW41664   3.813   1.216   9.976
13408SOL    HW141665   3.849   1.174  10.054
13408SOL    HW241666   3.879   1.202   9.908
13409SOL     OW41667   4.416   1.409  10.956
13409SOL    HW141668   4.332   1.373  10.983
13409SOL    HW241669   4.413   1.501  10.984
13410SOL     OW41670   5.556   0.228  10.544
13410SOL    HW141671   5.492   0.157  10.549
13410SOL    HW241672   5.574   0.238  10.450
13411SOL     OW41673   4.164   0.422   9.853
13411SOL    HW141674   4.176   0.366   9.777
13411SOL    HW241675   4.093   0.380   9.903
13412SOL     OW41676   5.418   1.481  10.387
13412SOL    HW141677   5.339   1.471  10.334
13412SOL    HW241678   5.411   1.412  10.454
13413SOL     OW41679   4.072   0.566  10.605
13413SOL    HW141680   4.122   0.501  10.654
13413SOL    HW241681   4.082   0.541  10.514
13414SOL     OW41682   4.557   1.594   9.973
13414SOL    HW141683   4.550   1.673   9.919
13414SOL    HW241684   4.479   1.543   9.950
13415SOL     OW41685   5.144   0.208  10.438
13415SOL    HW141686   5.214   0.173  10.493
13415SOL    HW241687   5.091   0.260  10.498
13416SOL     OW41688   4.729   0.077  10.451
13416SOL    HW141689   4.643   0.063  10.411
13416SOL    HW241690   4.761  -0.011  10.471
13417SOL     OW41691   4.491   1.332   9.644
13417SOL    HW141692   4.468   1.239   9.648
13417SOL    HW241693   4.578   1.337   9.684
13418SOL     OW41694   4.345   1.554  10.606
13418SOL    HW141695   4.345   1.636  10.656
13418SOL    HW241696   4.431   1.551  10.564
13419SOL     OW41697   5.074   7.977   9.421
13419SOL    HW141698   5.136   7.906   9.437
13419SOL    HW241699   5.006   7.966   9.488
13420SOL     OW41700   5.022   0.465   9.982
13420SOL    HW141701   4.970   0.545   9.984
13420SOL    HW241702   5.025   0.435  10.073
13421SOL     OW41703   5.335   0.234  10.186
13421SOL    HW141704   5.244   0.221  10.213
13421SOL    HW241705   5.332   0.307  10.125
13422SOL     OW41706   3.763   1.059   9.622
13422SOL    HW141707   3.856   1.053   9.603
13422SOL    HW241708   3.737   0.970   9.645
13423SOL     OW41709   4.611   1.664   9.643
13423SOL    HW141710   4.538   1.649   9.583
13423SOL    HW241711   4.582   1.737   9.698
13424SOL     OW41712   3.935   0.626  11.307
13424SOL    HW141713   3.848   0.617  11.345
13424SOL    HW241714   3.924   0.606  11.214
13425SOL     OW41715   3.952   0.298  12.162
13425SOL    HW141716   3.985   0.254  12.240
13425SOL    HW241717   3.870   0.253  12.141
13426SOL     OW41718   3.736   0.402  11.799
13426SOL    HW141719   3.648   0.415  11.833
13426SOL    HW241720   3.728   0.328  11.739
13427SOL     OW41721   4.266   1.253  12.335
13427SOL    HW141722   4.189   1.287  12.288
13427SOL    HW241723   4.274   1.308  12.412
13428SOL     OW41724   5.298   1.515  11.879
13428SOL    HW141725   5.252   1.497  11.961
13428SOL    HW241726   5.228   1.522  11.813
13429SOL     OW41727   4.864   0.694  11.859
13429SOL    HW141728   4.905   0.780  11.854
13429SOL    HW241729   4.804   0.700  11.933
13430SOL     OW41730   5.519   0.598  11.389
13430SOL    HW141731   5.480   0.595  11.302
13430SOL    HW241732   5.478   0.525  11.436
13431SOL     OW41733   4.485   1.138  12.234
13431SOL    HW141734   4.402   1.169  12.272
13431SOL    HW241735   4.517   1.213  12.183
13432SOL     OW41736   4.411   0.991  11.818
13432SOL    HW141737   4.476   0.989  11.888
13432SOL    HW241738   4.342   1.049  11.850
13433SOL     OW41739   4.058   1.406  12.226
13433SOL    HW141740   3.978   1.371  12.187
13433SOL    HW241741   4.095   1.463  12.158
13434SOL     OW41742   5.324   0.457  11.895
13434SOL    HW141743   5.248   0.469  11.839
13434SOL    HW241744   5.319   0.529  11.958
13435SOL     OW41745   3.945   1.717  11.636
13435SOL    HW141746   3.967   1.792  11.691
13435SOL    HW241747   4.017   1.710  11.574
13436SOL     OW41748   3.958   1.451  11.715
13436SOL    HW141749   3.939   1.545  11.709
13436SOL    HW241750   3.896   1.419  11.781
13437SOL     OW41751   4.000   1.095  12.062
13437SOL    HW141752   3.994   1.006  12.098
13437SOL    HW241753   3.942   1.147  12.118
13438SOL     OW41754   4.301   0.987  11.316
13438SOL    HW141755   4.348   1.034  11.247
13438SOL    HW241756   4.338   1.019  11.398
13439SOL     OW41757   3.853   0.658  11.736
13439SOL    HW141758   3.817   0.571  11.756
13439SOL    HW241759   3.840   0.708  11.817
13440SOL     OW41760   5.574   1.753  11.495
13440SOL    HW141761   5.642   1.731  11.558
13440SOL    HW241762   5.586   1.846  11.477
13441SOL     OW41763   3.770   1.585  11.293
13441SOL    HW141764   3.749   1.494  11.314
13441SOL    HW241765   3.740   1.635  11.369
13442SOL     OW41766   5.426   0.929  11.830
13442SOL    HW141767   5.503   0.880  11.802
13442SOL    HW241768   5.399   0.978  11.753
13443SOL     OW41769   5.377   1.102  11.606
13443SOL    HW141770   5.463   1.099  11.564
13443SOL    HW241771   5.386   1.168  11.675
13444SOL     OW41772   3.894   0.752   0.219
13444SOL    HW141773   3.875   0.725   0.309
13444SOL    HW241774   3.815   0.797   0.190
13445SOL     OW41775   4.337   1.395  11.901
13445SOL    HW141776   4.293   1.311  11.908
13445SOL    HW241777   4.320   1.424  11.811
13446SOL     OW41778   4.563   0.029  11.727
13446SOL    HW141779   4.599   0.111  11.694
13446SOL    HW241780   4.468   0.039  11.717
13447SOL     OW41781   3.920   0.997  12.426
13447SOL    HW141782   3.998   0.942  12.418
13447SOL    HW241783   3.847   0.936  12.428
13448SOL     OW41784   5.258   1.000  11.375
13448SOL    HW141785   5.189   0.940  11.404
13448SOL    HW241786   5.297   1.033  11.455
13449SOL     OW41787   5.203   1.411  12.122
13449SOL    HW141788   5.132   1.433  12.181
13449SOL    HW241789   5.181   1.324  12.088
13450SOL     OW41790   5.388   1.755  11.746
13450SOL    HW141791   5.362   1.725  11.659
13450SOL    HW241792   5.359   1.686  11.805
13451SOL     OW41793   4.319   0.721  11.447
13451SOL    HW141794   4.316   0.807  11.404
13451SOL    HW241795   4.254   0.728  11.517
13452SOL     OW41796   5.022   0.373  12.109
13452SOL    HW141797   4.931   0.343  12.106
13452SOL    HW241798   5.063   0.315  12.174
13453SOL     OW41799   5.306   1.674  11.485
13453SOL    HW141800   5.396   1.703  11.472
13453SOL    HW241801   5.271   1.663  11.397
13454SOL     OW41802   4.713   0.357  12.373
13454SOL    HW141803   4.640   0.401  12.417
13454SOL    HW241804   4.681   0.342  12.284
13455SOL     OW41805   4.790   0.691  11.584
13455SOL    HW141806   4.809   0.687  11.678
13455SOL    HW241807   4.703   0.652  11.576
13456SOL     OW41808   3.811   0.822  11.953
13456SOL    HW141809   3.892   0.819  12.002
13456SOL    HW241810   3.763   0.897  11.989
13457SOL     OW41811   4.621   0.350  11.381
13457SOL    HW141812   4.649   0.407  11.309
13457SOL    HW241813   4.578   0.276  11.337
13458SOL     OW41814   5.108   1.145  11.714
13458SOL    HW141815   5.186   1.136  11.658
13458SOL    HW241816   5.053   1.207  11.667
13459SOL     OW41817   4.289   0.239  12.095
13459SOL    HW141818   4.264   0.272  12.181
13459SOL    HW241819   4.287   0.317  12.039
13460SOL     OW41820   4.720   1.449  11.639
13460SOL    HW141821   4.691   1.522  11.584
13460SOL    HW241822   4.690   1.471  11.727
13461SOL     OW41823   4.078   1.818  12.042
13461SOL    HW141824   4.122   1.734  12.050
13461SOL    HW241825   4.146   1.883  12.063
13462SOL     OW41826   5.501   1.079  12.070
13462SOL    HW141827   5.497   1.071  11.975
13462SOL    HW241828   5.416   1.048  12.101
13463SOL     OW41829   4.032   0.960  11.430
13463SOL    HW141830   4.113   0.983  11.384
13463SOL    HW241831   4.002   0.880  11.386
13464SOL     OW41832   5.212   0.759  11.888
13464SOL    HW141833   5.205   0.718  11.974
13464SOL    HW241834   5.291   0.814  11.894
13465SOL     OW41835   4.855   1.768  11.410
13465SOL    HW141836   4.772   1.735  11.444
13465SOL    HW241837   4.877   1.708  11.338
13466SOL     OW41838   5.364   1.391  11.267
13466SOL    HW141839   5.318   1.474  11.255
13466SOL    HW241840   5.298   1.324  11.249
13467SOL     OW41841   4.188   1.737  11.488
13467SOL    HW141842   4.234   1.793  11.550
13467SOL    HW241843   4.256   1.703  11.431
13468SOL     OW41844   5.147   0.129  11.590
13468SOL    HW141845   5.157   0.070  11.515
13468SOL    HW241846   5.236   0.143  11.621
13469SOL     OW41847   3.976   1.774  12.392
13469SOL    HW141848   3.940   1.712  12.455
13469SOL    HW241849   3.928   1.756  12.311
13470SOL     OW41850   4.663   1.696  12.069
13470SOL    HW141851   4.740   1.642  12.089
13470SOL    HW241852   4.619   1.650  11.998
13471SOL     OW41853   4.128   0.686  11.649
13471SOL    HW141854   4.144   0.594  11.668
13471SOL    HW241855   4.034   0.697  11.663
13472SOL     OW41856   4.309   0.139  11.275
13472SOL    HW141857   4.383   0.091  11.313
13472SOL    HW241858   4.285   0.088  11.197
13473SOL     OW41859   4.540   1.361  12.097
13473SOL    HW141860   4.627   1.371  12.058
13473SOL    HW241861   4.480   1.381  12.025
13474SOL     OW41862   4.657   0.524  12.061
13474SOL    HW141863   4.626   0.517  11.970
13474SOL    HW241864   4.693   0.437  12.080
13475SOL     OW41865   4.308   0.027  11.590
13475SOL    HW141866   4.239  -0.019  11.637
13475SOL    HW241867   4.281   0.119  11.590
13476SOL     OW41868   5.159   1.212  11.216
13476SOL    HW141869   5.180   1.133  11.266
13476SOL    HW241870   5.071   1.235  11.243
13477SOL     OW41871   4.010   0.057  11.388
13477SOL    HW141872   4.080   0.103  11.342
13477SOL    HW241873   4.055  -0.004  11.446
13478SOL     OW41874   4.678   0.258  11.634
13478SOL    HW141875   4.653   0.289  11.548
13478SOL    HW241876   4.773   0.274  11.639
13479SOL     OW41877   4.951   1.578  11.967
13479SOL    HW141878   4.959   1.639  11.893
13479SOL    HW241879   5.001   1.620  12.037
13480SOL     OW41880   4.200   1.154  11.890
13480SOL    HW141881   4.135   1.135  11.958
13480SOL    HW241882   4.153   1.145  11.808
13481SOL     OW41883   4.984   1.790  11.785
13481SOL    HW141884   5.032   1.853  11.732
13481SOL    HW241885   4.911   1.841  11.822
13482SOL     OW41886   4.730   0.540  11.210
13482SOL    HW141887   4.682   0.615  11.175
13482SOL    HW241888   4.790   0.578  11.274
13483SOL     OW41889   4.270   0.268  12.368
13483SOL    HW141890   4.310   0.189  12.404
13483SOL    HW241891   4.177   0.261  12.392
13484SOL     OW41892   4.593   0.477  11.803
13484SOL    HW141893   4.557   0.527  11.729
13484SOL    HW241894   4.595   0.386  11.772
13485SOL     OW41895   4.724   0.033  11.943
13485SOL    HW141896   4.667   0.036  11.866
13485SOL    HW241897   4.724  -0.059  11.970
13486SOL     OW41898   5.167   1.151  12.029
13486SOL    HW141899   5.093   1.091  12.027
13486SOL    HW241900   5.189   1.165  11.937
13487SOL     OW41901   5.189   0.610  12.126
13487SOL    HW141902   5.134   0.532  12.130
13487SOL    HW241903   5.249   0.601  12.199
13488SOL     OW41904   5.556   0.804  11.563
13488SOL    HW141905   5.617   0.757  11.620
13488SOL    HW241906   5.539   0.744  11.491
13489SOL     OW41907   4.214   1.421  11.321
13489SOL    HW141908   4.140   1.391  11.375
13489SOL    HW241909   4.204   1.373  11.239
13490SOL     OW41910   5.415   1.266  11.815
13490SOL    HW141911   5.508   1.270  11.833
13490SOL    HW241912   5.383   1.355  11.834
13491SOL     OW41913   5.122   0.556  11.245
13491SOL    HW141914   5.084   0.569  11.331
13491SOL    HW241915   5.217   0.566  11.258
13492SOL     OW41916   4.223   0.282  11.487
13492SOL    HW141917   4.260   0.228  11.416
13492SOL    HW241918   4.202   0.365  11.445
13493SOL     OW41919   4.834   1.235  12.286
13493SOL    HW141920   4.749   1.250  12.329
13493SOL    HW241921   4.821   1.266  12.197
13494SOL     OW41922   5.309   1.140  12.281
13494SOL    HW141923   5.254   1.150  12.359
13494SOL    HW241924   5.248   1.145  12.207
13495SOL     OW41925   4.436   1.062  11.546
13495SOL    HW141926   4.420   1.039  11.637
13495SOL    HW241927   4.512   1.010  11.521
13496SOL     OW41928   4.158   0.829  12.441
13496SOL    HW141929   4.203   0.866  12.517
13496SOL    HW241930   4.144   0.737  12.465
13497SOL     OW41931   4.975   0.363  12.435
13497SOL    HW141932   5.001   0.450  12.465
13497SOL    HW241933   4.883   0.372  12.410
13498SOL     OW41934   4.055   1.126  11.658
13498SOL    HW141935   4.051   1.200  11.598
13498SOL    HW241936   4.053   1.049  11.601
13499SOL     OW41937   4.273   0.522  12.034
13499SOL    HW141938   4.285   0.584  11.962
13499SOL    HW241939   4.335   0.551  12.101
13500SOL     OW41940   4.969   1.350  11.570
13500SOL    HW141941   5.024   1.423  11.598
13500SOL    HW241942   4.881   1.373  11.599
13501SOL     OW41943   5.015   1.446  12.313
13501SOL    HW141944   5.056   1.450  12.399
13501SOL    HW241945   4.953   1.374  12.319
13502SOL     OW41946   5.293   0.635  11.649
13502SOL    HW141947   5.247   0.675  11.723
13502SOL    HW241948   5.342   0.707  11.610
13503SOL     OW41949   4.121   1.524  12.461
13503SOL    HW141950   4.087   1.476  12.386
13503SOL    HW241951   4.128   1.615  12.431
13504SOL     OW41952   4.306   0.871  12.212
13504SOL    HW141953   4.324   0.965  12.206
13504SOL    HW241954   4.251   0.862  12.290
13505SOL     OW41955   5.044   0.847  12.168
13505SOL    HW141956   4.954   0.823  12.144
13505SOL    HW241957   5.094   0.766  12.158
13506SOL     OW41958   4.933   0.498  11.442
13506SOL    HW141959   4.937   0.435  11.514
13506SOL    HW241960   4.890   0.575  11.479
13507SOL     OW41961   4.010   0.208  12.418
13507SOL    HW141962   3.950   0.251  12.480
13507SOL    HW241963   3.986   0.115  12.422
13508SOL     OW41964   3.788   1.323  12.433
13508SOL    HW141965   3.826   1.247  12.478
13508SOL    HW241966   3.787   1.392  12.499
13509SOL     OW41967   4.444   0.629  12.227
13509SOL    HW141968   4.516   0.621  12.165
13509SOL    HW241969   4.409   0.717  12.211
13510SOL     OW41970   4.135   0.088  11.842
13510SOL    HW141971   4.076   0.162  11.854
13510SOL    HW241972   4.089   0.029  11.783
13511SOL     OW41973   5.351   0.407  11.516
13511SOL    HW141974   5.371   0.334  11.575
13511SOL    HW241975   5.325   0.478  11.573
13512SOL     OW41976   4.762   0.760  12.146
13512SOL    HW141977   4.747   0.768  12.241
13512SOL    HW241978   4.729   0.673  12.124
13513SOL     OW41979   5.232   0.277  11.311
13513SOL    HW141980   5.267   0.190  11.327
13513SOL    HW241981   5.276   0.333  11.375
13514SOL     OW41982   5.009   0.815  11.189
13514SOL    HW141983   5.046   0.727  11.184
13514SOL    HW241984   5.040   0.859  11.111
13515SOL     OW41985   4.808   1.347  12.033
13515SOL    HW141986   4.811   1.275  11.970
13515SOL    HW241987   4.863   1.415  11.994
13516SOL     OW41988   4.034   0.819  12.114
13516SOL    HW141989   4.129   0.835  12.112
13516SOL    HW241990   4.026   0.728  12.142
13517SOL     OW41991   4.036   0.550  12.166
13517SOL    HW141992   4.007   0.459  12.167
13517SOL    HW241993   4.120   0.548  12.120
13518SOL     OW41994   4.890   0.211   0.144
13518SOL    HW141995   4.866   0.273   0.214
13518SOL    HW241996   4.923   0.266   0.074
13519SOL     OW41997   3.742   1.310  11.360
13519SOL    HW141998   3.654   1.329  11.329
13519SOL    HW241999   3.736   1.223  11.400
13520SOL     OW42000   3.821   1.778  12.123
13520SOL    HW142001   3.788   1.703  12.072
13520SOL    HW242002   3.908   1.795  12.087
13521SOL     OW42003   4.217   1.581  12.073
13521SOL    HW142004   4.287   1.639  12.100
13521SOL    HW242005   4.259   1.517  12.015
13522SOL     OW42006   4.696   0.788  12.417
13522SOL    HW142007   4.735   0.860  12.466
13522SOL    HW242008   4.602   0.802  12.425
13523SOL     OW42009   3.792   0.562  12.307
13523SOL    HW142010   3.862   0.571  12.243
13523SOL    HW242011   3.790   0.468  12.327
13524SOL     OW42012   4.544   0.580  11.541
13524SOL    HW142013   4.545   0.501  11.487
13524SOL    HW242014   4.468   0.629  11.510
13525SOL     OW42015   5.380   0.610  12.328
13525SOL    HW142016   5.370   0.562  12.409
13525SOL    HW242017   5.473   0.603  12.307
13526SOL     OW42018   4.462   0.450  12.439
13526SOL    HW142019   4.387   0.393  12.421
13526SOL    HW242020   4.453   0.522  12.377
13527SOL     OW42021   4.633   1.655   0.024
13527SOL    HW142022   4.641   1.714  -0.051
13527SOL    HW242023   4.647   1.711   0.100
13528SOL     OW42024   4.179   0.506  11.345
13528SOL    HW142025   4.236   0.578  11.371
13528SOL    HW242026   4.092   0.546  11.336
13529SOL     OW42027   5.028   1.040  12.358
13529SOL    HW142028   5.032   0.976  12.286
13529SOL    HW242029   4.963   1.104  12.330
13530SOL     OW42030   5.047   0.844  11.464
13530SOL    HW142031   4.970   0.826  11.519
13530SOL    HW242032   5.014   0.843  11.375
13531SOL     OW42033   5.470   1.734  12.299
13531SOL    HW142034   5.542   1.761  12.243
13531SOL    HW242035   5.471   1.638  12.295
13532SOL     OW42036   4.970   1.717  12.258
13532SOL    HW142037   5.055   1.750  12.227
13532SOL    HW242038   4.987   1.626  12.281
13533SOL     OW42039   3.814   1.271  12.170
13533SOL    HW142040   3.799   1.290  12.262
13533SOL    HW242041   3.746   1.208  12.147
13534SOL     OW42042   5.413   0.162  11.645
13534SOL    HW142043   5.489   0.162  11.586
13534SOL    HW242044   5.447   0.128  11.728
13535SOL     OW42045   5.119   1.569  11.665
13535SOL    HW142046   5.175   1.604  11.596
13535SOL    HW242047   5.065   1.643  11.692
13536SOL     OW42048   5.002   0.930  11.840
13536SOL    HW142049   5.077   0.871  11.851
13536SOL    HW242050   5.036   1.003  11.788
13537SOL     OW42051   4.393   1.626  11.326
13537SOL    HW142052   4.405   1.643  11.233
13537SOL    HW242053   4.336   1.549  11.330
13538SOL     OW42054   5.349   1.804   0.042
13538SOL    HW142055   5.399   1.789  -0.038
13538SOL    HW242056   5.365   1.896   0.063
13539SOL     OW42057   5.567   0.174  12.130
13539SOL    HW142058   5.579   0.079  12.118
13539SOL    HW242059   5.483   0.193  12.087
13540SOL     OW42060   3.981   0.308  11.885
13540SOL    HW142061   3.897   0.346  11.858
13540SOL    HW242062   3.982   0.318  11.980
13541SOL     OW42063   4.938   1.600  11.206
13541SOL    HW142064   4.922   1.508  11.229
13541SOL    HW242065   4.873   1.618  11.137
13542SOL     OW42066   4.514   1.016  12.481
13542SOL    HW142067   4.510   1.059  12.395
13542SOL    HW242068   4.582   1.065  12.528
13543SOL     OW42069   4.647   0.914  11.471
13543SOL    HW142070   4.704   0.945  11.400
13543SOL    HW242071   4.697   0.842  11.511
13544SOL     OW42072   5.217   1.625  11.221
13544SOL    HW142073   5.123   1.619  11.207
13544SOL    HW242074   5.254   1.634  11.133
13545SOL     OW42075   4.794   1.115  11.894
13545SOL    HW142076   4.718   1.068  11.927
13545SOL    HW242077   4.853   1.046  11.862
13546SOL     OW42078   4.763   0.262  12.097
13546SOL    HW142079   4.747   0.209  12.020
13546SOL    HW242080   4.768   0.199  12.169
13547SOL     OW42081   4.331   1.495  11.649
13547SOL    HW142082   4.379   1.443  11.585
13547SOL    HW242083   4.255   1.527  11.601
13548SOL     OW42084   5.465   0.454   0.045
13548SOL    HW142085   5.530   0.443   0.114
13548SOL    HW242086   5.483   0.382  -0.016
13549SOL     OW42087   3.998   1.337  11.478
13549SOL    HW142088   3.910   1.334  11.441
13549SOL    HW242089   3.988   1.383  11.561
13550SOL     OW42090   3.802   0.332  11.203
13550SOL    HW142091   3.711   0.319  11.177
13550SOL    HW242092   3.830   0.409  11.153
13551SOL     OW42093   3.783   0.203  11.468
13551SOL    HW142094   3.784   0.262  11.392
13551SOL    HW242095   3.858   0.145  11.453
13552SOL     OW42096   4.899   1.331  11.287
13552SOL    HW142097   4.804   1.318  11.282
13552SOL    HW242098   4.917   1.330  11.381
13553SOL     OW42099   5.218   1.783  12.154
13553SOL    HW142100   5.233   1.859  12.098
13553SOL    HW242101   5.298   1.775  12.206
13554SOL     OW42102   5.404   0.880  12.394
13554SOL    HW142103   5.384   0.791  12.367
13554SOL    HW242104   5.339   0.934  12.348
13555SOL     OW42105   4.952   0.312  11.633
13555SOL    HW142106   5.016   0.241  11.626
13555SOL    HW242107   4.978   0.361  11.711
13556SOL     OW42108   4.310   0.731  11.855
13556SOL    HW142109   4.350   0.816  11.839
13556SOL    HW242110   4.246   0.721  11.783
13557SOL     OW42111   5.559   0.896   0.113
13557SOL    HW142112   5.525   0.966   0.170
13557SOL    HW242113   5.496   0.889   0.042
13558SOL     OW42114   4.611   1.366  11.230
13558SOL    HW142115   4.558   1.392  11.305
13558SOL    HW242116   4.612   1.444  11.174
13559SOL     OW42117   4.388   1.792  12.122
13559SOL    HW142118   4.370   1.881  12.091
13559SOL    HW242119   4.482   1.781  12.107
13560SOL     OW42120   4.598   0.974  12.031
13560SOL    HW142121   4.646   0.901  12.071
13560SOL    HW242122   4.558   1.020  12.105
13561SOL     OW42123   4.806   0.983  11.265
13561SOL    HW142124   4.779   1.039  11.192
13561SOL    HW242125   4.875   0.928  11.228
13562SOL     OW42126   5.556   1.546  12.025
13562SOL    HW142127   5.486   1.549  11.960
13562SOL    HW242128   5.516   1.504  12.102
13563SOL     OW42129   3.814   1.225  11.837
13563SOL    HW142130   3.835   1.186  11.922
13563SOL    HW242131   3.882   1.191  11.778
13564SOL     OW42132   5.556   0.249  12.392
13564SOL    HW142133   5.510   0.173  12.427
13564SOL    HW242134   5.565   0.231  12.298
13565SOL     OW42135   4.164   0.426  11.713
13565SOL    HW142136   4.173   0.366  11.639
13565SOL    HW242137   4.097   0.386  11.768
13566SOL     OW42138   5.438   1.437  12.258
13566SOL    HW142139   5.352   1.435  12.217
13566SOL    HW242140   5.420   1.434  12.352
13567SOL     OW42141   4.555   1.588  11.843
13567SOL    HW142142   4.538   1.660  11.781
13567SOL    HW242143   4.478   1.532  11.835
13568SOL     OW42144   5.157   0.214  12.292
13568SOL    HW142145   5.229   0.176  12.342
13568SOL    HW242146   5.103   0.258  12.357
13569SOL     OW42147   4.748   0.067  12.283
13569SOL    HW142148   4.703   0.093  12.363
13569SOL    HW242149   4.790  -0.016  12.305
13570SOL     OW42150   4.496   1.333  11.497
13570SOL    HW142151   4.470   1.242  11.505
13570SOL    HW242152   4.579   1.339  11.545
13571SOL     OW42153   5.052   0.037  11.287
13571SOL    HW142154   5.134  -0.006  11.311
13571SOL    HW242155   4.984  -0.020  11.321
13572SOL     OW42156   5.027   0.465  11.847
13572SOL    HW142157   4.971   0.543  11.848
13572SOL    HW242158   5.023   0.432  11.937
13573SOL     OW42159   5.325   0.222  12.033
13573SOL    HW142160   5.246   0.220  12.087
13573SOL    HW242161   5.316   0.301  11.980
13574SOL     OW42162   3.765   1.061  11.486
13574SOL    HW142163   3.858   1.052  11.465
13574SOL    HW242164   3.736   0.972  11.507
13575SOL     OW42165   4.612   1.665  11.505
13575SOL    HW142166   4.537   1.649  11.448
13575SOL    HW242167   4.584   1.737  11.562
13576SOL     OW42168   3.944   2.427   0.025
13576SOL    HW142169   3.923   2.484   0.098
13576SOL    HW242170   3.991   2.482  -0.037
13577SOL     OW42171   3.948   2.145   0.991
13577SOL    HW142172   3.973   2.119   1.079
13577SOL    HW242173   3.858   2.113   0.981
13578SOL     OW42174   3.719   2.246   0.639
13578SOL    HW142175   3.644   2.276   0.690
13578SOL    HW242176   3.688   2.168   0.594
13579SOL     OW42177   4.300   3.166   1.187
13579SOL    HW142178   4.212   3.168   1.150
13579SOL    HW242179   4.314   3.253   1.223
13580SOL     OW42180   5.275   3.386   0.714
13580SOL    HW142181   5.221   3.439   0.774
13580SOL    HW242182   5.221   3.379   0.635
13581SOL     OW42183   4.859   2.564   0.691
13581SOL    HW142184   4.906   2.646   0.681
13581SOL    HW242185   4.812   2.573   0.774
13582SOL     OW42186   5.454   2.476   0.273
13582SOL    HW142187   5.459   2.479   0.177
13582SOL    HW242188   5.429   2.386   0.293
13583SOL     OW42189   4.466   2.996   1.051
13583SOL    HW142190   4.402   3.035   1.110
13583SOL    HW242191   4.506   3.071   1.007
13584SOL     OW42192   4.596   2.614   1.831
13584SOL    HW142193   4.585   2.674   1.905
13584SOL    HW242194   4.619   2.671   1.757
13585SOL     OW42195   4.409   2.853   0.645
13585SOL    HW142196   4.474   2.848   0.714
13585SOL    HW242197   4.340   2.910   0.680
13586SOL     OW42198   4.444   3.015   1.812
13586SOL    HW142199   4.485   3.093   1.851
13586SOL    HW242200   4.360   3.047   1.778
13587SOL     OW42201   4.061   3.270   1.068
13587SOL    HW142202   3.983   3.230   1.028
13587SOL    HW242203   4.097   3.325   0.998
13588SOL     OW42204   5.186   3.375   1.355
13588SOL    HW142205   5.241   3.451   1.375
13588SOL    HW242206   5.114   3.380   1.417
13589SOL     OW42207   4.185   2.241   1.453
13589SOL    HW142208   4.257   2.184   1.481
13589SOL    HW242209   4.107   2.201   1.492
13590SOL     OW42210   5.328   2.302   0.752
13590SOL    HW142211   5.282   2.333   0.675
13590SOL    HW242212   5.307   2.366   0.820
13591SOL     OW42213   3.939   3.580   0.471
13591SOL    HW142214   3.959   3.654   0.528
13591SOL    HW242215   4.018   3.569   0.417
13592SOL     OW42216   4.864   3.207   1.690
13592SOL    HW142217   4.900   3.210   1.779
13592SOL    HW242218   4.809   3.129   1.689
13593SOL     OW42219   3.947   3.313   0.546
13593SOL    HW142220   3.929   3.407   0.545
13593SOL    HW242221   3.891   3.278   0.615
13594SOL     OW42222   4.001   2.953   0.892
13594SOL    HW142223   3.992   2.865   0.927
13594SOL    HW242224   3.942   3.007   0.946
13595SOL     OW42225   4.319   3.654   1.418
13595SOL    HW142226   4.243   3.631   1.472
13595SOL    HW242227   4.348   3.738   1.452
13596SOL     OW42228   4.303   2.822   0.147
13596SOL    HW142229   4.371   2.841   0.082
13596SOL    HW242230   4.332   2.869   0.225
13597SOL     OW42231   5.320   1.993   1.462
13597SOL    HW142232   5.349   2.074   1.420
13597SOL    HW242233   5.295   2.021   1.551
13598SOL     OW42234   3.843   2.510   0.565
13598SOL    HW142235   3.812   2.422   0.589
13598SOL    HW242236   3.836   2.561   0.646
13599SOL     OW42237   5.582   3.598   0.311
13599SOL    HW142238   5.650   3.575   0.375
13599SOL    HW242239   5.594   3.692   0.296
13600SOL     OW42240   3.759   3.383   0.131
13600SOL    HW142241   3.671   3.347   0.121
13600SOL    HW242242   3.748   3.460   0.187
13601SOL     OW42243   5.410   2.797   0.656
13601SOL    HW142244   5.478   2.749   0.608
13601SOL    HW242245   5.376   2.860   0.592
13602SOL     OW42246   5.367   2.978   0.439
13602SOL    HW142247   5.453   2.976   0.397
13602SOL    HW242248   5.376   3.043   0.509
13603SOL     OW42249   3.855   2.615   1.578
13603SOL    HW142250   3.947   2.640   1.589
13603SOL    HW242251   3.807   2.694   1.601
13604SOL     OW42252   4.347   3.253   0.735
13604SOL    HW142253   4.301   3.170   0.745
13604SOL    HW242254   4.329   3.279   0.644
13605SOL     OW42255   5.018   3.103   1.405
13605SOL    HW142256   5.057   3.031   1.356
13605SOL    HW242257   5.059   3.099   1.491
13606SOL     OW42258   4.548   1.871   0.531
13606SOL    HW142259   4.586   1.953   0.502
13606SOL    HW242260   4.453   1.887   0.531
13607SOL     OW42261   3.914   2.825   1.279
13607SOL    HW142262   3.999   2.784   1.265
13607SOL    HW242263   3.853   2.770   1.230
13608SOL     OW42264   5.221   2.874   0.229
13608SOL    HW142265   5.159   2.814   0.268
13608SOL    HW242266   5.276   2.904   0.301
13609SOL     OW42267   4.930   3.694   1.629
13609SOL    HW142268   4.922   3.753   1.554
13609SOL    HW242269   4.944   3.608   1.591
13610SOL     OW42270   4.077   2.118   1.811
13610SOL    HW142271   4.121   2.190   1.857
13610SOL    HW242272   3.986   2.124   1.840
13611SOL     OW42273   5.377   3.625   0.579
13611SOL    HW142274   5.353   3.590   0.494
13611SOL    HW242275   5.368   3.551   0.639
13612SOL     OW42276   4.301   2.570   0.275
13612SOL    HW142277   4.310   2.657   0.238
13612SOL    HW242278   4.238   2.580   0.347
13613SOL     OW42279   5.007   2.239   0.937
13613SOL    HW142280   4.917   2.206   0.944
13613SOL    HW242281   5.058   2.182   0.995
13614SOL     OW42282   5.316   3.535   0.326
13614SOL    HW142283   5.411   3.545   0.318
13614SOL    HW242284   5.283   3.547   0.236
13615SOL     OW42285   4.522   2.477   1.443
13615SOL    HW142286   4.493   2.454   1.531
13615SOL    HW242287   4.487   2.408   1.387
13616SOL     OW42288   5.116   2.335   1.681
13616SOL    HW142289   5.118   2.381   1.765
13616SOL    HW242290   5.175   2.261   1.694
13617SOL     OW42291   4.669   2.747   1.591
13617SOL    HW142292   4.727   2.683   1.550
13617SOL    HW242293   4.622   2.787   1.518
13618SOL     OW42294   4.724   2.265   1.227
13618SOL    HW142295   4.636   2.286   1.258
13618SOL    HW242296   4.711   2.232   1.138
13619SOL     OW42297   4.780   2.564   0.424
13619SOL    HW142298   4.797   2.559   0.518
13619SOL    HW242299   4.694   2.523   0.414
13620SOL     OW42300   3.816   2.677   0.778
13620SOL    HW142301   3.895   2.675   0.832
13620SOL    HW242302   3.766   2.752   0.811
13621SOL     OW42303   3.844   3.720   1.586
13621SOL    HW142304   3.856   3.700   1.678
13621SOL    HW242305   3.749   3.719   1.574
13622SOL     OW42306   4.616   2.221   0.220
13622SOL    HW142307   4.646   2.288   0.159
13622SOL    HW242308   4.598   2.145   0.165
13623SOL     OW42309   5.429   2.423   1.830
13623SOL    HW142310   5.394   2.499   1.784
13623SOL    HW242311   5.456   2.363   1.761
13624SOL     OW42312   5.104   3.006   0.534
13624SOL    HW142313   5.185   2.999   0.484
13624SOL    HW242314   5.049   3.066   0.483
13625SOL     OW42315   4.272   2.029   0.910
13625SOL    HW142316   4.275   2.058   1.001
13625SOL    HW242317   4.271   2.110   0.859
13626SOL     OW42318   4.718   3.306   0.479
13626SOL    HW142319   4.691   3.376   0.421
13626SOL    HW242320   4.676   3.326   0.563
13627SOL     OW42321   4.073   3.678   0.875
13627SOL    HW142322   4.119   3.594   0.881
13627SOL    HW242323   4.139   3.743   0.899
13628SOL     OW42324   5.523   2.915   0.888
13628SOL    HW142325   5.476   2.892   0.808
13628SOL    HW242326   5.454   2.924   0.954
13629SOL     OW42327   4.947   3.408   1.499
13629SOL    HW142328   4.933   3.341   1.566
13629SOL    HW242329   4.859   3.439   1.478
13630SOL     OW42330   4.040   2.841   0.266
13630SOL    HW142331   4.116   2.855   0.209
13630SOL    HW242332   4.002   2.759   0.236
13631SOL     OW42333   5.206   2.621   0.720
13631SOL    HW142334   5.206   2.577   0.805
13631SOL    HW242335   5.284   2.676   0.721
13632SOL     OW42336   4.202   3.119   1.722
13632SOL    HW142337   4.171   3.127   1.632
13632SOL    HW242338   4.122   3.119   1.775
13633SOL     OW42339   4.816   3.650   0.243
13633SOL    HW142340   4.756   3.599   0.298
13633SOL    HW242341   4.866   3.584   0.194
13634SOL     OW42342   3.927   2.147   1.514
13634SOL    HW142343   3.858   2.213   1.522
13634SOL    HW242344   3.928   2.102   1.598
13635SOL     OW42345   5.380   3.272   0.079
13635SOL    HW142346   5.313   3.337   0.055
13635SOL    HW242347   5.333   3.189   0.081
13636SOL     OW42348   4.179   3.589   0.332
13636SOL    HW142349   4.225   3.649   0.391
13636SOL    HW242350   4.247   3.554   0.275
13637SOL     OW42351   5.127   1.959   0.450
13637SOL    HW142352   5.121   1.924   0.361
13637SOL    HW242353   5.220   1.970   0.465
13638SOL     OW42354   3.973   3.654   1.231
13638SOL    HW142355   4.024   3.591   1.282
13638SOL    HW242356   3.974   3.619   1.142
13639SOL     OW42357   4.655   3.560   0.900
13639SOL    HW142358   4.667   3.497   0.970
13639SOL    HW242359   4.624   3.507   0.826
13640SOL     OW42360   4.114   2.552   0.479
13640SOL    HW142361   4.132   2.459   0.490
13640SOL    HW242362   4.023   2.563   0.509
13641SOL     OW42363   5.250   2.085   1.722
13641SOL    HW142364   5.267   2.103   1.814
13641SOL    HW242365   5.175   2.025   1.723
13642SOL     OW42366   4.356   1.984   0.118
13642SOL    HW142367   4.449   1.962   0.117
13642SOL    HW242368   4.340   2.026   0.033
13643SOL     OW42369   4.480   2.136   1.748
13643SOL    HW142370   4.564   2.090   1.750
13643SOL    HW242371   4.441   2.118   1.834
13644SOL     OW42372   4.609   3.387   1.168
13644SOL    HW142373   4.578   3.329   1.099
13644SOL    HW242374   4.667   3.333   1.221
13645SOL     OW42375   5.062   2.450   1.437
13645SOL    HW142376   5.092   2.421   1.522
13645SOL    HW242377   5.097   2.539   1.428
13646SOL     OW42378   4.556   3.237   0.938
13646SOL    HW142379   4.635   3.233   0.885
13646SOL    HW242380   4.485   3.248   0.875
13647SOL     OW42381   4.658   2.373   0.895
13647SOL    HW142382   4.630   2.364   0.804
13647SOL    HW242383   4.685   2.285   0.921
13648SOL     OW42384   4.279   1.918   0.504
13648SOL    HW142385   4.198   1.919   0.556
13648SOL    HW242386   4.273   1.995   0.449
13649SOL     OW42387   5.187   3.080   0.053
13649SOL    HW142388   5.199   3.001   0.104
13649SOL    HW242389   5.095   3.103   0.065
13650SOL     OW42390   4.032   1.935   0.206
13650SOL    HW142391   4.110   1.988   0.194
13650SOL    HW242392   4.065   1.850   0.236
13651SOL     OW42393   4.670   2.109   0.464
13651SOL    HW142394   4.643   2.147   0.380
13651SOL    HW242395   4.764   2.123   0.468
13652SOL     OW42396   4.804   2.555   1.449
13652SOL    HW142397   4.736   2.489   1.462
13652SOL    HW242398   4.886   2.505   1.452
13653SOL     OW42399   5.001   3.448   0.822
13653SOL    HW142400   4.995   3.505   0.746
13653SOL    HW242401   4.977   3.504   0.896
13654SOL     OW42402   4.204   3.018   0.725
13654SOL    HW142403   4.139   2.997   0.793
13654SOL    HW242404   4.156   3.011   0.643
13655SOL     OW42405   4.985   3.645   0.620
13655SOL    HW142406   5.032   3.710   0.568
13655SOL    HW242407   4.911   3.693   0.657
13656SOL     OW42408   4.744   2.411   0.065
13656SOL    HW142409   4.729   2.493   0.018
13656SOL    HW242410   4.813   2.432   0.128
13657SOL     OW42411   3.808   2.419   1.393
13657SOL    HW142412   3.900   2.418   1.368
13657SOL    HW242413   3.801   2.489   1.457
13658SOL     OW42414   4.276   2.089   1.180
13658SOL    HW142415   4.318   2.038   1.250
13658SOL    HW242416   4.185   2.094   1.207
13659SOL     OW42417   4.590   2.320   0.637
13659SOL    HW142418   4.548   2.377   0.573
13659SOL    HW242419   4.612   2.241   0.587
13660SOL     OW42420   4.748   1.913   0.742
13660SOL    HW142421   4.683   1.912   0.672
13660SOL    HW242422   4.721   1.841   0.800
13661SOL     OW42423   5.124   3.047   0.830
13661SOL    HW142424   5.086   2.960   0.838
13661SOL    HW242425   5.169   3.047   0.746
13662SOL     OW42426   5.191   2.470   0.957
13662SOL    HW142427   5.128   2.399   0.966
13662SOL    HW242428   5.245   2.465   1.035
13663SOL     OW42429   5.553   2.686   0.431
13663SOL    HW142430   5.604   2.621   0.479
13663SOL    HW242431   5.510   2.637   0.361
13664SOL     OW42432   4.217   3.263   0.177
13664SOL    HW142433   4.148   3.221   0.228
13664SOL    HW242434   4.171   3.304   0.104
13665SOL     OW42435   5.393   3.133   0.655
13665SOL    HW142436   5.488   3.130   0.669
13665SOL    HW242437   5.367   3.222   0.682
13666SOL     OW42438   5.117   2.414   0.080
13666SOL    HW142439   5.064   2.407   0.159
13666SOL    HW242440   5.191   2.355   0.095
13667SOL     OW42441   4.254   2.120   0.327
13667SOL    HW142442   4.302   2.072   0.259
13667SOL    HW242443   4.227   2.202   0.284
13668SOL     OW42444   5.467   3.104   1.548
13668SOL    HW142445   5.555   3.066   1.545
13668SOL    HW242446   5.480   3.192   1.583
13669SOL     OW42447   4.774   3.200   1.309
13669SOL    HW142448   4.696   3.180   1.362
13669SOL    HW242449   4.848   3.177   1.366
13670SOL     OW42450   5.331   3.490   1.653
13670SOL    HW142451   5.331   3.528   1.565
13670SOL    HW242452   5.411   3.437   1.656
13671SOL     OW42453   4.866   3.067   1.087
13671SOL    HW142454   4.818   3.099   1.164
13671SOL    HW242455   4.813   3.093   1.012
13672SOL     OW42456   5.339   2.956   1.092
13672SOL    HW142457   5.348   3.018   1.164
13672SOL    HW242458   5.244   2.942   1.084
13673SOL     OW42459   4.651   1.943   1.389
13673SOL    HW142460   4.672   1.933   1.296
13673SOL    HW242461   4.727   1.989   1.425
13674SOL     OW42462   4.709   2.983   1.720
13674SOL    HW142463   4.621   3.002   1.752
13674SOL    HW242464   4.700   2.899   1.674
13675SOL     OW42465   4.433   2.922   0.373
13675SOL    HW142466   4.417   2.900   0.465
13675SOL    HW242467   4.511   2.873   0.350
13676SOL     OW42468   4.147   2.679   1.252
13676SOL    HW142469   4.214   2.691   1.320
13676SOL    HW242470   4.111   2.592   1.269
13677SOL     OW42471   4.989   2.236   1.284
13677SOL    HW142472   5.019   2.314   1.331
13677SOL    HW242473   4.897   2.255   1.262
13678SOL     OW42474   3.804   3.434   1.360
13678SOL    HW142475   3.785   3.522   1.327
13678SOL    HW242476   3.899   3.426   1.355
13679SOL     OW42477   4.058   2.992   0.496
13679SOL    HW142478   4.046   3.069   0.440
13679SOL    HW242479   4.062   2.918   0.435
13680SOL     OW42480   4.267   2.383   0.855
13680SOL    HW142481   4.280   2.443   0.781
13680SOL    HW242482   4.332   2.410   0.920
13681SOL     OW42483   4.962   3.209   0.398
13681SOL    HW142484   5.019   3.281   0.424
13681SOL    HW242485   4.876   3.233   0.430
13682SOL     OW42486   5.020   3.310   1.154
13682SOL    HW142487   5.084   3.331   1.222
13682SOL    HW242488   4.951   3.263   1.200
13683SOL     OW42489   5.279   2.455   0.506
13683SOL    HW142490   5.236   2.518   0.565
13683SOL    HW242491   5.319   2.510   0.438
13684SOL     OW42492   4.070   3.393   1.308
13684SOL    HW142493   4.062   3.345   1.225
13684SOL    HW242494   4.164   3.405   1.319
13685SOL     OW42495   4.159   2.590   1.613
13685SOL    HW142496   4.211   2.639   1.550
13685SOL    HW242497   4.219   2.523   1.647
13686SOL     OW42498   5.340   2.637   1.691
13686SOL    HW142499   5.254   2.680   1.688
13686SOL    HW242500   5.391   2.683   1.624
13687SOL     OW42501   4.719   2.000   1.752
13687SOL    HW142502   4.775   2.075   1.736
13687SOL    HW242503   4.772   1.924   1.728
13688SOL     OW42504   4.223   1.893   1.748
13688SOL    HW142505   4.169   1.843   1.686
13688SOL    HW242506   4.173   1.972   1.765
13689SOL     OW42507   4.310   2.736   1.036
13689SOL    HW142508   4.342   2.826   1.040
13689SOL    HW242509   4.253   2.727   1.112
13690SOL     OW42510   5.055   2.715   1.005
13690SOL    HW142511   4.966   2.694   0.977
13690SOL    HW242512   5.104   2.634   0.995
13691SOL     OW42513   4.934   2.386   0.281
13691SOL    HW142514   4.945   2.312   0.341
13691SOL    HW242515   4.888   2.452   0.333
13692SOL     OW42516   4.010   2.075   1.251
13692SOL    HW142517   3.979   2.107   1.336
13692SOL    HW242518   3.984   1.983   1.249
13693SOL     OW42519   3.775   3.176   1.269
13693SOL    HW142520   3.800   3.119   1.342
13693SOL    HW242521   3.776   3.264   1.306
13694SOL     OW42522   4.436   2.488   1.044
13694SOL    HW142523   4.516   2.483   0.992
13694SOL    HW242524   4.406   2.578   1.034
13695SOL     OW42525   5.467   2.825   1.859
13695SOL    HW142526   5.422   2.752   1.816
13695SOL    HW242527   5.410   2.848   1.932
13696SOL     OW42528   4.033   1.920   0.628
13696SOL    HW142529   4.008   2.010   0.646
13696SOL    HW242530   4.042   1.880   0.715
13697SOL     OW42531   5.336   2.230   0.361
13697SOL    HW142532   5.370   2.164   0.421
13697SOL    HW242533   5.303   2.299   0.418
13698SOL     OW42534   4.760   2.619   0.957
13698SOL    HW142535   4.744   2.635   1.050
13698SOL    HW242536   4.730   2.529   0.943
13699SOL     OW42537   4.716   3.449   1.719
13699SOL    HW142538   4.698   3.477   1.629
13699SOL    HW242539   4.728   3.354   1.712
13700SOL     OW42540   5.571   3.357   1.601
13700SOL    HW142541   5.599   3.388   1.515
13700SOL    HW242542   5.647   3.372   1.657
13701SOL     OW42543   4.076   2.781   1.801
13701SOL    HW142544   4.149   2.809   1.857
13701SOL    HW242545   4.114   2.713   1.745
13702SOL     OW42546   5.254   2.105   0.125
13702SOL    HW142547   5.184   2.050   0.159
13702SOL    HW242548   5.287   2.152   0.201
13703SOL     OW42549   5.015   2.672   0.058
13703SOL    HW142550   5.064   2.591   0.045
13703SOL    HW242551   5.053   2.733  -0.005
13704SOL     OW42552   4.824   3.208   0.838
13704SOL    HW142553   4.813   3.125   0.791
13704SOL    HW242554   4.835   3.273   0.769
13705SOL     OW42555   4.036   2.670   0.943
13705SOL    HW142556   4.129   2.692   0.943
13705SOL    HW242557   4.032   2.581   0.977
13706SOL     OW42558   4.046   2.394   1.011
13706SOL    HW142559   4.009   2.306   1.000
13706SOL    HW242560   4.123   2.395   0.954
13707SOL     OW42561   4.860   2.232   1.689
13707SOL    HW142562   4.812   2.286   1.752
13707SOL    HW242563   4.947   2.272   1.685
13708SOL     OW42564   4.888   2.058   1.474
13708SOL    HW142565   4.874   2.120   1.546
13708SOL    HW242566   4.930   2.110   1.406
13709SOL     OW42567   3.808   3.640   0.938
13709SOL    HW142568   3.781   3.561   0.891
13709SOL    HW242569   3.899   3.654   0.911
13710SOL     OW42570   4.210   3.436   0.899
13710SOL    HW142571   4.279   3.500   0.920
13710SOL    HW242572   4.253   3.372   0.842
13711SOL     OW42573   4.691   2.647   1.217
13711SOL    HW142574   4.751   2.628   1.289
13711SOL    HW242575   4.605   2.621   1.250
13712SOL     OW42576   3.764   2.412   1.119
13712SOL    HW142577   3.848   2.417   1.073
13712SOL    HW242578   3.788   2.415   1.211
13713SOL     OW42579   3.904   2.390   1.725
13713SOL    HW142580   3.993   2.386   1.691
13713SOL    HW242581   3.866   2.467   1.683
13714SOL     OW42582   5.114   2.786   1.654
13714SOL    HW142583   5.129   2.881   1.654
13714SOL    HW242584   5.108   2.764   1.561
13715SOL     OW42585   4.537   2.442   0.378
13715SOL    HW142586   4.544   2.365   0.322
13715SOL    HW242587   4.458   2.487   0.346
13716SOL     OW42588   5.363   2.462   1.170
13716SOL    HW142589   5.353   2.407   1.248
13716SOL    HW242590   5.452   2.445   1.140
13717SOL     OW42591   3.959   3.407   1.721
13717SOL    HW142592   3.940   3.475   1.786
13717SOL    HW242593   3.973   3.328   1.773
13718SOL     OW42594   4.447   2.305   1.245
13718SOL    HW142595   4.381   2.238   1.227
13718SOL    HW242596   4.434   2.370   1.176
13719SOL     OW42597   4.688   3.531   1.452
13719SOL    HW142598   4.621   3.496   1.394
13719SOL    HW242599   4.673   3.625   1.452
13720SOL     OW42600   4.179   2.336   0.186
13720SOL    HW142601   4.225   2.416   0.211
13720SOL    HW242602   4.102   2.367   0.139
13721SOL     OW42603   3.858   3.006   1.474
13721SOL    HW142604   3.859   2.958   1.557
13721SOL    HW242605   3.880   2.939   1.408
13722SOL     OW42606   5.059   2.903   1.197
13722SOL    HW142607   5.058   2.832   1.133
13722SOL    HW242608   4.988   2.961   1.169
13723SOL     OW42609   5.028   2.704   0.330
13723SOL    HW142610   4.949   2.669   0.372
13723SOL    HW242611   5.017   2.684   0.238
13724SOL     OW42612   5.474   3.606   1.133
13724SOL    HW142613   5.547   3.623   1.074
13724SOL    HW242614   5.461   3.511   1.129
13725SOL     OW42615   4.966   3.580   1.066
13725SOL    HW142616   5.055   3.611   1.049
13725SOL    HW242617   4.978   3.505   1.124
13726SOL     OW42618   3.821   3.121   1.010
13726SOL    HW142619   3.803   3.140   1.102
13726SOL    HW242620   3.745   3.071   0.981
13727SOL     OW42621   4.396   3.536   1.729
13727SOL    HW142622   4.338   3.612   1.735
13727SOL    HW242623   4.484   3.574   1.719
13728SOL     OW42624   4.629   1.957   0.097
13728SOL    HW142625   4.670   1.975   0.013
13728SOL    HW242626   4.701   1.928   0.153
13729SOL     OW42627   5.449   2.019   0.504
13729SOL    HW142628   5.518   1.996   0.442
13729SOL    HW242629   5.429   1.937   0.549
13730SOL     OW42630   5.113   3.427   0.488
13730SOL    HW142631   5.175   3.461   0.423
13730SOL    HW242632   5.063   3.503   0.515
13731SOL     OW42633   3.883   3.657   1.845
13731SOL    HW142634   3.829   3.595   1.893
13731SOL    HW242635   3.927   3.709   1.912
13732SOL     OW42636   5.001   2.796   0.670
13732SOL    HW142637   5.075   2.735   0.681
13732SOL    HW242638   5.034   2.863   0.611
13733SOL     OW42639   4.521   3.146   1.412
13733SOL    HW142640   4.498   3.187   1.495
13733SOL    HW242641   4.441   3.153   1.360
13734SOL     OW42642   4.389   3.471   0.195
13734SOL    HW142643   4.441   3.478   0.115
13734SOL    HW242644   4.340   3.390   0.185
13735SOL     OW42645   5.347   3.598   1.388
13735SOL    HW142646   5.392   3.606   1.304
13735SOL    HW242647   5.331   3.688   1.416
13736SOL     OW42648   5.567   2.029   0.961
13736SOL    HW142649   5.595   1.940   0.939
13736SOL    HW242650   5.479   2.036   0.925
13737SOL     OW42651   3.976   2.170   0.713
13737SOL    HW142652   3.890   2.206   0.691
13737SOL    HW242653   3.978   2.169   0.808
13738SOL     OW42654   4.924   3.466   0.074
13738SOL    HW142655   4.919   3.372   0.088
13738SOL    HW242656   4.875   3.480  -0.008
13739SOL     OW42657   4.548   2.874   1.378
13739SOL    HW142658   4.585   2.874   1.290
13739SOL    HW242659   4.540   2.966   1.401
13740SOL     OW42660   4.653   2.788   0.298
13740SOL    HW142661   4.709   2.811   0.224
13740SOL    HW242662   4.699   2.715   0.341
13741SOL     OW42663   5.186   3.443   0.011
13741SOL    HW142664   5.097   3.468   0.038
13741SOL    HW242665   5.235   3.525   0.013
13742SOL     OW42666   4.091   3.160   1.479
13742SOL    HW142667   4.071   3.243   1.436
13742SOL    HW242668   4.009   3.111   1.475
13743SOL     OW42669   5.319   3.128   1.309
13743SOL    HW142670   5.376   3.114   1.385
13743SOL    HW242671   5.255   3.193   1.339
13744SOL     OW42672   4.789   2.973   0.722
13744SOL    HW142673   4.715   2.921   0.754
13744SOL    HW242674   4.852   2.908   0.693
13745SOL     OW42675   4.754   2.109   0.960
13745SOL    HW142676   4.752   2.061   0.877
13745SOL    HW242677   4.747   2.040   1.027
13746SOL     OW42678   4.328   3.342   0.479
13746SOL    HW142679   4.366   3.296   0.403
13746SOL    HW242680   4.252   3.387   0.443
13747SOL     OW42681   5.451   2.256   1.374
13747SOL    HW142682   5.525   2.317   1.378
13747SOL    HW242683   5.482   2.185   1.317
13748SOL     OW42684   3.988   3.192   0.313
13748SOL    HW142685   3.911   3.213   0.260
13748SOL    HW242686   3.975   3.239   0.395
13749SOL     OW42687   3.831   2.873   1.709
13749SOL    HW142688   3.758   2.863   1.770
13749SOL    HW242689   3.909   2.850   1.760
13750SOL     OW42690   4.405   2.038   1.493
13750SOL    HW142691   4.492   2.020   1.459
13750SOL    HW242692   4.420   2.073   1.580
13751SOL     OW42693   5.147   2.718   1.389
13751SOL    HW142694   5.101   2.780   1.333
13751SOL    HW242695   5.237   2.719   1.359
13752SOL     OW42696   3.786   2.005   0.308
13752SOL    HW142697   3.780   2.099   0.290
13752SOL    HW242698   3.874   1.980   0.277
13753SOL     OW42699   4.917   3.192   0.118
13753SOL    HW142700   4.822   3.189   0.105
13753SOL    HW242701   4.929   3.184   0.213
13754SOL     OW42702   4.348   2.690   1.433
13754SOL    HW142703   4.403   2.768   1.426
13754SOL    HW242704   4.410   2.618   1.442
13755SOL     OW42705   5.227   3.637   0.980
13755SOL    HW142706   5.243   3.716   0.929
13755SOL    HW242707   5.306   3.626   1.033
13756SOL     OW42708   4.434   2.426   1.694
13756SOL    HW142709   4.479   2.485   1.754
13756SOL    HW242710   4.449   2.339   1.731
13757SOL     OW42711   5.191   3.053   1.629
13757SOL    HW142712   5.172   3.069   1.721
13757SOL    HW242713   5.284   3.075   1.619
13758SOL     OW42714   4.088   3.598   1.560
13758SOL    HW142715   4.005   3.644   1.552
13758SOL    HW242716   4.067   3.517   1.607
13759SOL     OW42717   5.391   2.734   1.256
13759SOL    HW142718   5.386   2.649   1.212
13759SOL    HW242719   5.385   2.799   1.186
13760SOL     OW42720   4.944   2.173   0.456
13760SOL    HW142721   5.005   2.100   0.455
13760SOL    HW242722   4.968   2.223   0.535
13761SOL     OW42723   4.311   2.589   0.673
13761SOL    HW142724   4.349   2.676   0.661
13761SOL    HW242725   4.243   2.584   0.605
13762SOL     OW42726   5.479   2.224   1.645
13762SOL    HW142727   5.461   2.242   1.553
13762SOL    HW242728   5.405   2.169   1.674
13763SOL     OW42729   5.470   2.794   1.512
13763SOL    HW142730   5.455   2.888   1.525
13763SOL    HW242731   5.451   2.780   1.419
13764SOL     OW42732   4.648   3.231   0.065
13764SOL    HW142733   4.589   3.213   0.139
13764SOL    HW242734   4.627   3.321   0.040
13765SOL     OW42735   4.385   3.642   0.922
13765SOL    HW142736   4.360   3.734   0.916
13765SOL    HW242737   4.480   3.643   0.922
13766SOL     OW42738   4.594   2.834   0.857
13766SOL    HW142739   4.642   2.761   0.894
13766SOL    HW242740   4.549   2.874   0.931
13767SOL     OW42741   4.811   2.850   0.078
13767SOL    HW142742   4.848   2.926   0.034
13767SOL    HW242743   4.883   2.787   0.083
13768SOL     OW42744   5.589   3.396   0.849
13768SOL    HW142745   5.498   3.386   0.819
13768SOL    HW242746   5.608   3.315   0.896
13769SOL     OW42747   3.973   3.166   1.866
13769SOL    HW142748   3.887   3.125   1.860
13769SOL    HW242749   3.984   3.187   1.959
13770SOL     OW42750   3.813   3.088   0.672
13770SOL    HW142751   3.830   3.046   0.756
13770SOL    HW242752   3.879   3.053   0.612
13771SOL     OW42753   4.408   3.280   1.620
13771SOL    HW142754   4.338   3.230   1.662
13771SOL    HW242755   4.403   3.367   1.659
13772SOL     OW42756   5.533   2.042   1.231
13772SOL    HW142757   5.542   1.948   1.246
13772SOL    HW242758   5.546   2.053   1.137
13773SOL     OW42759   4.147   2.292   0.526
13773SOL    HW142760   4.185   2.222   0.474
13773SOL    HW242761   4.099   2.247   0.595
13774SOL     OW42762   5.418   3.340   1.132
13774SOL    HW142763   5.344   3.323   1.190
13774SOL    HW242764   5.484   3.276   1.157
13775SOL     OW42765   4.060   2.422   1.292
13775SOL    HW142766   4.114   2.363   1.344
13775SOL    HW242767   4.075   2.394   1.201
13776SOL     OW42768   4.562   3.429   0.678
13776SOL    HW142769   4.539   3.501   0.619
13776SOL    HW242770   4.483   3.376   0.684
13777SOL     OW42771   5.153   2.095   1.120
13777SOL    HW142772   5.180   2.018   1.169
13777SOL    HW242773   5.101   2.146   1.182
13778SOL     OW42774   4.736   1.878   1.123
13778SOL    HW142775   4.684   1.815   1.073
13778SOL    HW242776   4.823   1.839   1.127
13779SOL     OW42777   4.517   3.181   0.306
13779SOL    HW142778   4.477   3.096   0.324
13779SOL    HW242779   4.584   3.190   0.374
13780SOL     OW42780   4.349   3.421   1.279
13780SOL    HW142781   4.343   3.502   1.331
13780SOL    HW242782   4.437   3.424   1.241
13781SOL     OW42783   5.088   1.882   0.189
13781SOL    HW142784   5.100   1.860   0.096
13781SOL    HW242785   5.001   1.922   0.193
13782SOL     OW42786   5.006   2.322   0.673
13782SOL    HW142787   4.959   2.406   0.678
13782SOL    HW242788   5.011   2.293   0.764
13783SOL     OW42789   5.304   2.052   0.888
13783SOL    HW142790   5.251   2.079   0.963
13783SOL    HW242791   5.304   2.128   0.830
13784SOL     OW42792   3.760   2.938   0.334
13784SOL    HW142793   3.853   2.945   0.313
13784SOL    HW242794   3.751   2.853   0.376
13785SOL     OW42795   4.604   3.522   0.359
13785SOL    HW142796   4.524   3.502   0.311
13785SOL    HW242797   4.581   3.598   0.413
13786SOL     OW42798   3.941   2.467   1.996
13786SOL    HW142799   3.858   2.470   2.045
13786SOL    HW242800   3.915   2.458   1.905
13787SOL     OW42801   3.952   2.138   2.851
13787SOL    HW142802   3.975   2.112   2.940
13787SOL    HW242803   3.861   2.112   2.840
13788SOL     OW42804   3.715   2.246   2.499
13788SOL    HW142805   3.642   2.283   2.550
13788SOL    HW242806   3.679   2.168   2.458
13789SOL     OW42807   5.287   3.380   2.575
13789SOL    HW142808   5.248   3.366   2.661
13789SOL    HW242809   5.212   3.388   2.516
13790SOL     OW42810   4.860   2.553   2.551
13790SOL    HW142811   4.906   2.635   2.535
13790SOL    HW242812   4.815   2.567   2.635
13791SOL     OW42813   5.527   2.446   2.080
13791SOL    HW142814   5.490   2.443   1.992
13791SOL    HW242815   5.474   2.385   2.131
13792SOL     OW42816   4.440   2.973   2.881
13792SOL    HW142817   4.361   3.020   2.910
13792SOL    HW242818   4.488   3.037   2.829
13793SOL     OW42819   4.592   2.615   3.695
13793SOL    HW142820   4.572   2.668   3.772
13793SOL    HW242821   4.610   2.678   3.625
13794SOL     OW42822   4.392   2.879   2.509
13794SOL    HW142823   4.463   2.871   2.573
13794SOL    HW242824   4.348   2.960   2.533
13795SOL     OW42825   4.443   3.022   3.662
13795SOL    HW142826   4.489   3.100   3.693
13795SOL    HW242827   4.357   3.053   3.636
13796SOL     OW42828   5.185   3.367   3.224
13796SOL    HW142829   5.233   3.449   3.235
13796SOL    HW242830   5.111   3.373   3.284
13797SOL     OW42831   4.183   2.231   3.307
13797SOL    HW142832   4.255   2.179   3.343
13797SOL    HW242833   4.105   2.198   3.352
13798SOL     OW42834   5.316   2.301   2.613
13798SOL    HW142835   5.240   2.314   2.556
13798SOL    HW242836   5.306   2.368   2.681
13799SOL     OW42837   3.943   3.568   2.326
13799SOL    HW142838   3.952   3.643   2.386
13799SOL    HW242839   4.024   3.568   2.275
13800SOL     OW42840   4.877   3.188   3.566
13800SOL    HW142841   4.904   3.191   3.658
13800SOL    HW242842   4.820   3.111   3.560
13801SOL     OW42843   3.938   3.298   2.398
13801SOL    HW142844   3.931   3.392   2.382
13801SOL    HW242845   4.009   3.290   2.462
13802SOL     OW42846   4.308   2.847   1.993
13802SOL    HW142847   4.360   2.896   1.929
13802SOL    HW242848   4.339   2.878   2.078
13803SOL     OW42849   5.322   1.992   3.332
13803SOL    HW142850   5.353   2.075   3.296
13803SOL    HW242851   5.286   2.014   3.418
13804SOL     OW42852   3.840   2.519   2.414
13804SOL    HW142853   3.809   2.433   2.441
13804SOL    HW242854   3.833   2.573   2.493
13805SOL     OW42855   5.569   3.607   2.179
13805SOL    HW142856   5.625   3.581   2.252
13805SOL    HW242857   5.582   3.701   2.170
13806SOL     OW42858   3.759   3.451   1.969
13806SOL    HW142859   3.747   3.358   1.990
13806SOL    HW242860   3.738   3.497   2.050
13807SOL     OW42861   5.403   2.772   2.490
13807SOL    HW142862   5.495   2.749   2.479
13807SOL    HW242863   5.386   2.834   2.419
13808SOL     OW42864   5.383   2.968   2.289
13808SOL    HW142865   5.470   2.968   2.250
13808SOL    HW242866   5.387   3.035   2.358
13809SOL     OW42867   3.846   2.614   3.435
13809SOL    HW142868   3.934   2.648   3.450
13809SOL    HW242869   3.788   2.687   3.458
13810SOL     OW42870   5.006   3.080   3.288
13810SOL    HW142871   5.050   3.024   3.224
13810SOL    HW242872   5.065   3.082   3.363
13811SOL     OW42873   4.544   1.863   2.371
13811SOL    HW142874   4.586   1.946   2.350
13811SOL    HW242875   4.451   1.883   2.379
13812SOL     OW42876   3.918   2.824   3.139
13812SOL    HW142877   4.000   2.778   3.122
13812SOL    HW242878   3.855   2.784   3.078
13813SOL     OW42879   5.261   2.867   2.061
13813SOL    HW142880   5.193   2.807   2.093
13813SOL    HW242881   5.301   2.902   2.140
13814SOL     OW42882   5.017   3.675   3.506
13814SOL    HW142883   4.930   3.710   3.526
13814SOL    HW242884   5.001   3.583   3.484
13815SOL     OW42885   4.080   2.116   3.677
13815SOL    HW142886   4.119   2.193   3.717
13815SOL    HW242887   3.987   2.121   3.700
13816SOL     OW42888   5.206   3.269   2.819
13816SOL    HW142889   5.133   3.289   2.878
13816SOL    HW242890   5.186   3.183   2.784
13817SOL     OW42891   5.383   3.623   2.435
13817SOL    HW142892   5.348   3.579   2.358
13817SOL    HW242893   5.357   3.567   2.508
13818SOL     OW42894   4.318   2.569   2.133
13818SOL    HW142895   4.330   2.658   2.100
13818SOL    HW242896   4.253   2.578   2.203
13819SOL     OW42897   5.009   2.231   2.796
13819SOL    HW142898   4.918   2.203   2.804
13819SOL    HW242899   5.057   2.175   2.858
13820SOL     OW42900   5.297   3.544   2.170
13820SOL    HW142901   5.391   3.565   2.165
13820SOL    HW242902   5.272   3.524   2.080
13821SOL     OW42903   4.535   2.468   3.310
13821SOL    HW142904   4.497   2.450   3.396
13821SOL    HW242905   4.490   2.408   3.251
13822SOL     OW42906   5.126   2.337   3.545
13822SOL    HW142907   5.120   2.378   3.631
13822SOL    HW242908   5.166   2.252   3.561
13823SOL     OW42909   4.663   2.750   3.447
13823SOL    HW142910   4.723   2.687   3.407
13823SOL    HW242911   4.624   2.796   3.372
13824SOL     OW42912   4.724   2.264   3.096
13824SOL    HW142913   4.641   2.291   3.137
13824SOL    HW242914   4.702   2.248   3.005
13825SOL     OW42915   4.777   2.555   2.284
13825SOL    HW142916   4.796   2.554   2.377
13825SOL    HW242917   4.692   2.512   2.276
13826SOL     OW42918   3.815   2.668   2.639
13826SOL    HW142919   3.897   2.668   2.689
13826SOL    HW242920   3.761   2.735   2.680
13827SOL     OW42921   4.624   2.203   2.048
13827SOL    HW142922   4.659   2.273   1.993
13827SOL    HW242923   4.665   2.123   2.015
13828SOL     OW42924   5.426   2.450   3.652
13828SOL    HW142925   5.391   2.535   3.624
13828SOL    HW242926   5.386   2.387   3.592
13829SOL     OW42927   5.104   3.008   2.409
13829SOL    HW142928   5.185   3.016   2.357
13829SOL    HW242929   5.044   3.071   2.370
13830SOL     OW42930   4.277   2.035   2.772
13830SOL    HW142931   4.277   2.058   2.865
13830SOL    HW242932   4.274   2.119   2.726
13831SOL     OW42933   4.711   3.305   2.323
13831SOL    HW142934   4.695   3.386   2.274
13831SOL    HW242935   4.666   3.319   2.406
13832SOL     OW42936   4.161   3.660   2.645
13832SOL    HW142937   4.205   3.578   2.668
13832SOL    HW242938   4.191   3.723   2.711
13833SOL     OW42939   5.517   2.898   2.726
13833SOL    HW142940   5.450   2.897   2.658
13833SOL    HW242941   5.470   2.920   2.806
13834SOL     OW42942   4.959   3.391   3.377
13834SOL    HW142943   4.946   3.321   3.441
13834SOL    HW242944   4.871   3.410   3.344
13835SOL     OW42945   4.064   2.809   2.121
13835SOL    HW142946   4.144   2.825   2.070
13835SOL    HW242947   4.025   2.731   2.081
13836SOL     OW42948   5.204   2.604   2.572
13836SOL    HW142949   5.203   2.574   2.663
13836SOL    HW242950   5.278   2.664   2.568
13837SOL     OW42951   4.196   3.139   3.612
13837SOL    HW142952   4.151   3.149   3.529
13837SOL    HW242953   4.126   3.126   3.676
13838SOL     OW42954   4.854   3.654   2.073
13838SOL    HW142955   4.780   3.624   2.125
13838SOL    HW242956   4.876   3.579   2.017
13839SOL     OW42957   3.921   2.144   3.376
13839SOL    HW142958   3.863   2.220   3.373
13839SOL    HW242959   3.926   2.121   3.469
13840SOL     OW42960   5.352   3.241   1.939
13840SOL    HW142961   5.311   3.327   1.937
13840SOL    HW242962   5.280   3.180   1.927
13841SOL     OW42963   4.185   3.602   2.185
13841SOL    HW142964   4.225   3.664   2.246
13841SOL    HW242965   4.221   3.517   2.211
13842SOL     OW42966   5.124   1.969   2.312
13842SOL    HW142967   5.120   1.947   2.219
13842SOL    HW242968   5.217   1.983   2.330
13843SOL     OW42969   4.124   2.554   2.329
13843SOL    HW142970   4.131   2.460   2.348
13843SOL    HW242971   4.033   2.576   2.347
13844SOL     OW42972   5.239   2.080   3.592
13844SOL    HW142973   5.255   2.096   3.685
13844SOL    HW242974   5.161   2.023   3.591
13845SOL     OW42975   4.367   1.978   1.966
13845SOL    HW142976   4.430   1.909   1.987
13845SOL    HW242977   4.316   1.943   1.893
13846SOL     OW42978   4.482   2.130   3.614
13846SOL    HW142979   4.566   2.085   3.618
13846SOL    HW242980   4.455   2.139   3.706
13847SOL     OW42981   5.067   2.445   3.294
13847SOL    HW142982   5.096   2.423   3.383
13847SOL    HW242983   5.093   2.537   3.283
13848SOL     OW42984   4.666   2.365   2.762
13848SOL    HW142985   4.633   2.359   2.673
13848SOL    HW242986   4.691   2.276   2.785
13849SOL     OW42987   4.276   1.923   2.354
13849SOL    HW142988   4.201   1.924   2.414
13849SOL    HW242989   4.265   2.001   2.299
13850SOL     OW42990   5.142   3.064   1.900
13850SOL    HW142991   5.173   2.993   1.956
13850SOL    HW242992   5.060   3.093   1.940
13851SOL     OW42993   4.020   1.912   2.050
13851SOL    HW142994   4.078   1.988   2.052
13851SOL    HW242995   4.070   1.843   2.095
13852SOL     OW42996   4.663   2.108   2.312
13852SOL    HW142997   4.637   2.151   2.230
13852SOL    HW242998   4.756   2.129   2.322
13853SOL     OW42999   4.801   2.554   3.312
13853SOL    HW143000   4.723   2.500   3.321
13853SOL    HW243001   4.874   2.493   3.317
13854SOL     OW43002   4.938   3.418   2.662
13854SOL    HW143003   4.954   3.489   2.600
13854SOL    HW243004   4.878   3.456   2.727
13855SOL     OW43005   4.983   3.644   2.462
13855SOL    HW143006   5.020   3.724   2.424
13855SOL    HW243007   4.907   3.674   2.512
13856SOL     OW43008   4.749   2.390   1.888
13856SOL    HW143009   4.703   2.472   1.872
13856SOL    HW243010   4.809   2.410   1.960
13857SOL     OW43011   3.805   2.416   3.251
13857SOL    HW143012   3.898   2.418   3.228
13857SOL    HW243013   3.795   2.487   3.315
13858SOL     OW43014   4.274   2.083   3.044
13858SOL    HW143015   4.317   2.042   3.119
13858SOL    HW243016   4.182   2.089   3.069
13859SOL     OW43017   4.588   2.314   2.505
13859SOL    HW143018   4.537   2.378   2.455
13859SOL    HW243019   4.604   2.243   2.444
13860SOL     OW43020   4.758   1.908   2.602
13860SOL    HW143021   4.689   1.916   2.536
13860SOL    HW243022   4.726   1.840   2.662
13861SOL     OW43023   5.164   3.014   2.717
13861SOL    HW143024   5.075   2.987   2.743
13861SOL    HW243025   5.159   3.024   2.622
13862SOL     OW43026   5.188   2.466   2.817
13862SOL    HW143027   5.124   2.396   2.830
13862SOL    HW243028   5.241   2.464   2.897
13863SOL     OW43029   5.578   2.668   2.235
13863SOL    HW143030   5.630   2.621   2.301
13863SOL    HW243031   5.554   2.600   2.172
13864SOL     OW43032   4.227   3.284   2.001
13864SOL    HW143033   4.161   3.274   2.071
13864SOL    HW243034   4.193   3.231   1.929
13865SOL     OW43035   5.407   3.141   2.489
13865SOL    HW143036   5.499   3.146   2.516
13865SOL    HW243037   5.367   3.221   2.523
13866SOL     OW43038   5.114   2.436   1.934
13866SOL    HW143039   5.049   2.417   2.002
13866SOL    HW243040   5.198   2.426   1.978
13867SOL     OW43041   4.233   2.116   2.164
13867SOL    HW143042   4.294   2.079   2.099
13867SOL    HW243043   4.213   2.204   2.131
13868SOL     OW43044   5.472   3.101   3.407
13868SOL    HW143045   5.562   3.069   3.397
13868SOL    HW243046   5.483   3.189   3.444
13869SOL     OW43047   4.784   3.196   3.183
13869SOL    HW143048   4.708   3.177   3.237
13869SOL    HW243049   4.858   3.162   3.233
13870SOL     OW43050   5.336   3.477   3.521
13870SOL    HW143051   5.327   3.521   3.436
13870SOL    HW243052   5.419   3.430   3.515
13871SOL     OW43053   4.830   3.025   2.972
13871SOL    HW143054   4.808   3.090   3.039
13871SOL    HW243055   4.828   3.073   2.889
13872SOL     OW43056   5.354   2.967   2.939
13872SOL    HW143057   5.347   3.032   3.009
13872SOL    HW243058   5.279   2.983   2.883
13873SOL     OW43059   4.654   1.942   3.256
13873SOL    HW143060   4.672   1.937   3.162
13873SOL    HW243061   4.728   1.991   3.292
13874SOL     OW43062   4.712   2.970   3.595
13874SOL    HW143063   4.623   2.995   3.619
13874SOL    HW243064   4.700   2.892   3.540
13875SOL     OW43065   4.423   2.913   2.234
13875SOL    HW143066   4.408   2.905   2.328
13875SOL    HW243067   4.499   2.858   2.217
13876SOL     OW43068   4.149   2.676   3.113
13876SOL    HW143069   4.217   2.689   3.180
13876SOL    HW243070   4.112   2.590   3.132
13877SOL     OW43071   4.989   2.235   3.142
13877SOL    HW143072   5.020   2.313   3.189
13877SOL    HW243073   4.898   2.253   3.122
13878SOL     OW43074   4.006   2.975   2.329
13878SOL    HW143075   4.082   2.998   2.383
13878SOL    HW243076   4.041   2.914   2.264
13879SOL     OW43077   4.272   2.382   2.706
13879SOL    HW143078   4.282   2.446   2.636
13879SOL    HW243079   4.333   2.410   2.774
13880SOL     OW43080   4.964   3.215   2.258
13880SOL    HW143081   5.018   3.287   2.291
13880SOL    HW243082   4.877   3.234   2.292
13881SOL     OW43083   5.019   3.291   3.014
13881SOL    HW143084   5.072   3.324   3.087
13881SOL    HW243085   4.931   3.282   3.051
13882SOL     OW43086   5.302   2.488   2.338
13882SOL    HW143087   5.252   2.515   2.415
13882SOL    HW243088   5.339   2.570   2.304
13883SOL     OW43089   4.162   2.586   3.478
13883SOL    HW143090   4.208   2.639   3.414
13883SOL    HW243091   4.230   2.529   3.514
13884SOL     OW43092   5.330   2.669   3.543
13884SOL    HW143093   5.243   2.706   3.536
13884SOL    HW243094   5.381   2.711   3.473
13885SOL     OW43095   4.726   2.001   3.621
13885SOL    HW143096   4.779   2.078   3.601
13885SOL    HW243097   4.782   1.927   3.598
13886SOL     OW43098   4.219   1.891   3.608
13886SOL    HW143099   4.163   1.846   3.544
13886SOL    HW243100   4.172   1.971   3.628
13887SOL     OW43101   4.310   2.727   2.894
13887SOL    HW143102   4.349   2.814   2.892
13887SOL    HW243103   4.253   2.727   2.971
13888SOL     OW43104   5.059   2.713   2.871
13888SOL    HW143105   4.967   2.700   2.848
13888SOL    HW243106   5.100   2.628   2.856
13889SOL     OW43107   4.916   2.386   2.119
13889SOL    HW143108   4.926   2.311   2.178
13889SOL    HW243109   4.877   2.454   2.174
13890SOL     OW43110   4.006   2.061   3.111
13890SOL    HW143111   3.974   2.095   3.195
13890SOL    HW243112   3.989   1.966   3.116
13891SOL     OW43113   3.745   3.158   3.186
13891SOL    HW143114   3.788   3.093   3.241
13891SOL    HW243115   3.814   3.218   3.161
13892SOL     OW43116   4.432   2.483   2.903
13892SOL    HW143117   4.518   2.489   2.861
13892SOL    HW243118   4.397   2.572   2.898
13893SOL     OW43119   5.473   2.811   3.732
13893SOL    HW143120   5.417   2.763   3.670
13893SOL    HW243121   5.414   2.838   3.802
13894SOL     OW43122   4.035   1.921   2.487
13894SOL    HW143123   4.007   2.011   2.505
13894SOL    HW243124   4.042   1.880   2.574
13895SOL     OW43125   5.352   2.252   2.215
13895SOL    HW143126   5.375   2.187   2.282
13895SOL    HW243127   5.325   2.329   2.264
13896SOL     OW43128   4.769   2.612   2.816
13896SOL    HW143129   4.751   2.634   2.908
13896SOL    HW243130   4.737   2.523   2.806
13897SOL     OW43131   4.736   3.428   3.574
13897SOL    HW143132   4.697   3.439   3.487
13897SOL    HW243133   4.748   3.334   3.584
13898SOL     OW43134   5.580   3.350   3.469
13898SOL    HW143135   5.597   3.385   3.381
13898SOL    HW243136   5.657   3.375   3.520
13899SOL     OW43137   4.087   2.794   3.657
13899SOL    HW143138   4.144   2.797   3.734
13899SOL    HW243139   4.118   2.717   3.608
13900SOL     OW43140   5.263   2.125   1.986
13900SOL    HW143141   5.196   2.065   2.018
13900SOL    HW243142   5.293   2.173   2.063
13901SOL     OW43143   4.998   2.682   1.879
13901SOL    HW143144   5.044   2.599   1.891
13901SOL    HW243145   5.038   2.720   1.801
13902SOL     OW43146   4.824   3.161   2.737
13902SOL    HW143147   4.802   3.117   2.655
13902SOL    HW243148   4.854   3.248   2.710
13903SOL     OW43149   4.042   2.656   2.791
13903SOL    HW143150   4.130   2.692   2.800
13903SOL    HW243151   4.047   2.571   2.835
13904SOL     OW43152   4.060   2.384   2.878
13904SOL    HW143153   4.019   2.298   2.865
13904SOL    HW243154   4.132   2.387   2.816
13905SOL     OW43155   4.862   2.235   3.552
13905SOL    HW143156   4.810   2.288   3.612
13905SOL    HW243157   4.946   2.281   3.546
13906SOL     OW43158   4.890   2.061   3.337
13906SOL    HW143159   4.875   2.123   3.408
13906SOL    HW243160   4.928   2.113   3.267
13907SOL     OW43161   3.727   3.175   2.036
13907SOL    HW143162   3.637   3.188   2.006
13907SOL    HW243163   3.725   3.091   2.082
13908SOL     OW43164   4.696   2.642   3.074
13908SOL    HW143165   4.752   2.622   3.149
13908SOL    HW243166   4.609   2.656   3.112
13909SOL     OW43167   3.765   2.402   2.978
13909SOL    HW143168   3.848   2.418   2.934
13909SOL    HW243169   3.785   2.408   3.072
13910SOL     OW43170   3.913   2.382   3.562
13910SOL    HW143171   4.005   2.406   3.549
13910SOL    HW243172   3.864   2.457   3.527
13911SOL     OW43173   5.095   2.791   3.510
13911SOL    HW143174   5.114   2.885   3.511
13911SOL    HW243175   5.083   2.771   3.417
13912SOL     OW43176   4.541   2.425   2.226
13912SOL    HW143177   4.537   2.354   2.162
13912SOL    HW243178   4.467   2.482   2.203
13913SOL     OW43179   5.357   2.462   3.031
13913SOL    HW143180   5.342   2.422   3.116
13913SOL    HW243181   5.446   2.437   3.008
13914SOL     OW43182   4.443   2.307   3.109
13914SOL    HW143183   4.374   2.242   3.093
13914SOL    HW243184   4.431   2.371   3.039
13915SOL     OW43185   4.184   2.348   2.026
13915SOL    HW143186   4.241   2.418   2.058
13915SOL    HW243187   4.097   2.388   2.024
13916SOL     OW43188   3.870   2.988   3.348
13916SOL    HW143189   3.862   2.939   3.430
13916SOL    HW243190   3.889   2.922   3.282
13917SOL     OW43191   5.050   2.896   3.073
13917SOL    HW143192   5.065   2.837   3.000
13917SOL    HW243193   4.973   2.947   3.048
13918SOL     OW43194   5.056   2.714   2.158
13918SOL    HW143195   4.991   2.706   2.229
13918SOL    HW243196   5.004   2.707   2.078
13919SOL     OW43197   5.520   3.586   3.036
13919SOL    HW143198   5.557   3.627   2.958
13919SOL    HW243199   5.470   3.512   3.003
13920SOL     OW43200   5.037   3.611   2.966
13920SOL    HW143201   5.007   3.555   2.895
13920SOL    HW243202   4.960   3.621   3.022
13921SOL     OW43203   5.445   2.024   2.364
13921SOL    HW143204   5.515   2.008   2.301
13921SOL    HW243205   5.429   1.939   2.405
13922SOL     OW43206   5.111   3.431   2.347
13922SOL    HW143207   5.167   3.475   2.282
13922SOL    HW243208   5.059   3.502   2.385
13923SOL     OW43209   4.999   2.779   2.507
13923SOL    HW143210   5.076   2.727   2.530
13923SOL    HW243211   5.035   2.860   2.471
13924SOL     OW43212   4.528   3.152   3.295
13924SOL    HW143213   4.504   3.181   3.383
13924SOL    HW243214   4.476   3.208   3.237
13925SOL     OW43215   4.431   3.466   1.997
13925SOL    HW143216   4.407   3.489   1.907
13925SOL    HW243217   4.363   3.404   2.025
13926SOL     OW43218   5.349   3.592   3.263
13926SOL    HW143219   5.400   3.598   3.182
13926SOL    HW243220   5.329   3.682   3.285
13927SOL     OW43221   5.568   2.029   2.825
13927SOL    HW143222   5.593   1.940   2.801
13927SOL    HW243223   5.480   2.040   2.790
13928SOL     OW43224   3.974   2.171   2.572
13928SOL    HW143225   3.888   2.209   2.552
13928SOL    HW243226   3.977   2.169   2.668
13929SOL     OW43227   4.938   3.455   1.892
13929SOL    HW143228   4.920   3.369   1.932
13929SOL    HW243229   4.864   3.470   1.833
13930SOL     OW43230   4.553   2.883   3.229
13930SOL    HW143231   4.593   2.896   3.143
13930SOL    HW243232   4.537   2.971   3.263
13931SOL     OW43233   4.628   2.754   2.141
13931SOL    HW143234   4.689   2.799   2.083
13931SOL    HW243235   4.684   2.700   2.197
13932SOL     OW43236   5.213   3.490   1.907
13932SOL    HW143237   5.119   3.479   1.896
13932SOL    HW243238   5.246   3.497   1.817
13933SOL     OW43239   4.066   3.178   3.376
13933SOL    HW143240   4.025   3.256   3.340
13933SOL    HW243241   3.998   3.110   3.370
13934SOL     OW43242   5.345   3.155   3.150
13934SOL    HW143243   5.383   3.133   3.236
13934SOL    HW243244   5.278   3.220   3.170
13935SOL     OW43245   4.781   2.960   2.545
13935SOL    HW143246   4.711   2.917   2.594
13935SOL    HW243247   4.846   2.891   2.533
13936SOL     OW43248   4.759   2.105   2.819
13936SOL    HW143249   4.759   2.052   2.739
13936SOL    HW243250   4.748   2.041   2.890
13937SOL     OW43251   4.283   3.387   2.323
13937SOL    HW143252   4.352   3.322   2.308
13937SOL    HW243253   4.274   3.391   2.418
13938SOL     OW43254   5.476   2.232   3.274
13938SOL    HW143255   5.534   2.307   3.261
13938SOL    HW243256   5.499   2.172   3.204
13939SOL     OW43257   3.980   3.231   2.131
13939SOL    HW143258   3.886   3.218   2.115
13939SOL    HW243259   3.988   3.239   2.226
13940SOL     OW43260   3.831   2.862   3.578
13940SOL    HW143261   3.758   2.855   3.639
13940SOL    HW243262   3.909   2.846   3.631
13941SOL     OW43263   4.405   2.042   3.358
13941SOL    HW143264   4.493   2.024   3.325
13941SOL    HW243265   4.419   2.075   3.447
13942SOL     OW43266   3.817   2.175   1.875
13942SOL    HW143267   3.722   2.174   1.885
13942SOL    HW243268   3.836   2.257   1.829
13943SOL     OW43269   5.147   2.709   3.248
13943SOL    HW143270   5.095   2.771   3.196
13943SOL    HW243271   5.236   2.721   3.216
13944SOL     OW43272   3.781   2.009   2.162
13944SOL    HW143273   3.775   2.101   2.135
13944SOL    HW243274   3.866   1.980   2.129
13945SOL     OW43275   4.898   3.194   1.987
13945SOL    HW143276   4.804   3.175   1.988
13945SOL    HW243277   4.922   3.198   2.079
13946SOL     OW43278   4.354   2.689   3.291
13946SOL    HW143279   4.405   2.770   3.283
13946SOL    HW243280   4.420   2.621   3.307
13947SOL     OW43281   5.288   3.640   2.819
13947SOL    HW143282   5.280   3.730   2.788
13947SOL    HW243283   5.212   3.628   2.876
13948SOL     OW43284   4.429   2.432   3.556
13948SOL    HW143285   4.473   2.494   3.615
13948SOL    HW243286   4.439   2.347   3.598
13949SOL     OW43287   5.198   3.046   3.494
13949SOL    HW143288   5.178   3.069   3.585
13949SOL    HW243289   5.287   3.079   3.481
13950SOL     OW43290   5.390   2.746   3.110
13950SOL    HW143291   5.377   2.666   3.058
13950SOL    HW243292   5.376   2.817   3.048
13951SOL     OW43293   4.936   2.181   2.316
13951SOL    HW143294   4.997   2.107   2.316
13951SOL    HW243295   4.961   2.233   2.392
13952SOL     OW43296   4.318   2.597   2.526
13952SOL    HW143297   4.343   2.689   2.531
13952SOL    HW243298   4.249   2.594   2.460
13953SOL     OW43299   5.494   2.195   3.547
13953SOL    HW143300   5.486   2.212   3.453
13953SOL    HW243301   5.416   2.143   3.568
13954SOL     OW43302   5.481   2.801   3.364
13954SOL    HW143303   5.463   2.894   3.379
13954SOL    HW243304   5.459   2.787   3.272
13955SOL     OW43305   4.596   3.230   1.906
13955SOL    HW143306   4.573   3.206   1.996
13955SOL    HW243307   4.575   3.323   1.899
13956SOL     OW43308   4.601   2.822   2.705
13956SOL    HW143309   4.656   2.756   2.746
13956SOL    HW243310   4.549   2.859   2.777
13957SOL     OW43311   4.795   2.847   1.950
13957SOL    HW143312   4.779   2.908   1.878
13957SOL    HW243313   4.868   2.793   1.919
13958SOL     OW43314   5.552   3.411   2.708
13958SOL    HW143315   5.471   3.418   2.657
13958SOL    HW243316   5.525   3.380   2.794
13959SOL     OW43317   4.400   3.294   3.495
13959SOL    HW143318   4.327   3.255   3.543
13959SOL    HW243319   4.380   3.387   3.492
13960SOL     OW43320   5.545   2.040   3.098
13960SOL    HW143321   5.534   1.945   3.104
13960SOL    HW243322   5.554   2.058   3.004
13961SOL     OW43323   4.142   2.291   2.383
13961SOL    HW143324   4.172   2.215   2.334
13961SOL    HW243325   4.094   2.255   2.457
13962SOL     OW43326   5.437   3.331   2.947
13962SOL    HW143327   5.353   3.324   2.902
13962SOL    HW243328   5.428   3.276   3.024
13963SOL     OW43329   4.058   2.420   3.154
13963SOL    HW143330   4.112   2.359   3.205
13963SOL    HW243331   4.074   2.395   3.063
13964SOL     OW43332   4.531   3.404   2.506
13964SOL    HW143333   4.531   3.500   2.503
13964SOL    HW243334   4.451   3.381   2.552
13965SOL     OW43335   5.152   2.088   2.984
13965SOL    HW143336   5.165   2.008   3.034
13965SOL    HW243337   5.101   2.144   3.043
13966SOL     OW43338   4.737   1.882   2.991
13966SOL    HW143339   4.676   1.818   2.955
13966SOL    HW243340   4.822   1.838   2.986
13967SOL     OW43341   4.544   3.159   2.156
13967SOL    HW143342   4.495   3.086   2.195
13967SOL    HW243343   4.595   3.196   2.228
13968SOL     OW43344   5.088   1.914   2.041
13968SOL    HW143345   5.124   1.840   1.992
13968SOL    HW243346   4.998   1.890   2.059
13969SOL     OW43347   5.021   2.322   2.535
13969SOL    HW143348   4.971   2.404   2.537
13969SOL    HW243349   5.016   2.290   2.625
13970SOL     OW43350   5.305   2.053   2.754
13970SOL    HW143351   5.252   2.079   2.829
13970SOL    HW243352   5.303   2.130   2.696
13971SOL     OW43353   3.763   2.942   2.185
13971SOL    HW143354   3.846   2.959   2.230
13971SOL    HW243355   3.755   2.846   2.184
13972SOL     OW43356   4.629   3.530   2.183
13972SOL    HW143357   4.554   3.508   2.129
13972SOL    HW243358   4.595   3.590   2.250
13973SOL     OW43359   3.951   2.424   3.848
13973SOL    HW143360   3.896   2.455   3.920
13973SOL    HW243361   3.916   2.467   3.771
13974SOL     OW43362   3.952   2.127   4.703
13974SOL    HW143363   3.976   2.111   4.795
13974SOL    HW243364   3.858   2.111   4.700
13975SOL     OW43365   3.714   2.235   4.361
13975SOL    HW143366   3.643   2.278   4.410
13975SOL    HW243367   3.672   2.159   4.320
13976SOL     OW43368   4.296   3.162   4.901
13976SOL    HW143369   4.211   3.172   4.859
13976SOL    HW243370   4.310   3.246   4.946
13977SOL     OW43371   5.302   3.374   4.436
13977SOL    HW143372   5.264   3.366   4.524
13977SOL    HW243373   5.226   3.380   4.378
13978SOL     OW43374   4.867   2.546   4.416
13978SOL    HW143375   4.906   2.631   4.396
13978SOL    HW243376   4.821   2.560   4.499
13979SOL     OW43377   5.492   2.400   3.930
13979SOL    HW143378   5.430   2.466   3.899
13979SOL    HW243379   5.445   2.356   4.002
13980SOL     OW43380   4.462   2.964   4.820
13980SOL    HW143381   4.393   3.016   4.861
13980SOL    HW243382   4.505   3.025   4.761
13981SOL     OW43383   4.580   2.635   5.548
13981SOL    HW143384   4.531   2.693   5.606
13981SOL    HW243385   4.609   2.691   5.476
13982SOL     OW43386   4.411   2.849   4.365
13982SOL    HW143387   4.477   2.846   4.434
13982SOL    HW243388   4.346   2.911   4.397
13983SOL     OW43389   4.063   3.260   4.785
13983SOL    HW143390   3.984   3.230   4.739
13983SOL    HW243391   4.105   3.320   4.723
13984SOL     OW43392   5.197   3.369   5.102
13984SOL    HW143393   5.195   3.459   5.070
13984SOL    HW243394   5.113   3.358   5.148
13985SOL     OW43395   4.189   2.217   5.172
13985SOL    HW143396   4.261   2.166   5.209
13985SOL    HW243397   4.113   2.194   5.225
13986SOL     OW43398   5.308   2.299   4.468
13986SOL    HW143399   5.224   2.306   4.423
13986SOL    HW243400   5.302   2.363   4.539
13987SOL     OW43401   4.912   3.174   5.410
13987SOL    HW143402   4.904   3.251   5.466
13987SOL    HW243403   4.835   3.121   5.430
13988SOL     OW43404   3.932   2.919   4.625
13988SOL    HW143405   4.023   2.947   4.631
13988SOL    HW243406   3.883   2.984   4.676
13989SOL     OW43407   4.329   3.652   5.155
13989SOL    HW143408   4.243   3.642   5.197
13989SOL    HW243409   4.349   3.745   5.165
13990SOL     OW43410   4.319   2.847   3.844
13990SOL    HW143411   4.365   2.902   3.781
13990SOL    HW243412   4.352   2.876   3.929
13991SOL     OW43413   5.326   1.992   5.189
13991SOL    HW143414   5.347   2.076   5.148
13991SOL    HW243415   5.296   2.014   5.277
13992SOL     OW43416   3.846   2.519   4.277
13992SOL    HW143417   3.809   2.435   4.305
13992SOL    HW243418   3.838   2.576   4.353
13993SOL     OW43419   5.567   3.609   4.042
13993SOL    HW143420   5.553   3.594   4.135
13993SOL    HW243421   5.592   3.701   4.036
13994SOL     OW43422   5.426   2.743   4.296
13994SOL    HW143423   5.478   2.772   4.371
13994SOL    HW243424   5.393   2.824   4.257
13995SOL     OW43425   5.381   2.977   4.149
13995SOL    HW143426   5.469   2.976   4.113
13995SOL    HW243427   5.386   3.038   4.223
13996SOL     OW43428   3.848   2.590   5.316
13996SOL    HW143429   3.939   2.609   5.294
13996SOL    HW243430   3.816   2.671   5.358
13997SOL     OW43431   5.021   3.107   5.126
13997SOL    HW143432   5.064   3.028   5.093
13997SOL    HW243433   5.037   3.106   5.220
13998SOL     OW43434   4.542   1.856   4.237
13998SOL    HW143435   4.584   1.938   4.212
13998SOL    HW243436   4.449   1.878   4.243
13999SOL     OW43437   3.912   2.775   4.988
13999SOL    HW143438   3.971   2.847   5.010
13999SOL    HW243439   3.829   2.818   4.965
14000SOL     OW43440   5.272   2.852   3.927
14000SOL    HW143441   5.199   2.798   3.958
14000SOL    HW243442   5.301   2.899   4.005
14001SOL     OW43443   4.986   3.686   5.359
14001SOL    HW143444   4.951   3.762   5.312
14001SOL    HW243445   4.939   3.611   5.323
14002SOL     OW43446   4.067   2.106   5.562
14002SOL    HW143447   4.107   2.193   5.554
14002SOL    HW243448   3.974   2.123   5.575
14003SOL     OW43449   5.226   3.259   4.688
14003SOL    HW143450   5.155   3.285   4.747
14003SOL    HW243451   5.191   3.184   4.640
14004SOL     OW43452   5.408   3.606   4.279
14004SOL    HW143453   5.347   3.577   4.211
14004SOL    HW243454   5.380   3.558   4.358
14005SOL     OW43455   4.319   2.573   3.999
14005SOL    HW143456   4.304   2.653   3.949
14005SOL    HW243457   4.254   2.575   4.069
14006SOL     OW43458   5.013   2.222   4.655
14006SOL    HW143459   4.920   2.201   4.662
14006SOL    HW243460   5.055   2.167   4.721
14007SOL     OW43461   5.300   3.533   4.024
14007SOL    HW143462   5.390   3.563   4.009
14007SOL    HW243463   5.264   3.522   3.936
14008SOL     OW43464   4.564   2.412   5.176
14008SOL    HW143465   4.514   2.425   5.256
14008SOL    HW243466   4.499   2.388   5.110
14009SOL     OW43467   5.115   2.337   5.403
14009SOL    HW143468   5.114   2.383   5.487
14009SOL    HW243469   5.181   2.269   5.413
14010SOL     OW43470   4.655   2.762   5.305
14010SOL    HW143471   4.719   2.699   5.272
14010SOL    HW243472   4.625   2.808   5.227
14011SOL     OW43473   4.724   2.270   4.970
14011SOL    HW143474   4.665   2.308   5.035
14011SOL    HW243475   4.674   2.274   4.888
14012SOL     OW43476   4.776   2.552   4.147
14012SOL    HW143477   4.791   2.550   4.242
14012SOL    HW243478   4.690   2.510   4.136
14013SOL     OW43479   3.816   2.656   4.511
14013SOL    HW143480   3.898   2.668   4.558
14013SOL    HW243481   3.765   2.734   4.530
14014SOL     OW43482   3.870   3.741   5.288
14014SOL    HW143483   3.832   3.653   5.293
14014SOL    HW243484   3.844   3.774   5.203
14015SOL     OW43485   4.617   2.186   3.891
14015SOL    HW143486   4.648   2.267   3.850
14015SOL    HW243487   4.683   2.121   3.869
14016SOL     OW43488   5.437   2.430   5.552
14016SOL    HW143489   5.400   2.506   5.506
14016SOL    HW243490   5.457   2.368   5.483
14017SOL     OW43491   5.110   3.003   4.267
14017SOL    HW143492   5.190   3.011   4.215
14017SOL    HW243493   5.049   3.066   4.228
14018SOL     OW43494   4.275   2.037   4.629
14018SOL    HW143495   4.276   2.059   4.722
14018SOL    HW243496   4.273   2.122   4.585
14019SOL     OW43497   4.067   3.660   4.617
14019SOL    HW143498   4.121   3.582   4.623
14019SOL    HW243499   4.127   3.733   4.633
14020SOL     OW43500   5.488   2.897   4.561
14020SOL    HW143501   5.438   2.961   4.510
14020SOL    HW243502   5.458   2.909   4.651
14021SOL     OW43503   4.940   3.394   5.206
14021SOL    HW143504   4.918   3.332   5.276
14021SOL    HW243505   4.858   3.441   5.189
14022SOL     OW43506   4.069   2.726   3.937
14022SOL    HW143507   4.120   2.804   3.961
14022SOL    HW243508   3.978   2.756   3.940
14023SOL     OW43509   5.205   2.601   4.436
14023SOL    HW143510   5.195   2.568   4.526
14023SOL    HW243511   5.283   2.656   4.439
14024SOL     OW43512   4.208   3.079   5.373
14024SOL    HW143513   4.178   3.082   5.283
14024SOL    HW243514   4.150   3.139   5.420
14025SOL     OW43515   4.868   3.669   3.964
14025SOL    HW143516   4.780   3.697   3.988
14025SOL    HW243517   4.855   3.593   3.908
14026SOL     OW43518   3.902   2.145   5.220
14026SOL    HW143519   3.867   2.221   5.173
14026SOL    HW243520   3.914   2.176   5.310
14027SOL     OW43521   5.357   3.238   3.805
14027SOL    HW143522   5.317   3.325   3.798
14027SOL    HW243523   5.284   3.177   3.793
14028SOL     OW43524   5.121   1.965   4.172
14028SOL    HW143525   5.116   1.944   4.078
14028SOL    HW243526   5.214   1.980   4.188
14029SOL     OW43527   3.970   3.654   4.958
14029SOL    HW143528   4.014   3.575   4.988
14029SOL    HW243529   3.955   3.640   4.865
14030SOL     OW43530   4.134   2.543   4.201
14030SOL    HW143531   4.137   2.450   4.223
14030SOL    HW243532   4.043   2.569   4.214
14031SOL     OW43533   5.248   2.084   5.445
14031SOL    HW143534   5.266   2.094   5.538
14031SOL    HW243535   5.159   2.048   5.441
14032SOL     OW43536   4.353   1.960   3.841
14032SOL    HW143537   4.441   1.926   3.833
14032SOL    HW243538   4.310   1.936   3.759
14033SOL     OW43539   4.481   2.098   5.484
14033SOL    HW143540   4.571   2.063   5.488
14033SOL    HW243541   4.473   2.151   5.563
14034SOL     OW43542   4.595   3.384   4.948
14034SOL    HW143543   4.584   3.401   4.855
14034SOL    HW243544   4.670   3.325   4.953
14035SOL     OW43545   5.063   2.441   5.151
14035SOL    HW143546   5.089   2.421   5.241
14035SOL    HW243547   5.092   2.531   5.137
14036SOL     OW43548   4.522   3.153   4.644
14036SOL    HW143549   4.537   3.246   4.665
14036SOL    HW243550   4.435   3.151   4.604
14037SOL     OW43551   4.679   2.364   4.628
14037SOL    HW143552   4.641   2.361   4.540
14037SOL    HW243553   4.697   2.273   4.650
14038SOL     OW43554   4.276   1.921   4.220
14038SOL    HW143555   4.201   1.924   4.279
14038SOL    HW243556   4.266   2.000   4.166
14039SOL     OW43557   5.146   3.063   3.768
14039SOL    HW143558   5.167   2.988   3.823
14039SOL    HW243559   5.062   3.095   3.801
14040SOL     OW43560   4.017   1.911   3.911
14040SOL    HW143561   4.071   1.989   3.904
14040SOL    HW243562   4.073   1.847   3.956
14041SOL     OW43563   4.661   2.096   4.166
14041SOL    HW143564   4.630   2.144   4.089
14041SOL    HW243565   4.749   2.130   4.181
14042SOL     OW43566   4.796   2.554   5.185
14042SOL    HW143567   4.720   2.497   5.188
14042SOL    HW243568   4.871   2.494   5.177
14043SOL     OW43569   5.022   3.367   4.490
14043SOL    HW143570   4.974   3.432   4.438
14043SOL    HW243571   4.969   3.356   4.568
14044SOL     OW43572   4.996   3.646   4.270
14044SOL    HW143573   5.048   3.716   4.232
14044SOL    HW243574   4.917   3.689   4.302
14045SOL     OW43575   4.745   2.391   3.748
14045SOL    HW143576   4.696   2.472   3.732
14045SOL    HW243577   4.799   2.411   3.825
14046SOL     OW43578   3.792   2.406   5.126
14046SOL    HW143579   3.882   2.408   5.092
14046SOL    HW243580   3.787   2.479   5.187
14047SOL     OW43581   4.273   2.070   4.902
14047SOL    HW143582   4.314   2.056   4.988
14047SOL    HW243583   4.181   2.084   4.922
14048SOL     OW43584   4.584   2.330   4.373
14048SOL    HW143585   4.515   2.394   4.357
14048SOL    HW243586   4.576   2.267   4.301
14049SOL     OW43587   4.760   1.903   4.461
14049SOL    HW143588   4.690   1.921   4.399
14049SOL    HW243589   4.723   1.838   4.521
14050SOL     OW43590   5.142   3.024   4.570
14050SOL    HW143591   5.052   3.036   4.600
14050SOL    HW243592   5.136   3.030   4.474
14051SOL     OW43593   5.192   2.454   4.677
14051SOL    HW143594   5.125   2.388   4.694
14051SOL    HW243595   5.241   2.459   4.759
14052SOL     OW43596   5.642   2.637   4.048
14052SOL    HW143597   5.670   2.611   4.135
14052SOL    HW243598   5.549   2.614   4.044
14053SOL     OW43599   5.413   3.124   4.370
14053SOL    HW143600   5.506   3.144   4.383
14053SOL    HW243601   5.368   3.205   4.396
14054SOL     OW43602   5.111   2.425   3.801
14054SOL    HW143603   5.034   2.415   3.857
14054SOL    HW243604   5.185   2.415   3.861
14055SOL     OW43605   4.229   2.112   4.030
14055SOL    HW143606   4.283   2.067   3.965
14055SOL    HW243607   4.219   2.201   3.995
14056SOL     OW43608   5.477   3.093   5.267
14056SOL    HW143609   5.568   3.063   5.258
14056SOL    HW243610   5.485   3.181   5.305
14057SOL     OW43611   4.782   3.189   5.018
14057SOL    HW143612   4.707   3.173   5.076
14057SOL    HW243613   4.858   3.176   5.074
14058SOL     OW43614   5.353   3.487   5.392
14058SOL    HW143615   5.336   3.530   5.309
14058SOL    HW243616   5.423   3.425   5.373
14059SOL     OW43617   4.845   3.000   4.835
14059SOL    HW143618   4.811   3.066   4.894
14059SOL    HW243619   4.845   3.042   4.749
14060SOL     OW43620   5.355   2.968   4.801
14060SOL    HW143621   5.352   3.033   4.871
14060SOL    HW243622   5.274   2.980   4.753
14061SOL     OW43623   4.659   1.937   5.119
14061SOL    HW143624   4.672   1.936   5.024
14061SOL    HW243625   4.731   1.991   5.152
14062SOL     OW43626   4.701   2.994   5.486
14062SOL    HW143627   4.621   3.027   5.525
14062SOL    HW243628   4.672   2.937   5.415
14063SOL     OW43629   4.431   2.915   4.085
14063SOL    HW143630   4.406   2.903   4.177
14063SOL    HW243631   4.501   2.851   4.071
14064SOL     OW43632   4.165   2.655   4.945
14064SOL    HW143633   4.219   2.665   5.024
14064SOL    HW243634   4.075   2.658   4.977
14065SOL     OW43635   4.988   2.231   5.000
14065SOL    HW143636   5.018   2.309   5.046
14065SOL    HW243637   4.896   2.248   4.979
14066SOL     OW43638   3.779   3.400   5.023
14066SOL    HW143639   3.729   3.481   5.039
14066SOL    HW243640   3.870   3.426   5.035
14067SOL     OW43641   4.291   2.365   4.560
14067SOL    HW143642   4.295   2.434   4.494
14067SOL    HW243643   4.338   2.402   4.635
14068SOL     OW43644   4.962   3.204   4.125
14068SOL    HW143645   5.018   3.279   4.149
14068SOL    HW243646   4.890   3.207   4.189
14069SOL     OW43647   5.025   3.299   4.863
14069SOL    HW143648   5.021   3.273   4.955
14069SOL    HW243649   4.933   3.307   4.837
14070SOL     OW43650   5.310   2.502   4.193
14070SOL    HW143651   5.246   2.501   4.264
14070SOL    HW243652   5.350   2.589   4.198
14071SOL     OW43653   4.064   3.397   5.021
14071SOL    HW143654   4.053   3.344   4.941
14071SOL    HW243655   4.158   3.404   5.032
14072SOL     OW43656   4.136   2.562   5.308
14072SOL    HW143657   4.192   2.610   5.247
14072SOL    HW243658   4.175   2.578   5.394
14073SOL     OW43659   5.341   2.639   5.406
14073SOL    HW143660   5.253   2.677   5.403
14073SOL    HW243661   5.391   2.687   5.340
14074SOL     OW43662   4.737   2.003   5.504
14074SOL    HW143663   4.784   2.081   5.474
14074SOL    HW243664   4.787   1.929   5.469
14075SOL     OW43665   4.208   1.885   5.480
14075SOL    HW143666   4.160   1.845   5.408
14075SOL    HW243667   4.161   1.966   5.498
14076SOL     OW43668   4.330   2.733   4.747
14076SOL    HW143669   4.362   2.821   4.763
14076SOL    HW243670   4.267   2.717   4.817
14077SOL     OW43671   5.065   2.709   4.731
14077SOL    HW143672   4.971   2.715   4.711
14077SOL    HW243673   5.086   2.616   4.719
14078SOL     OW43674   4.910   2.385   3.980
14078SOL    HW143675   4.920   2.311   4.040
14078SOL    HW243676   4.871   2.454   4.034
14079SOL     OW43677   4.004   2.055   4.966
14079SOL    HW143678   3.978   2.097   5.048
14079SOL    HW243679   3.984   1.962   4.979
14080SOL     OW43680   3.765   3.123   5.036
14080SOL    HW143681   3.785   3.103   5.127
14080SOL    HW243682   3.755   3.219   5.034
14081SOL     OW43683   4.436   2.486   4.759
14081SOL    HW143684   4.524   2.498   4.722
14081SOL    HW243685   4.398   2.574   4.757
14082SOL     OW43686   5.474   2.811   5.588
14082SOL    HW143687   5.421   2.755   5.533
14082SOL    HW243688   5.415   2.837   5.659
14083SOL     OW43689   4.032   1.915   4.350
14083SOL    HW143690   4.005   2.005   4.364
14083SOL    HW243691   4.039   1.878   4.438
14084SOL     OW43692   5.336   2.245   4.097
14084SOL    HW143693   5.359   2.184   4.167
14084SOL    HW243694   5.312   2.326   4.143
14085SOL     OW43695   4.779   2.610   4.684
14085SOL    HW143696   4.759   2.634   4.775
14085SOL    HW243697   4.744   2.522   4.674
14086SOL     OW43698   4.711   3.414   5.448
14086SOL    HW143699   4.676   3.460   5.372
14086SOL    HW243700   4.633   3.388   5.498
14087SOL     OW43701   5.582   3.340   5.332
14087SOL    HW143702   5.597   3.375   5.244
14087SOL    HW243703   5.644   3.388   5.387
14088SOL     OW43704   4.096   2.720   5.573
14088SOL    HW143705   4.164   2.782   5.546
14088SOL    HW243706   4.015   2.756   5.536
14089SOL     OW43707   5.266   2.125   3.856
14089SOL    HW143708   5.197   2.063   3.881
14089SOL    HW243709   5.290   2.169   3.937
14090SOL     OW43710   4.999   2.679   3.739
14090SOL    HW143711   5.050   2.599   3.750
14090SOL    HW243712   5.032   2.718   3.658
14091SOL     OW43713   4.871   3.118   4.592
14091SOL    HW143714   4.810   3.097   4.521
14091SOL    HW243715   4.846   3.206   4.620
14092SOL     OW43716   4.066   2.629   4.654
14092SOL    HW143717   4.137   2.687   4.628
14092SOL    HW243718   4.064   2.634   4.750
14093SOL     OW43719   4.093   2.352   4.767
14093SOL    HW143720   4.042   2.282   4.727
14093SOL    HW243721   4.135   2.397   4.693
14094SOL     OW43722   4.858   2.235   5.420
14094SOL    HW143723   4.804   2.296   5.470
14094SOL    HW243724   4.943   2.279   5.411
14095SOL     OW43725   4.893   2.062   5.203
14095SOL    HW143726   4.874   2.127   5.271
14095SOL    HW243727   4.927   2.114   5.130
14096SOL     OW43728   3.800   3.646   4.652
14096SOL    HW143729   3.779   3.563   4.610
14096SOL    HW243730   3.892   3.661   4.629
14097SOL     OW43731   4.212   3.427   4.628
14097SOL    HW143732   4.298   3.468   4.631
14097SOL    HW243733   4.214   3.372   4.549
14098SOL     OW43734   4.709   2.655   4.942
14098SOL    HW143735   4.748   2.622   5.022
14098SOL    HW243736   4.659   2.732   4.969
14099SOL     OW43737   3.763   2.396   4.838
14099SOL    HW143738   3.827   2.438   4.781
14099SOL    HW243739   3.797   2.408   4.927
14100SOL     OW43740   3.969   2.353   5.394
14100SOL    HW143741   4.044   2.404   5.360
14100SOL    HW243742   3.896   2.415   5.392
14101SOL     OW43743   5.111   2.779   5.377
14101SOL    HW143744   5.132   2.872   5.378
14101SOL    HW243745   5.085   2.761   5.287
14102SOL     OW43746   4.544   2.427   4.070
14102SOL    HW143747   4.511   2.352   4.019
14102SOL    HW243748   4.475   2.493   4.062
14103SOL     OW43749   5.356   2.462   4.894
14103SOL    HW143750   5.340   2.419   4.978
14103SOL    HW243751   5.446   2.436   4.871
14104SOL     OW43752   4.429   2.310   4.962
14104SOL    HW143753   4.355   2.252   4.942
14104SOL    HW243754   4.424   2.379   4.896
14105SOL     OW43755   4.704   3.533   5.169
14105SOL    HW143756   4.650   3.491   5.102
14105SOL    HW243757   4.674   3.624   5.171
14106SOL     OW43758   4.204   2.346   3.891
14106SOL    HW143759   4.250   2.422   3.926
14106SOL    HW243760   4.113   2.375   3.881
14107SOL     OW43761   5.065   2.886   4.939
14107SOL    HW143762   5.077   2.830   4.862
14107SOL    HW243763   4.987   2.938   4.920
14108SOL     OW43764   5.058   2.712   4.023
14108SOL    HW143765   5.002   2.711   4.101
14108SOL    HW243766   4.997   2.713   3.950
14109SOL     OW43767   5.519   3.587   4.887
14109SOL    HW143768   5.543   3.632   4.806
14109SOL    HW243769   5.469   3.510   4.858
14110SOL     OW43770   5.080   3.616   4.851
14110SOL    HW143771   5.019   3.688   4.867
14110SOL    HW243772   5.029   3.537   4.869
14111SOL     OW43773   3.801   3.113   4.764
14111SOL    HW143774   3.795   3.115   4.859
14111SOL    HW243775   3.744   3.185   4.736
14112SOL     OW43776   4.433   3.548   5.393
14112SOL    HW143777   4.375   3.598   5.450
14112SOL    HW243778   4.413   3.580   5.305
14113SOL     OW43779   5.442   2.016   4.237
14113SOL    HW143780   5.508   1.998   4.170
14113SOL    HW243781   5.423   1.931   4.276
14114SOL     OW43782   5.118   3.418   4.192
14114SOL    HW143783   5.179   3.455   4.128
14114SOL    HW243784   5.069   3.493   4.224
14115SOL     OW43785   4.997   2.774   4.358
14115SOL    HW143786   5.073   2.727   4.392
14115SOL    HW243787   5.032   2.859   4.330
14116SOL     OW43788   4.541   3.130   5.135
14116SOL    HW143789   4.512   3.171   5.216
14116SOL    HW243790   4.488   3.170   5.066
14117SOL     OW43791   5.430   3.625   5.146
14117SOL    HW143792   5.432   3.616   5.051
14117SOL    HW243793   5.375   3.702   5.162
14118SOL     OW43794   5.570   2.030   4.682
14118SOL    HW143795   5.590   1.939   4.660
14118SOL    HW243796   5.480   2.042   4.651
14119SOL     OW43797   3.972   2.165   4.429
14119SOL    HW143798   3.887   2.204   4.408
14119SOL    HW243799   3.976   2.165   4.524
14120SOL     OW43800   4.934   3.458   3.763
14120SOL    HW143801   4.923   3.370   3.800
14120SOL    HW243802   4.866   3.464   3.696
14121SOL     OW43803   4.565   2.872   5.059
14121SOL    HW143804   4.532   2.889   4.971
14121SOL    HW243805   4.564   2.958   5.102
14122SOL     OW43806   4.634   2.749   3.990
14122SOL    HW143807   4.700   2.801   3.944
14122SOL    HW243808   4.685   2.698   4.054
14123SOL     OW43809   5.214   3.478   3.768
14123SOL    HW143810   5.118   3.479   3.760
14123SOL    HW243811   5.245   3.489   3.678
14124SOL     OW43812   4.073   3.094   5.133
14124SOL    HW143813   4.070   3.189   5.121
14124SOL    HW243814   3.993   3.074   5.182
14125SOL     OW43815   5.354   3.157   5.017
14125SOL    HW143816   5.386   3.130   5.103
14125SOL    HW243817   5.285   3.221   5.036
14126SOL     OW43818   4.762   2.958   4.378
14126SOL    HW143819   4.694   2.927   4.438
14126SOL    HW243820   4.831   2.891   4.382
14127SOL     OW43821   4.764   2.101   4.676
14127SOL    HW143822   4.761   2.044   4.599
14127SOL    HW243823   4.746   2.043   4.749
14128SOL     OW43824   5.456   2.244   5.106
14128SOL    HW143825   5.522   2.313   5.104
14128SOL    HW243826   5.489   2.178   5.044
14129SOL     OW43827   3.847   2.809   5.486
14129SOL    HW143828   3.765   2.817   5.534
14129SOL    HW243829   3.860   2.895   5.446
14130SOL     OW43830   4.402   2.034   5.224
14130SOL    HW143831   4.489   2.030   5.184
14130SOL    HW243832   4.418   2.061   5.314
14131SOL     OW43833   3.820   2.167   3.734
14131SOL    HW143834   3.728   2.174   3.761
14131SOL    HW243835   3.843   2.254   3.704
14132SOL     OW43836   5.153   2.697   5.109
14132SOL    HW143837   5.102   2.759   5.058
14132SOL    HW243838   5.244   2.718   5.088
14133SOL     OW43839   3.778   2.013   4.027
14133SOL    HW143840   3.771   2.107   4.007
14133SOL    HW243841   3.862   1.987   3.989
14134SOL     OW43842   4.902   3.191   3.852
14134SOL    HW143843   4.809   3.168   3.849
14134SOL    HW243844   4.923   3.193   3.945
14135SOL     OW43845   4.332   2.699   5.162
14135SOL    HW143846   4.348   2.793   5.160
14135SOL    HW243847   4.419   2.661   5.174
14136SOL     OW43848   5.295   3.630   4.676
14136SOL    HW143849   5.277   3.715   4.636
14136SOL    HW243850   5.220   3.615   4.733
14137SOL     OW43851   4.443   2.440   5.416
14137SOL    HW143852   4.475   2.517   5.463
14137SOL    HW243853   4.452   2.368   5.479
14138SOL     OW43854   5.198   3.033   5.358
14138SOL    HW143855   5.161   3.070   5.438
14138SOL    HW243856   5.280   3.081   5.345
14139SOL     OW43857   4.103   3.599   5.294
14139SOL    HW143858   4.023   3.652   5.287
14139SOL    HW243859   4.071   3.508   5.289
14140SOL     OW43860   5.403   2.748   4.971
14140SOL    HW143861   5.375   2.670   4.924
14140SOL    HW243862   5.381   2.821   4.913
14141SOL     OW43863   4.936   2.183   4.177
14141SOL    HW143864   4.994   2.106   4.181
14141SOL    HW243865   4.960   2.235   4.253
14142SOL     OW43866   4.345   2.575   4.377
14142SOL    HW143867   4.367   2.667   4.385
14142SOL    HW243868   4.268   2.573   4.320
14143SOL     OW43869   5.480   2.217   5.376
14143SOL    HW143870   5.465   2.235   5.283
14143SOL    HW243871   5.403   2.166   5.403
14144SOL     OW43872   5.482   2.795   5.232
14144SOL    HW143873   5.458   2.885   5.254
14144SOL    HW243874   5.461   2.787   5.139
14145SOL     OW43875   4.606   3.228   3.748
14145SOL    HW143876   4.579   3.208   3.837
14145SOL    HW243877   4.565   3.313   3.729
14146SOL     OW43878   4.396   3.642   4.681
14146SOL    HW143879   4.387   3.700   4.757
14146SOL    HW243880   4.465   3.580   4.706
14147SOL     OW43881   4.606   2.832   4.571
14147SOL    HW143882   4.658   2.769   4.620
14147SOL    HW243883   4.557   2.879   4.639
14148SOL     OW43884   4.819   2.862   3.825
14148SOL    HW143885   4.785   2.910   3.750
14148SOL    HW243886   4.880   2.799   3.787
14149SOL     OW43887   5.556   3.404   4.569
14149SOL    HW143888   5.475   3.409   4.519
14149SOL    HW243889   5.527   3.379   4.657
14150SOL     OW43890   3.811   3.070   4.424
14150SOL    HW143891   3.863   3.012   4.479
14150SOL    HW243892   3.865   3.148   4.412
14151SOL     OW43893   4.424   3.263   5.330
14151SOL    HW143894   4.361   3.207   5.375
14151SOL    HW243895   4.432   3.340   5.385
14152SOL     OW43896   5.549   2.040   4.956
14152SOL    HW143897   5.533   1.946   4.964
14152SOL    HW243898   5.557   2.055   4.862
14153SOL     OW43899   4.154   2.280   4.253
14153SOL    HW143900   4.163   2.206   4.193
14153SOL    HW243901   4.099   2.246   4.324
14154SOL     OW43902   5.451   3.321   4.811
14154SOL    HW143903   5.368   3.311   4.766
14154SOL    HW243904   5.439   3.276   4.894
14155SOL     OW43905   4.033   2.391   5.025
14155SOL    HW143906   4.106   2.356   5.075
14155SOL    HW243907   4.063   2.391   4.934
14156SOL     OW43908   5.154   2.083   4.850
14156SOL    HW143909   5.167   2.006   4.905
14156SOL    HW243910   5.101   2.142   4.904
14157SOL     OW43911   4.737   1.878   4.852
14157SOL    HW143912   4.676   1.818   4.808
14157SOL    HW243913   4.822   1.835   4.845
14158SOL     OW43914   4.532   3.159   3.991
14158SOL    HW143915   4.497   3.077   4.027
14158SOL    HW243916   4.503   3.227   4.052
14159SOL     OW43917   4.337   3.415   5.019
14159SOL    HW143918   4.333   3.497   5.067
14159SOL    HW243919   4.429   3.406   4.996
14160SOL     OW43920   5.088   1.916   3.897
14160SOL    HW143921   5.120   1.842   3.845
14160SOL    HW243922   4.998   1.893   3.920
14161SOL     OW43923   5.031   2.321   4.398
14161SOL    HW143924   4.980   2.401   4.397
14161SOL    HW243925   5.019   2.285   4.486
14162SOL     OW43926   5.306   2.055   4.618
14162SOL    HW143927   5.253   2.078   4.694
14162SOL    HW243928   5.298   2.130   4.559
14163SOL     OW43929   3.935   2.437   5.696
14163SOL    HW143930   3.864   2.471   5.751
14163SOL    HW243931   3.961   2.512   5.642
14164SOL     OW43932   3.950   2.135   6.572
14164SOL    HW143933   3.972   2.110   6.662
14164SOL    HW243934   3.858   2.114   6.563
14165SOL     OW43935   3.718   2.240   6.230
14165SOL    HW143936   3.642   2.276   6.275
14165SOL    HW243937   3.683   2.167   6.178
14166SOL     OW43938   5.288   3.378   6.291
14166SOL    HW143939   5.227   3.373   6.365
14166SOL    HW243940   5.232   3.394   6.215
14167SOL     OW43941   4.861   2.546   6.284
14167SOL    HW143942   4.908   2.626   6.258
14167SOL    HW243943   4.816   2.570   6.364
14168SOL     OW43944   5.531   2.450   5.804
14168SOL    HW143945   5.496   2.451   5.715
14168SOL    HW243946   5.473   2.392   5.853
14169SOL     OW43947   4.472   3.015   6.640
14169SOL    HW143948   4.383   3.039   6.664
14169SOL    HW243949   4.505   3.090   6.591
14170SOL     OW43950   4.569   2.631   7.418
14170SOL    HW143951   4.521   2.690   7.475
14170SOL    HW243952   4.600   2.686   7.346
14171SOL     OW43953   4.410   2.843   6.242
14171SOL    HW143954   4.478   2.856   6.308
14171SOL    HW243955   4.338   2.899   6.271
14172SOL     OW43956   5.214   3.355   6.942
14172SOL    HW143957   5.253   3.442   6.949
14172SOL    HW243958   5.131   3.361   6.989
14173SOL     OW43959   4.198   2.204   7.068
14173SOL    HW143960   4.211   2.276   7.130
14173SOL    HW243961   4.104   2.186   7.072
14174SOL     OW43962   5.314   2.301   6.330
14174SOL    HW143963   5.236   2.309   6.275
14174SOL    HW243964   5.314   2.380   6.384
14175SOL     OW43965   3.948   3.192   6.159
14175SOL    HW143966   4.027   3.244   6.176
14175SOL    HW243967   3.878   3.256   6.149
14176SOL     OW43968   3.948   2.958   6.499
14176SOL    HW143969   3.960   2.864   6.513
14176SOL    HW243970   3.939   2.995   6.587
14177SOL     OW43971   4.403   2.805   5.691
14177SOL    HW143972   4.422   2.886   5.644
14177SOL    HW243973   4.407   2.830   5.784
14178SOL     OW43974   5.317   1.992   7.050
14178SOL    HW143975   5.353   2.071   7.010
14178SOL    HW243976   5.296   2.019   7.140
14179SOL     OW43977   3.849   2.508   6.155
14179SOL    HW143978   3.811   2.424   6.181
14179SOL    HW243979   3.833   2.565   6.230
14180SOL     OW43980   5.600   3.607   5.925
14180SOL    HW143981   5.542   3.598   6.001
14180SOL    HW243982   5.603   3.701   5.908
14181SOL     OW43983   5.410   2.777   6.213
14181SOL    HW143984   5.485   2.737   6.168
14181SOL    HW243985   5.379   2.844   6.152
14182SOL     OW43986   5.376   2.970   6.018
14182SOL    HW143987   5.461   2.975   5.974
14182SOL    HW243988   5.380   3.038   6.086
14183SOL     OW43989   3.825   2.602   7.173
14183SOL    HW143990   3.889   2.664   7.207
14183SOL    HW243991   3.748   2.654   7.154
14184SOL     OW43992   4.984   3.069   7.023
14184SOL    HW143993   5.023   3.017   6.952
14184SOL    HW243994   5.055   3.080   7.087
14185SOL     OW43995   4.545   1.862   6.106
14185SOL    HW143996   4.585   1.943   6.075
14185SOL    HW243997   4.451   1.882   6.109
14186SOL     OW43998   3.889   2.809   6.777
14186SOL    HW143999   3.973   2.781   6.813
14186SOL    HW244000   3.850   2.863   6.846
14187SOL     OW44001   5.277   2.842   5.792
14187SOL    HW144002   5.201   2.792   5.822
14187SOL    HW244003   5.303   2.893   5.869
14188SOL     OW44004   4.065   2.114   7.424
14188SOL    HW144005   4.096   2.202   7.405
14188SOL    HW244006   3.971   2.125   7.441
14189SOL     OW44007   5.213   3.254   6.568
14189SOL    HW144008   5.132   3.286   6.608
14189SOL    HW244009   5.185   3.179   6.515
14190SOL     OW44010   5.409   3.598   6.127
14190SOL    HW144011   5.350   3.576   6.054
14190SOL    HW244012   5.374   3.549   6.201
14191SOL     OW44013   4.324   2.566   5.850
14191SOL    HW144014   4.342   2.646   5.800
14191SOL    HW244015   4.262   2.594   5.918
14192SOL     OW44016   5.013   2.235   6.527
14192SOL    HW144017   4.923   2.201   6.525
14192SOL    HW244018   5.060   2.176   6.585
14193SOL     OW44019   5.309   3.529   5.876
14193SOL    HW144020   5.386   3.574   5.841
14193SOL    HW244021   5.255   3.510   5.800
14194SOL     OW44022   4.572   2.393   7.038
14194SOL    HW144023   4.530   2.406   7.123
14194SOL    HW244024   4.500   2.377   6.977
14195SOL     OW44025   5.111   2.330   7.261
14195SOL    HW144026   5.111   2.377   7.345
14195SOL    HW244027   5.187   2.272   7.266
14196SOL     OW44028   4.640   2.742   7.153
14196SOL    HW144029   4.709   2.684   7.121
14196SOL    HW244030   4.618   2.797   7.078
14197SOL     OW44031   4.702   2.264   6.804
14197SOL    HW144032   4.652   2.325   6.857
14197SOL    HW244033   4.687   2.292   6.714
14198SOL     OW44034   4.779   2.537   6.010
14198SOL    HW144035   4.792   2.540   6.105
14198SOL    HW244036   4.691   2.502   5.999
14199SOL     OW44037   3.789   2.665   6.374
14199SOL    HW144038   3.874   2.676   6.416
14199SOL    HW244039   3.733   2.731   6.416
14200SOL     OW44040   3.844   3.753   7.167
14200SOL    HW144041   3.830   3.725   7.258
14200SOL    HW244042   3.798   3.688   7.114
14201SOL     OW44043   4.625   2.189   5.751
14201SOL    HW144044   4.654   2.272   5.712
14201SOL    HW244045   4.685   2.124   5.715
14202SOL     OW44046   5.428   2.432   7.416
14202SOL    HW144047   5.394   2.507   7.367
14202SOL    HW244048   5.457   2.370   7.349
14203SOL     OW44049   5.122   2.992   6.150
14203SOL    HW144050   5.195   2.988   6.089
14203SOL    HW244051   5.067   3.063   6.117
14204SOL     OW44052   4.277   2.034   6.482
14204SOL    HW144053   4.272   2.071   6.570
14204SOL    HW244054   4.274   2.110   6.424
14205SOL     OW44055   5.527   2.898   6.445
14205SOL    HW144056   5.465   2.892   6.372
14205SOL    HW244057   5.474   2.920   6.521
14206SOL     OW44058   4.978   3.381   7.066
14206SOL    HW144059   4.976   3.381   7.162
14206SOL    HW244060   4.890   3.408   7.040
14207SOL     OW44061   4.082   2.778   5.846
14207SOL    HW144062   4.171   2.812   5.857
14207SOL    HW244063   4.078   2.751   5.755
14208SOL     OW44064   5.223   2.594   6.295
14208SOL    HW144065   5.211   2.578   6.388
14208SOL    HW244066   5.290   2.663   6.292
14209SOL     OW44067   3.913   2.158   7.072
14209SOL    HW144068   3.872   2.236   7.035
14209SOL    HW244069   3.907   2.170   7.167
14210SOL     OW44070   5.366   3.236   5.672
14210SOL    HW144071   5.323   3.321   5.662
14210SOL    HW244072   5.296   3.172   5.658
14211SOL     OW44073   5.124   1.964   6.036
14211SOL    HW144074   5.114   1.945   5.943
14211SOL    HW244075   5.216   1.988   6.045
14212SOL     OW44076   4.138   2.545   6.066
14212SOL    HW144077   4.141   2.451   6.084
14212SOL    HW244078   4.046   2.569   6.075
14213SOL     OW44079   5.254   2.083   7.309
14213SOL    HW144080   5.273   2.095   7.402
14213SOL    HW244081   5.163   2.054   7.306
14214SOL     OW44082   4.341   1.940   5.717
14214SOL    HW144083   4.433   1.958   5.694
14214SOL    HW244084   4.298   1.924   5.633
14215SOL     OW44085   4.488   2.093   7.306
14215SOL    HW144086   4.570   2.057   7.339
14215SOL    HW244087   4.438   2.117   7.385
14216SOL     OW44088   4.704   3.363   6.750
14216SOL    HW144089   4.615   3.387   6.725
14216SOL    HW244090   4.693   3.296   6.818
14217SOL     OW44091   5.061   2.448   7.013
14217SOL    HW144092   5.091   2.427   7.102
14217SOL    HW244093   5.091   2.537   6.998
14218SOL     OW44094   4.541   3.247   6.509
14218SOL    HW144095   4.635   3.241   6.490
14218SOL    HW244096   4.518   3.336   6.483
14219SOL     OW44097   4.666   2.353   6.497
14219SOL    HW144098   4.630   2.359   6.408
14219SOL    HW244099   4.699   2.263   6.503
14220SOL     OW44100   4.278   1.922   6.087
14220SOL    HW144101   4.198   1.922   6.139
14220SOL    HW244102   4.272   2.000   6.032
14221SOL     OW44103   5.153   3.065   5.637
14221SOL    HW144104   5.164   2.985   5.689
14221SOL    HW244105   5.071   3.103   5.667
14222SOL     OW44106   4.012   1.915   5.767
14222SOL    HW144107   4.050   1.987   5.717
14222SOL    HW244108   4.088   1.870   5.805
14223SOL     OW44109   4.663   2.103   6.031
14223SOL    HW144110   4.634   2.142   5.949
14223SOL    HW244111   4.755   2.129   6.039
14224SOL     OW44112   4.800   2.549   7.043
14224SOL    HW144113   4.731   2.483   7.050
14224SOL    HW244114   4.881   2.500   7.040
14225SOL     OW44115   5.004   3.397   6.395
14225SOL    HW144116   4.934   3.424   6.336
14225SOL    HW244117   5.022   3.473   6.449
14226SOL     OW44118   4.184   2.964   6.341
14226SOL    HW144119   4.107   2.988   6.392
14226SOL    HW244120   4.154   2.963   6.250
14227SOL     OW44121   4.731   2.406   5.611
14227SOL    HW144122   4.684   2.486   5.589
14227SOL    HW244123   4.796   2.433   5.675
14228SOL     OW44124   3.815   2.407   6.982
14228SOL    HW144125   3.905   2.417   6.953
14228SOL    HW244126   3.802   2.478   7.046
14229SOL     OW44127   4.272   2.072   6.760
14229SOL    HW144128   4.289   1.982   6.785
14229SOL    HW244129   4.181   2.088   6.787
14230SOL     OW44130   4.584   2.317   6.235
14230SOL    HW144131   4.529   2.382   6.193
14230SOL    HW244132   4.601   2.252   6.167
14231SOL     OW44133   4.754   1.913   6.322
14231SOL    HW144134   4.691   1.926   6.251
14231SOL    HW244135   4.717   1.842   6.374
14232SOL     OW44136   5.160   3.014   6.436
14232SOL    HW144137   5.068   2.992   6.446
14232SOL    HW244138   5.173   3.021   6.341
14233SOL     OW44139   5.184   2.470   6.544
14233SOL    HW144140   5.123   2.396   6.549
14233SOL    HW244141   5.238   2.461   6.623
14234SOL     OW44142   5.584   2.667   5.971
14234SOL    HW144143   5.637   2.614   6.030
14234SOL    HW244144   5.555   2.605   5.903
14235SOL     OW44145   5.403   3.133   6.228
14235SOL    HW144146   5.496   3.147   6.247
14235SOL    HW244147   5.360   3.215   6.251
14236SOL     OW44148   5.115   2.431   5.656
14236SOL    HW144149   5.048   2.412   5.722
14236SOL    HW244150   5.195   2.442   5.706
14237SOL     OW44151   4.241   2.116   5.904
14237SOL    HW144152   4.279   2.062   5.835
14237SOL    HW244153   4.222   2.200   5.860
14238SOL     OW44154   5.473   3.099   7.134
14238SOL    HW144155   5.562   3.068   7.123
14238SOL    HW244156   5.483   3.188   7.170
14239SOL     OW44157   4.739   3.168   6.945
14239SOL    HW144158   4.707   3.228   7.013
14239SOL    HW244159   4.822   3.136   6.978
14240SOL     OW44160   5.329   3.478   7.241
14240SOL    HW144161   5.324   3.521   7.156
14240SOL    HW244162   5.411   3.430   7.240
14241SOL     OW44163   4.835   3.041   6.702
14241SOL    HW144164   4.786   3.091   6.768
14241SOL    HW244165   4.825   3.092   6.622
14242SOL     OW44166   5.353   2.960   6.656
14242SOL    HW144167   5.348   3.027   6.725
14242SOL    HW244168   5.280   2.980   6.598
14243SOL     OW44169   4.679   2.908   7.371
14243SOL    HW144170   4.594   2.951   7.385
14243SOL    HW244171   4.671   2.867   7.285
14244SOL     OW44172   4.401   2.855   5.956
14244SOL    HW144173   4.385   2.868   6.050
14244SOL    HW244174   4.495   2.837   5.950
14245SOL     OW44175   4.138   2.682   6.842
14245SOL    HW144176   4.210   2.691   6.905
14245SOL    HW244177   4.099   2.597   6.863
14246SOL     OW44178   4.986   2.235   6.865
14246SOL    HW144179   5.021   2.312   6.910
14246SOL    HW244180   4.904   2.266   6.825
14247SOL     OW44181   3.807   3.575   6.950
14247SOL    HW144182   3.774   3.602   6.865
14247SOL    HW244183   3.902   3.576   6.941
14248SOL     OW44184   4.079   2.939   6.090
14248SOL    HW144185   4.051   3.028   6.072
14248SOL    HW244186   4.054   2.889   6.012
14249SOL     OW44187   4.278   2.377   6.442
14249SOL    HW144188   4.286   2.436   6.367
14249SOL    HW244189   4.339   2.413   6.507
14250SOL     OW44190   5.010   3.196   6.019
14250SOL    HW144191   5.040   3.286   6.033
14250SOL    HW244192   4.971   3.197   5.932
14251SOL     OW44193   4.991   3.336   6.722
14251SOL    HW144194   5.013   3.309   6.811
14251SOL    HW244195   4.896   3.333   6.719
14252SOL     OW44196   5.302   2.487   6.052
14252SOL    HW144197   5.266   2.514   6.137
14252SOL    HW244198   5.298   2.567   5.999
14253SOL     OW44199   4.161   2.544   7.175
14253SOL    HW144200   4.212   2.598   7.115
14253SOL    HW244201   4.153   2.598   7.254
14254SOL     OW44202   5.337   2.639   7.267
14254SOL    HW144203   5.252   2.683   7.261
14254SOL    HW244204   5.391   2.683   7.201
14255SOL     OW44205   4.734   1.991   7.364
14255SOL    HW144206   4.784   2.068   7.336
14255SOL    HW244207   4.771   1.919   7.313
14256SOL     OW44208   4.211   1.895   7.340
14256SOL    HW144209   4.162   1.849   7.272
14256SOL    HW244210   4.160   1.974   7.358
14257SOL     OW44211   4.320   2.724   6.630
14257SOL    HW144212   4.326   2.811   6.590
14257SOL    HW244213   4.251   2.734   6.696
14258SOL     OW44214   5.064   2.713   6.607
14258SOL    HW144215   4.979   2.713   6.563
14258SOL    HW244216   5.103   2.629   6.584
14259SOL     OW44217   4.925   2.378   5.844
14259SOL    HW144218   4.928   2.303   5.904
14259SOL    HW244219   4.884   2.448   5.895
14260SOL     OW44220   4.009   2.054   6.832
14260SOL    HW144221   3.969   2.089   6.912
14260SOL    HW244222   3.990   1.960   6.835
14261SOL     OW44223   4.438   2.483   6.639
14261SOL    HW144224   4.520   2.491   6.589
14261SOL    HW244225   4.401   2.571   6.639
14262SOL     OW44226   5.474   2.810   7.450
14262SOL    HW144227   5.420   2.754   7.394
14262SOL    HW244228   5.416   2.835   7.522
14263SOL     OW44229   4.032   1.913   6.210
14263SOL    HW144230   4.005   2.004   6.224
14263SOL    HW244231   4.039   1.876   6.299
14264SOL     OW44232   5.349   2.244   5.942
14264SOL    HW144233   5.376   2.186   6.013
14264SOL    HW244234   5.322   2.325   5.986
14265SOL     OW44235   4.763   2.607   6.542
14265SOL    HW144236   4.749   2.626   6.635
14265SOL    HW244237   4.732   2.517   6.530
14266SOL     OW44238   5.577   3.352   7.193
14266SOL    HW144239   5.592   3.386   7.105
14266SOL    HW244240   5.656   3.376   7.242
14267SOL     OW44241   4.137   2.701   7.390
14267SOL    HW144242   4.196   2.754   7.444
14267SOL    HW244243   4.055   2.752   7.387
14268SOL     OW44244   5.270   2.111   5.711
14268SOL    HW144245   5.196   2.059   5.744
14268SOL    HW244246   5.296   2.165   5.786
14269SOL     OW44247   5.014   2.687   5.612
14269SOL    HW144248   5.052   2.599   5.611
14269SOL    HW244249   5.044   2.727   5.530
14270SOL     OW44250   4.816   3.186   6.467
14270SOL    HW144251   4.812   3.123   6.396
14270SOL    HW244252   4.877   3.253   6.436
14271SOL     OW44253   4.030   2.685   6.507
14271SOL    HW144254   4.116   2.691   6.465
14271SOL    HW244255   4.047   2.642   6.591
14272SOL     OW44256   4.072   2.374   6.619
14272SOL    HW144257   4.024   2.296   6.592
14272SOL    HW244258   4.138   2.386   6.551
14273SOL     OW44259   4.856   2.225   7.278
14273SOL    HW144260   4.804   2.288   7.327
14273SOL    HW244261   4.942   2.267   7.270
14274SOL     OW44262   4.846   2.078   7.041
14274SOL    HW144263   4.845   2.128   7.122
14274SOL    HW244264   4.908   2.125   6.984
14275SOL     OW44265   4.698   2.637   6.803
14275SOL    HW144266   4.746   2.619   6.884
14275SOL    HW244267   4.633   2.703   6.828
14276SOL     OW44268   3.757   2.389   6.708
14276SOL    HW144269   3.821   2.431   6.650
14276SOL    HW244270   3.790   2.407   6.796
14277SOL     OW44271   3.971   2.370   7.258
14277SOL    HW144272   4.043   2.426   7.230
14277SOL    HW244273   3.894   2.426   7.254
14278SOL     OW44274   5.115   2.789   7.229
14278SOL    HW144275   5.128   2.883   7.231
14278SOL    HW244276   5.100   2.768   7.137
14279SOL     OW44277   4.536   2.421   5.952
14279SOL    HW144278   4.520   2.352   5.887
14279SOL    HW244279   4.469   2.487   5.934
14280SOL     OW44280   5.355   2.450   6.757
14280SOL    HW144281   5.344   2.408   6.842
14280SOL    HW244282   5.444   2.429   6.731
14281SOL     OW44283   3.983   3.377   7.342
14281SOL    HW144284   3.917   3.407   7.404
14281SOL    HW244285   4.054   3.342   7.397
14282SOL     OW44286   4.411   2.302   6.838
14282SOL    HW144287   4.354   2.233   6.804
14282SOL    HW244288   4.411   2.369   6.769
14283SOL     OW44289   4.188   2.342   5.767
14283SOL    HW144290   4.237   2.421   5.793
14283SOL    HW244291   4.100   2.374   5.748
14284SOL     OW44292   5.042   2.900   6.804
14284SOL    HW144293   5.062   2.841   6.731
14284SOL    HW244294   4.969   2.953   6.772
14285SOL     OW44295   5.058   2.705   5.885
14285SOL    HW144296   4.984   2.722   5.943
14285SOL    HW244297   5.021   2.707   5.797
14286SOL     OW44298   5.510   3.586   6.755
14286SOL    HW144299   5.562   3.620   6.683
14286SOL    HW244300   5.475   3.503   6.722
14287SOL     OW44301   5.054   3.616   6.741
14287SOL    HW144302   5.076   3.631   6.649
14287SOL    HW244303   5.018   3.528   6.744
14288SOL     OW44304   5.454   2.023   6.096
14288SOL    HW144305   5.519   2.009   6.027
14288SOL    HW244306   5.436   1.936   6.131
14289SOL     OW44307   5.136   3.446   6.075
14289SOL    HW144308   5.181   3.465   5.993
14289SOL    HW244309   5.052   3.492   6.067
14290SOL     OW44310   3.838   3.673   7.428
14290SOL    HW144311   3.809   3.593   7.471
14290SOL    HW244312   3.895   3.716   7.492
14291SOL     OW44313   5.007   2.761   6.227
14291SOL    HW144314   5.087   2.711   6.241
14291SOL    HW244315   5.038   2.848   6.201
14292SOL     OW44316   5.358   3.592   6.988
14292SOL    HW144317   5.402   3.599   6.903
14292SOL    HW244318   5.334   3.682   7.010
14293SOL     OW44319   5.568   2.029   6.550
14293SOL    HW144320   5.592   1.941   6.522
14293SOL    HW244321   5.481   2.044   6.512
14294SOL     OW44322   3.973   2.162   6.294
14294SOL    HW144323   3.889   2.201   6.271
14294SOL    HW244324   3.976   2.166   6.389
14295SOL     OW44325   4.947   3.420   5.588
14295SOL    HW144326   4.934   3.455   5.676
14295SOL    HW244327   4.866   3.441   5.542
14296SOL     OW44328   4.553   2.894   6.935
14296SOL    HW144329   4.559   2.926   6.845
14296SOL    HW244330   4.547   2.974   6.988
14297SOL     OW44331   4.658   2.775   5.914
14297SOL    HW144332   4.699   2.808   5.835
14297SOL    HW244333   4.709   2.698   5.937
14298SOL     OW44334   5.218   3.465   5.627
14298SOL    HW144335   5.125   3.453   5.610
14298SOL    HW244336   5.255   3.486   5.541
14299SOL     OW44337   5.358   3.139   6.873
14299SOL    HW144338   5.392   3.119   6.961
14299SOL    HW244339   5.295   3.210   6.887
14300SOL     OW44340   4.797   2.971   6.302
14300SOL    HW144341   4.717   2.933   6.337
14300SOL    HW244342   4.826   2.908   6.236
14301SOL     OW44343   4.771   2.096   6.534
14301SOL    HW144344   4.767   2.047   6.452
14301SOL    HW244345   4.751   2.031   6.602
14302SOL     OW44346   5.459   2.239   6.974
14302SOL    HW144347   5.525   2.309   6.969
14302SOL    HW244348   5.487   2.175   6.910
14303SOL     OW44349   3.892   2.827   7.373
14303SOL    HW144350   3.833   2.852   7.302
14303SOL    HW244351   3.920   2.910   7.411
14304SOL     OW44352   4.449   2.064   7.042
14304SOL    HW144353   4.374   2.120   7.020
14304SOL    HW244354   4.461   2.076   7.136
14305SOL     OW44355   3.812   2.186   5.624
14305SOL    HW144356   3.752   2.198   5.550
14305SOL    HW244357   3.843   2.274   5.645
14306SOL     OW44358   5.145   2.707   6.968
14306SOL    HW144359   5.091   2.770   6.919
14306SOL    HW244360   5.233   2.720   6.935
14307SOL     OW44361   3.776   2.013   5.876
14307SOL    HW144362   3.757   2.087   5.818
14307SOL    HW244363   3.864   1.986   5.852
14308SOL     OW44364   4.925   3.178   5.746
14308SOL    HW144365   4.837   3.159   5.713
14308SOL    HW244366   4.935   3.272   5.734
14309SOL     OW44367   4.350   2.692   7.021
14309SOL    HW144368   4.380   2.782   7.009
14309SOL    HW244369   4.418   2.649   7.072
14310SOL     OW44370   5.223   3.658   6.522
14310SOL    HW144371   5.243   3.742   6.481
14310SOL    HW244372   5.261   3.665   6.610
14311SOL     OW44373   4.456   2.417   7.280
14311SOL    HW144374   4.444   2.504   7.319
14311SOL    HW244375   4.506   2.368   7.345
14312SOL     OW44376   5.198   3.050   7.211
14312SOL    HW144377   5.185   3.064   7.305
14312SOL    HW244378   5.287   3.081   7.194
14313SOL     OW44379   4.076   3.593   7.204
14313SOL    HW144380   4.006   3.646   7.167
14313SOL    HW244381   4.032   3.515   7.238
14314SOL     OW44382   5.388   2.746   6.835
14314SOL    HW144383   5.375   2.668   6.781
14314SOL    HW244384   5.375   2.819   6.774
14315SOL     OW44385   4.934   2.175   6.046
14315SOL    HW144386   4.997   2.103   6.045
14315SOL    HW244387   4.961   2.230   6.119
14316SOL     OW44388   4.325   2.582   6.262
14316SOL    HW144389   4.360   2.671   6.256
14316SOL    HW244390   4.261   2.577   6.191
14317SOL     OW44391   5.484   2.216   7.246
14317SOL    HW144392   5.474   2.233   7.152
14317SOL    HW244393   5.407   2.165   7.269
14318SOL     OW44394   5.482   2.791   7.093
14318SOL    HW144395   5.462   2.883   7.113
14318SOL    HW244396   5.458   2.781   7.001
14319SOL     OW44397   4.598   2.844   6.449
14319SOL    HW144398   4.650   2.775   6.491
14319SOL    HW244399   4.564   2.896   6.521
14320SOL     OW44400   4.798   2.837   5.692
14320SOL    HW144401   4.764   2.899   5.627
14320SOL    HW244402   4.871   2.794   5.647
14321SOL     OW44403   5.548   3.415   6.432
14321SOL    HW144404   5.471   3.411   6.375
14321SOL    HW244405   5.518   3.379   6.515
14322SOL     OW44406   3.969   3.073   7.441
14322SOL    HW144407   3.906   3.132   7.400
14322SOL    HW244408   4.053   3.117   7.430
14323SOL     OW44409   3.774   3.019   6.291
14323SOL    HW144410   3.839   3.002   6.359
14323SOL    HW244411   3.825   3.054   6.217
14324SOL     OW44412   5.535   2.031   6.821
14324SOL    HW144413   5.539   1.935   6.825
14324SOL    HW244414   5.548   2.052   6.728
14325SOL     OW44415   4.160   2.281   6.124
14325SOL    HW144416   4.176   2.217   6.055
14325SOL    HW244417   4.097   2.239   6.182
14326SOL     OW44418   5.444   3.329   6.674
14326SOL    HW144419   5.360   3.314   6.633
14326SOL    HW244420   5.444   3.273   6.752
14327SOL     OW44421   4.064   2.412   6.883
14327SOL    HW144422   4.137   2.363   6.920
14327SOL    HW244423   4.071   2.398   6.788
14328SOL     OW44424   5.154   2.086   6.711
14328SOL    HW144425   5.191   2.019   6.767
14328SOL    HW244426   5.101   2.140   6.769
14329SOL     OW44427   4.722   1.886   6.758
14329SOL    HW144428   4.663   1.824   6.714
14329SOL    HW244429   4.809   1.848   6.749
14330SOL     OW44430   5.078   1.916   5.768
14330SOL    HW144431   5.102   1.861   5.693
14330SOL    HW244432   4.991   1.884   5.794
14331SOL     OW44433   5.025   2.320   6.263
14331SOL    HW144434   4.974   2.401   6.259
14331SOL    HW244435   5.019   2.292   6.354
14332SOL     OW44436   5.307   2.058   6.475
14332SOL    HW144437   5.252   2.084   6.549
14332SOL    HW244438   5.305   2.133   6.416
14333SOL     OW44439   3.742   2.928   5.963
14333SOL    HW144440   3.767   2.972   5.881
14333SOL    HW244441   3.752   2.835   5.944
14334SOL     OW44442   3.938   2.431   7.564
14334SOL    HW144443   3.869   2.467   7.620
14334SOL    HW244444   3.962   2.503   7.506
14335SOL     OW44445   3.949   2.132   8.432
14335SOL    HW144446   3.973   2.110   8.522
14335SOL    HW244447   3.855   2.113   8.427
14336SOL     OW44448   3.716   2.236   8.092
14336SOL    HW144449   3.640   2.276   8.133
14336SOL    HW244450   3.680   2.161   8.043
14337SOL     OW44451   5.279   3.368   8.160
14337SOL    HW144452   5.224   3.365   8.238
14337SOL    HW244453   5.218   3.388   8.089
14338SOL     OW44454   4.867   2.555   8.165
14338SOL    HW144455   4.915   2.630   8.130
14338SOL    HW244456   4.826   2.588   8.245
14339SOL     OW44457   5.529   2.452   7.665
14339SOL    HW144458   5.493   2.453   7.576
14339SOL    HW244459   5.472   2.391   7.713
14340SOL     OW44460   4.590   2.621   9.266
14340SOL    HW144461   4.572   2.692   9.328
14340SOL    HW244462   4.619   2.666   9.186
14341SOL     OW44463   4.406   2.859   8.125
14341SOL    HW144464   4.461   2.883   8.200
14341SOL    HW244465   4.352   2.936   8.109
14342SOL     OW44466   4.409   3.016   9.280
14342SOL    HW144467   4.439   3.105   9.295
14342SOL    HW244468   4.333   3.025   9.222
14343SOL     OW44469   5.211   3.337   8.877
14343SOL    HW144470   5.166   3.412   8.838
14343SOL    HW244471   5.146   3.266   8.874
14344SOL     OW44472   4.166   2.255   8.967
14344SOL    HW144473   4.242   2.198   8.949
14344SOL    HW244474   4.090   2.199   8.950
14345SOL     OW44475   5.320   2.301   8.198
14345SOL    HW144476   5.250   2.317   8.135
14345SOL    HW244477   5.317   2.376   8.257
14346SOL     OW44478   3.951   3.566   7.923
14346SOL    HW144479   3.972   3.647   7.970
14346SOL    HW244480   4.026   3.552   7.865
14347SOL     OW44481   4.954   3.122   9.191
14347SOL    HW144482   4.935   3.167   9.274
14347SOL    HW244483   4.870   3.081   9.167
14348SOL     OW44484   3.885   3.292   7.990
14348SOL    HW144485   3.912   3.383   7.984
14348SOL    HW244486   3.796   3.295   8.023
14349SOL     OW44487   4.379   2.814   7.563
14349SOL    HW144488   4.390   2.883   7.497
14349SOL    HW244489   4.387   2.860   7.647
14350SOL     OW44490   5.325   1.988   8.916
14350SOL    HW144491   5.354   2.068   8.872
14350SOL    HW244492   5.294   2.017   9.002
14351SOL     OW44493   3.860   2.500   8.013
14351SOL    HW144494   3.809   2.421   8.029
14351SOL    HW244495   3.844   2.555   8.089
14352SOL     OW44496   5.599   3.614   7.798
14352SOL    HW144497   5.546   3.600   7.877
14352SOL    HW244498   5.601   3.709   7.787
14353SOL     OW44499   3.787   3.451   7.579
14353SOL    HW144500   3.766   3.360   7.596
14353SOL    HW244501   3.747   3.499   7.651
14354SOL     OW44502   5.407   2.771   8.064
14354SOL    HW144503   5.485   2.739   8.020
14354SOL    HW244504   5.374   2.841   8.009
14355SOL     OW44505   5.375   2.972   7.878
14355SOL    HW144506   5.460   2.979   7.834
14355SOL    HW244507   5.378   3.036   7.949
14356SOL     OW44508   3.848   2.596   9.039
14356SOL    HW144509   3.931   2.635   9.013
14356SOL    HW244510   3.789   2.671   9.049
14357SOL     OW44511   4.330   3.140   8.139
14357SOL    HW144512   4.253   3.149   8.196
14357SOL    HW244513   4.319   3.210   8.074
14358SOL     OW44514   5.058   3.110   8.876
14358SOL    HW144515   5.050   3.046   8.805
14358SOL    HW244516   5.098   3.061   8.947
14359SOL     OW44517   4.536   1.855   7.970
14359SOL    HW144518   4.572   1.932   7.926
14359SOL    HW244519   4.442   1.872   7.976
14360SOL     OW44520   3.882   2.751   8.748
14360SOL    HW144521   3.972   2.755   8.715
14360SOL    HW244522   3.831   2.803   8.686
14361SOL     OW44523   5.272   2.839   7.655
14361SOL    HW144524   5.197   2.786   7.683
14361SOL    HW244525   5.297   2.889   7.733
14362SOL     OW44526   4.064   2.103   9.291
14362SOL    HW144527   4.104   2.189   9.276
14362SOL    HW244528   3.971   2.121   9.303
14363SOL     OW44529   5.212   3.253   8.420
14363SOL    HW144530   5.142   3.277   8.481
14363SOL    HW244531   5.175   3.181   8.369
14364SOL     OW44532   5.419   3.552   7.998
14364SOL    HW144533   5.360   3.550   7.922
14364SOL    HW244534   5.370   3.508   8.067
14365SOL     OW44535   4.306   2.594   7.712
14365SOL    HW144536   4.319   2.671   7.658
14365SOL    HW244537   4.241   2.620   7.777
14366SOL     OW44538   5.010   2.230   8.388
14366SOL    HW144539   4.919   2.199   8.390
14366SOL    HW244540   5.056   2.173   8.449
14367SOL     OW44541   5.313   3.537   7.745
14367SOL    HW144542   5.391   3.585   7.718
14367SOL    HW244543   5.277   3.503   7.663
14368SOL     OW44544   4.524   2.474   8.893
14368SOL    HW144545   4.487   2.451   8.978
14368SOL    HW244546   4.481   2.414   8.831
14369SOL     OW44547   5.109   2.341   9.120
14369SOL    HW144548   5.110   2.387   9.204
14369SOL    HW244549   5.179   2.276   9.128
14370SOL     OW44550   4.680   2.750   9.039
14370SOL    HW144551   4.732   2.673   9.015
14370SOL    HW244552   4.655   2.789   8.956
14371SOL     OW44553   4.716   2.264   8.677
14371SOL    HW144554   4.636   2.296   8.719
14371SOL    HW244555   4.702   2.278   8.583
14372SOL     OW44556   4.761   2.519   7.915
14372SOL    HW144557   4.794   2.548   8.000
14372SOL    HW244558   4.726   2.598   7.874
14373SOL     OW44559   3.797   2.633   8.242
14373SOL    HW144560   3.880   2.657   8.282
14373SOL    HW244561   3.737   2.704   8.263
14374SOL     OW44562   4.680   2.192   7.642
14374SOL    HW144563   4.689   2.267   7.583
14374SOL    HW244564   4.687   2.115   7.585
14375SOL     OW44565   5.422   2.433   9.282
14375SOL    HW144566   5.393   2.509   9.231
14375SOL    HW244567   5.450   2.370   9.216
14376SOL     OW44568   5.113   2.995   8.007
14376SOL    HW144569   5.186   3.004   7.946
14376SOL    HW244570   5.052   3.064   7.982
14377SOL     OW44571   4.275   2.036   8.348
14377SOL    HW144572   4.278   2.068   8.438
14377SOL    HW244573   4.267   2.115   8.295
14378SOL     OW44574   4.717   3.298   7.912
14378SOL    HW144575   4.718   3.344   7.828
14378SOL    HW244576   4.669   3.356   7.971
14379SOL     OW44577   4.089   3.682   8.298
14379SOL    HW144578   4.129   3.597   8.317
14379SOL    HW244579   4.158   3.746   8.317
14380SOL     OW44580   5.525   2.897   8.304
14380SOL    HW144581   5.463   2.908   8.231
14380SOL    HW244582   5.473   2.917   8.382
14381SOL     OW44583   4.056   2.809   7.669
14381SOL    HW144584   4.092   2.898   7.667
14381SOL    HW244585   3.978   2.814   7.614
14382SOL     OW44586   5.231   2.586   8.159
14382SOL    HW144587   5.216   2.574   8.253
14382SOL    HW244588   5.295   2.657   8.154
14383SOL     OW44589   4.181   3.086   9.150
14383SOL    HW144590   4.189   3.102   9.056
14383SOL    HW244591   4.180   3.173   9.189
14384SOL     OW44592   3.908   2.151   8.936
14384SOL    HW144593   3.872   2.234   8.904
14384SOL    HW244594   3.875   2.145   9.026
14385SOL     OW44595   5.377   3.216   7.536
14385SOL    HW144596   5.337   3.302   7.530
14385SOL    HW244597   5.305   3.155   7.518
14386SOL     OW44598   4.197   3.574   7.794
14386SOL    HW144599   4.245   3.650   7.827
14386SOL    HW244600   4.250   3.542   7.721
14387SOL     OW44601   5.111   1.972   7.898
14387SOL    HW144602   5.104   1.951   7.805
14387SOL    HW244603   5.201   2.003   7.910
14388SOL     OW44604   4.634   3.533   8.350
14388SOL    HW144605   4.629   3.463   8.415
14388SOL    HW244606   4.605   3.493   8.268
14389SOL     OW44607   4.137   2.535   7.940
14389SOL    HW144608   4.150   2.443   7.960
14389SOL    HW244609   4.044   2.550   7.953
14390SOL     OW44610   5.244   2.087   9.168
14390SOL    HW144611   5.258   2.099   9.262
14390SOL    HW244612   5.155   2.051   9.161
14391SOL     OW44613   4.369   1.958   7.555
14391SOL    HW144614   4.442   1.898   7.543
14391SOL    HW244615   4.312   1.941   7.480
14392SOL     OW44616   4.485   2.135   9.197
14392SOL    HW144617   4.568   2.087   9.204
14392SOL    HW244618   4.448   2.130   9.285
14393SOL     OW44619   5.062   2.448   8.866
14393SOL    HW144620   5.083   2.427   8.957
14393SOL    HW244621   5.093   2.538   8.854
14394SOL     OW44622   4.454   3.306   8.328
14394SOL    HW144623   4.526   3.264   8.375
14394SOL    HW244624   4.427   3.242   8.263
14395SOL     OW44625   4.661   2.355   8.351
14395SOL    HW144626   4.630   2.361   8.261
14395SOL    HW244627   4.691   2.264   8.361
14396SOL     OW44628   4.275   1.924   7.943
14396SOL    HW144629   4.196   1.926   7.996
14396SOL    HW244630   4.268   2.001   7.886
14397SOL     OW44631   5.171   3.043   7.483
14397SOL    HW144632   5.191   2.969   7.541
14397SOL    HW244633   5.085   3.073   7.511
14398SOL     OW44634   4.008   1.918   7.630
14398SOL    HW144635   4.050   1.991   7.584
14398SOL    HW244636   4.081   1.868   7.668
14399SOL     OW44637   4.798   2.523   8.953
14399SOL    HW144638   4.719   2.497   8.907
14399SOL    HW244639   4.870   2.492   8.897
14400SOL     OW44640   4.983   3.434   8.264
14400SOL    HW144641   4.974   3.496   8.192
14400SOL    HW244642   4.955   3.483   8.341
14401SOL     OW44643   4.961   3.651   8.086
14401SOL    HW144644   4.976   3.717   8.019
14401SOL    HW244645   4.889   3.686   8.139
14402SOL     OW44646   4.731   2.407   7.468
14402SOL    HW144647   4.677   2.484   7.450
14402SOL    HW244648   4.800   2.438   7.526
14403SOL     OW44649   3.817   2.399   8.858
14403SOL    HW144650   3.901   2.414   8.815
14403SOL    HW244651   3.804   2.475   8.914
14404SOL     OW44652   4.279   2.084   8.622
14404SOL    HW144653   4.316   2.027   8.690
14404SOL    HW244654   4.185   2.087   8.642
14405SOL     OW44655   4.553   2.328   8.061
14405SOL    HW144656   4.543   2.423   8.051
14405SOL    HW244657   4.463   2.296   8.072
14406SOL     OW44658   4.739   1.902   8.184
14406SOL    HW144659   4.671   1.898   8.118
14406SOL    HW244660   4.716   1.833   8.246
14407SOL     OW44661   5.149   3.004   8.296
14407SOL    HW144662   5.059   3.036   8.309
14407SOL    HW244663   5.162   3.007   8.202
14408SOL     OW44664   5.186   2.468   8.409
14408SOL    HW144665   5.122   2.397   8.417
14408SOL    HW244666   5.238   2.462   8.490
14409SOL     OW44667   5.579   2.665   7.835
14409SOL    HW144668   5.636   2.614   7.892
14409SOL    HW244669   5.556   2.605   7.764
14410SOL     OW44670   5.400   3.124   8.096
14410SOL    HW144671   5.492   3.144   8.110
14410SOL    HW244672   5.354   3.205   8.119
14411SOL     OW44673   5.121   2.429   7.509
14411SOL    HW144674   5.056   2.418   7.579
14411SOL    HW244675   5.204   2.439   7.554
14412SOL     OW44676   4.249   2.113   7.751
14412SOL    HW144677   4.294   2.068   7.679
14412SOL    HW244678   4.228   2.199   7.716
14413SOL     OW44679   5.476   3.103   9.003
14413SOL    HW144680   5.565   3.074   8.987
14413SOL    HW244681   5.484   3.194   9.030
14414SOL     OW44682   5.337   3.478   9.131
14414SOL    HW144683   5.287   3.487   9.050
14414SOL    HW244684   5.422   3.444   9.104
14415SOL     OW44685   4.876   3.033   8.533
14415SOL    HW144686   4.782   3.037   8.548
14415SOL    HW244687   4.890   3.087   8.455
14416SOL     OW44688   5.345   2.952   8.514
14416SOL    HW144689   5.342   3.023   8.578
14416SOL    HW244690   5.273   2.970   8.454
14417SOL     OW44691   4.651   1.942   8.839
14417SOL    HW144692   4.666   1.934   8.744
14417SOL    HW244693   4.728   1.990   8.871
14418SOL     OW44694   4.704   2.984   9.176
14418SOL    HW144695   4.618   3.023   9.158
14418SOL    HW244696   4.704   2.903   9.126
14419SOL     OW44697   4.433   2.905   7.824
14419SOL    HW144698   4.346   2.937   7.847
14419SOL    HW244699   4.471   2.876   7.907
14420SOL     OW44700   4.145   2.685   8.686
14420SOL    HW144701   4.219   2.689   8.746
14420SOL    HW244702   4.105   2.599   8.703
14421SOL     OW44703   4.981   2.226   8.734
14421SOL    HW144704   5.013   2.308   8.771
14421SOL    HW244705   4.891   2.245   8.707
14422SOL     OW44706   4.168   2.947   7.897
14422SOL    HW144707   4.117   3.028   7.894
14422SOL    HW244708   4.106   2.879   7.870
14423SOL     OW44709   4.295   2.381   8.296
14423SOL    HW144710   4.298   2.446   8.225
14423SOL    HW244711   4.345   2.421   8.367
14424SOL     OW44712   4.969   3.198   7.908
14424SOL    HW144713   5.013   3.275   7.871
14424SOL    HW244714   4.876   3.222   7.910
14425SOL     OW44715   5.031   3.300   8.614
14425SOL    HW144716   5.028   3.382   8.663
14425SOL    HW244717   4.939   3.281   8.593
14426SOL     OW44718   5.307   2.482   7.918
14426SOL    HW144719   5.268   2.511   8.000
14426SOL    HW244720   5.327   2.563   7.871
14427SOL     OW44721   4.159   2.605   9.054
14427SOL    HW144722   4.209   2.654   8.989
14427SOL    HW244723   4.211   2.526   9.069
14428SOL     OW44724   5.342   2.646   9.134
14428SOL    HW144725   5.254   2.682   9.129
14428SOL    HW244726   5.390   2.689   9.064
14429SOL     OW44727   4.726   2.001   9.227
14429SOL    HW144728   4.778   2.077   9.200
14429SOL    HW244729   4.773   1.926   9.192
14430SOL     OW44730   4.212   1.887   9.207
14430SOL    HW144731   4.166   1.843   9.135
14430SOL    HW244732   4.161   1.966   9.224
14431SOL     OW44733   4.352   2.746   8.502
14431SOL    HW144734   4.354   2.811   8.433
14431SOL    HW244735   4.267   2.758   8.545
14432SOL     OW44736   5.072   2.710   8.496
14432SOL    HW144737   5.010   2.745   8.433
14432SOL    HW244738   5.103   2.629   8.456
14433SOL     OW44739   4.936   2.399   7.707
14433SOL    HW144740   4.948   2.334   7.776
14433SOL    HW244741   4.935   2.483   7.753
14434SOL     OW44742   4.016   2.053   8.697
14434SOL    HW144743   3.971   2.087   8.774
14434SOL    HW244744   3.995   1.960   8.696
14435SOL     OW44745   4.443   2.494   8.501
14435SOL    HW144746   4.524   2.497   8.451
14435SOL    HW244747   4.411   2.585   8.502
14436SOL     OW44748   5.478   2.807   9.319
14436SOL    HW144749   5.431   2.753   9.255
14436SOL    HW244750   5.414   2.826   9.387
14437SOL     OW44751   4.032   1.916   8.074
14437SOL    HW144752   4.005   2.007   8.086
14437SOL    HW244753   4.039   1.881   8.162
14438SOL     OW44754   5.339   2.238   7.807
14438SOL    HW144755   5.376   2.183   7.876
14438SOL    HW244756   5.319   2.321   7.850
14439SOL     OW44757   4.758   2.606   8.409
14439SOL    HW144758   4.754   2.619   8.504
14439SOL    HW244759   4.730   2.515   8.396
14440SOL     OW44760   5.581   3.358   9.053
14440SOL    HW144761   5.587   3.390   8.963
14440SOL    HW244762   5.666   3.378   9.091
14441SOL     OW44763   4.077   2.739   9.283
14441SOL    HW144764   4.147   2.804   9.290
14441SOL    HW244765   4.098   2.690   9.204
14442SOL     OW44766   5.267   2.110   7.575
14442SOL    HW144767   5.194   2.057   7.606
14442SOL    HW244768   5.293   2.163   7.650
14443SOL     OW44769   5.037   2.690   7.466
14443SOL    HW144770   5.075   2.602   7.462
14443SOL    HW244771   5.061   2.731   7.383
14444SOL     OW44772   4.922   3.163   8.300
14444SOL    HW144773   4.865   3.126   8.233
14444SOL    HW244774   4.929   3.256   8.277
14445SOL     OW44775   4.022   2.695   8.384
14445SOL    HW144776   4.020   2.784   8.349
14445SOL    HW244777   4.077   2.702   8.462
14446SOL     OW44778   4.096   2.355   8.492
14446SOL    HW144779   4.041   2.287   8.454
14446SOL    HW244780   4.149   2.386   8.419
14447SOL     OW44781   4.858   2.228   9.146
14447SOL    HW144782   4.804   2.291   9.193
14447SOL    HW244783   4.940   2.275   9.128
14448SOL     OW44784   4.889   2.055   8.930
14448SOL    HW144785   4.873   2.120   8.998
14448SOL    HW244786   4.926   2.105   8.857
14449SOL     OW44787   3.728   3.188   7.633
14449SOL    HW144788   3.641   3.205   7.597
14449SOL    HW244789   3.724   3.098   7.665
14450SOL     OW44790   3.853   3.516   8.255
14450SOL    HW144791   3.810   3.551   8.177
14450SOL    HW244792   3.915   3.584   8.281
14451SOL     OW44793   4.209   3.431   8.371
14451SOL    HW144794   4.301   3.408   8.366
14451SOL    HW244795   4.163   3.351   8.343
14452SOL     OW44796   4.716   2.628   8.676
14452SOL    HW144797   4.774   2.684   8.727
14452SOL    HW244798   4.629   2.666   8.688
14453SOL     OW44799   3.764   2.403   8.559
14453SOL    HW144800   3.804   2.439   8.480
14453SOL    HW244801   3.817   2.436   8.631
14454SOL     OW44802   3.951   2.374   9.158
14454SOL    HW144803   4.025   2.362   9.099
14454SOL    HW244804   3.903   2.449   9.122
14455SOL     OW44805   5.105   2.778   9.106
14455SOL    HW144806   5.134   2.869   9.106
14455SOL    HW244807   5.097   2.754   9.014
14456SOL     OW44808   4.500   2.405   7.766
14456SOL    HW144809   4.441   2.364   7.702
14456SOL    HW244810   4.465   2.493   7.778
14457SOL     OW44811   5.356   2.452   8.624
14457SOL    HW144812   5.342   2.404   8.705
14457SOL    HW244813   5.444   2.428   8.596
14458SOL     OW44814   4.421   2.313   8.700
14458SOL    HW144815   4.370   2.241   8.665
14458SOL    HW244816   4.421   2.379   8.630
14459SOL     OW44817   4.195   2.354   7.645
14459SOL    HW144818   4.233   2.439   7.667
14459SOL    HW244819   4.105   2.375   7.618
14460SOL     OW44820   3.800   3.002   8.956
14460SOL    HW144821   3.855   2.945   9.010
14460SOL    HW244822   3.852   3.019   8.878
14461SOL     OW44823   5.042   2.899   8.688
14461SOL    HW144824   5.067   2.836   8.620
14461SOL    HW244825   4.983   2.960   8.644
14462SOL     OW44826   5.044   2.688   7.750
14462SOL    HW144827   4.994   2.740   7.812
14462SOL    HW244828   5.005   2.708   7.665
14463SOL     OW44829   5.516   3.583   8.622
14463SOL    HW144830   5.564   3.618   8.547
14463SOL    HW244831   5.458   3.517   8.585
14464SOL     OW44832   4.989   3.592   8.525
14464SOL    HW144833   5.076   3.606   8.487
14464SOL    HW244834   5.006   3.576   8.618
14465SOL     OW44835   5.457   2.025   7.959
14465SOL    HW144836   5.520   2.011   7.888
14465SOL    HW244837   5.437   1.938   7.992
14466SOL     OW44838   5.126   3.455   7.951
14466SOL    HW144839   5.151   3.482   7.863
14466SOL    HW244840   5.058   3.516   7.977
14467SOL     OW44841   5.017   2.745   8.061
14467SOL    HW144842   5.103   2.710   8.084
14467SOL    HW244843   5.031   2.839   8.052
14468SOL     OW44844   4.343   3.470   7.593
14468SOL    HW144845   4.323   3.486   7.501
14468SOL    HW244846   4.370   3.378   7.596
14469SOL     OW44847   5.468   3.650   8.891
14469SOL    HW144848   5.453   3.614   8.804
14469SOL    HW244849   5.402   3.718   8.901
14470SOL     OW44850   5.567   2.029   8.414
14470SOL    HW144851   5.591   1.942   8.383
14470SOL    HW244852   5.480   2.045   8.377
14471SOL     OW44853   3.973   2.167   8.153
14471SOL    HW144854   3.888   2.204   8.129
14471SOL    HW244855   3.974   2.169   8.249
14472SOL     OW44856   4.618   2.878   8.807
14472SOL    HW144857   4.616   2.900   8.714
14472SOL    HW244858   4.637   2.962   8.850
14473SOL     OW44859   4.669   2.733   7.781
14473SOL    HW144860   4.593   2.790   7.769
14473SOL    HW244861   4.729   2.758   7.711
14474SOL     OW44862   5.239   3.444   7.502
14474SOL    HW144863   5.146   3.427   7.513
14474SOL    HW244864   5.249   3.464   7.409
14475SOL     OW44865   5.354   3.141   8.724
14475SOL    HW144866   5.389   3.134   8.812
14475SOL    HW244867   5.278   3.199   8.732
14476SOL     OW44868   4.787   2.953   8.159
14476SOL    HW144869   4.702   2.943   8.202
14476SOL    HW244870   4.765   2.963   8.066
14477SOL     OW44871   4.761   2.098   8.395
14477SOL    HW144872   4.756   2.042   8.317
14477SOL    HW244873   4.745   2.038   8.468
14478SOL     OW44874   4.331   3.361   7.955
14478SOL    HW144875   4.369   3.312   7.882
14478SOL    HW244876   4.268   3.420   7.915
14479SOL     OW44877   5.464   2.238   8.841
14479SOL    HW144878   5.527   2.310   8.833
14479SOL    HW244879   5.491   2.174   8.776
14480SOL     OW44880   3.957   3.118   7.797
14480SOL    HW144881   3.918   3.157   7.719
14480SOL    HW244882   3.941   3.181   7.867
14481SOL     OW44883   3.838   2.842   9.187
14481SOL    HW144884   3.765   2.840   9.249
14481SOL    HW244885   3.914   2.812   9.238
14482SOL     OW44886   4.401   2.044   8.943
14482SOL    HW144887   4.487   2.032   8.902
14482SOL    HW244888   4.421   2.083   9.028
14483SOL     OW44889   3.809   2.185   7.488
14483SOL    HW144890   3.748   2.198   7.415
14483SOL    HW244891   3.838   2.274   7.510
14484SOL     OW44892   5.150   2.709   8.845
14484SOL    HW144893   5.097   2.774   8.798
14484SOL    HW244894   5.237   2.716   8.805
14485SOL     OW44895   3.772   2.014   7.738
14485SOL    HW144896   3.750   2.087   7.679
14485SOL    HW244897   3.860   1.988   7.711
14486SOL     OW44898   4.932   3.119   7.571
14486SOL    HW144899   4.839   3.122   7.553
14486SOL    HW244900   4.953   3.204   7.609
14487SOL     OW44901   4.357   2.696   8.870
14487SOL    HW144902   4.412   2.773   8.856
14487SOL    HW244903   4.419   2.624   8.876
14488SOL     OW44904   5.240   3.659   8.419
14488SOL    HW144905   5.212   3.667   8.328
14488SOL    HW244906   5.267   3.748   8.444
14489SOL     OW44907   4.429   2.427   9.142
14489SOL    HW144908   4.476   2.491   9.196
14489SOL    HW244909   4.456   2.342   9.177
14490SOL     OW44910   5.214   3.022   9.088
14490SOL    HW144911   5.163   3.084   9.140
14490SOL    HW244912   5.296   3.067   9.070
14491SOL     OW44913   5.386   2.743   8.699
14491SOL    HW144914   5.373   2.664   8.647
14491SOL    HW244915   5.372   2.815   8.637
14492SOL     OW44916   4.913   2.202   7.909
14492SOL    HW144917   4.967   2.123   7.900
14492SOL    HW244918   4.948   2.246   7.987
14493SOL     OW44919   4.352   2.584   8.107
14493SOL    HW144920   4.371   2.677   8.117
14493SOL    HW244921   4.278   2.581   8.046
14494SOL     OW44922   5.480   2.215   9.114
14494SOL    HW144923   5.475   2.233   9.020
14494SOL    HW244924   5.401   2.165   9.133
14495SOL     OW44925   5.484   2.794   8.955
14495SOL    HW144926   5.463   2.886   8.972
14495SOL    HW244927   5.460   2.781   8.863
14496SOL     OW44928   4.439   3.707   8.464
14496SOL    HW144929   4.384   3.756   8.404
14496SOL    HW244930   4.481   3.640   8.410
14497SOL     OW44931   4.583   2.886   8.346
14497SOL    HW144932   4.645   2.816   8.368
14497SOL    HW244933   4.587   2.945   8.421
14498SOL     OW44934   4.821   2.802   7.574
14498SOL    HW144935   4.769   2.855   7.514
14498SOL    HW244936   4.898   2.776   7.523
14499SOL     OW44937   5.561   3.416   8.296
14499SOL    HW144938   5.490   3.419   8.232
14499SOL    HW244939   5.520   3.382   8.376
14500SOL     OW44940   3.810   2.981   8.100
14500SOL    HW144941   3.887   2.977   8.156
14500SOL    HW244942   3.808   3.072   8.068
14501SOL     OW44943   5.544   2.032   8.686
14501SOL    HW144944   5.537   1.937   8.688
14501SOL    HW244945   5.553   2.054   8.593
14502SOL     OW44946   4.190   2.263   8.003
14502SOL    HW144947   4.176   2.222   7.917
14502SOL    HW244948   4.113   2.237   8.054
14503SOL     OW44949   5.444   3.323   8.526
14503SOL    HW144950   5.359   3.312   8.482
14503SOL    HW244951   5.437   3.268   8.604
14504SOL     OW44952   4.060   2.422   8.747
14504SOL    HW144953   4.127   2.376   8.797
14504SOL    HW244954   4.077   2.398   8.656
14505SOL     OW44955   4.562   3.466   8.079
14505SOL    HW144956   4.558   3.557   8.050
14505SOL    HW244957   4.478   3.428   8.053
14506SOL     OW44958   5.151   2.086   8.575
14506SOL    HW144959   5.169   2.007   8.626
14506SOL    HW244960   5.098   2.140   8.633
14507SOL     OW44961   4.732   1.872   8.574
14507SOL    HW144962   4.682   1.809   8.522
14507SOL    HW244963   4.820   1.836   8.577
14508SOL     OW44964   4.456   3.211   7.765
14508SOL    HW144965   4.465   3.116   7.763
14508SOL    HW244966   4.545   3.244   7.752
14509SOL     OW44967   5.078   1.912   7.632
14509SOL    HW144968   5.114   1.846   7.572
14509SOL    HW244969   4.990   1.882   7.651
14510SOL     OW44970   5.014   2.323   8.129
14510SOL    HW144971   4.971   2.409   8.134
14510SOL    HW244972   5.016   2.292   8.219
14511SOL     OW44973   5.306   2.058   8.340
14511SOL    HW144974   5.251   2.085   8.414
14511SOL    HW244975   5.305   2.133   8.281
14512SOL     OW44976   3.745   2.937   7.756
14512SOL    HW144977   3.828   2.975   7.786
14512SOL    HW244978   3.749   2.845   7.783
14513SOL     OW44979   3.935   2.432   9.433
14513SOL    HW144980   3.873   2.498   9.465
14513SOL    HW244981   3.947   2.453   9.340
14514SOL     OW44982   3.946   2.148  10.302
14514SOL    HW144983   3.974   2.112  10.387
14514SOL    HW244984   3.856   2.116  10.291
14515SOL     OW44985   3.719   2.242   9.954
14515SOL    HW144986   3.639   2.275   9.994
14515SOL    HW244987   3.691   2.166   9.902
14516SOL     OW44988   4.293   3.161  10.501
14516SOL    HW144989   4.211   3.167  10.451
14516SOL    HW244990   4.310   3.251  10.529
14517SOL     OW44991   5.303   3.380  10.016
14517SOL    HW144992   5.255   3.355  10.095
14517SOL    HW244993   5.236   3.388   9.948
14518SOL     OW44994   4.864   2.557  10.005
14518SOL    HW144995   4.910   2.639   9.987
14518SOL    HW244996   4.813   2.574  10.084
14519SOL     OW44997   5.516   2.457   9.532
14519SOL    HW144998   5.484   2.461   9.442
14519SOL    HW244999   5.471   2.383   9.572
14520SOL     OW45000   4.474   3.002  10.372
14520SOL    HW145001   4.405   3.040  10.425
14520SOL    HW245002   4.510   3.075  10.322
14521SOL     OW45003   4.602   2.618  11.131
14521SOL    HW145004   4.584   2.688  11.193
14521SOL    HW245005   4.621   2.662  11.048
14522SOL     OW45006   4.408   2.848   9.962
14522SOL    HW145007   4.473   2.855  10.032
14522SOL    HW245008   4.339   2.909   9.988
14523SOL     OW45009   4.440   3.017  11.140
14523SOL    HW145010   4.491   3.093  11.169
14523SOL    HW245011   4.364   3.053  11.095
14524SOL     OW45012   4.058   3.272  10.379
14524SOL    HW145013   3.984   3.233  10.332
14524SOL    HW245014   4.102   3.326  10.313
14525SOL     OW45015   5.182   3.361  10.680
14525SOL    HW145016   5.234   3.441  10.687
14525SOL    HW245017   5.108   3.375  10.739
14526SOL     OW45018   4.177   2.253  10.791
14526SOL    HW145019   4.251   2.191  10.795
14526SOL    HW245020   4.100   2.199  10.803
14527SOL     OW45021   5.318   2.300  10.053
14527SOL    HW145022   5.244   2.307   9.993
14527SOL    HW245023   5.321   2.385  10.097
14528SOL     OW45024   4.864   3.202  11.004
14528SOL    HW145025   4.901   3.194  11.092
14528SOL    HW245026   4.812   3.122  10.992
14529SOL     OW45027   4.031   2.955  10.232
14529SOL    HW145028   4.003   2.864  10.243
14529SOL    HW245029   3.957   3.006  10.266
14530SOL     OW45030   4.334   3.645  10.761
14530SOL    HW145031   4.244   3.635  10.794
14530SOL    HW245032   4.352   3.739  10.768
14531SOL     OW45033   4.323   2.837   9.464
14531SOL    HW145034   4.355   2.893   9.394
14531SOL    HW245035   4.362   2.873   9.544
14532SOL     OW45036   5.328   1.986  10.781
14532SOL    HW145037   5.352   2.063  10.730
14532SOL    HW245038   5.294   2.021  10.863
14533SOL     OW45039   3.849   2.514   9.873
14533SOL    HW145040   3.812   2.428   9.891
14533SOL    HW245041   3.836   2.562   9.955
14534SOL     OW45042   5.565   3.617   9.637
14534SOL    HW145043   5.638   3.596   9.695
14534SOL    HW245044   5.578   3.708   9.613
14535SOL     OW45045   5.420   2.783   9.945
14535SOL    HW145046   5.483   2.733   9.894
14535SOL    HW245047   5.384   2.847   9.884
14536SOL     OW45048   5.369   2.969   9.744
14536SOL    HW145049   5.453   2.970   9.698
14536SOL    HW245050   5.377   3.036   9.812
14537SOL     OW45051   3.841   2.611  10.895
14537SOL    HW145052   3.927   2.652  10.888
14537SOL    HW245053   3.780   2.682  10.877
14538SOL     OW45054   4.339   3.245  10.055
14538SOL    HW145055   4.291   3.163  10.046
14538SOL    HW245056   4.342   3.281   9.966
14539SOL     OW45057   5.002   3.090  10.735
14539SOL    HW145058   5.029   3.024  10.671
14539SOL    HW245059   5.068   3.084  10.805
14540SOL     OW45060   4.547   1.866   9.833
14540SOL    HW145061   4.588   1.947   9.802
14540SOL    HW245062   4.453   1.885   9.833
14541SOL     OW45063   3.904   2.818  10.603
14541SOL    HW145064   3.991   2.781  10.586
14541SOL    HW245065   3.858   2.810  10.520
14542SOL     OW45066   5.277   2.824   9.520
14542SOL    HW145067   5.197   2.781   9.551
14542SOL    HW245068   5.301   2.884   9.591
14543SOL     OW45069   4.912   3.679  10.943
14543SOL    HW145070   4.909   3.744  10.872
14543SOL    HW245071   4.924   3.596  10.898
14544SOL     OW45072   4.070   2.105  11.162
14544SOL    HW145073   4.110   2.192  11.170
14544SOL    HW245074   3.976   2.122  11.167
14545SOL     OW45075   5.193   3.282  10.251
14545SOL    HW145076   5.125   3.299  10.315
14545SOL    HW245077   5.179   3.191  10.224
14546SOL     OW45078   5.384   3.625   9.886
14546SOL    HW145079   5.362   3.600   9.796
14546SOL    HW245080   5.360   3.548   9.939
14547SOL     OW45081   4.319   2.581   9.587
14547SOL    HW145082   4.320   2.662   9.535
14547SOL    HW245083   4.251   2.596   9.653
14548SOL     OW45084   5.008   2.241  10.250
14548SOL    HW145085   4.918   2.208  10.253
14548SOL    HW245086   5.057   2.183  10.307
14549SOL     OW45087   5.297   3.540   9.623
14549SOL    HW145088   5.388   3.564   9.608
14549SOL    HW245089   5.264   3.515   9.537
14550SOL     OW45090   4.522   2.475  10.754
14550SOL    HW145091   4.491   2.449  10.840
14550SOL    HW245092   4.487   2.408  10.695
14551SOL     OW45093   5.112   2.342  10.986
14551SOL    HW145094   5.116   2.386  11.071
14551SOL    HW245095   5.172   2.268  10.994
14552SOL     OW45096   4.668   2.749  10.895
14552SOL    HW145097   4.723   2.682  10.855
14552SOL    HW245098   4.623   2.790  10.820
14553SOL     OW45099   4.720   2.260  10.538
14553SOL    HW145100   4.629   2.278  10.563
14553SOL    HW245101   4.716   2.241  10.444
14554SOL     OW45102   4.780   2.547   9.733
14554SOL    HW145103   4.796   2.544   9.827
14554SOL    HW245104   4.694   2.508   9.722
14555SOL     OW45105   3.807   2.659  10.103
14555SOL    HW145106   3.890   2.666  10.150
14555SOL    HW245107   3.760   2.739  10.125
14556SOL     OW45108   3.843   3.743  10.891
14556SOL    HW145109   3.843   3.716  10.983
14556SOL    HW245110   3.766   3.700  10.854
14557SOL     OW45111   4.635   2.200   9.498
14557SOL    HW145112   4.663   2.277   9.448
14557SOL    HW245113   4.668   2.126   9.448
14558SOL     OW45114   5.422   2.430  11.142
14558SOL    HW145115   5.392   2.506  11.092
14558SOL    HW245116   5.450   2.367  11.076
14559SOL     OW45117   5.105   3.003   9.854
14559SOL    HW145118   5.179   2.993   9.793
14559SOL    HW245119   5.050   3.070   9.814
14560SOL     OW45120   4.273   2.030  10.208
14560SOL    HW145121   4.276   2.071  10.294
14560SOL    HW245122   4.271   2.103  10.146
14561SOL     OW45123   4.728   3.336   9.783
14561SOL    HW145124   4.687   3.381   9.709
14561SOL    HW245125   4.683   3.371   9.860
14562SOL     OW45126   4.068   3.665  10.227
14562SOL    HW145127   4.122   3.587  10.214
14562SOL    HW245128   4.096   3.725  10.159
14563SOL     OW45129   5.530   2.901  10.183
14563SOL    HW145130   5.482   2.888  10.101
14563SOL    HW245131   5.461   2.912  10.249
14564SOL     OW45132   4.948   3.403  10.823
14564SOL    HW145133   4.935   3.328  10.881
14564SOL    HW245134   4.879   3.395  10.757
14565SOL     OW45135   4.064   2.786   9.559
14565SOL    HW145136   4.151   2.821   9.544
14565SOL    HW245137   4.034   2.756   9.473
14566SOL     OW45138   5.218   2.610  10.024
14566SOL    HW145139   5.213   2.581  10.116
14566SOL    HW245140   5.293   2.669  10.022
14567SOL     OW45141   4.189   3.135  11.055
14567SOL    HW145142   4.166   3.141  10.963
14567SOL    HW245143   4.105   3.130  11.101
14568SOL     OW45144   3.930   2.131  10.807
14568SOL    HW145145   3.856   2.192  10.804
14568SOL    HW245146   3.893   2.051  10.844
14569SOL     OW45147   5.375   3.241   9.424
14569SOL    HW145148   5.329   3.322   9.402
14569SOL    HW245149   5.310   3.172   9.410
14570SOL     OW45150   5.123   1.964   9.759
14570SOL    HW145151   5.110   1.943   9.666
14570SOL    HW245152   5.216   1.985   9.766
14571SOL     OW45153   3.981   3.649  10.527
14571SOL    HW145154   4.034   3.572  10.548
14571SOL    HW245155   3.970   3.647  10.432
14572SOL     OW45156   4.674   3.555  10.197
14572SOL    HW145157   4.758   3.510  10.196
14572SOL    HW245158   4.624   3.514  10.126
14573SOL     OW45159   4.133   2.547   9.798
14573SOL    HW145160   4.142   2.452   9.810
14573SOL    HW245161   4.039   2.562   9.797
14574SOL     OW45162   5.240   2.090  11.030
14574SOL    HW145163   5.254   2.103  11.124
14574SOL    HW245164   5.159   2.039  11.024
14575SOL     OW45165   4.360   1.957   9.428
14575SOL    HW145166   4.444   1.913   9.414
14575SOL    HW245167   4.308   1.935   9.350
14576SOL     OW45168   4.488   2.139  11.068
14576SOL    HW145169   4.569   2.089  11.066
14576SOL    HW245170   4.440   2.104  11.143
14577SOL     OW45171   4.596   3.383  10.508
14577SOL    HW145172   4.581   3.354  10.418
14577SOL    HW245173   4.670   3.331  10.538
14578SOL     OW45174   5.058   2.450  10.737
14578SOL    HW145175   5.088   2.425  10.824
14578SOL    HW245176   5.091   2.539  10.724
14579SOL     OW45177   4.544   3.245  10.256
14579SOL    HW145178   4.629   3.240  10.212
14579SOL    HW245179   4.481   3.256  10.186
14580SOL     OW45180   4.655   2.368  10.206
14580SOL    HW145181   4.627   2.364  10.114
14580SOL    HW245182   4.684   2.279  10.226
14581SOL     OW45183   4.281   1.922   9.808
14581SOL    HW145184   4.199   1.922   9.858
14581SOL    HW245185   4.274   1.999   9.751
14582SOL     OW45186   5.173   3.067   9.396
14582SOL    HW145187   5.174   2.972   9.401
14582SOL    HW245188   5.080   3.090   9.388
14583SOL     OW45189   4.011   1.913   9.493
14583SOL    HW145190   4.050   1.982   9.440
14583SOL    HW245191   4.085   1.864   9.528
14584SOL     OW45192   4.667   2.107   9.761
14584SOL    HW145193   4.641   2.142   9.676
14584SOL    HW245194   4.760   2.127   9.768
14585SOL     OW45195   4.801   2.549  10.770
14585SOL    HW145196   4.730   2.485  10.764
14585SOL    HW245197   4.881   2.499  10.756
14586SOL     OW45198   4.932   3.453  10.113
14586SOL    HW145199   4.942   3.508  10.035
14586SOL    HW245200   5.008   3.474  10.167
14587SOL     OW45201   4.193   3.011  10.023
14587SOL    HW145202   4.142   2.992  10.102
14587SOL    HW245203   4.128   3.011   9.952
14588SOL     OW45204   4.982   3.659   9.922
14588SOL    HW145205   5.027   3.717   9.861
14588SOL    HW245206   4.911   3.712   9.957
14589SOL     OW45207   4.736   2.400   9.339
14589SOL    HW145208   4.690   2.478   9.310
14589SOL    HW245209   4.811   2.433   9.389
14590SOL     OW45210   3.819   2.405  10.717
14590SOL    HW145211   3.908   2.413  10.683
14590SOL    HW245212   3.809   2.480  10.776
14591SOL     OW45213   4.280   2.093  10.482
14591SOL    HW145214   4.319   2.016  10.523
14591SOL    HW245215   4.188   2.089  10.506
14592SOL     OW45216   4.589   2.316   9.945
14592SOL    HW145217   4.543   2.376   9.886
14592SOL    HW245218   4.611   2.241   9.891
14593SOL     OW45219   4.746   1.920  10.056
14593SOL    HW145220   4.686   1.925   9.981
14593SOL    HW245221   4.716   1.844  10.105
14594SOL     OW45222   5.170   3.020  10.162
14594SOL    HW145223   5.088   2.973  10.148
14594SOL    HW245224   5.206   3.033  10.074
14595SOL     OW45225   5.187   2.478  10.272
14595SOL    HW145226   5.128   2.403  10.271
14595SOL    HW245227   5.242   2.466  10.349
14596SOL     OW45228   5.562   2.665   9.711
14596SOL    HW145229   5.626   2.613   9.760
14596SOL    HW245230   5.539   2.610   9.636
14597SOL     OW45231   5.401   3.122   9.965
14597SOL    HW145232   5.496   3.123   9.971
14597SOL    HW245233   5.375   3.214   9.974
14598SOL     OW45234   5.114   2.435   9.376
14598SOL    HW145235   5.058   2.412   9.450
14598SOL    HW245236   5.203   2.424   9.409
14599SOL     OW45237   4.249   2.117   9.625
14599SOL    HW145238   4.292   2.069   9.555
14599SOL    HW245239   4.226   2.202   9.585
14600SOL     OW45240   5.471   3.103  10.866
14600SOL    HW145241   5.558   3.070  10.848
14600SOL    HW245242   5.485   3.193  10.896
14601SOL     OW45243   4.775   3.219  10.648
14601SOL    HW145244   4.698   3.186  10.694
14601SOL    HW245245   4.849   3.172  10.687
14602SOL     OW45246   5.339   3.491  10.977
14602SOL    HW145247   5.324   3.525  10.889
14602SOL    HW245248   5.419   3.439  10.969
14603SOL     OW45249   4.868   3.085  10.413
14603SOL    HW145250   4.798   3.115  10.471
14603SOL    HW245251   4.843   3.117  10.326
14604SOL     OW45252   5.341   2.953  10.382
14604SOL    HW145253   5.331   3.020  10.449
14604SOL    HW245254   5.271   2.971  10.319
14605SOL     OW45255   4.646   1.946  10.699
14605SOL    HW145256   4.664   1.932  10.606
14605SOL    HW245257   4.725   1.990  10.732
14606SOL     OW45258   4.708   2.974  11.039
14606SOL    HW145259   4.617   2.994  11.060
14606SOL    HW245260   4.703   2.898  10.981
14607SOL     OW45261   4.441   2.914   9.696
14607SOL    HW145262   4.422   2.888   9.786
14607SOL    HW245263   4.519   2.864   9.672
14608SOL     OW45264   4.143   2.687  10.569
14608SOL    HW145265   4.215   2.695  10.631
14608SOL    HW245266   4.111   2.598  10.579
14609SOL     OW45267   4.984   2.227  10.599
14609SOL    HW145268   5.015   2.309  10.638
14609SOL    HW245269   4.894   2.246  10.572
14610SOL     OW45270   3.802   3.434  10.666
14610SOL    HW145271   3.766   3.501  10.608
14610SOL    HW245272   3.897   3.439  10.653
14611SOL     OW45273   4.272   2.386  10.179
14611SOL    HW145274   4.281   2.441  10.101
14611SOL    HW245275   4.341   2.416  10.238
14612SOL     OW45276   4.970   3.216   9.738
14612SOL    HW145277   5.029   3.289   9.756
14612SOL    HW245278   4.883   3.249   9.759
14613SOL     OW45279   5.019   3.325  10.456
14613SOL    HW145280   5.069   3.325  10.538
14613SOL    HW245281   4.964   3.247  10.462
14614SOL     OW45282   5.303   2.477   9.791
14614SOL    HW145283   5.255   2.520   9.862
14614SOL    HW245284   5.328   2.549   9.732
14615SOL     OW45285   4.074   3.389  10.618
14615SOL    HW145286   4.062   3.344  10.534
14615SOL    HW245287   4.168   3.404  10.624
14616SOL     OW45288   4.147   2.609  10.917
14616SOL    HW145289   4.208   2.654  10.858
14616SOL    HW245290   4.181   2.521  10.925
14617SOL     OW45291   5.341   2.646  11.000
14617SOL    HW145292   5.254   2.686  10.992
14617SOL    HW245293   5.392   2.686  10.929
14618SOL     OW45294   4.723   1.999  11.076
14618SOL    HW145295   4.778   2.074  11.053
14618SOL    HW245296   4.772   1.922  11.046
14619SOL     OW45297   4.214   1.890  11.070
14619SOL    HW145298   4.167   1.844  11.001
14619SOL    HW245299   4.161   1.968  11.088
14620SOL     OW45300   4.322   2.734  10.356
14620SOL    HW145301   4.342   2.826  10.340
14620SOL    HW245302   4.250   2.735  10.418
14621SOL     OW45303   5.061   2.717  10.334
14621SOL    HW145304   4.980   2.713  10.282
14621SOL    HW245305   5.107   2.636  10.314
14622SOL     OW45306   4.936   2.381   9.576
14622SOL    HW145307   4.934   2.303   9.632
14622SOL    HW245308   4.889   2.448   9.626
14623SOL     OW45309   4.020   2.054  10.555
14623SOL    HW145310   3.983   2.086  10.637
14623SOL    HW245311   4.000   1.961  10.554
14624SOL     OW45312   3.737   3.176  10.590
14624SOL    HW145313   3.786   3.122  10.651
14624SOL    HW245314   3.761   3.266  10.613
14625SOL     OW45315   4.448   2.492  10.366
14625SOL    HW145316   4.521   2.486  10.304
14625SOL    HW245317   4.413   2.580  10.354
14626SOL     OW45318   5.472   2.818  11.177
14626SOL    HW145319   5.429   2.754  11.121
14626SOL    HW245320   5.407   2.841  11.243
14627SOL     OW45321   4.035   1.915   9.935
14627SOL    HW145322   4.008   2.005   9.950
14627SOL    HW245323   4.042   1.877  10.023
14628SOL     OW45324   5.347   2.239   9.667
14628SOL    HW145325   5.381   2.180   9.734
14628SOL    HW245326   5.322   2.318   9.715
14629SOL     OW45327   4.753   2.618  10.262
14629SOL    HW145328   4.743   2.633  10.356
14629SOL    HW245329   4.725   2.527  10.249
14630SOL     OW45330   4.707   3.425  11.034
14630SOL    HW145331   4.685   3.471  10.953
14630SOL    HW245332   4.753   3.346  11.005
14631SOL     OW45333   5.575   3.358  10.913
14631SOL    HW145334   5.594   3.388  10.824
14631SOL    HW245335   5.657   3.372  10.961
14632SOL     OW45336   4.072   2.766  11.130
14632SOL    HW145337   4.155   2.793  11.169
14632SOL    HW245338   4.097   2.709  11.058
14633SOL     OW45339   5.257   2.117   9.435
14633SOL    HW145340   5.187   2.062   9.468
14633SOL    HW245341   5.288   2.166   9.511
14634SOL     OW45342   5.011   2.689   9.342
14634SOL    HW145343   5.049   2.601   9.342
14634SOL    HW245344   5.038   2.727   9.258
14635SOL     OW45345   4.804   3.207  10.174
14635SOL    HW145346   4.805   3.137  10.109
14635SOL    HW245347   4.851   3.279  10.133
14636SOL     OW45348   4.036   2.669  10.254
14636SOL    HW145349   4.125   2.684  10.224
14636SOL    HW245350   4.037   2.579  10.287
14637SOL     OW45351   4.053   2.393  10.330
14637SOL    HW145352   4.012   2.308  10.314
14637SOL    HW245353   4.130   2.394  10.273
14638SOL     OW45354   4.860   2.229  11.004
14638SOL    HW145355   4.809   2.286  11.062
14638SOL    HW245356   4.943   2.275  10.991
14639SOL     OW45357   4.886   2.053  10.790
14639SOL    HW145358   4.871   2.118  10.859
14639SOL    HW245359   4.925   2.103  10.718
14640SOL     OW45360   3.805   3.632  10.267
14640SOL    HW145361   3.769   3.567  10.207
14640SOL    HW245362   3.895   3.644  10.238
14641SOL     OW45363   4.223   3.431  10.224
14641SOL    HW145364   4.289   3.497  10.244
14641SOL    HW245365   4.265   3.373  10.162
14642SOL     OW45366   4.696   2.639  10.527
14642SOL    HW145367   4.751   2.630  10.605
14642SOL    HW245368   4.610   2.608  10.554
14643SOL     OW45369   3.757   2.399  10.434
14643SOL    HW145370   3.827   2.412  10.369
14643SOL    HW245371   3.801   2.410  10.518
14644SOL     OW45372   3.922   2.391  11.042
14644SOL    HW145373   3.976   2.351  10.974
14644SOL    HW245374   3.884   2.468  10.999
14645SOL     OW45375   5.110   2.789  10.964
14645SOL    HW145376   5.130   2.882  10.959
14645SOL    HW245377   5.100   2.761  10.873
14646SOL     OW45378   4.535   2.432   9.682
14646SOL    HW145379   4.534   2.362   9.617
14646SOL    HW245380   4.463   2.490   9.656
14647SOL     OW45381   5.359   2.459  10.487
14647SOL    HW145382   5.346   2.401  10.562
14647SOL    HW245383   5.448   2.438  10.456
14648SOL     OW45384   3.960   3.409  11.030
14648SOL    HW145385   3.938   3.474  11.097
14648SOL    HW245386   3.964   3.326  11.078
14649SOL     OW45387   4.444   2.303  10.559
14649SOL    HW145388   4.383   2.234  10.532
14649SOL    HW245389   4.437   2.369  10.490
14650SOL     OW45390   4.645   3.536  10.784
14650SOL    HW145391   4.621   3.494  10.702
14650SOL    HW245392   4.636   3.630  10.765
14651SOL     OW45393   4.189   2.350   9.506
14651SOL    HW145394   4.238   2.430   9.525
14651SOL    HW245395   4.100   2.380   9.486
14652SOL     OW45396   3.858   3.010  10.788
14652SOL    HW145397   3.865   2.967  10.874
14652SOL    HW245398   3.874   2.939  10.725
14653SOL     OW45399   5.037   2.903  10.530
14653SOL    HW145400   5.055   2.839  10.461
14653SOL    HW245401   4.977   2.966  10.489
14654SOL     OW45402   5.043   2.710   9.614
14654SOL    HW145403   4.961   2.695   9.660
14654SOL    HW245404   5.020   2.707   9.521
14655SOL     OW45405   5.513   3.586  10.481
14655SOL    HW145406   5.570   3.616  10.410
14655SOL    HW245407   5.477   3.504  10.450
14656SOL     OW45408   4.970   3.599  10.427
14656SOL    HW145409   5.048   3.622  10.377
14656SOL    HW245410   4.976   3.504  10.439
14657SOL     OW45411   3.821   3.108  10.322
14657SOL    HW145412   3.782   3.132  10.406
14657SOL    HW245413   3.754   3.057  10.277
14658SOL     OW45414   4.404   3.541  11.051
14658SOL    HW145415   4.335   3.607  11.045
14658SOL    HW245416   4.461   3.559  10.976
14659SOL     OW45417   5.461   2.025   9.819
14659SOL    HW145418   5.522   2.011   9.747
14659SOL    HW245419   5.441   1.937   9.852
14660SOL     OW45420   5.125   3.437   9.813
14660SOL    HW145421   5.177   3.467   9.739
14660SOL    HW245422   5.070   3.512   9.836
14661SOL     OW45423   3.861   3.657  11.150
14661SOL    HW145424   3.814   3.587  11.196
14661SOL    HW245425   3.908   3.704  11.219
14662SOL     OW45426   5.008   2.785   9.978
14662SOL    HW145427   5.084   2.726   9.982
14662SOL    HW245428   5.038   2.860   9.927
14663SOL     OW45429   4.522   3.142  10.737
14663SOL    HW145430   4.494   3.185  10.818
14663SOL    HW245431   4.458   3.169  10.671
14664SOL     OW45432   5.343   3.587  10.709
14664SOL    HW145433   5.396   3.589  10.630
14664SOL    HW245434   5.327   3.679  10.731
14665SOL     OW45435   5.568   2.028  10.279
14665SOL    HW145436   5.594   1.941  10.247
14665SOL    HW245437   5.482   2.043  10.239
14666SOL     OW45438   3.973   2.164  10.020
14666SOL    HW145439   3.889   2.202   9.995
14666SOL    HW245440   3.975   2.170  10.116
14667SOL     OW45441   4.546   2.874  10.682
14667SOL    HW145442   4.568   2.873  10.589
14667SOL    HW245443   4.537   2.967  10.704
14668SOL     OW45444   4.659   2.777   9.627
14668SOL    HW145445   4.702   2.805   9.547
14668SOL    HW245446   4.705   2.698   9.654
14669SOL     OW45447   5.217   3.458   9.370
14669SOL    HW145448   5.126   3.453   9.344
14669SOL    HW245449   5.266   3.472   9.289
14670SOL     OW45450   4.090   3.171  10.808
14670SOL    HW145451   4.085   3.245  10.747
14670SOL    HW245452   4.012   3.119  10.788
14671SOL     OW45453   5.328   3.148  10.584
14671SOL    HW145454   5.389   3.132  10.655
14671SOL    HW245455   5.267   3.213  10.619
14672SOL     OW45456   4.793   2.977  10.032
14672SOL    HW145457   4.716   2.930  10.064
14672SOL    HW245458   4.846   2.911   9.988
14673SOL     OW45459   4.757   2.107  10.273
14673SOL    HW145460   4.754   2.061  10.189
14673SOL    HW245461   4.746   2.038  10.339
14674SOL     OW45462   4.361   3.354   9.801
14674SOL    HW145463   4.404   3.293   9.742
14674SOL    HW245464   4.304   3.406   9.745
14675SOL     OW45465   5.460   2.244  10.698
14675SOL    HW145466   5.528   2.311  10.692
14675SOL    HW245467   5.488   2.176  10.636
14676SOL     OW45468   3.848   2.909  11.050
14676SOL    HW145469   3.768   2.878  11.093
14676SOL    HW245470   3.917   2.854  11.086
14677SOL     OW45471   4.401   2.049  10.811
14677SOL    HW145472   4.485   2.032  10.768
14677SOL    HW245473   4.425   2.089  10.895
14678SOL     OW45474   3.803   2.180   9.342
14678SOL    HW145475   3.742   2.186   9.268
14678SOL    HW245476   3.838   2.268   9.353
14679SOL     OW45477   5.144   2.715  10.702
14679SOL    HW145478   5.090   2.775  10.650
14679SOL    HW245479   5.231   2.720  10.663
14680SOL     OW45480   3.776   2.015   9.597
14680SOL    HW145481   3.757   2.085   9.534
14680SOL    HW245482   3.865   1.986   9.575
14681SOL     OW45483   4.912   3.177   9.460
14681SOL    HW145484   4.833   3.231   9.455
14681SOL    HW245485   4.939   3.182   9.552
14682SOL     OW45486   4.350   2.691  10.747
14682SOL    HW145487   4.404   2.767  10.729
14682SOL    HW245488   4.411   2.618  10.750
14683SOL     OW45489   5.200   3.655  10.288
14683SOL    HW145490   5.213   3.724  10.222
14683SOL    HW245491   5.289   3.622  10.305
14684SOL     OW45492   4.441   2.416  11.005
14684SOL    HW145493   4.486   2.476  11.065
14684SOL    HW245494   4.459   2.329  11.041
14685SOL     OW45495   5.201   3.047  10.937
14685SOL    HW145496   5.190   3.071  11.029
14685SOL    HW245497   5.291   3.072  10.916
14686SOL     OW45498   4.089   3.609  10.880
14686SOL    HW145499   4.010   3.657  10.854
14686SOL    HW245500   4.057   3.525  10.913
14687SOL     OW45501   5.383   2.740  10.564
14687SOL    HW145502   5.378   2.657  10.517
14687SOL    HW245503   5.371   2.806  10.496
14688SOL     OW45504   4.936   2.174   9.775
14688SOL    HW145505   4.999   2.103   9.768
14688SOL    HW245506   4.967   2.229   9.846
14689SOL     OW45507   4.310   2.592  10.000
14689SOL    HW145508   4.351   2.677   9.982
14689SOL    HW245509   4.250   2.579   9.926
14690SOL     OW45510   5.478   2.215  10.972
14690SOL    HW145511   5.473   2.233  10.878
14690SOL    HW245512   5.398   2.167  10.992
14691SOL     OW45513   5.484   2.790  10.817
14691SOL    HW145514   5.466   2.883  10.832
14691SOL    HW245515   5.460   2.775  10.726
14692SOL     OW45516   4.392   3.644  10.261
14692SOL    HW145517   4.358   3.729  10.234
14692SOL    HW245518   4.482   3.643  10.230
14693SOL     OW45519   4.594   2.840  10.170
14693SOL    HW145520   4.643   2.765  10.204
14693SOL    HW245521   4.557   2.882  10.248
14694SOL     OW45522   4.785   2.837   9.400
14694SOL    HW145523   4.765   2.902   9.332
14694SOL    HW245524   4.865   2.794   9.368
14695SOL     OW45525   5.560   3.423  10.154
14695SOL    HW145526   5.489   3.415  10.089
14695SOL    HW245527   5.533   3.365  10.225
14696SOL     OW45528   3.934   3.153  11.156
14696SOL    HW145529   3.899   3.077  11.109
14696SOL    HW245530   3.872   3.168  11.227
14697SOL     OW45531   4.417   3.269  10.958
14697SOL    HW145532   4.330   3.235  10.981
14697SOL    HW245533   4.414   3.361  10.983
14698SOL     OW45534   5.539   2.033  10.549
14698SOL    HW145535   5.536   1.938  10.554
14698SOL    HW245536   5.549   2.052  10.456
14699SOL     OW45537   4.163   2.282   9.849
14699SOL    HW145538   4.183   2.221   9.778
14699SOL    HW245539   4.099   2.236   9.903
14700SOL     OW45540   5.418   3.344  10.396
14700SOL    HW145541   5.340   3.330  10.343
14700SOL    HW245542   5.414   3.275  10.462
14701SOL     OW45543   4.063   2.426  10.605
14701SOL    HW145544   4.120   2.366  10.653
14701SOL    HW245545   4.075   2.402  10.513
14702SOL     OW45546   4.557   3.472   9.961
14702SOL    HW145547   4.557   3.562   9.926
14702SOL    HW245548   4.482   3.430   9.919
14703SOL     OW45549   5.148   2.089  10.430
14703SOL    HW145550   5.150   2.000  10.465
14703SOL    HW245551   5.098   2.139  10.495
14704SOL     OW45552   4.732   1.873  10.438
14704SOL    HW145553   4.682   1.812  10.384
14704SOL    HW245554   4.820   1.834  10.443
14705SOL     OW45555   4.514   3.175   9.658
14705SOL    HW145556   4.476   3.087   9.658
14705SOL    HW245557   4.600   3.164   9.698
14706SOL     OW45558   4.346   3.416  10.610
14706SOL    HW145559   4.348   3.498  10.660
14706SOL    HW245560   4.431   3.414  10.565
14707SOL     OW45561   5.076   1.914   9.494
14707SOL    HW145562   5.103   1.862   9.418
14707SOL    HW245563   4.990   1.879   9.516
14708SOL     OW45564   5.026   2.325   9.987
14708SOL    HW145565   4.975   2.406   9.983
14708SOL    HW245566   5.018   2.296  10.078
14709SOL     OW45567   5.309   2.060  10.200
14709SOL    HW145568   5.253   2.087  10.273
14709SOL    HW245569   5.307   2.134  10.140
14710SOL     OW45570   3.942   2.474  11.308
14710SOL    HW145571   3.851   2.478  11.337
14710SOL    HW245572   3.937   2.464  11.213
14711SOL     OW45573   3.951   2.148  12.162
14711SOL    HW145574   3.980   2.111  12.244
14711SOL    HW245575   3.860   2.118  12.152
14712SOL     OW45576   3.719   2.245  11.813
14712SOL    HW145577   3.639   2.274  11.857
14712SOL    HW245578   3.691   2.170  11.760
14713SOL     OW45579   4.265   3.112  12.335
14713SOL    HW145580   4.188   3.148  12.290
14713SOL    HW245581   4.278   3.170  12.410
14714SOL     OW45582   5.305   3.380  11.883
14714SOL    HW145583   5.261   3.356  11.964
14714SOL    HW245584   5.235   3.385  11.818
14715SOL     OW45585   4.862   2.558  11.867
14715SOL    HW145586   4.906   2.642  11.855
14715SOL    HW245587   4.807   2.570  11.945
14716SOL     OW45588   5.515   2.454  11.393
14716SOL    HW145589   5.483   2.454  11.303
14716SOL    HW245590   5.470   2.382  11.435
14717SOL     OW45591   4.483   2.997  12.233
14717SOL    HW145592   4.401   3.029  12.271
14717SOL    HW245593   4.516   3.071  12.182
14718SOL     OW45594   4.410   2.851  11.818
14718SOL    HW145595   4.476   2.851  11.887
14718SOL    HW245596   4.342   2.910  11.850
14719SOL     OW45597   4.058   3.269  12.227
14719SOL    HW145598   3.979   3.234  12.187
14719SOL    HW245599   4.097   3.324  12.159
14720SOL     OW45600   5.321   2.298  11.919
14720SOL    HW145601   5.249   2.311  11.858
14720SOL    HW245602   5.316   2.373  11.978
14721SOL     OW45603   3.945   3.580  11.635
14721SOL    HW145604   3.969   3.654  11.690
14721SOL    HW245605   4.017   3.572  11.572
14722SOL     OW45606   3.956   3.314  11.715
14722SOL    HW145607   3.939   3.408  11.707
14722SOL    HW245608   3.894   3.284  11.781
14723SOL     OW45609   3.998   2.955  12.064
14723SOL    HW145610   3.992   2.867  12.101
14723SOL    HW245611   3.940   3.008  12.119
14724SOL     OW45612   4.301   2.848  11.317
14724SOL    HW145613   4.348   2.895  11.248
14724SOL    HW245614   4.341   2.880  11.398
14725SOL     OW45615   3.847   2.517  11.737
14725SOL    HW145616   3.813   2.430  11.758
14725SOL    HW245617   3.836   2.567  11.818
14726SOL     OW45618   5.568   3.613  11.497
14726SOL    HW145619   5.639   3.592  11.557
14726SOL    HW245620   5.582   3.706  11.476
14727SOL     OW45621   3.772   3.449  11.295
14727SOL    HW145622   3.751   3.357  11.314
14727SOL    HW245623   3.740   3.497  11.372
14728SOL     OW45624   5.415   2.784  11.818
14728SOL    HW145625   5.494   2.738  11.787
14728SOL    HW245626   5.389   2.838  11.744
14729SOL     OW45627   5.374   2.965  11.605
14729SOL    HW145628   5.460   2.965  11.563
14729SOL    HW245629   5.382   3.030  11.675
14730SOL     OW45630   3.899   2.606   0.219
14730SOL    HW145631   3.884   2.589   0.312
14730SOL    HW245632   3.820   2.653   0.191
14731SOL     OW45633   4.333   3.257  11.902
14731SOL    HW145634   4.290   3.172  11.907
14731SOL    HW245635   4.318   3.286  11.813
14732SOL     OW45636   4.548   1.868  11.692
14732SOL    HW145637   4.589   1.950  11.663
14732SOL    HW245638   4.455   1.887  11.692
14733SOL     OW45639   3.921   2.856  12.421
14733SOL    HW145640   3.994   2.794  12.421
14733SOL    HW245641   3.843   2.801  12.434
14734SOL     OW45642   5.258   2.864  11.373
14734SOL    HW145643   5.188   2.806  11.404
14734SOL    HW245644   5.298   2.898  11.452
14735SOL     OW45645   5.201   3.275  12.121
14735SOL    HW145646   5.130   3.293  12.183
14735SOL    HW245647   5.184   3.186  12.089
14736SOL     OW45648   5.375   3.629  11.745
14736SOL    HW145649   5.354   3.593  11.658
14736SOL    HW245650   5.362   3.555  11.805
14737SOL     OW45651   4.319   2.579  11.447
14737SOL    HW145652   4.318   2.663  11.400
14737SOL    HW245653   4.252   2.590  11.515
14738SOL     OW45654   5.015   2.236  12.111
14738SOL    HW145655   4.925   2.202  12.109
14738SOL    HW245656   5.061   2.179  12.171
14739SOL     OW45657   5.301   3.536  11.486
14739SOL    HW145658   5.394   3.558  11.474
14739SOL    HW245659   5.269   3.521  11.397
14740SOL     OW45660   4.709   2.206  12.385
14740SOL    HW145661   4.696   2.276  12.449
14740SOL    HW245662   4.630   2.208  12.331
14741SOL     OW45663   4.781   2.555  11.595
14741SOL    HW145664   4.799   2.550  11.689
14741SOL    HW245665   4.696   2.514  11.584
14742SOL     OW45666   3.811   2.681  11.955
14742SOL    HW145667   3.892   2.679  12.005
14742SOL    HW245668   3.763   2.756  11.989
14743SOL     OW45669   4.627   2.212  11.369
14743SOL    HW145670   4.667   2.278  11.313
14743SOL    HW245671   4.625   2.133  11.315
14744SOL     OW45672   5.105   3.003  11.709
14744SOL    HW145673   5.183   2.993  11.655
14744SOL    HW245674   5.051   3.066  11.661
14745SOL     OW45675   4.279   2.043  12.065
14745SOL    HW145676   4.278   2.101  12.142
14745SOL    HW245677   4.271   2.102  11.990
14746SOL     OW45678   4.723   3.313  11.640
14746SOL    HW145679   4.693   3.385  11.585
14746SOL    HW245680   4.690   3.334  11.728
14747SOL     OW45681   4.079   3.680  12.042
14747SOL    HW145682   4.123   3.596  12.050
14747SOL    HW245683   4.147   3.745  12.063
14748SOL     OW45684   5.525   2.911  12.051
14748SOL    HW145685   5.475   2.893  11.971
14748SOL    HW245686   5.458   2.917  12.119
14749SOL     OW45687   4.035   2.823  11.428
14749SOL    HW145688   4.118   2.848  11.388
14749SOL    HW245689   4.004   2.749  11.377
14750SOL     OW45690   5.209   2.613  11.885
14750SOL    HW145691   5.207   2.576  11.973
14750SOL    HW245692   5.286   2.670  11.885
14751SOL     OW45693   4.856   3.631  11.409
14751SOL    HW145694   4.773   3.597  11.444
14751SOL    HW245695   4.878   3.572  11.337
14752SOL     OW45696   5.358   3.247  11.273
14752SOL    HW145697   5.319   3.332  11.255
14752SOL    HW245698   5.291   3.183  11.248
14753SOL     OW45699   4.188   3.599  11.487
14753SOL    HW145700   4.236   3.654  11.548
14753SOL    HW245701   4.255   3.564  11.429
14754SOL     OW45702   5.124   1.966  11.621
14754SOL    HW145703   5.114   1.944  11.528
14754SOL    HW245704   5.218   1.983  11.631
14755SOL     OW45705   3.969   3.641  12.392
14755SOL    HW145706   3.954   3.568  12.452
14755SOL    HW245707   3.926   3.614  12.311
14756SOL     OW45708   4.671   3.556  12.066
14756SOL    HW145709   4.754   3.508  12.072
14756SOL    HW245710   4.622   3.510  11.998
14757SOL     OW45711   4.126   2.552  11.650
14757SOL    HW145712   4.140   2.458  11.662
14757SOL    HW245713   4.032   2.563  11.661
14758SOL     OW45714   4.377   1.973  11.273
14758SOL    HW145715   4.438   1.900  11.283
14758SOL    HW245716   4.317   1.944  11.204
14759SOL     OW45717   4.536   3.223  12.099
14759SOL    HW145718   4.624   3.233  12.061
14759SOL    HW245719   4.477   3.243  12.026
14760SOL     OW45720   4.657   2.371  12.066
14760SOL    HW145721   4.628   2.363  11.976
14760SOL    HW245722   4.694   2.286  12.088
14761SOL     OW45723   4.282   1.925  11.666
14761SOL    HW145724   4.200   1.924  11.715
14761SOL    HW245725   4.274   2.001  11.608
14762SOL     OW45726   5.156   3.070  11.211
14762SOL    HW145727   5.180   2.993  11.262
14762SOL    HW245728   5.068   3.093  11.242
14763SOL     OW45729   4.007   1.911  11.358
14763SOL    HW145730   4.055   1.977  11.308
14763SOL    HW245731   4.076   1.855  11.396
14764SOL     OW45732   4.669   2.109  11.624
14764SOL    HW145733   4.644   2.147  11.540
14764SOL    HW245734   4.763   2.128  11.631
14765SOL     OW45735   4.938   3.450  11.974
14765SOL    HW145736   4.949   3.507  11.898
14765SOL    HW245737   5.014   3.468  12.029
14766SOL     OW45738   4.199   3.015  11.891
14766SOL    HW145739   4.133   2.995  11.957
14766SOL    HW245740   4.152   3.006  11.808
14767SOL     OW45741   4.981   3.654  11.786
14767SOL    HW145742   5.031   3.714  11.731
14767SOL    HW245743   4.909   3.707  11.820
14768SOL     OW45744   4.747   2.394  11.200
14768SOL    HW145745   4.702   2.475  11.176
14768SOL    HW245746   4.815   2.422  11.262
14769SOL     OW45747   4.289   2.072  12.357
14769SOL    HW145748   4.302   1.985  12.318
14769SOL    HW245749   4.195   2.075  12.375
14770SOL     OW45750   4.589   2.318  11.806
14770SOL    HW145751   4.546   2.376  11.742
14770SOL    HW245752   4.612   2.240  11.756
14771SOL     OW45753   4.747   1.906  11.910
14771SOL    HW145754   4.686   1.908  11.837
14771SOL    HW245755   4.718   1.832  11.963
14772SOL     OW45756   5.164   3.019  12.022
14772SOL    HW145757   5.090   2.960  12.011
14772SOL    HW245758   5.199   3.032  11.934
14773SOL     OW45759   5.185   2.473  12.127
14773SOL    HW145760   5.127   2.397  12.132
14773SOL    HW245761   5.245   2.462  12.201
14774SOL     OW45762   5.562   2.667  11.561
14774SOL    HW145763   5.622   2.619  11.618
14774SOL    HW245764   5.542   2.606  11.490
14775SOL     OW45765   4.215   3.283  11.319
14775SOL    HW145766   4.142   3.251  11.373
14775SOL    HW245767   4.207   3.235  11.237
14776SOL     OW45768   5.404   3.124  11.820
14776SOL    HW145769   5.499   3.122  11.831
14776SOL    HW245770   5.380   3.216  11.836
14777SOL     OW45771   5.116   2.436  11.241
14777SOL    HW145772   5.057   2.414  11.312
14777SOL    HW245773   5.203   2.418  11.275
14778SOL     OW45774   4.252   2.120  11.479
14778SOL    HW145775   4.302   2.077  11.410
14778SOL    HW245776   4.224   2.203  11.441
14779SOL     OW45777   4.831   3.103  12.286
14779SOL    HW145778   4.746   3.120  12.328
14779SOL    HW245779   4.819   3.132  12.196
14780SOL     OW45780   5.327   2.952  12.243
14780SOL    HW145781   5.292   2.993  12.323
14780SOL    HW245782   5.263   2.973  12.175
14781SOL     OW45783   4.436   2.923  11.547
14781SOL    HW145784   4.420   2.899  11.638
14781SOL    HW245785   4.512   2.871  11.521
14782SOL     OW45786   4.153   2.677  12.457
14782SOL    HW145787   4.196   2.733  12.522
14782SOL    HW245788   4.206   2.597  12.455
14783SOL     OW45789   4.977   2.220  12.433
14783SOL    HW145790   5.003   2.307  12.464
14783SOL    HW245791   4.886   2.231  12.406
14784SOL     OW45792   4.054   2.987  11.659
14784SOL    HW145793   4.052   3.061  11.598
14784SOL    HW245794   4.053   2.910  11.602
14785SOL     OW45795   4.265   2.384  12.036
14785SOL    HW145796   4.277   2.441  11.960
14785SOL    HW245797   4.331   2.413  12.099
14786SOL     OW45798   4.969   3.211  11.569
14786SOL    HW145799   5.026   3.283  11.598
14786SOL    HW245800   4.881   3.237  11.598
14787SOL     OW45801   5.014   3.310  12.316
14787SOL    HW145802   5.066   3.304  12.396
14787SOL    HW245803   4.954   3.235  12.321
14788SOL     OW45804   5.302   2.479  11.655
14788SOL    HW145805   5.251   2.521  11.724
14788SOL    HW245806   5.340   2.552  11.606
14789SOL     OW45807   4.114   3.389  12.462
14789SOL    HW145808   4.081   3.340  12.387
14789SOL    HW245809   4.145   3.472  12.425
14790SOL     OW45810   4.309   2.735  12.218
14790SOL    HW145811   4.333   2.826  12.201
14790SOL    HW245812   4.243   2.740  12.287
14791SOL     OW45813   5.049   2.715  12.175
14791SOL    HW145814   4.965   2.693  12.135
14791SOL    HW245815   5.101   2.636  12.164
14792SOL     OW45816   4.928   2.386  11.435
14792SOL    HW145817   4.931   2.307  11.490
14792SOL    HW245818   4.884   2.451  11.489
14793SOL     OW45819   4.023   2.044  12.407
14793SOL    HW145820   3.981   2.076  12.486
14793SOL    HW245821   4.009   1.949  12.409
14794SOL     OW45822   3.785   3.186  12.432
14794SOL    HW145823   3.824   3.112  12.477
14794SOL    HW245824   3.786   3.257  12.496
14795SOL     OW45825   4.437   2.489  12.222
14795SOL    HW145826   4.515   2.482  12.166
14795SOL    HW245827   4.407   2.579  12.211
14796SOL     OW45828   4.038   1.921  11.793
14796SOL    HW145829   4.009   2.010  11.811
14796SOL    HW245830   4.043   1.879  11.879
14797SOL     OW45831   5.349   2.243  11.527
14797SOL    HW145832   5.379   2.180  11.593
14797SOL    HW245833   5.323   2.320  11.577
14798SOL     OW45834   4.751   2.616  12.141
14798SOL    HW145835   4.743   2.625  12.236
14798SOL    HW245836   4.724   2.527  12.122
14799SOL     OW45837   5.254   2.122  11.296
14799SOL    HW145838   5.187   2.063  11.330
14799SOL    HW245839   5.287   2.168  11.374
14800SOL     OW45840   5.011   2.688  11.197
14800SOL    HW145841   5.051   2.601  11.200
14800SOL    HW245842   5.042   2.726  11.115
14801SOL     OW45843   4.802   3.210  12.033
14801SOL    HW145844   4.808   3.137  11.971
14801SOL    HW245845   4.856   3.279  11.994
14802SOL     OW45846   4.035   2.676  12.116
14802SOL    HW145847   4.129   2.688  12.099
14802SOL    HW245848   4.027   2.584  12.143
14803SOL     OW45849   4.034   2.405  12.171
14803SOL    HW145850   4.002   2.315  12.171
14803SOL    HW245851   4.115   2.402  12.121
14804SOL     OW45852   4.900   2.077   0.154
14804SOL    HW145853   4.866   2.144   0.213
14804SOL    HW245854   4.924   2.125   0.074
14805SOL     OW45855   3.743   3.173  11.361
14805SOL    HW145856   3.654   3.193  11.331
14805SOL    HW245857   3.737   3.086  11.399
14806SOL     OW45858   3.820   3.640  12.121
14806SOL    HW145859   3.788   3.566  12.071
14806SOL    HW245860   3.908   3.657  12.086
14807SOL     OW45861   4.218   3.443  12.075
14807SOL    HW145862   4.290   3.501  12.100
14807SOL    HW245863   4.259   3.379  12.016
14808SOL     OW45864   4.695   2.649  12.418
14808SOL    HW145865   4.743   2.718  12.463
14808SOL    HW245866   4.603   2.674  12.426
14809SOL     OW45867   3.779   2.419  12.289
14809SOL    HW145868   3.849   2.428  12.225
14809SOL    HW245869   3.823   2.405  12.372
14810SOL     OW45870   4.540   2.433  11.544
14810SOL    HW145871   4.544   2.361  11.481
14810SOL    HW245872   4.467   2.487  11.513
14811SOL     OW45873   5.373   2.456  12.325
14811SOL    HW145874   5.374   2.409  12.408
14811SOL    HW245875   5.463   2.450  12.293
14812SOL     OW45876   4.445   2.300  12.421
14812SOL    HW145877   4.378   2.235  12.399
14812SOL    HW245878   4.433   2.370  12.357
14813SOL     OW45879   4.615   3.516   0.023
14813SOL    HW145880   4.625   3.572  -0.054
14813SOL    HW245881   4.638   3.573   0.097
14814SOL     OW45882   4.182   2.352  11.358
14814SOL    HW145883   4.240   2.425  11.380
14814SOL    HW245884   4.096   2.393  11.347
14815SOL     OW45885   5.007   2.899  12.370
14815SOL    HW145886   5.029   2.841  12.297
14815SOL    HW245887   4.955   2.969  12.331
14816SOL     OW45888   5.046   2.714  11.471
14816SOL    HW145889   4.968   2.689  11.522
14816SOL    HW245890   5.019   2.706  11.380
14817SOL     OW45891   5.484   3.613  12.309
14817SOL    HW145892   5.552   3.630  12.244
14817SOL    HW245893   5.466   3.519  12.301
14818SOL     OW45894   4.972   3.582  12.282
14818SOL    HW145895   5.051   3.616  12.239
14818SOL    HW245896   4.987   3.487  12.287
14819SOL     OW45897   3.812   3.137  12.167
14819SOL    HW145898   3.797   3.154  12.260
14819SOL    HW245899   3.747   3.071  12.144
14820SOL     OW45900   5.454   2.023  11.676
14820SOL    HW145901   5.520   2.010  11.608
14820SOL    HW245902   5.439   1.937  11.713
14821SOL     OW45903   5.121   3.430  11.671
14821SOL    HW145904   5.176   3.462  11.600
14821SOL    HW245905   5.066   3.504  11.694
14822SOL     OW45906   5.003   2.791  11.842
14822SOL    HW145907   5.077   2.730  11.849
14822SOL    HW245908   5.036   2.862  11.787
14823SOL     OW45909   4.393   3.488  11.326
14823SOL    HW145910   4.407   3.505  11.233
14823SOL    HW245911   4.336   3.411  11.328
14824SOL     OW45912   5.348   3.656   0.042
14824SOL    HW145913   5.400   3.640  -0.036
14824SOL    HW245914   5.376   3.742   0.073
14825SOL     OW45915   5.567   2.026  12.149
14825SOL    HW145916   5.596   1.941  12.119
14825SOL    HW245917   5.481   2.038  12.108
14826SOL     OW45918   3.976   2.170  11.881
14826SOL    HW145919   3.890   2.205  11.857
14826SOL    HW245920   3.977   2.172  11.977
14827SOL     OW45921   4.935   3.462  11.207
14827SOL    HW145922   4.922   3.370  11.228
14827SOL    HW245923   4.872   3.480  11.137
14828SOL     OW45924   4.515   2.876  12.480
14828SOL    HW145925   4.510   2.920  12.395
14828SOL    HW245926   4.585   2.921  12.527
14829SOL     OW45927   4.648   2.775  11.474
14829SOL    HW145928   4.702   2.807  11.402
14829SOL    HW245929   4.698   2.704  11.513
14830SOL     OW45930   5.214   3.492  11.223
14830SOL    HW145931   5.120   3.482  11.206
14830SOL    HW245932   5.253   3.499  11.135
14831SOL     OW45933   4.794   2.977  11.895
14831SOL    HW145934   4.718   2.927  11.925
14831SOL    HW245935   4.853   2.910  11.860
14832SOL     OW45936   4.767   2.109  12.105
14832SOL    HW145937   4.760   2.046  12.034
14832SOL    HW245938   4.752   2.058  12.185
14833SOL     OW45939   4.330   3.359  11.651
14833SOL    HW145940   4.381   3.305  11.591
14833SOL    HW245941   4.255   3.388  11.600
14834SOL     OW45942   5.480   2.299   0.041
14834SOL    HW145943   5.575   2.304   0.047
14834SOL    HW245944   5.462   2.209   0.013
14835SOL     OW45945   4.001   3.197  11.479
14835SOL    HW145946   3.915   3.196  11.438
14835SOL    HW245947   3.989   3.245  11.561
14836SOL     OW45948   3.805   2.187  11.190
14836SOL    HW145949   3.727   2.171  11.137
14836SOL    HW245950   3.841   2.269  11.156
14837SOL     OW45951   3.777   2.015  11.463
14837SOL    HW145952   3.761   2.090  11.405
14837SOL    HW245953   3.864   1.983  11.438
14838SOL     OW45954   4.899   3.192  11.287
14838SOL    HW145955   4.804   3.180  11.282
14838SOL    HW245956   4.918   3.190  11.381
14839SOL     OW45957   5.210   3.648  12.156
14839SOL    HW145958   5.230   3.719  12.095
14839SOL    HW245959   5.294   3.627  12.196
14840SOL     OW45960   5.411   2.732  12.401
14840SOL    HW145961   5.384   2.649  12.361
14840SOL    HW245962   5.382   2.798  12.338
14841SOL     OW45963   4.939   2.179  11.632
14841SOL    HW145964   5.001   2.106  11.628
14841SOL    HW245965   4.969   2.231  11.706
14842SOL     OW45966   4.305   2.593  11.856
14842SOL    HW145967   4.348   2.677  11.839
14842SOL    HW245968   4.244   2.582  11.783
14843SOL     OW45969   5.549   2.748   0.130
14843SOL    HW145970   5.526   2.832   0.171
14843SOL    HW245971   5.492   2.742   0.054
14844SOL     OW45972   4.611   3.232  11.229
14844SOL    HW145973   4.554   3.265  11.299
14844SOL    HW245974   4.617   3.303  11.166
14845SOL     OW45975   4.391   3.654  12.124
14845SOL    HW145976   4.372   3.742  12.092
14845SOL    HW245977   4.485   3.642  12.107
14846SOL     OW45978   4.596   2.834  12.030
14846SOL    HW145979   4.644   2.760  12.068
14846SOL    HW245980   4.560   2.880  12.106
14847SOL     OW45981   4.800   2.847  11.265
14847SOL    HW145982   4.776   2.901  11.190
14847SOL    HW245983   4.873   2.794  11.233
14848SOL     OW45984   5.566   3.420  12.013
14848SOL    HW145985   5.486   3.409  11.962
14848SOL    HW245986   5.559   3.355  12.084
14849SOL     OW45987   3.814   3.086  11.836
14849SOL    HW145988   3.840   3.045  11.918
14849SOL    HW245989   3.879   3.056  11.772
14850SOL     OW45990   5.527   2.040  12.423
14850SOL    HW145991   5.581   1.962  12.439
14850SOL    HW245992   5.534   2.055  12.329
14851SOL     OW45993   4.158   2.289  11.702
14851SOL    HW145994   4.181   2.222  11.638
14851SOL    HW245995   4.099   2.244  11.763
14852SOL     OW45996   5.429   3.352  12.272
14852SOL    HW145997   5.350   3.319  12.229
14852SOL    HW245998   5.444   3.291  12.345
14853SOL     OW45999   4.552   3.452  11.843
14853SOL    HW146000   4.539   3.522  11.779
14853SOL    HW246001   4.477   3.395  11.832
14854SOL     OW46002   5.173   2.096  12.301
14854SOL    HW146003   5.240   2.074  12.366
14854SOL    HW246004   5.102   2.134  12.352
14855SOL     OW46005   4.723   1.828  12.314
14855SOL    HW146006   4.685   1.794  12.233
14855SOL    HW246007   4.816   1.808  12.307
14856SOL     OW46008   4.493   3.195  11.505
14856SOL    HW146009   4.467   3.103  11.508
14856SOL    HW246010   4.581   3.197  11.542
14857SOL     OW46011   5.079   1.913  11.354
14857SOL    HW146012   5.104   1.858  11.280
14857SOL    HW246013   4.991   1.881  11.378
14858SOL     OW46014   5.025   2.326  11.848
14858SOL    HW146015   4.973   2.406  11.849
14858SOL    HW246016   5.020   2.293  11.938
14859SOL     OW46017   5.309   2.051  12.062
14859SOL    HW146018   5.255   2.077  12.136
14859SOL    HW246019   5.306   2.127  12.003
14860SOL     OW46020   3.765   2.924  11.488
14860SOL    HW146021   3.857   2.916  11.466
14860SOL    HW246022   3.737   2.834  11.507
14861SOL     OW46023   4.611   3.527  11.507
14861SOL    HW146024   4.537   3.511  11.449
14861SOL    HW246025   4.582   3.601  11.562
14862SOL     OW46026   3.967   4.289   0.037
14862SOL    HW146027   3.942   4.351   0.105
14862SOL    HW246028   3.953   4.337  -0.045
14863SOL     OW46029   3.949   4.006   0.993
14863SOL    HW146030   3.974   3.975   1.080
14863SOL    HW246031   3.859   3.974   0.981
14864SOL     OW46032   3.718   4.110   0.638
14864SOL    HW146033   3.643   4.140   0.689
14864SOL    HW246034   3.688   4.029   0.596
14865SOL     OW46035   4.297   5.027   1.191
14865SOL    HW146036   4.209   5.029   1.153
14865SOL    HW246037   4.312   5.116   1.223
14866SOL     OW46038   5.294   5.248   0.718
14866SOL    HW146039   5.252   5.220   0.800
14866SOL    HW246040   5.223   5.250   0.654
14867SOL     OW46041   4.859   4.421   0.692
14867SOL    HW146042   4.904   4.504   0.682
14867SOL    HW246043   4.810   4.429   0.774
14868SOL     OW46044   5.467   4.336   0.263
14868SOL    HW146045   5.453   4.330   0.169
14868SOL    HW246046   5.432   4.253   0.298
14869SOL     OW46047   4.463   4.859   1.049
14869SOL    HW146048   4.400   4.896   1.110
14869SOL    HW246049   4.506   4.935   1.009
14870SOL     OW46050   4.602   4.473   1.834
14870SOL    HW146051   4.589   4.532   1.909
14870SOL    HW246052   4.622   4.531   1.761
14871SOL     OW46053   4.409   4.716   0.645
14871SOL    HW146054   4.476   4.711   0.713
14871SOL    HW246055   4.341   4.773   0.682
14872SOL     OW46056   4.439   4.870   1.816
14872SOL    HW146057   4.482   4.948   1.853
14872SOL    HW246058   4.357   4.904   1.780
14873SOL     OW46059   4.057   5.135   1.068
14873SOL    HW146060   3.981   5.094   1.027
14873SOL    HW246061   4.097   5.186   0.998
14874SOL     OW46062   5.182   5.230   1.363
14874SOL    HW146063   5.235   5.308   1.379
14874SOL    HW246064   5.111   5.236   1.427
14875SOL     OW46065   4.182   4.103   1.453
14875SOL    HW146066   4.256   4.049   1.480
14875SOL    HW246067   4.106   4.062   1.494
14876SOL     OW46068   5.325   4.161   0.755
14876SOL    HW146069   5.266   4.185   0.683
14876SOL    HW246070   5.305   4.225   0.824
14877SOL     OW46071   3.937   5.445   0.471
14877SOL    HW146072   3.960   5.518   0.528
14877SOL    HW246073   4.016   5.431   0.418
14878SOL     OW46074   4.860   5.069   1.698
14878SOL    HW146075   4.898   5.064   1.785
14878SOL    HW246076   4.806   4.990   1.690
14879SOL     OW46077   3.948   5.175   0.544
14879SOL    HW146078   3.926   5.268   0.548
14879SOL    HW246079   3.894   5.135   0.612
14880SOL     OW46080   4.000   4.815   0.894
14880SOL    HW146081   3.995   4.726   0.928
14880SOL    HW246082   3.941   4.866   0.950
14881SOL     OW46083   4.316   5.521   1.423
14881SOL    HW146084   4.239   5.498   1.475
14881SOL    HW246085   4.342   5.607   1.456
14882SOL     OW46086   4.302   4.686   0.151
14882SOL    HW146087   4.370   4.703   0.086
14882SOL    HW246088   4.333   4.732   0.230
14883SOL     OW46089   5.320   3.858   1.462
14883SOL    HW146090   5.345   3.943   1.426
14883SOL    HW246091   5.291   3.878   1.551
14884SOL     OW46092   3.842   4.374   0.563
14884SOL    HW146093   3.812   4.286   0.587
14884SOL    HW246094   3.835   4.424   0.644
14885SOL     OW46095   5.586   5.458   0.322
14885SOL    HW146096   5.646   5.442   0.395
14885SOL    HW246097   5.598   5.551   0.302
14886SOL     OW46098   3.756   5.249   0.126
14886SOL    HW146099   3.669   5.212   0.121
14886SOL    HW246100   3.747   5.325   0.184
14887SOL     OW46101   5.412   4.664   0.654
14887SOL    HW146102   5.473   4.610   0.604
14887SOL    HW246103   5.374   4.723   0.589
14888SOL     OW46104   5.376   4.845   0.436
14888SOL    HW146105   5.461   4.839   0.392
14888SOL    HW246106   5.387   4.916   0.500
14889SOL     OW46107   3.857   4.475   1.577
14889SOL    HW146108   3.949   4.500   1.589
14889SOL    HW246109   3.808   4.555   1.597
14890SOL     OW46110   4.347   5.117   0.734
14890SOL    HW146111   4.302   5.033   0.745
14890SOL    HW246112   4.330   5.141   0.643
14891SOL     OW46113   5.008   4.961   1.413
14891SOL    HW146114   5.040   4.889   1.358
14891SOL    HW246115   5.061   4.955   1.493
14892SOL     OW46116   4.549   3.731   0.531
14892SOL    HW146117   4.587   3.814   0.502
14892SOL    HW246118   4.454   3.747   0.531
14893SOL     OW46119   3.913   4.685   1.274
14893SOL    HW146120   3.999   4.645   1.262
14893SOL    HW246121   3.851   4.621   1.240
14894SOL     OW46122   5.237   4.732   0.227
14894SOL    HW146123   5.168   4.676   0.262
14894SOL    HW246124   5.280   4.768   0.305
14895SOL     OW46125   4.920   5.548   1.628
14895SOL    HW146126   4.914   5.602   1.550
14895SOL    HW246127   4.932   5.459   1.595
14896SOL     OW46128   4.074   3.988   1.802
14896SOL    HW146129   4.119   4.052   1.857
14896SOL    HW246130   3.986   3.983   1.838
14897SOL     OW46131   5.196   5.135   0.947
14897SOL    HW146132   5.130   5.154   1.013
14897SOL    HW246133   5.175   5.046   0.917
14898SOL     OW46134   5.391   5.475   0.575
14898SOL    HW146135   5.363   5.442   0.489
14898SOL    HW246136   5.358   5.410   0.637
14899SOL     OW46137   4.301   4.432   0.276
14899SOL    HW146138   4.310   4.520   0.239
14899SOL    HW246139   4.238   4.441   0.347
14900SOL     OW46140   5.008   4.096   0.936
14900SOL    HW146141   4.917   4.066   0.944
14900SOL    HW246142   5.057   4.040   0.996
14901SOL     OW46143   5.309   5.392   0.321
14901SOL    HW146144   5.399   5.416   0.299
14901SOL    HW246145   5.269   5.370   0.237
14902SOL     OW46146   4.520   4.340   1.443
14902SOL    HW146147   4.496   4.314   1.532
14902SOL    HW246148   4.487   4.269   1.388
14903SOL     OW46149   5.122   4.198   1.683
14903SOL    HW146150   5.122   4.242   1.768
14903SOL    HW246151   5.172   4.117   1.697
14904SOL     OW46152   4.673   4.609   1.592
14904SOL    HW146153   4.729   4.542   1.552
14904SOL    HW246154   4.623   4.645   1.519
14905SOL     OW46155   4.725   4.130   1.225
14905SOL    HW146156   4.637   4.149   1.259
14905SOL    HW246157   4.709   4.088   1.140
14906SOL     OW46158   4.779   4.426   0.424
14906SOL    HW146159   4.796   4.419   0.518
14906SOL    HW246160   4.694   4.385   0.412
14907SOL     OW46161   3.817   4.544   0.775
14907SOL    HW146162   3.896   4.538   0.829
14907SOL    HW246163   3.769   4.619   0.811
14908SOL     OW46164   3.848   5.599   1.588
14908SOL    HW146165   3.855   5.580   1.681
14908SOL    HW246166   3.765   5.558   1.562
14909SOL     OW46167   4.617   4.083   0.220
14909SOL    HW146168   4.650   4.152   0.162
14909SOL    HW246169   4.599   4.009   0.161
14910SOL     OW46170   5.437   4.286   1.829
14910SOL    HW146171   5.399   4.361   1.782
14910SOL    HW246172   5.458   4.223   1.760
14911SOL     OW46173   5.113   4.874   0.552
14911SOL    HW146174   5.189   4.867   0.494
14911SOL    HW246175   5.052   4.931   0.504
14912SOL     OW46176   4.275   3.895   0.912
14912SOL    HW146177   4.276   3.921   1.004
14912SOL    HW246178   4.271   3.978   0.863
14913SOL     OW46179   4.719   5.164   0.473
14913SOL    HW146180   4.685   5.240   0.426
14913SOL    HW246181   4.694   5.178   0.564
14914SOL     OW46182   4.076   5.538   0.875
14914SOL    HW146183   4.119   5.453   0.880
14914SOL    HW246184   4.145   5.601   0.898
14915SOL     OW46185   5.521   4.809   0.862
14915SOL    HW146186   5.476   4.760   0.793
14915SOL    HW246187   5.461   4.804   0.937
14916SOL     OW46188   4.951   5.267   1.514
14916SOL    HW146189   4.938   5.198   1.579
14916SOL    HW246190   4.870   5.267   1.463
14917SOL     OW46191   4.037   4.706   0.263
14917SOL    HW146192   4.116   4.715   0.210
14917SOL    HW246193   4.001   4.621   0.239
14918SOL     OW46194   5.207   4.481   0.720
14918SOL    HW146195   5.202   4.437   0.805
14918SOL    HW246196   5.284   4.538   0.728
14919SOL     OW46197   4.203   4.993   1.733
14919SOL    HW146198   4.174   4.997   1.642
14919SOL    HW246199   4.122   4.988   1.783
14920SOL     OW46200   4.814   5.512   0.241
14920SOL    HW146201   4.759   5.462   0.301
14920SOL    HW246202   4.866   5.445   0.196
14921SOL     OW46203   3.925   4.002   1.512
14921SOL    HW146204   3.846   4.051   1.536
14921SOL    HW246205   3.924   3.925   1.569
14922SOL     OW46206   5.387   5.129   0.086
14922SOL    HW146207   5.323   5.200   0.080
14922SOL    HW246208   5.334   5.049   0.081
14923SOL     OW46209   4.177   5.453   0.330
14923SOL    HW146210   4.224   5.510   0.391
14923SOL    HW246211   4.245   5.416   0.274
14924SOL     OW46212   5.125   3.819   0.452
14924SOL    HW146213   5.119   3.790   0.361
14924SOL    HW246214   5.219   3.827   0.468
14925SOL     OW46215   3.981   5.516   1.225
14925SOL    HW146216   4.026   5.446   1.271
14925SOL    HW246217   3.975   5.485   1.134
14926SOL     OW46218   4.660   5.428   0.893
14926SOL    HW146219   4.724   5.371   0.935
14926SOL    HW246220   4.624   5.375   0.822
14927SOL     OW46221   4.114   4.416   0.479
14927SOL    HW146222   4.131   4.322   0.490
14927SOL    HW246223   4.023   4.427   0.509
14928SOL     OW46224   5.246   3.943   1.724
14928SOL    HW146225   5.263   3.964   1.816
14928SOL    HW246226   5.174   3.879   1.727
14929SOL     OW46227   4.357   3.845   0.120
14929SOL    HW146228   4.450   3.821   0.118
14929SOL    HW246229   4.341   3.885   0.034
14930SOL     OW46230   4.481   3.996   1.752
14930SOL    HW146231   4.565   3.950   1.746
14930SOL    HW246232   4.438   3.959   1.829
14931SOL     OW46233   4.602   5.252   1.193
14931SOL    HW146234   4.578   5.207   1.111
14931SOL    HW246235   4.665   5.193   1.234
14932SOL     OW46236   5.064   4.311   1.438
14932SOL    HW146237   5.094   4.280   1.524
14932SOL    HW246238   5.098   4.400   1.431
14933SOL     OW46239   4.546   5.111   0.952
14933SOL    HW146240   4.630   5.099   0.908
14933SOL    HW246241   4.482   5.117   0.881
14934SOL     OW46242   4.659   4.237   0.894
14934SOL    HW146243   4.631   4.227   0.803
14934SOL    HW246244   4.685   4.149   0.921
14935SOL     OW46245   4.280   3.778   0.504
14935SOL    HW146246   4.200   3.780   0.557
14935SOL    HW246247   4.274   3.857   0.449
14936SOL     OW46248   5.190   4.942   0.054
14936SOL    HW146249   5.205   4.861   0.103
14936SOL    HW246250   5.097   4.961   0.068
14937SOL     OW46251   4.035   3.801   0.204
14937SOL    HW146252   4.115   3.853   0.200
14937SOL    HW246253   4.063   3.714   0.233
14938SOL     OW46254   4.670   3.971   0.464
14938SOL    HW146255   4.643   4.009   0.380
14938SOL    HW246256   4.764   3.985   0.467
14939SOL     OW46257   4.805   4.413   1.451
14939SOL    HW146258   4.737   4.348   1.467
14939SOL    HW246259   4.887   4.364   1.456
14940SOL     OW46260   4.952   5.290   0.790
14940SOL    HW146261   4.959   5.360   0.725
14940SOL    HW246262   5.000   5.322   0.866
14941SOL     OW46263   4.203   4.882   0.727
14941SOL    HW146264   4.139   4.860   0.794
14941SOL    HW246265   4.155   4.873   0.644
14942SOL     OW46266   4.982   5.514   0.614
14942SOL    HW146267   5.028   5.579   0.561
14942SOL    HW246268   4.909   5.561   0.653
14943SOL     OW46269   4.741   4.285   0.085
14943SOL    HW146270   4.734   4.358   0.024
14943SOL    HW246271   4.820   4.305   0.136
14944SOL     OW46272   3.806   4.286   1.385
14944SOL    HW146273   3.899   4.279   1.365
14944SOL    HW246274   3.801   4.353   1.454
14945SOL     OW46275   4.277   3.948   1.184
14945SOL    HW146276   4.319   3.895   1.251
14945SOL    HW246277   4.185   3.951   1.209
14946SOL     OW46278   4.592   4.183   0.636
14946SOL    HW146279   4.549   4.240   0.571
14946SOL    HW246280   4.612   4.103   0.587
14947SOL     OW46281   4.753   3.765   0.741
14947SOL    HW146282   4.687   3.766   0.673
14947SOL    HW246283   4.723   3.697   0.803
14948SOL     OW46284   5.151   4.881   0.848
14948SOL    HW146285   5.088   4.813   0.873
14948SOL    HW246286   5.144   4.885   0.752
14949SOL     OW46287   5.189   4.332   0.957
14949SOL    HW146288   5.126   4.260   0.967
14949SOL    HW246289   5.243   4.327   1.035
14950SOL     OW46290   5.546   4.552   0.430
14950SOL    HW146291   5.601   4.489   0.477
14950SOL    HW246292   5.508   4.502   0.358
14951SOL     OW46293   4.214   5.128   0.172
14951SOL    HW146294   4.148   5.084   0.226
14951SOL    HW246295   4.164   5.171   0.103
14952SOL     OW46296   5.427   5.022   0.628
14952SOL    HW146297   5.475   4.987   0.703
14952SOL    HW246298   5.374   5.093   0.665
14953SOL     OW46299   5.125   4.271   0.083
14953SOL    HW146300   5.070   4.268   0.162
14953SOL    HW246301   5.176   4.190   0.087
14954SOL     OW46302   4.254   3.982   0.328
14954SOL    HW146303   4.304   3.934   0.261
14954SOL    HW246304   4.229   4.063   0.285
14955SOL     OW46305   5.465   4.966   1.548
14955SOL    HW146306   5.551   4.924   1.555
14955SOL    HW246307   5.479   5.054   1.581
14956SOL     OW46308   4.771   5.072   1.323
14956SOL    HW146309   4.696   5.042   1.374
14956SOL    HW246310   4.847   5.036   1.370
14957SOL     OW46311   5.333   5.359   1.662
14957SOL    HW146312   5.326   5.389   1.572
14957SOL    HW246313   5.410   5.303   1.663
14958SOL     OW46314   4.865   4.939   1.098
14958SOL    HW146315   4.807   4.974   1.165
14958SOL    HW246316   4.832   4.976   1.016
14959SOL     OW46317   5.350   4.825   1.076
14959SOL    HW146318   5.348   4.886   1.149
14959SOL    HW246319   5.267   4.839   1.030
14960SOL     OW46320   4.650   3.809   1.391
14960SOL    HW146321   4.676   3.804   1.299
14960SOL    HW246322   4.724   3.853   1.434
14961SOL     OW46323   4.706   4.843   1.720
14961SOL    HW146324   4.616   4.858   1.751
14961SOL    HW246325   4.701   4.761   1.671
14962SOL     OW46326   4.435   4.786   0.374
14962SOL    HW146327   4.419   4.764   0.466
14962SOL    HW246328   4.513   4.737   0.351
14963SOL     OW46329   4.148   4.542   1.253
14963SOL    HW146330   4.214   4.553   1.321
14963SOL    HW246331   4.112   4.454   1.267
14964SOL     OW46332   4.990   4.104   1.278
14964SOL    HW146333   5.019   4.179   1.329
14964SOL    HW246334   4.898   4.122   1.258
14965SOL     OW46335   3.802   5.300   1.363
14965SOL    HW146336   3.778   5.373   1.306
14965SOL    HW246337   3.897   5.293   1.354
14966SOL     OW46338   4.057   4.853   0.498
14966SOL    HW146339   4.047   4.929   0.440
14966SOL    HW246340   4.061   4.778   0.438
14967SOL     OW46341   4.266   4.245   0.854
14967SOL    HW146342   4.281   4.304   0.781
14967SOL    HW246343   4.330   4.271   0.920
14968SOL     OW46344   4.969   5.071   0.403
14968SOL    HW146345   5.023   5.143   0.435
14968SOL    HW246346   4.880   5.092   0.432
14969SOL     OW46347   5.020   5.188   1.148
14969SOL    HW146348   5.073   5.196   1.227
14969SOL    HW246349   4.961   5.115   1.166
14970SOL     OW46350   5.278   4.326   0.501
14970SOL    HW146351   5.237   4.378   0.570
14970SOL    HW246352   5.301   4.389   0.433
14971SOL     OW46353   4.068   5.259   1.307
14971SOL    HW146354   4.058   5.209   1.225
14971SOL    HW246355   4.163   5.268   1.318
14972SOL     OW46356   4.149   4.465   1.611
14972SOL    HW146357   4.211   4.505   1.550
14972SOL    HW246358   4.194   4.386   1.643
14973SOL     OW46359   5.344   4.500   1.688
14973SOL    HW146360   5.257   4.540   1.687
14973SOL    HW246361   5.393   4.547   1.620
14974SOL     OW46362   4.718   3.862   1.734
14974SOL    HW146363   4.778   3.937   1.728
14974SOL    HW246364   4.775   3.785   1.731
14975SOL     OW46365   4.222   3.758   1.746
14975SOL    HW146366   4.166   3.705   1.688
14975SOL    HW246367   4.169   3.836   1.764
14976SOL     OW46368   4.309   4.598   1.035
14976SOL    HW146369   4.344   4.687   1.041
14976SOL    HW246370   4.253   4.589   1.112
14977SOL     OW46371   5.055   4.583   1.006
14977SOL    HW146372   4.965   4.560   0.984
14977SOL    HW246373   5.103   4.500   0.998
14978SOL     OW46374   4.943   4.254   0.286
14978SOL    HW146375   4.951   4.177   0.343
14978SOL    HW246376   4.890   4.316   0.336
14979SOL     OW46377   4.009   3.924   1.249
14979SOL    HW146378   3.977   3.957   1.333
14979SOL    HW246379   3.993   3.830   1.252
14980SOL     OW46380   3.779   5.039   1.269
14980SOL    HW146381   3.804   4.979   1.339
14980SOL    HW246382   3.777   5.125   1.310
14981SOL     OW46383   4.435   4.348   1.042
14981SOL    HW146384   4.516   4.343   0.991
14981SOL    HW246385   4.406   4.439   1.032
14982SOL     OW46386   5.465   4.689   1.857
14982SOL    HW146387   5.425   4.613   1.814
14982SOL    HW246388   5.407   4.708   1.931
14983SOL     OW46389   4.034   3.784   0.628
14983SOL    HW146390   4.009   3.874   0.647
14983SOL    HW246391   4.040   3.742   0.714
14984SOL     OW46392   5.346   4.098   0.367
14984SOL    HW146393   5.376   4.029   0.427
14984SOL    HW246394   5.311   4.166   0.423
14985SOL     OW46395   4.761   4.482   0.960
14985SOL    HW146396   4.743   4.498   1.053
14985SOL    HW246397   4.731   4.392   0.946
14986SOL     OW46398   4.711   5.302   1.722
14986SOL    HW146399   4.694   5.337   1.635
14986SOL    HW246400   4.741   5.213   1.707
14987SOL     OW46401   5.568   5.220   1.604
14987SOL    HW146402   5.595   5.249   1.517
14987SOL    HW246403   5.646   5.231   1.659
14988SOL     OW46404   4.074   4.658   1.796
14988SOL    HW146405   4.142   4.668   1.863
14988SOL    HW246406   4.106   4.587   1.740
14989SOL     OW46407   5.234   4.005   0.131
14989SOL    HW146408   5.181   3.928   0.155
14989SOL    HW246409   5.275   4.033   0.213
14990SOL     OW46410   5.019   4.530   0.056
14990SOL    HW146411   5.068   4.448   0.046
14990SOL    HW246412   5.057   4.588  -0.009
14991SOL     OW46413   4.794   5.068   0.855
14991SOL    HW146414   4.802   4.994   0.795
14991SOL    HW246415   4.854   5.134   0.820
14992SOL     OW46416   4.036   4.533   0.942
14992SOL    HW146417   4.130   4.553   0.945
14992SOL    HW246418   4.030   4.443   0.976
14993SOL     OW46419   4.044   4.256   1.008
14993SOL    HW146420   4.008   4.167   1.000
14993SOL    HW246421   4.121   4.256   0.952
14994SOL     OW46422   4.864   4.098   1.681
14994SOL    HW146423   4.815   4.146   1.747
14994SOL    HW246424   4.951   4.137   1.682
14995SOL     OW46425   4.890   3.923   1.467
14995SOL    HW146426   4.876   3.981   1.541
14995SOL    HW246427   4.930   3.978   1.400
14996SOL     OW46428   3.811   5.502   0.940
14996SOL    HW146429   3.781   5.424   0.893
14996SOL    HW246430   3.901   5.515   0.910
14997SOL     OW46431   4.210   5.297   0.899
14997SOL    HW146432   4.280   5.358   0.924
14997SOL    HW246433   4.254   5.233   0.842
14998SOL     OW46434   4.688   4.506   1.221
14998SOL    HW146435   4.749   4.488   1.292
14998SOL    HW246436   4.604   4.474   1.252
14999SOL     OW46437   3.765   4.284   1.113
14999SOL    HW146438   3.850   4.279   1.069
14999SOL    HW246439   3.785   4.283   1.206
15000SOL     OW46440   3.898   4.255   1.738
15000SOL    HW146441   3.970   4.215   1.689
15000SOL    HW246442   3.872   4.330   1.685
15001SOL     OW46443   5.114   4.647   1.656
15001SOL    HW146444   5.129   4.742   1.654
15001SOL    HW246445   5.107   4.623   1.563
15002SOL     OW46446   4.537   4.304   0.377
15002SOL    HW146447   4.547   4.228   0.320
15002SOL    HW246448   4.458   4.348   0.345
15003SOL     OW46449   5.362   4.329   1.169
15003SOL    HW146450   5.351   4.273   1.246
15003SOL    HW246451   5.452   4.311   1.140
15004SOL     OW46452   3.957   5.268   1.723
15004SOL    HW146453   3.934   5.326   1.796
15004SOL    HW246454   3.970   5.183   1.765
15005SOL     OW46455   4.448   4.166   1.245
15005SOL    HW146456   4.382   4.098   1.232
15005SOL    HW246457   4.432   4.229   1.175
15006SOL     OW46458   4.659   5.399   1.464
15006SOL    HW146459   4.622   5.358   1.386
15006SOL    HW246460   4.644   5.493   1.451
15007SOL     OW46461   4.184   4.196   0.185
15007SOL    HW146462   4.229   4.277   0.209
15007SOL    HW246463   4.110   4.226   0.132
15008SOL     OW46464   3.868   4.869   1.469
15008SOL    HW146465   3.865   4.823   1.553
15008SOL    HW246466   3.885   4.800   1.405
15009SOL     OW46467   5.048   4.766   1.208
15009SOL    HW146468   5.058   4.700   1.140
15009SOL    HW246469   4.982   4.826   1.174
15010SOL     OW46470   5.032   4.574   0.327
15010SOL    HW146471   4.957   4.538   0.375
15010SOL    HW246472   5.019   4.546   0.237
15011SOL     OW46473   5.493   5.462   1.149
15011SOL    HW146474   5.559   5.483   1.083
15011SOL    HW246475   5.470   5.370   1.132
15012SOL     OW46476   4.962   5.454   1.089
15012SOL    HW146477   5.049   5.480   1.058
15012SOL    HW246478   4.973   5.364   1.120
15013SOL     OW46479   3.815   4.992   1.006
15013SOL    HW146480   3.799   5.006   1.099
15013SOL    HW246481   3.746   4.931   0.978
15014SOL     OW46482   4.404   5.400   1.745
15014SOL    HW146483   4.346   5.475   1.736
15014SOL    HW246484   4.482   5.424   1.695
15015SOL     OW46485   4.630   3.813   0.098
15015SOL    HW146486   4.670   3.833   0.013
15015SOL    HW246487   4.705   3.794   0.155
15016SOL     OW46488   5.452   3.881   0.507
15016SOL    HW146489   5.520   3.858   0.444
15016SOL    HW246490   5.430   3.799   0.551
15017SOL     OW46491   5.118   5.291   0.500
15017SOL    HW146492   5.175   5.326   0.431
15017SOL    HW246493   5.065   5.366   0.527
15018SOL     OW46494   3.869   5.527   1.845
15018SOL    HW146495   3.821   5.458   1.890
15018SOL    HW246496   3.918   5.571   1.915
15019SOL     OW46497   5.000   4.652   0.665
15019SOL    HW146498   5.074   4.593   0.681
15019SOL    HW246499   5.036   4.723   0.613
15020SOL     OW46500   4.518   5.003   1.416
15020SOL    HW146501   4.494   5.048   1.497
15020SOL    HW246502   4.440   5.011   1.360
15021SOL     OW46503   4.388   5.334   0.194
15021SOL    HW146504   4.444   5.336   0.117
15021SOL    HW246505   4.338   5.252   0.186
15022SOL     OW46506   5.343   5.455   1.393
15022SOL    HW146507   5.393   5.459   1.312
15022SOL    HW246508   5.329   5.546   1.418
15023SOL     OW46509   5.568   3.892   0.958
15023SOL    HW146510   5.596   3.802   0.938
15023SOL    HW246511   5.478   3.897   0.925
15024SOL     OW46512   3.976   4.034   0.715
15024SOL    HW146513   3.889   4.070   0.694
15024SOL    HW246514   3.978   4.030   0.810
15025SOL     OW46515   4.925   5.328   0.071
15025SOL    HW146516   4.921   5.235   0.091
15025SOL    HW246517   4.868   5.340  -0.004
15026SOL     OW46518   4.547   4.732   1.379
15026SOL    HW146519   4.589   4.728   1.293
15026SOL    HW246520   4.540   4.826   1.398
15027SOL     OW46521   4.655   4.652   0.297
15027SOL    HW146522   4.712   4.672   0.222
15027SOL    HW246523   4.698   4.578   0.340
15028SOL     OW46524   5.196   5.317   0.067
15028SOL    HW146525   5.102   5.330   0.059
15028SOL    HW246526   5.234   5.388   0.015
15029SOL     OW46527   4.094   5.029   1.488
15029SOL    HW146528   4.073   5.107   1.437
15029SOL    HW246529   4.016   4.973   1.478
15030SOL     OW46530   5.341   5.015   1.283
15030SOL    HW146531   5.386   4.990   1.363
15030SOL    HW246532   5.276   5.080   1.312
15031SOL     OW46533   4.793   4.836   0.716
15031SOL    HW146534   4.718   4.789   0.752
15031SOL    HW246535   4.855   4.767   0.691
15032SOL     OW46536   4.754   3.970   0.957
15032SOL    HW146537   4.753   3.921   0.875
15032SOL    HW246538   4.748   3.902   1.025
15033SOL     OW46539   4.329   5.203   0.476
15033SOL    HW146540   4.371   5.155   0.404
15033SOL    HW246541   4.250   5.240   0.438
15034SOL     OW46542   5.447   4.121   1.371
15034SOL    HW146543   5.521   4.181   1.378
15034SOL    HW246544   5.479   4.050   1.315
15035SOL     OW46545   3.992   5.052   0.314
15035SOL    HW146546   3.909   5.059   0.266
15035SOL    HW246547   3.978   5.101   0.394
15036SOL     OW46548   3.831   4.757   1.715
15036SOL    HW146549   3.758   4.734   1.772
15036SOL    HW246550   3.908   4.721   1.759
15037SOL     OW46551   4.405   3.912   1.494
15037SOL    HW146552   4.492   3.888   1.463
15037SOL    HW246553   4.419   3.942   1.583
15038SOL     OW46554   5.146   4.580   1.392
15038SOL    HW146555   5.096   4.641   1.338
15038SOL    HW246556   5.235   4.583   1.356
15039SOL     OW46557   3.789   3.868   0.306
15039SOL    HW146558   3.791   3.964   0.307
15039SOL    HW246559   3.875   3.842   0.274
15040SOL     OW46560   4.921   5.057   0.121
15040SOL    HW146561   4.826   5.050   0.108
15040SOL    HW246562   4.933   5.048   0.216
15041SOL     OW46563   4.347   4.552   1.435
15041SOL    HW146564   4.404   4.628   1.426
15041SOL    HW246565   4.407   4.477   1.444
15042SOL     OW46566   5.214   5.517   0.992
15042SOL    HW146567   5.239   5.587   0.932
15042SOL    HW246568   5.295   5.491   1.034
15043SOL     OW46569   4.445   4.278   1.694
15043SOL    HW146570   4.487   4.334   1.760
15043SOL    HW246571   4.453   4.189   1.730
15044SOL     OW46572   5.191   4.914   1.627
15044SOL    HW146573   5.177   4.929   1.721
15044SOL    HW246574   5.284   4.936   1.614
15045SOL     OW46575   4.089   5.464   1.570
15045SOL    HW146576   4.007   5.511   1.558
15045SOL    HW246577   4.064   5.382   1.612
15046SOL     OW46578   5.386   4.603   1.252
15046SOL    HW146579   5.381   4.518   1.209
15046SOL    HW246580   5.378   4.666   1.181
15047SOL     OW46581   4.945   4.037   0.457
15047SOL    HW146582   5.003   3.961   0.455
15047SOL    HW246583   4.971   4.085   0.535
15048SOL     OW46584   4.312   4.452   0.672
15048SOL    HW146585   4.350   4.539   0.661
15048SOL    HW246586   4.244   4.446   0.605
15049SOL     OW46587   5.476   4.086   1.642
15049SOL    HW146588   5.453   4.105   1.552
15049SOL    HW246589   5.406   4.030   1.675
15050SOL     OW46590   5.475   4.658   1.506
15050SOL    HW146591   5.453   4.750   1.522
15050SOL    HW246592   5.452   4.642   1.415
15051SOL     OW46593   4.650   5.091   0.066
15051SOL    HW146594   4.591   5.072   0.139
15051SOL    HW246595   4.629   5.180   0.041
15052SOL     OW46596   4.386   5.502   0.929
15052SOL    HW146597   4.369   5.596   0.917
15052SOL    HW246598   4.482   5.495   0.926
15053SOL     OW46599   4.597   4.699   0.855
15053SOL    HW146600   4.645   4.626   0.893
15053SOL    HW246601   4.552   4.740   0.929
15054SOL     OW46602   4.812   4.708   0.073
15054SOL    HW146603   4.852   4.782   0.027
15054SOL    HW246604   4.883   4.643   0.079
15055SOL     OW46605   5.588   5.248   0.796
15055SOL    HW146606   5.494   5.262   0.784
15055SOL    HW246607   5.595   5.196   0.876
15056SOL     OW46608   3.961   5.021   1.855
15056SOL    HW146609   3.893   4.957   1.834
15056SOL    HW246610   3.951   5.036   1.949
15057SOL     OW46611   3.815   4.954   0.672
15057SOL    HW146612   3.827   4.910   0.756
15057SOL    HW246613   3.880   4.913   0.614
15058SOL     OW46614   4.409   5.143   1.624
15058SOL    HW146615   4.339   5.092   1.664
15058SOL    HW246616   4.408   5.227   1.670
15059SOL     OW46617   5.534   3.911   1.229
15059SOL    HW146618   5.546   3.818   1.249
15059SOL    HW246619   5.547   3.917   1.134
15060SOL     OW46620   4.144   4.155   0.525
15060SOL    HW146621   4.185   4.085   0.474
15060SOL    HW246622   4.099   4.110   0.596
15061SOL     OW46623   5.427   5.207   1.080
15061SOL    HW146624   5.346   5.185   1.034
15061SOL    HW246625   5.433   5.143   1.151
15062SOL     OW46626   4.062   4.284   1.291
15062SOL    HW146627   4.112   4.224   1.345
15062SOL    HW246628   4.076   4.253   1.201
15063SOL     OW46629   4.557   5.296   0.678
15063SOL    HW146630   4.526   5.356   0.611
15063SOL    HW246631   4.485   5.234   0.691
15064SOL     OW46632   5.155   3.955   1.123
15064SOL    HW146633   5.197   3.892   1.181
15064SOL    HW246634   5.099   4.007   1.181
15065SOL     OW46635   4.742   3.748   1.127
15065SOL    HW146636   4.675   3.682   1.107
15065SOL    HW246637   4.825   3.702   1.115
15066SOL     OW46638   4.515   5.045   0.307
15066SOL    HW146639   4.479   4.959   0.326
15066SOL    HW246640   4.585   5.057   0.371
15067SOL     OW46641   4.343   5.285   1.283
15067SOL    HW146642   4.341   5.367   1.334
15067SOL    HW246643   4.433   5.280   1.251
15068SOL     OW46644   5.096   3.763   0.185
15068SOL    HW146645   5.099   3.713   0.104
15068SOL    HW246646   5.006   3.798   0.188
15069SOL     OW46647   5.015   4.185   0.675
15069SOL    HW146648   4.963   4.265   0.678
15069SOL    HW246649   5.014   4.152   0.765
15070SOL     OW46650   5.303   3.909   0.890
15070SOL    HW146651   5.249   3.935   0.965
15070SOL    HW246652   5.302   3.986   0.833
15071SOL     OW46653   3.764   4.798   0.335
15071SOL    HW146654   3.857   4.798   0.312
15071SOL    HW246655   3.750   4.712   0.376
15072SOL     OW46656   4.603   5.385   0.362
15072SOL    HW146657   4.522   5.364   0.316
15072SOL    HW246658   4.581   5.461   0.416
15073SOL     OW46659   3.936   4.353   1.997
15073SOL    HW146660   3.853   4.343   2.044
15073SOL    HW246661   3.917   4.327   1.907
15074SOL     OW46662   3.948   3.991   2.858
15074SOL    HW146663   4.008   3.935   2.908
15074SOL    HW246664   3.861   3.960   2.882
15075SOL     OW46665   3.725   4.133   2.492
15075SOL    HW146666   3.645   4.157   2.539
15075SOL    HW246667   3.711   4.041   2.467
15076SOL     OW46668   4.277   5.025   3.044
15076SOL    HW146669   4.216   4.996   3.112
15076SOL    HW246670   4.306   5.112   3.074
15077SOL     OW46671   5.295   5.245   2.579
15077SOL    HW146672   5.255   5.214   2.660
15077SOL    HW246673   5.224   5.244   2.515
15078SOL     OW46674   4.859   4.408   2.548
15078SOL    HW146675   4.893   4.497   2.561
15078SOL    HW246676   4.801   4.393   2.623
15079SOL     OW46677   5.529   4.312   2.081
15079SOL    HW146678   5.491   4.306   1.993
15079SOL    HW246679   5.477   4.250   2.133
15080SOL     OW46680   4.479   4.869   2.897
15080SOL    HW146681   4.428   4.875   2.978
15080SOL    HW246682   4.499   4.959   2.873
15081SOL     OW46683   4.411   4.719   2.507
15081SOL    HW146684   4.476   4.709   2.576
15081SOL    HW246685   4.341   4.771   2.547
15082SOL     OW46686   3.994   5.219   2.912
15082SOL    HW146687   3.953   5.134   2.893
15082SOL    HW246688   4.074   5.218   2.860
15083SOL     OW46689   5.183   5.230   3.215
15083SOL    HW146690   5.234   5.309   3.236
15083SOL    HW246691   5.114   5.229   3.281
15084SOL     OW46692   5.311   4.166   2.612
15084SOL    HW146693   5.229   4.169   2.563
15084SOL    HW246694   5.296   4.222   2.688
15085SOL     OW46695   3.937   5.455   2.325
15085SOL    HW146696   3.963   5.522   2.388
15085SOL    HW246697   4.017   5.435   2.277
15086SOL     OW46698   4.855   5.058   3.552
15086SOL    HW146699   4.869   5.044   3.646
15086SOL    HW246700   4.824   4.973   3.520
15087SOL     OW46701   3.957   5.166   2.394
15087SOL    HW146702   3.928   5.253   2.421
15087SOL    HW246703   3.913   5.106   2.455
15088SOL     OW46704   3.994   4.812   2.749
15088SOL    HW146705   4.001   4.722   2.781
15088SOL    HW246706   3.947   4.859   2.819
15089SOL     OW46707   4.328   5.521   3.298
15089SOL    HW146708   4.248   5.490   3.340
15089SOL    HW246709   4.340   5.610   3.329
15090SOL     OW46710   4.293   4.713   2.009
15090SOL    HW146711   4.348   4.751   1.940
15090SOL    HW246712   4.334   4.742   2.091
15091SOL     OW46713   5.324   3.856   3.322
15091SOL    HW146714   5.332   3.944   3.285
15091SOL    HW246715   5.288   3.870   3.410
15092SOL     OW46716   3.839   4.389   2.423
15092SOL    HW146717   3.812   4.300   2.446
15092SOL    HW246718   3.834   4.438   2.505
15093SOL     OW46719   5.568   5.471   2.181
15093SOL    HW146720   5.634   5.446   2.246
15093SOL    HW246721   5.582   5.565   2.168
15094SOL     OW46722   3.769   5.310   1.973
15094SOL    HW146723   3.752   5.218   1.991
15094SOL    HW246724   3.741   5.357   2.052
15095SOL     OW46725   5.419   4.652   2.510
15095SOL    HW146726   5.496   4.602   2.483
15095SOL    HW246727   5.393   4.700   2.431
15096SOL     OW46728   5.381   4.827   2.284
15096SOL    HW146729   5.468   4.821   2.246
15096SOL    HW246730   5.388   4.898   2.348
15097SOL     OW46731   3.854   4.476   3.423
15097SOL    HW146732   3.948   4.464   3.433
15097SOL    HW246733   3.832   4.548   3.481
15098SOL     OW46734   4.358   5.108   2.599
15098SOL    HW146735   4.309   5.026   2.611
15098SOL    HW246736   4.336   5.136   2.510
15099SOL     OW46737   5.021   4.967   3.271
15099SOL    HW146738   5.040   4.888   3.221
15099SOL    HW246739   5.069   4.955   3.353
15100SOL     OW46740   4.543   3.721   2.361
15100SOL    HW146741   4.586   3.806   2.359
15100SOL    HW246742   4.450   3.741   2.373
15101SOL     OW46743   3.904   4.666   3.119
15101SOL    HW146744   3.993   4.633   3.109
15101SOL    HW246745   3.854   4.589   3.147
15102SOL     OW46746   5.258   4.727   2.059
15102SOL    HW146747   5.188   4.671   2.090
15102SOL    HW246748   5.300   4.760   2.138
15103SOL     OW46749   4.951   5.551   3.482
15103SOL    HW146750   4.911   5.592   3.406
15103SOL    HW246751   4.944   5.457   3.465
15104SOL     OW46752   5.201   5.133   2.810
15104SOL    HW146753   5.131   5.151   2.874
15104SOL    HW246754   5.182   5.045   2.778
15105SOL     OW46755   5.370   5.492   2.435
15105SOL    HW146756   5.347   5.451   2.352
15105SOL    HW246757   5.356   5.423   2.500
15106SOL     OW46758   4.308   4.429   2.131
15106SOL    HW146759   4.317   4.519   2.101
15106SOL    HW246760   4.246   4.434   2.204
15107SOL     OW46761   4.999   4.085   2.787
15107SOL    HW146762   4.907   4.058   2.791
15107SOL    HW246763   5.039   4.047   2.865
15108SOL     OW46764   5.298   5.413   2.172
15108SOL    HW146765   5.392   5.426   2.165
15108SOL    HW246766   5.270   5.389   2.084
15109SOL     OW46767   4.526   4.349   3.270
15109SOL    HW146768   4.565   4.370   3.355
15109SOL    HW246769   4.585   4.283   3.233
15110SOL     OW46770   5.192   4.202   3.518
15110SOL    HW146771   5.165   4.244   3.599
15110SOL    HW246772   5.187   4.108   3.537
15111SOL     OW46773   4.781   4.431   2.281
15111SOL    HW146774   4.802   4.420   2.374
15111SOL    HW246775   4.698   4.385   2.270
15112SOL     OW46776   3.810   4.572   2.630
15112SOL    HW146777   3.889   4.548   2.678
15112SOL    HW246778   3.771   4.642   2.681
15113SOL     OW46779   3.842   5.583   3.439
15113SOL    HW146780   3.850   5.584   3.535
15113SOL    HW246781   3.784   5.509   3.420
15114SOL     OW46782   4.612   4.070   2.059
15114SOL    HW146783   4.660   4.122   1.995
15114SOL    HW246784   4.605   3.983   2.020
15115SOL     OW46785   5.457   4.295   3.682
15115SOL    HW146786   5.409   4.368   3.642
15115SOL    HW246787   5.448   4.224   3.619
15116SOL     OW46788   5.113   4.870   2.413
15116SOL    HW146789   5.190   4.861   2.357
15116SOL    HW246790   5.055   4.929   2.365
15117SOL     OW46791   4.260   3.928   2.755
15117SOL    HW146792   4.322   3.927   2.828
15117SOL    HW246793   4.255   4.020   2.729
15118SOL     OW46794   4.719   5.168   2.326
15118SOL    HW146795   4.694   5.249   2.282
15118SOL    HW246796   4.696   5.181   2.417
15119SOL     OW46797   4.080   5.529   2.728
15119SOL    HW146798   4.112   5.439   2.734
15119SOL    HW246799   4.150   5.582   2.766
15120SOL     OW46800   5.524   4.790   2.727
15120SOL    HW146801   5.471   4.755   2.656
15120SOL    HW246802   5.464   4.798   2.801
15121SOL     OW46803   4.962   5.260   3.378
15121SOL    HW146804   4.951   5.195   3.447
15121SOL    HW246805   4.897   5.236   3.312
15122SOL     OW46806   4.031   4.685   2.118
15122SOL    HW146807   4.118   4.697   2.080
15122SOL    HW246808   4.012   4.591   2.107
15123SOL     OW46809   5.205   4.473   2.577
15123SOL    HW146810   5.194   4.426   2.660
15123SOL    HW246811   5.282   4.528   2.591
15124SOL     OW46812   4.854   5.510   2.080
15124SOL    HW146813   4.779   5.477   2.129
15124SOL    HW246814   4.877   5.440   2.020
15125SOL     OW46815   3.914   4.107   3.346
15125SOL    HW146816   3.832   4.072   3.380
15125SOL    HW246817   3.981   4.048   3.379
15126SOL     OW46818   5.354   5.108   1.943
15126SOL    HW146819   5.308   5.192   1.940
15126SOL    HW246820   5.285   5.043   1.929
15127SOL     OW46821   4.183   5.464   2.180
15127SOL    HW146822   4.230   5.511   2.249
15127SOL    HW246823   4.252   5.417   2.132
15128SOL     OW46824   5.125   3.843   2.302
15128SOL    HW146825   5.123   3.808   2.214
15128SOL    HW246826   5.217   3.837   2.329
15129SOL     OW46827   3.978   5.530   3.063
15129SOL    HW146828   4.020   5.463   3.117
15129SOL    HW246829   3.957   5.486   2.981
15130SOL     OW46830   4.650   5.425   2.754
15130SOL    HW146831   4.670   5.360   2.822
15130SOL    HW246832   4.622   5.373   2.679
15131SOL     OW46833   4.111   4.417   2.327
15131SOL    HW146834   4.127   4.324   2.344
15131SOL    HW246835   4.020   4.430   2.355
15132SOL     OW46836   5.237   3.928   3.583
15132SOL    HW146837   5.251   3.951   3.675
15132SOL    HW246838   5.159   3.873   3.583
15133SOL     OW46839   4.380   3.836   1.962
15133SOL    HW146840   4.401   3.762   2.018
15133SOL    HW246841   4.319   3.800   1.896
15134SOL     OW46842   4.624   5.272   3.043
15134SOL    HW146843   4.585   5.216   2.976
15134SOL    HW246844   4.680   5.213   3.094
15135SOL     OW46845   5.208   4.321   3.267
15135SOL    HW146846   5.197   4.272   3.348
15135SOL    HW246847   5.144   4.392   3.273
15136SOL     OW46848   4.548   5.130   2.810
15136SOL    HW146849   4.628   5.108   2.764
15136SOL    HW246850   4.478   5.115   2.746
15137SOL     OW46851   4.682   4.253   2.764
15137SOL    HW146852   4.648   4.230   2.677
15137SOL    HW246853   4.700   4.169   2.806
15138SOL     OW46854   4.277   3.790   2.358
15138SOL    HW146855   4.218   3.784   2.433
15138SOL    HW246856   4.248   3.867   2.310
15139SOL     OW46857   5.150   4.926   1.899
15139SOL    HW146858   5.181   4.852   1.952
15139SOL    HW246859   5.065   4.949   1.938
15140SOL     OW46860   4.027   3.784   2.054
15140SOL    HW146861   4.080   3.860   2.079
15140SOL    HW246862   4.074   3.709   2.090
15141SOL     OW46863   4.664   3.979   2.321
15141SOL    HW146864   4.643   4.016   2.235
15141SOL    HW246865   4.757   3.994   2.332
15142SOL     OW46866   4.969   5.274   2.638
15142SOL    HW146867   4.972   5.357   2.589
15142SOL    HW246868   4.990   5.299   2.728
15143SOL     OW46869   4.199   4.883   2.584
15143SOL    HW146870   4.139   4.861   2.656
15143SOL    HW246871   4.147   4.869   2.505
15144SOL     OW46872   4.985   5.514   2.476
15144SOL    HW146873   5.026   5.585   2.425
15144SOL    HW246874   4.910   5.556   2.517
15145SOL     OW46875   4.754   4.245   1.886
15145SOL    HW146876   4.706   4.327   1.875
15145SOL    HW246877   4.808   4.259   1.964
15146SOL     OW46878   3.766   4.304   3.218
15146SOL    HW146879   3.817   4.230   3.252
15146SOL    HW246880   3.771   4.370   3.287
15147SOL     OW46881   4.601   4.192   2.508
15147SOL    HW146882   4.526   4.238   2.470
15147SOL    HW246883   4.609   4.112   2.457
15148SOL     OW46884   4.768   3.719   2.616
15148SOL    HW146885   4.676   3.723   2.590
15148SOL    HW246886   4.768   3.670   2.698
15149SOL     OW46887   5.147   4.884   2.706
15149SOL    HW146888   5.089   4.814   2.735
15149SOL    HW246889   5.139   4.883   2.610
15150SOL     OW46890   5.186   4.322   2.814
15150SOL    HW146891   5.119   4.256   2.834
15150SOL    HW246892   5.238   4.327   2.894
15151SOL     OW46893   5.571   4.531   2.242
15151SOL    HW146894   5.624   4.484   2.307
15151SOL    HW246895   5.547   4.465   2.178
15152SOL     OW46896   4.216   5.149   2.016
15152SOL    HW146897   4.137   5.125   2.065
15152SOL    HW246898   4.218   5.088   1.942
15153SOL     OW46899   5.419   5.015   2.466
15153SOL    HW146900   5.507   5.008   2.503
15153SOL    HW246901   5.379   5.087   2.515
15154SOL     OW46902   5.113   4.296   1.937
15154SOL    HW146903   5.045   4.277   2.002
15154SOL    HW246904   5.195   4.269   1.980
15155SOL     OW46905   4.219   3.977   2.152
15155SOL    HW146906   4.292   3.945   2.100
15155SOL    HW246907   4.202   4.064   2.118
15156SOL     OW46908   5.464   4.965   3.420
15156SOL    HW146909   5.540   4.914   3.450
15156SOL    HW246910   5.484   5.055   3.446
15157SOL     OW46911   4.797   5.114   3.203
15157SOL    HW146912   4.714   5.081   3.239
15157SOL    HW246913   4.863   5.051   3.233
15158SOL     OW46914   5.342   5.367   3.530
15158SOL    HW146915   5.327   5.390   3.438
15158SOL    HW246916   5.414   5.305   3.528
15159SOL     OW46917   4.852   4.938   2.965
15159SOL    HW146918   4.783   4.927   3.030
15159SOL    HW246919   4.805   4.956   2.883
15160SOL     OW46920   5.357   4.832   2.942
15160SOL    HW146921   5.360   4.890   3.018
15160SOL    HW246922   5.265   4.832   2.916
15161SOL     OW46923   4.437   4.787   2.236
15161SOL    HW146924   4.423   4.766   2.328
15161SOL    HW246925   4.509   4.729   2.209
15162SOL     OW46926   4.146   4.536   3.108
15162SOL    HW146927   4.204   4.550   3.183
15162SOL    HW246928   4.115   4.446   3.117
15163SOL     OW46929   3.804   5.297   3.219
15163SOL    HW146930   3.783   5.367   3.158
15163SOL    HW246931   3.900   5.291   3.216
15164SOL     OW46932   4.049   4.847   2.354
15164SOL    HW146933   4.044   4.915   2.288
15164SOL    HW246934   4.047   4.765   2.305
15165SOL     OW46935   4.273   4.230   2.707
15165SOL    HW146936   4.292   4.293   2.637
15165SOL    HW246937   4.328   4.259   2.780
15166SOL     OW46938   4.972   5.078   2.252
15166SOL    HW146939   5.027   5.146   2.290
15166SOL    HW246940   4.884   5.094   2.288
15167SOL     OW46941   5.013   5.188   3.000
15167SOL    HW146942   5.064   5.190   3.081
15167SOL    HW246943   4.947   5.120   3.015
15168SOL     OW46944   5.297   4.354   2.335
15168SOL    HW146945   5.249   4.371   2.417
15168SOL    HW246946   5.323   4.441   2.304
15169SOL     OW46947   4.068   5.298   3.164
15169SOL    HW146948   4.049   5.249   3.083
15169SOL    HW246949   4.150   5.261   3.196
15170SOL     OW46950   4.123   4.430   3.451
15170SOL    HW146951   4.197   4.476   3.411
15170SOL    HW246952   4.162   4.381   3.523
15171SOL     OW46953   5.346   4.513   3.555
15171SOL    HW146954   5.256   4.546   3.549
15171SOL    HW246955   5.386   4.538   3.472
15172SOL     OW46956   4.301   4.599   2.895
15172SOL    HW146957   4.338   4.685   2.911
15172SOL    HW246958   4.249   4.580   2.974
15173SOL     OW46959   5.043   4.578   2.869
15173SOL    HW146960   4.950   4.555   2.862
15173SOL    HW246961   5.089   4.494   2.871
15174SOL     OW46962   4.912   4.253   2.118
15174SOL    HW146963   4.924   4.177   2.175
15174SOL    HW246964   4.873   4.319   2.174
15175SOL     OW46965   3.783   5.038   3.124
15175SOL    HW146966   3.813   4.974   3.189
15175SOL    HW246967   3.783   5.121   3.171
15176SOL     OW46968   4.429   4.337   2.901
15176SOL    HW146969   4.523   4.334   2.884
15176SOL    HW246970   4.409   4.431   2.908
15177SOL     OW46971   5.472   4.699   3.714
15177SOL    HW146972   5.431   4.626   3.668
15177SOL    HW246973   5.413   4.718   3.787
15178SOL     OW46974   4.007   3.791   2.472
15178SOL    HW146975   3.991   3.878   2.509
15178SOL    HW246976   4.047   3.742   2.543
15179SOL     OW46977   5.360   4.117   2.215
15179SOL    HW146978   5.376   4.048   2.280
15179SOL    HW246979   5.329   4.192   2.266
15180SOL     OW46980   4.769   4.498   2.855
15180SOL    HW146981   4.751   4.509   2.948
15180SOL    HW246982   4.744   4.408   2.836
15181SOL     OW46983   4.733   5.311   3.565
15181SOL    HW146984   4.703   5.345   3.481
15181SOL    HW246985   4.755   5.219   3.546
15182SOL     OW46986   5.571   5.218   3.470
15182SOL    HW146987   5.595   5.252   3.384
15182SOL    HW246988   5.650   5.229   3.523
15183SOL     OW46989   4.048   4.704   3.618
15183SOL    HW146990   4.094   4.778   3.659
15183SOL    HW246991   4.091   4.627   3.654
15184SOL     OW46992   5.261   3.996   1.986
15184SOL    HW146993   5.198   3.930   2.016
15184SOL    HW246994   5.292   4.037   2.067
15185SOL     OW46995   5.000   4.544   1.884
15185SOL    HW146996   5.042   4.459   1.897
15185SOL    HW246997   5.040   4.579   1.804
15186SOL     OW46998   4.779   5.071   2.689
15186SOL    HW146999   4.792   4.991   2.639
15186SOL    HW247000   4.852   5.127   2.663
15187SOL     OW47001   4.039   4.533   2.785
15187SOL    HW147002   4.129   4.551   2.814
15187SOL    HW247003   4.022   4.444   2.813
15188SOL     OW47004   4.020   4.257   2.822
15188SOL    HW147005   3.995   4.170   2.853
15188SOL    HW247006   4.108   4.246   2.787
15189SOL     OW47007   3.730   5.036   2.047
15189SOL    HW147008   3.641   5.052   2.014
15189SOL    HW247009   3.725   4.948   2.084
15190SOL     OW47010   3.812   5.504   2.791
15190SOL    HW147011   3.783   5.421   2.754
15190SOL    HW247012   3.905   5.510   2.767
15191SOL     OW47013   4.216   5.294   2.756
15191SOL    HW147014   4.283   5.353   2.789
15191SOL    HW247015   4.265   5.222   2.716
15192SOL     OW47016   4.707   4.533   3.125
15192SOL    HW147017   4.748   4.567   3.204
15192SOL    HW247018   4.656   4.457   3.154
15193SOL     OW47019   3.767   4.346   2.948
15193SOL    HW147020   3.851   4.314   2.916
15193SOL    HW247021   3.769   4.328   3.042
15194SOL     OW47022   3.899   4.236   3.603
15194SOL    HW147023   3.939   4.196   3.526
15194SOL    HW247024   3.859   4.316   3.570
15195SOL     OW47025   5.109   4.648   3.519
15195SOL    HW147026   5.104   4.743   3.520
15195SOL    HW247027   5.086   4.623   3.429
15196SOL     OW47028   4.552   4.307   2.204
15196SOL    HW147029   4.550   4.222   2.161
15196SOL    HW247030   4.467   4.346   2.185
15197SOL     OW47031   5.343   4.348   3.033
15197SOL    HW147032   5.301   4.322   3.115
15197SOL    HW247033   5.423   4.296   3.029
15198SOL     OW47034   3.971   5.278   3.605
15198SOL    HW147035   3.933   5.319   3.683
15198SOL    HW247036   3.972   5.184   3.625
15199SOL     OW47037   4.341   4.134   3.068
15199SOL    HW147038   4.419   4.117   3.121
15199SOL    HW247039   4.365   4.210   3.015
15200SOL     OW47040   4.650   5.415   3.325
15200SOL    HW147041   4.630   5.359   3.250
15200SOL    HW247042   4.612   5.500   3.301
15201SOL     OW47043   4.174   4.213   2.017
15201SOL    HW147044   4.235   4.278   2.051
15201SOL    HW247045   4.088   4.256   2.021
15202SOL     OW47046   3.886   4.863   3.308
15202SOL    HW147047   3.867   4.822   3.393
15202SOL    HW247048   3.896   4.790   3.248
15203SOL     OW47049   5.063   4.782   3.048
15203SOL    HW147050   5.055   4.707   2.989
15203SOL    HW247051   4.990   4.839   3.025
15204SOL     OW47052   5.048   4.586   2.163
15204SOL    HW147053   4.987   4.557   2.231
15204SOL    HW247054   5.003   4.566   2.081
15205SOL     OW47055   5.509   5.452   3.024
15205SOL    HW147056   5.565   5.476   2.950
15205SOL    HW247057   5.477   5.365   3.003
15206SOL     OW47058   4.963   5.462   2.961
15206SOL    HW147059   5.050   5.482   2.928
15206SOL    HW247060   4.967   5.370   2.987
15207SOL     OW47061   3.806   5.000   2.860
15207SOL    HW147062   3.797   5.011   2.955
15207SOL    HW247063   3.744   4.931   2.838
15208SOL     OW47064   4.416   5.420   3.607
15208SOL    HW147065   4.347   5.486   3.591
15208SOL    HW247066   4.465   5.416   3.525
15209SOL     OW47067   5.445   3.885   2.364
15209SOL    HW147068   5.516   3.866   2.303
15209SOL    HW247069   5.427   3.801   2.407
15210SOL     OW47070   5.117   5.294   2.351
15210SOL    HW147071   5.171   5.337   2.285
15210SOL    HW247072   5.064   5.365   2.389
15211SOL     OW47073   3.863   5.568   3.706
15211SOL    HW147074   3.818   5.490   3.737
15211SOL    HW247075   3.921   5.593   3.778
15212SOL     OW47076   4.998   4.648   2.526
15212SOL    HW147077   5.069   4.587   2.544
15212SOL    HW247078   5.041   4.721   2.480
15213SOL     OW47079   4.547   5.050   3.270
15213SOL    HW147080   4.480   5.077   3.332
15213SOL    HW247081   4.530   4.958   3.254
15214SOL     OW47082   4.391   5.356   2.019
15214SOL    HW147083   4.403   5.368   1.925
15214SOL    HW247084   4.338   5.277   2.027
15215SOL     OW47085   5.345   5.453   3.258
15215SOL    HW147086   5.398   5.456   3.178
15215SOL    HW247087   5.332   5.545   3.281
15216SOL     OW47088   5.564   3.891   2.818
15216SOL    HW147089   5.582   3.799   2.799
15216SOL    HW247090   5.472   3.902   2.796
15217SOL     OW47091   3.978   4.040   2.583
15217SOL    HW147092   3.897   4.089   2.571
15217SOL    HW247093   3.983   4.025   2.677
15218SOL     OW47094   4.933   5.317   1.897
15218SOL    HW147095   4.920   5.229   1.931
15218SOL    HW247096   4.862   5.330   1.834
15219SOL     OW47097   4.557   4.778   3.198
15219SOL    HW147098   4.598   4.707   3.149
15219SOL    HW247099   4.546   4.744   3.287
15220SOL     OW47100   4.635   4.630   2.133
15220SOL    HW147101   4.704   4.671   2.081
15220SOL    HW247102   4.681   4.567   2.188
15221SOL     OW47103   5.208   5.363   1.911
15221SOL    HW147104   5.115   5.345   1.897
15221SOL    HW247105   5.246   5.366   1.823
15222SOL     OW47106   4.113   5.017   3.271
15222SOL    HW147107   4.147   5.039   3.358
15222SOL    HW247108   4.037   4.961   3.288
15223SOL     OW47109   5.353   5.018   3.155
15223SOL    HW147110   5.387   4.987   3.239
15223SOL    HW247111   5.280   5.075   3.179
15224SOL     OW47112   4.792   4.829   2.568
15224SOL    HW147113   4.720   4.784   2.612
15224SOL    HW247114   4.857   4.760   2.552
15225SOL     OW47115   4.747   3.968   2.795
15225SOL    HW147116   4.755   3.902   2.725
15225SOL    HW247117   4.704   3.922   2.867
15226SOL     OW47118   4.337   5.216   2.335
15226SOL    HW147119   4.382   5.162   2.271
15226SOL    HW247120   4.246   5.217   2.306
15227SOL     OW47121   5.470   4.102   3.248
15227SOL    HW147122   5.526   4.179   3.238
15227SOL    HW247123   5.503   4.039   3.183
15228SOL     OW47124   3.982   5.073   2.145
15228SOL    HW147125   3.889   5.062   2.124
15228SOL    HW247126   3.982   5.111   2.233
15229SOL     OW47127   3.791   4.738   3.533
15229SOL    HW147128   3.728   4.732   3.605
15229SOL    HW247129   3.876   4.731   3.577
15230SOL     OW47130   3.814   4.041   1.890
15230SOL    HW147131   3.719   4.036   1.897
15230SOL    HW247132   3.830   4.122   1.842
15231SOL     OW47133   5.145   4.604   3.249
15231SOL    HW147134   5.097   4.662   3.190
15231SOL    HW247135   5.232   4.599   3.210
15232SOL     OW47136   3.780   3.869   2.165
15232SOL    HW147137   3.777   3.959   2.132
15232SOL    HW247138   3.867   3.838   2.142
15233SOL     OW47139   4.902   5.054   1.985
15233SOL    HW147140   4.820   5.005   1.989
15233SOL    HW247141   4.931   5.060   2.076
15234SOL     OW47142   4.334   4.539   3.304
15234SOL    HW147143   4.392   4.594   3.357
15234SOL    HW247144   4.388   4.464   3.280
15235SOL     OW47145   5.212   5.523   2.861
15235SOL    HW147146   5.247   5.581   2.793
15235SOL    HW247147   5.286   5.469   2.888
15236SOL     OW47148   5.188   4.926   3.492
15236SOL    HW147149   5.173   4.937   3.585
15236SOL    HW247150   5.282   4.939   3.480
15237SOL     OW47151   4.097   5.465   3.443
15237SOL    HW147152   4.012   5.502   3.420
15237SOL    HW247153   4.077   5.384   3.490
15238SOL     OW47154   5.396   4.607   3.114
15238SOL    HW147155   5.379   4.520   3.077
15238SOL    HW247156   5.383   4.667   3.041
15239SOL     OW47157   4.944   4.054   2.312
15239SOL    HW147158   5.001   3.977   2.310
15239SOL    HW247159   4.969   4.101   2.391
15240SOL     OW47160   4.329   4.437   2.512
15240SOL    HW147161   4.359   4.527   2.520
15240SOL    HW247162   4.248   4.443   2.461
15241SOL     OW47163   5.477   4.068   3.516
15241SOL    HW147164   5.460   4.090   3.425
15241SOL    HW247165   5.400   4.018   3.543
15242SOL     OW47166   5.496   4.656   3.361
15242SOL    HW147167   5.452   4.738   3.385
15242SOL    HW247168   5.465   4.637   3.273
15243SOL     OW47169   4.573   5.088   1.912
15243SOL    HW147170   4.549   5.089   2.005
15243SOL    HW247171   4.590   5.180   1.891
15244SOL     OW47172   4.383   5.515   2.788
15244SOL    HW147173   4.373   5.610   2.775
15244SOL    HW247174   4.477   5.501   2.786
15245SOL     OW47175   4.602   4.697   2.716
15245SOL    HW147176   4.646   4.627   2.763
15245SOL    HW247177   4.557   4.747   2.784
15246SOL     OW47178   4.813   4.731   1.952
15246SOL    HW147179   4.785   4.772   1.870
15246SOL    HW247180   4.877   4.666   1.925
15247SOL     OW47181   5.558   5.276   2.704
15247SOL    HW147182   5.476   5.265   2.656
15247SOL    HW247183   5.552   5.215   2.777
15248SOL     OW47184   3.924   5.035   3.711
15248SOL    HW147185   4.008   4.987   3.712
15248SOL    HW247186   3.877   5.002   3.787
15249SOL     OW47187   3.831   4.952   2.530
15249SOL    HW147188   3.831   4.924   2.622
15249SOL    HW247189   3.895   4.896   2.487
15250SOL     OW47190   4.370   5.149   3.460
15250SOL    HW147191   4.354   5.076   3.520
15250SOL    HW247192   4.373   5.226   3.517
15251SOL     OW47193   5.569   3.904   3.093
15251SOL    HW147194   5.524   3.823   3.114
15251SOL    HW247195   5.563   3.911   2.998
15252SOL     OW47196   4.139   4.156   2.382
15252SOL    HW147197   4.169   4.077   2.337
15252SOL    HW247198   4.098   4.124   2.462
15253SOL     OW47199   5.421   5.205   2.956
15253SOL    HW147200   5.343   5.182   2.904
15253SOL    HW247201   5.420   5.143   3.029
15254SOL     OW47202   4.085   4.271   3.143
15254SOL    HW147203   4.046   4.237   3.224
15254SOL    HW247204   4.157   4.211   3.124
15255SOL     OW47205   4.552   5.296   2.531
15255SOL    HW147206   4.497   5.333   2.462
15255SOL    HW247207   4.499   5.226   2.568
15256SOL     OW47208   5.131   3.965   2.996
15256SOL    HW147209   5.123   3.880   3.039
15256SOL    HW247210   5.067   4.020   3.041
15257SOL     OW47211   4.508   5.052   2.178
15257SOL    HW147212   4.481   4.962   2.198
15257SOL    HW247213   4.583   5.068   2.236
15258SOL     OW47214   4.353   5.287   3.134
15258SOL    HW147215   4.347   5.363   3.192
15258SOL    HW247216   4.447   5.273   3.122
15259SOL     OW47217   5.093   3.776   2.029
15259SOL    HW147218   5.128   3.695   1.992
15259SOL    HW247219   5.002   3.757   2.049
15260SOL     OW47220   5.032   4.187   2.537
15260SOL    HW147221   4.976   4.265   2.539
15260SOL    HW247222   5.018   4.146   2.623
15261SOL     OW47223   5.297   3.923   2.773
15261SOL    HW147224   5.239   3.944   2.846
15261SOL    HW247225   5.286   3.996   2.712
15262SOL     OW47226   3.767   4.782   2.158
15262SOL    HW147227   3.861   4.770   2.143
15262SOL    HW247228   3.736   4.695   2.183
15263SOL     OW47229   4.622   5.396   2.194
15263SOL    HW147230   4.541   5.376   2.146
15263SOL    HW247231   4.595   5.461   2.258
15264SOL     OW47232   3.911   4.415   3.816
15264SOL    HW147233   3.844   4.388   3.879
15264SOL    HW247234   3.930   4.335   3.767
15265SOL     OW47235   3.942   4.001   4.710
15265SOL    HW147236   3.985   3.990   4.795
15265SOL    HW247237   3.849   3.984   4.728
15266SOL     OW47238   3.712   4.098   4.354
15266SOL    HW147239   3.632   4.130   4.397
15266SOL    HW247240   3.688   4.012   4.321
15267SOL     OW47241   4.279   5.037   4.835
15267SOL    HW147242   4.218   4.972   4.869
15267SOL    HW247243   4.285   5.103   4.904
15268SOL     OW47244   5.299   5.250   4.443
15268SOL    HW147245   5.255   5.215   4.520
15268SOL    HW247246   5.233   5.247   4.374
15269SOL     OW47247   4.881   4.389   4.426
15269SOL    HW147248   4.896   4.483   4.428
15269SOL    HW247249   4.827   4.372   4.503
15270SOL     OW47250   5.535   4.313   3.940
15270SOL    HW147251   5.500   4.311   3.851
15270SOL    HW247252   5.479   4.254   3.990
15271SOL     OW47253   4.645   4.507   5.559
15271SOL    HW147254   4.582   4.578   5.577
15271SOL    HW247255   4.622   4.478   5.471
15272SOL     OW47256   4.011   5.207   4.774
15272SOL    HW147257   3.985   5.121   4.741
15272SOL    HW247258   4.086   5.232   4.720
15273SOL     OW47259   5.178   5.228   5.081
15273SOL    HW147260   5.227   5.307   5.103
15273SOL    HW247261   5.111   5.222   5.149
15274SOL     OW47262   4.184   4.119   5.212
15274SOL    HW147263   4.237   4.043   5.236
15274SOL    HW247264   4.096   4.085   5.202
15275SOL     OW47265   5.329   4.173   4.472
15275SOL    HW147266   5.247   4.180   4.424
15275SOL    HW247267   5.319   4.232   4.547
15276SOL     OW47268   3.942   5.460   4.174
15276SOL    HW147269   3.972   5.522   4.241
15276SOL    HW247270   4.023   5.432   4.130
15277SOL     OW47271   4.852   5.058   5.416
15277SOL    HW147272   4.892   5.028   5.498
15277SOL    HW247273   4.758   5.045   5.428
15278SOL     OW47274   4.322   5.524   5.154
15278SOL    HW147275   4.243   5.497   5.201
15278SOL    HW247276   4.339   5.613   5.184
15279SOL     OW47277   5.299   3.858   5.174
15279SOL    HW147278   5.224   3.901   5.134
15279SOL    HW247279   5.289   3.873   5.268
15280SOL     OW47280   3.795   4.345   4.257
15280SOL    HW147281   3.775   4.258   4.291
15280SOL    HW247282   3.874   4.371   4.304
15281SOL     OW47283   5.568   5.471   4.040
15281SOL    HW147284   5.632   5.445   4.107
15281SOL    HW247285   5.582   5.565   4.029
15282SOL     OW47286   3.772   5.347   3.832
15282SOL    HW147287   3.758   5.255   3.856
15282SOL    HW247288   3.735   5.397   3.904
15283SOL     OW47289   5.422   4.655   4.375
15283SOL    HW147290   5.480   4.592   4.332
15283SOL    HW247291   5.385   4.706   4.302
15284SOL     OW47292   5.368   4.822   4.154
15284SOL    HW147293   5.451   4.818   4.106
15284SOL    HW247294   5.378   4.897   4.212
15285SOL     OW47295   4.336   5.091   4.483
15285SOL    HW147296   4.287   5.022   4.527
15285SOL    HW247297   4.318   5.079   4.390
15286SOL     OW47298   5.012   4.974   5.126
15286SOL    HW147299   5.052   4.908   5.069
15286SOL    HW247300   5.051   4.959   5.212
15287SOL     OW47301   5.269   4.731   3.906
15287SOL    HW147302   5.203   4.662   3.899
15287SOL    HW247303   5.281   4.742   4.000
15288SOL     OW47304   4.953   5.557   5.349
15288SOL    HW147305   4.915   5.580   5.264
15288SOL    HW247306   4.949   5.461   5.352
15289SOL     OW47307   4.045   3.999   5.531
15289SOL    HW147308   4.115   4.060   5.557
15289SOL    HW247309   3.964   4.041   5.561
15290SOL     OW47310   5.193   5.142   4.670
15290SOL    HW147311   5.125   5.153   4.737
15290SOL    HW247312   5.179   5.054   4.635
15291SOL     OW47313   5.369   5.496   4.295
15291SOL    HW147314   5.345   5.456   4.212
15291SOL    HW247315   5.357   5.426   4.360
15292SOL     OW47316   5.296   5.418   4.034
15292SOL    HW147317   5.391   5.427   4.025
15292SOL    HW247318   5.265   5.395   3.947
15293SOL     OW47319   4.551   4.322   5.215
15293SOL    HW147320   4.515   4.308   5.303
15293SOL    HW247321   4.508   4.256   5.161
15294SOL     OW47322   5.178   4.210   5.388
15294SOL    HW147323   5.159   4.255   5.470
15294SOL    HW247324   5.102   4.154   5.373
15295SOL     OW47325   4.793   4.378   4.159
15295SOL    HW147326   4.806   4.361   4.253
15295SOL    HW247327   4.712   4.332   4.138
15296SOL     OW47328   3.852   5.599   5.299
15296SOL    HW147329   3.844   5.591   5.394
15296SOL    HW247330   3.805   5.522   5.265
15297SOL     OW47331   5.465   4.301   5.532
15297SOL    HW147332   5.415   4.376   5.502
15297SOL    HW247333   5.435   4.228   5.478
15298SOL     OW47334   5.103   4.864   4.276
15298SOL    HW147335   5.176   4.847   4.216
15298SOL    HW247336   5.044   4.921   4.226
15299SOL     OW47337   4.749   5.198   4.200
15299SOL    HW147338   4.706   5.264   4.146
15299SOL    HW247339   4.702   5.201   4.284
15300SOL     OW47340   4.085   5.536   4.591
15300SOL    HW147341   4.120   5.447   4.597
15300SOL    HW247342   4.155   5.591   4.625
15301SOL     OW47343   5.522   4.804   4.589
15301SOL    HW147344   5.473   4.761   4.519
15301SOL    HW247345   5.461   4.807   4.662
15302SOL     OW47346   4.957   5.262   5.254
15302SOL    HW147347   4.941   5.195   5.321
15302SOL    HW247348   4.886   5.250   5.191
15303SOL     OW47349   4.046   4.655   3.910
15303SOL    HW147350   3.981   4.629   3.844
15303SOL    HW247351   4.047   4.582   3.972
15304SOL     OW47352   5.213   4.474   4.444
15304SOL    HW147353   5.206   4.433   4.530
15304SOL    HW247354   5.284   4.538   4.454
15305SOL     OW47355   4.854   5.510   3.938
15305SOL    HW147356   4.776   5.480   3.985
15305SOL    HW247357   4.876   5.438   3.879
15306SOL     OW47358   3.929   4.029   5.197
15306SOL    HW147359   3.855   4.084   5.174
15306SOL    HW247360   3.914   4.005   5.289
15307SOL     OW47361   5.359   5.114   3.809
15307SOL    HW147362   5.311   5.197   3.804
15307SOL    HW247363   5.293   5.046   3.796
15308SOL     OW47364   4.188   5.448   4.042
15308SOL    HW147365   4.247   5.497   4.099
15308SOL    HW247366   4.246   5.404   3.980
15309SOL     OW47367   5.155   3.836   4.155
15309SOL    HW147368   5.146   3.814   4.063
15309SOL    HW247369   5.249   3.849   4.168
15310SOL     OW47370   3.998   5.529   4.930
15310SOL    HW147371   4.029   5.453   4.980
15310SOL    HW247372   3.961   5.492   4.850
15311SOL     OW47373   4.651   5.430   4.612
15311SOL    HW147374   4.683   5.362   4.671
15311SOL    HW247375   4.617   5.383   4.536
15312SOL     OW47376   5.254   3.905   5.447
15312SOL    HW147377   5.254   3.943   5.535
15312SOL    HW247378   5.172   3.856   5.441
15313SOL     OW47379   4.480   4.004   5.483
15313SOL    HW147380   4.566   3.964   5.477
15313SOL    HW247381   4.437   3.960   5.556
15314SOL     OW47382   4.608   5.260   4.940
15314SOL    HW147383   4.589   5.221   4.855
15314SOL    HW247384   4.666   5.197   4.983
15315SOL     OW47385   5.181   4.335   5.143
15315SOL    HW147386   5.195   4.283   5.222
15315SOL    HW247387   5.087   4.355   5.143
15316SOL     OW47388   4.558   5.155   4.691
15316SOL    HW147389   4.629   5.114   4.642
15316SOL    HW247390   4.480   5.105   4.667
15317SOL     OW47391   5.152   4.936   3.764
15317SOL    HW147392   5.185   4.859   3.812
15317SOL    HW247393   5.065   4.950   3.800
15318SOL     OW47394   4.950   5.278   4.508
15318SOL    HW147395   4.963   5.355   4.453
15318SOL    HW247396   4.999   5.297   4.588
15319SOL     OW47397   4.985   5.514   4.342
15319SOL    HW147398   5.022   5.582   4.285
15319SOL    HW247399   4.906   5.553   4.378
15320SOL     OW47400   5.150   4.901   4.553
15320SOL    HW147401   5.117   4.821   4.595
15320SOL    HW247402   5.130   4.890   4.460
15321SOL     OW47403   5.222   4.317   4.686
15321SOL    HW147404   5.171   4.241   4.715
15321SOL    HW247405   5.275   4.341   4.762
15322SOL     OW47406   5.586   4.535   4.102
15322SOL    HW147407   5.635   4.482   4.166
15322SOL    HW247408   5.549   4.470   4.042
15323SOL     OW47409   5.422   5.021   4.322
15323SOL    HW147410   5.509   5.012   4.362
15323SOL    HW247411   5.378   5.087   4.376
15324SOL     OW47412   5.121   4.284   3.772
15324SOL    HW147413   5.047   4.274   3.831
15324SOL    HW247414   5.192   4.235   3.813
15325SOL     OW47415   5.456   4.975   5.283
15325SOL    HW147416   5.514   4.904   5.311
15325SOL    HW247417   5.496   5.054   5.318
15326SOL     OW47418   4.770   5.100   5.102
15326SOL    HW147419   4.721   5.069   5.178
15326SOL    HW247420   4.854   5.055   5.108
15327SOL     OW47421   5.345   5.371   5.396
15327SOL    HW147422   5.328   5.390   5.304
15327SOL    HW247423   5.416   5.307   5.395
15328SOL     OW47424   4.851   4.954   4.822
15328SOL    HW147425   4.771   4.932   4.870
15328SOL    HW247426   4.820   4.981   4.735
15329SOL     OW47427   5.364   4.840   4.817
15329SOL    HW147428   5.375   4.900   4.891
15329SOL    HW247429   5.269   4.825   4.812
15330SOL     OW47430   4.639   3.806   5.158
15330SOL    HW147431   4.672   3.824   5.069
15330SOL    HW247432   4.702   3.849   5.215
15331SOL     OW47433   3.808   5.345   5.119
15331SOL    HW147434   3.763   5.352   5.035
15331SOL    HW247435   3.896   5.314   5.097
15332SOL     OW47436   4.975   5.076   4.113
15332SOL    HW147437   5.037   5.138   4.151
15332SOL    HW247438   4.890   5.102   4.148
15333SOL     OW47439   5.007   5.186   4.865
15333SOL    HW147440   5.056   5.182   4.947
15333SOL    HW247441   4.950   5.109   4.868
15334SOL     OW47442   5.290   4.363   4.195
15334SOL    HW147443   5.263   4.386   4.284
15334SOL    HW247444   5.237   4.419   4.138
15335SOL     OW47445   4.058   5.278   5.030
15335SOL    HW147446   4.039   5.239   4.944
15335SOL    HW247447   4.151   5.264   5.043
15336SOL     OW47448   5.333   4.520   5.405
15336SOL    HW147449   5.250   4.563   5.425
15336SOL    HW247450   5.321   4.484   5.317
15337SOL     OW47451   4.719   3.876   5.478
15337SOL    HW147452   4.794   3.926   5.445
15337SOL    HW247453   4.756   3.792   5.504
15338SOL     OW47454   4.200   3.761   5.497
15338SOL    HW147455   4.166   3.708   5.425
15338SOL    HW247456   4.145   3.839   5.497
15339SOL     OW47457   5.099   4.605   4.724
15339SOL    HW147458   5.005   4.584   4.725
15339SOL    HW247459   5.140   4.530   4.767
15340SOL     OW47460   4.956   4.245   3.978
15340SOL    HW147461   4.961   4.172   4.040
15340SOL    HW247462   4.891   4.304   4.017
15341SOL     OW47463   4.029   3.925   4.962
15341SOL    HW147464   3.993   3.963   5.041
15341SOL    HW247465   4.012   3.832   4.969
15342SOL     OW47466   3.749   5.048   4.976
15342SOL    HW147467   3.737   4.954   4.967
15342SOL    HW247468   3.764   5.061   5.070
15343SOL     OW47469   5.468   4.697   5.573
15343SOL    HW147470   5.427   4.630   5.517
15343SOL    HW247471   5.407   4.708   5.645
15344SOL     OW47472   5.365   4.123   4.079
15344SOL    HW147473   5.377   4.056   4.146
15344SOL    HW247474   5.331   4.199   4.126
15345SOL     OW47475   4.710   5.320   5.447
15345SOL    HW147476   4.696   5.334   5.354
15345SOL    HW247477   4.672   5.234   5.465
15346SOL     OW47478   5.579   5.220   5.336
15346SOL    HW147479   5.599   5.263   5.252
15346SOL    HW247480   5.659   5.230   5.387
15347SOL     OW47481   5.268   4.001   3.845
15347SOL    HW147482   5.199   3.941   3.873
15347SOL    HW247483   5.297   4.044   3.926
15348SOL     OW47484   5.087   4.559   3.775
15348SOL    HW147485   5.096   4.464   3.769
15348SOL    HW247486   5.086   4.588   3.683
15349SOL     OW47487   4.783   5.062   4.572
15349SOL    HW147488   4.791   4.989   4.510
15349SOL    HW247489   4.844   5.128   4.538
15350SOL     OW47490   4.878   4.153   5.376
15350SOL    HW147491   4.828   4.175   5.455
15350SOL    HW247492   4.869   4.229   5.319
15351SOL     OW47493   4.905   3.915   5.238
15351SOL    HW147494   4.891   4.005   5.270
15351SOL    HW247495   4.930   3.926   5.147
15352SOL     OW47496   3.823   5.514   4.676
15352SOL    HW147497   3.785   5.437   4.634
15352SOL    HW247498   3.912   5.519   4.640
15353SOL     OW47499   4.222   5.303   4.624
15353SOL    HW147500   4.293   5.357   4.659
15353SOL    HW247501   4.267   5.230   4.580
15354SOL     OW47502   5.104   4.666   5.415
15354SOL    HW147503   5.113   4.759   5.396
15354SOL    HW247504   5.054   4.631   5.341
15355SOL     OW47505   5.351   4.358   4.918
15355SOL    HW147506   5.304   4.328   4.996
15355SOL    HW247507   5.426   4.298   4.911
15356SOL     OW47508   3.949   5.307   5.480
15356SOL    HW147509   3.905   5.349   5.554
15356SOL    HW247510   3.987   5.228   5.517
15357SOL     OW47511   4.403   4.170   5.046
15357SOL    HW147512   4.334   4.122   5.092
15357SOL    HW247513   4.363   4.254   5.023
15358SOL     OW47514   4.653   5.405   5.181
15358SOL    HW147515   4.637   5.354   5.102
15358SOL    HW247516   4.609   5.488   5.166
15359SOL     OW47517   5.092   4.838   4.890
15359SOL    HW147518   5.081   4.743   4.883
15359SOL    HW247519   5.006   4.873   4.866
15360SOL     OW47520   5.035   4.573   4.054
15360SOL    HW147521   4.959   4.535   4.097
15360SOL    HW247522   5.014   4.568   3.960
15361SOL     OW47523   5.515   5.445   4.890
15361SOL    HW147524   5.567   5.472   4.814
15361SOL    HW247525   5.477   5.361   4.865
15362SOL     OW47526   4.959   5.461   4.834
15362SOL    HW147527   5.046   5.482   4.800
15362SOL    HW247528   4.964   5.368   4.856
15363SOL     OW47529   4.404   5.409   5.486
15363SOL    HW147530   4.357   5.474   5.434
15363SOL    HW247531   4.459   5.364   5.422
15364SOL     OW47532   5.444   3.886   4.226
15364SOL    HW147533   5.516   3.869   4.165
15364SOL    HW247534   5.432   3.802   4.272
15365SOL     OW47535   5.128   5.291   4.222
15365SOL    HW147536   5.172   5.334   4.149
15365SOL    HW247537   5.064   5.356   4.252
15366SOL     OW47538   3.845   5.592   5.573
15366SOL    HW147539   3.804   5.513   5.607
15366SOL    HW247540   3.913   5.613   5.637
15367SOL     OW47541   4.994   4.643   4.402
15367SOL    HW147542   5.067   4.582   4.411
15367SOL    HW247543   5.028   4.713   4.347
15368SOL     OW47544   4.359   5.329   3.867
15368SOL    HW147545   4.387   5.355   3.779
15368SOL    HW247546   4.342   5.235   3.861
15369SOL     OW47547   5.342   5.451   5.121
15369SOL    HW147548   5.399   5.451   5.044
15369SOL    HW247549   5.334   5.544   5.144
15370SOL     OW47550   5.563   3.889   4.688
15370SOL    HW147551   5.588   3.799   4.666
15370SOL    HW247552   5.476   3.899   4.650
15371SOL     OW47553   3.949   3.956   4.445
15371SOL    HW147554   3.890   4.024   4.412
15371SOL    HW247555   3.955   3.972   4.539
15372SOL     OW47556   4.939   5.320   3.753
15372SOL    HW147557   4.925   5.231   3.786
15372SOL    HW247558   4.871   5.331   3.686
15373SOL     OW47559   5.209   5.372   3.774
15373SOL    HW147560   5.117   5.349   3.759
15373SOL    HW247561   5.248   5.373   3.687
15374SOL     OW47562   5.372   5.034   5.027
15374SOL    HW147563   5.392   4.992   5.111
15374SOL    HW247564   5.291   5.082   5.043
15375SOL     OW47565   4.791   4.836   4.425
15375SOL    HW147566   4.719   4.798   4.475
15375SOL    HW247567   4.852   4.763   4.413
15376SOL     OW47568   4.400   5.238   4.177
15376SOL    HW147569   4.412   5.146   4.152
15376SOL    HW247570   4.314   5.262   4.141
15377SOL     OW47571   5.464   4.134   5.099
15377SOL    HW147572   5.540   4.192   5.097
15377SOL    HW247573   5.489   4.059   5.045
15378SOL     OW47574   4.388   3.915   5.237
15378SOL    HW147575   4.472   3.896   5.195
15378SOL    HW247576   4.412   3.952   5.322
15379SOL     OW47577   3.765   4.028   3.729
15379SOL    HW147578   3.701   4.070   3.787
15379SOL    HW247579   3.823   4.099   3.702
15380SOL     OW47580   5.247   4.604   5.110
15380SOL    HW147581   5.160   4.629   5.139
15380SOL    HW247582   5.243   4.509   5.099
15381SOL     OW47583   4.883   5.064   3.842
15381SOL    HW147584   4.790   5.083   3.843
15381SOL    HW247585   4.908   5.056   3.934
15382SOL     OW47586   5.208   5.524   4.731
15382SOL    HW147587   5.241   5.567   4.652
15382SOL    HW247588   5.270   5.453   4.748
15383SOL     OW47589   4.452   4.279   5.464
15383SOL    HW147590   4.423   4.307   5.551
15383SOL    HW247591   4.456   4.184   5.470
15384SOL     OW47592   5.182   4.933   5.350
15384SOL    HW147593   5.173   4.942   5.445
15384SOL    HW247594   5.276   4.946   5.334
15385SOL     OW47595   4.098   5.469   5.306
15385SOL    HW147596   4.017   5.512   5.278
15385SOL    HW247597   4.070   5.395   5.359
15386SOL     OW47598   5.497   4.602   4.934
15386SOL    HW147599   5.445   4.521   4.931
15386SOL    HW247600   5.436   4.670   4.906
15387SOL     OW47601   4.989   4.057   4.174
15387SOL    HW147602   5.037   3.974   4.175
15387SOL    HW247603   5.018   4.103   4.252
15388SOL     OW47604   5.474   4.061   5.364
15388SOL    HW147605   5.449   4.090   5.276
15388SOL    HW247606   5.397   4.013   5.396
15389SOL     OW47607   5.516   4.673   5.210
15389SOL    HW147608   5.428   4.681   5.246
15389SOL    HW247609   5.503   4.650   5.118
15390SOL     OW47610   4.627   5.167   3.779
15390SOL    HW147611   4.538   5.135   3.765
15390SOL    HW247612   4.638   5.235   3.713
15391SOL     OW47613   4.392   5.519   4.674
15391SOL    HW147614   4.380   5.608   4.643
15391SOL    HW247615   4.483   5.498   4.652
15392SOL     OW47616   4.605   4.741   4.598
15392SOL    HW147617   4.549   4.663   4.596
15392SOL    HW247618   4.575   4.790   4.675
15393SOL     OW47619   5.559   5.278   4.565
15393SOL    HW147620   5.476   5.267   4.517
15393SOL    HW247621   5.555   5.211   4.634
15394SOL     OW47622   5.575   3.915   4.967
15394SOL    HW147623   5.511   3.852   5.002
15394SOL    HW247624   5.560   3.914   4.873
15395SOL     OW47625   5.413   5.208   4.817
15395SOL    HW147626   5.337   5.184   4.763
15395SOL    HW247627   5.410   5.147   4.891
15396SOL     OW47628   4.542   5.287   4.406
15396SOL    HW147629   4.495   5.289   4.323
15396SOL    HW247630   4.496   5.221   4.458
15397SOL     OW47631   5.227   3.939   4.841
15397SOL    HW147632   5.256   3.854   4.875
15397SOL    HW247633   5.143   3.955   4.884
15398SOL     OW47634   4.337   5.279   5.015
15398SOL    HW147635   4.337   5.363   5.060
15398SOL    HW247636   4.428   5.265   4.988
15399SOL     OW47637   5.100   3.784   3.888
15399SOL    HW147638   5.108   3.730   3.809
15399SOL    HW247639   5.015   3.759   3.924
15400SOL     OW47640   5.063   4.189   4.404
15400SOL    HW147641   5.013   4.269   4.391
15400SOL    HW247642   5.020   4.146   4.478
15401SOL     OW47643   5.311   3.916   4.587
15401SOL    HW147644   5.270   3.934   4.671
15401SOL    HW247645   5.311   4.001   4.541
15402SOL     OW47646   4.623   5.407   4.055
15402SOL    HW147647   4.547   5.356   4.028
15402SOL    HW247648   4.591   5.461   4.127
15403SOL     OW47649   3.960   4.300   5.695
15403SOL    HW147650   3.896   4.310   5.766
15403SOL    HW247651   3.919   4.343   5.620
15404SOL     OW47652   3.916   4.067   6.602
15404SOL    HW147653   3.953   4.023   6.679
15404SOL    HW247654   3.837   4.017   6.582
15405SOL     OW47655   3.753   4.131   6.261
15405SOL    HW147656   3.704   4.172   6.332
15405SOL    HW247657   3.686   4.099   6.200
15406SOL     OW47658   5.298   5.249   6.304
15406SOL    HW147659   5.250   5.215   6.380
15406SOL    HW247660   5.233   5.251   6.234
15407SOL     OW47661   5.536   4.300   5.799
15407SOL    HW147662   5.497   4.303   5.711
15407SOL    HW247663   5.469   4.260   5.854
15408SOL     OW47664   4.440   4.722   6.239
15408SOL    HW147665   4.511   4.712   6.302
15408SOL    HW247666   4.373   4.771   6.286
15409SOL     OW47667   3.991   5.246   6.646
15409SOL    HW147668   3.924   5.178   6.653
15409SOL    HW247669   4.066   5.201   6.605
15410SOL     OW47670   5.187   5.224   6.959
15410SOL    HW147671   5.235   5.307   6.970
15410SOL    HW247672   5.113   5.232   7.019
15411SOL     OW47673   5.335   4.151   6.314
15411SOL    HW147674   5.270   4.125   6.249
15411SOL    HW247675   5.315   4.242   6.332
15412SOL     OW47676   3.955   5.471   6.011
15412SOL    HW147677   3.982   5.521   6.088
15412SOL    HW247678   3.964   5.379   6.038
15413SOL     OW47679   4.861   5.057   7.283
15413SOL    HW147680   4.891   5.054   7.374
15413SOL    HW247681   4.822   4.971   7.268
15414SOL     OW47682   3.969   5.210   6.099
15414SOL    HW147683   3.960   5.172   6.012
15414SOL    HW247684   3.934   5.144   6.159
15415SOL     OW47685   3.998   4.804   6.489
15415SOL    HW147686   4.006   4.711   6.506
15415SOL    HW247687   3.993   4.845   6.575
15416SOL     OW47688   4.393   5.531   7.072
15416SOL    HW147689   4.312   5.483   7.054
15416SOL    HW247690   4.367   5.623   7.072
15417SOL     OW47691   4.365   4.691   5.702
15417SOL    HW147692   4.415   4.747   5.644
15417SOL    HW247693   4.364   4.738   5.786
15418SOL     OW47694   5.316   3.851   7.049
15418SOL    HW147695   5.285   3.911   6.981
15418SOL    HW247696   5.290   3.892   7.131
15419SOL     OW47697   3.851   4.397   6.145
15419SOL    HW147698   3.831   4.308   6.173
15419SOL    HW247699   3.841   4.450   6.224
15420SOL     OW47700   5.569   5.472   5.901
15420SOL    HW147701   5.632   5.446   5.968
15420SOL    HW247702   5.583   5.566   5.890
15421SOL     OW47703   3.797   5.363   5.707
15421SOL    HW147704   3.852   5.294   5.745
15421SOL    HW247705   3.743   5.394   5.780
15422SOL     OW47706   5.450   4.661   6.227
15422SOL    HW147707   5.445   4.573   6.190
15422SOL    HW247708   5.395   4.715   6.170
15423SOL     OW47709   5.374   4.825   6.003
15423SOL    HW147710   5.465   4.828   5.974
15423SOL    HW247711   5.365   4.900   6.061
15424SOL     OW47712   3.855   4.447   7.148
15424SOL    HW147713   3.938   4.486   7.174
15424SOL    HW247714   3.799   4.522   7.125
15425SOL     OW47715   4.317   5.119   6.315
15425SOL    HW147716   4.285   5.031   6.336
15425SOL    HW247717   4.301   5.129   6.221
15426SOL     OW47718   5.017   4.952   6.995
15426SOL    HW147719   5.044   4.886   6.931
15426SOL    HW247720   5.074   4.938   7.071
15427SOL     OW47721   3.926   4.705   6.781
15427SOL    HW147722   3.959   4.633   6.727
15427SOL    HW247723   3.865   4.664   6.842
15428SOL     OW47724   5.265   4.720   5.773
15428SOL    HW147725   5.194   4.658   5.789
15428SOL    HW247726   5.292   4.750   5.860
15429SOL     OW47727   4.946   5.545   7.212
15429SOL    HW147728   4.916   5.596   7.137
15429SOL    HW247729   4.945   5.454   7.181
15430SOL     OW47730   4.041   3.988   7.423
15430SOL    HW147731   4.070   4.073   7.390
15430SOL    HW247732   3.949   4.002   7.448
15431SOL     OW47733   5.208   5.124   6.535
15431SOL    HW147734   5.130   5.160   6.578
15431SOL    HW247735   5.178   5.039   6.501
15432SOL     OW47736   5.368   5.496   6.156
15432SOL    HW147737   5.345   5.458   6.071
15432SOL    HW247738   5.353   5.426   6.219
15433SOL     OW47739   4.310   4.445   5.857
15433SOL    HW147740   4.305   4.526   5.806
15433SOL    HW247741   4.240   4.453   5.921
15434SOL     OW47742   5.294   5.427   5.894
15434SOL    HW147743   5.390   5.431   5.883
15434SOL    HW247744   5.261   5.403   5.807
15435SOL     OW47745   5.124   4.214   7.257
15435SOL    HW147746   5.040   4.218   7.303
15435SOL    HW247747   5.163   4.131   7.286
15436SOL     OW47748   4.784   4.425   6.003
15436SOL    HW147749   4.815   4.361   6.067
15436SOL    HW247750   4.695   4.395   5.981
15437SOL     OW47751   3.830   4.546   6.372
15437SOL    HW147752   3.897   4.534   6.440
15437SOL    HW247753   3.798   4.635   6.385
15438SOL     OW47754   3.857   5.596   7.156
15438SOL    HW147755   3.838   5.568   7.245
15438SOL    HW247756   3.822   5.526   7.101
15439SOL     OW47757   4.623   4.065   5.788
15439SOL    HW147758   4.660   4.118   5.718
15439SOL    HW247759   4.591   3.986   5.744
15440SOL     OW47760   5.461   4.302   7.410
15440SOL    HW147761   5.413   4.371   7.364
15440SOL    HW247762   5.460   4.228   7.349
15441SOL     OW47763   5.117   4.921   6.159
15441SOL    HW147764   5.127   4.828   6.136
15441SOL    HW247765   5.060   4.956   6.091
15442SOL     OW47766   4.742   5.206   6.073
15442SOL    HW147767   4.707   5.270   6.011
15442SOL    HW247768   4.680   5.207   6.146
15443SOL     OW47769   4.083   5.527   6.456
15443SOL    HW147770   4.134   5.446   6.468
15443SOL    HW247771   4.145   5.597   6.476
15444SOL     OW47772   5.532   4.811   6.444
15444SOL    HW147773   5.494   4.763   6.370
15444SOL    HW247774   5.464   4.809   6.511
15445SOL     OW47775   4.959   5.265   7.112
15445SOL    HW147776   4.950   5.192   7.173
15445SOL    HW247777   4.892   5.250   7.045
15446SOL     OW47778   4.077   4.646   5.860
15446SOL    HW147779   4.074   4.727   5.809
15446SOL    HW247780   3.989   4.609   5.853
15447SOL     OW47781   5.237   4.407   6.316
15447SOL    HW147782   5.154   4.359   6.317
15447SOL    HW247783   5.212   4.497   6.298
15448SOL     OW47784   4.855   5.504   5.801
15448SOL    HW147785   4.777   5.478   5.849
15448SOL    HW247786   4.874   5.431   5.743
15449SOL     OW47787   3.909   4.022   7.101
15449SOL    HW147788   3.819   4.016   7.135
15449SOL    HW247789   3.950   3.940   7.129
15450SOL     OW47790   5.360   5.115   5.674
15450SOL    HW147791   5.307   5.195   5.668
15450SOL    HW247792   5.298   5.044   5.660
15451SOL     OW47793   4.269   5.512   5.871
15451SOL    HW147794   4.238   5.476   5.953
15451SOL    HW247795   4.311   5.439   5.826
15452SOL     OW47796   4.012   5.507   6.779
15452SOL    HW147797   3.971   5.459   6.850
15452SOL    HW247798   4.023   5.443   6.709
15453SOL     OW47799   4.671   5.418   6.450
15453SOL    HW147800   4.664   5.342   6.507
15453SOL    HW247801   4.625   5.393   6.370
15454SOL     OW47802   4.124   4.404   6.067
15454SOL    HW147803   4.139   4.309   6.076
15454SOL    HW247804   4.031   4.415   6.083
15455SOL     OW47805   5.237   3.956   7.317
15455SOL    HW147806   5.265   3.963   7.408
15455SOL    HW247807   5.164   3.894   7.319
15456SOL     OW47808   4.386   3.837   5.679
15456SOL    HW147809   4.431   3.756   5.704
15456SOL    HW247810   4.316   3.808   5.621
15457SOL     OW47811   4.605   5.257   6.815
15457SOL    HW147812   4.554   5.207   6.751
15457SOL    HW247813   4.674   5.196   6.843
15458SOL     OW47814   5.169   4.297   6.995
15458SOL    HW147815   5.156   4.265   7.084
15458SOL    HW247816   5.110   4.373   6.988
15459SOL     OW47817   4.603   5.166   6.510
15459SOL    HW147818   4.653   5.093   6.472
15459SOL    HW247819   4.532   5.123   6.557
15460SOL     OW47820   5.162   4.931   5.624
15460SOL    HW147821   5.186   4.850   5.670
15460SOL    HW247822   5.072   4.948   5.653
15461SOL     OW47823   4.664   4.003   6.060
15461SOL    HW147824   4.632   4.014   5.970
15461SOL    HW247825   4.756   4.030   6.055
15462SOL     OW47826   5.003   5.301   6.387
15462SOL    HW147827   4.980   5.359   6.314
15462SOL    HW247828   4.927   5.304   6.445
15463SOL     OW47829   4.203   4.870   6.312
15463SOL    HW147830   4.132   4.847   6.373
15463SOL    HW247831   4.165   4.859   6.225
15464SOL     OW47832   4.978   5.519   6.199
15464SOL    HW147833   5.011   5.587   6.140
15464SOL    HW247834   4.899   5.556   6.236
15465SOL     OW47835   4.753   4.247   5.613
15465SOL    HW147836   4.710   4.331   5.599
15465SOL    HW247837   4.808   4.261   5.691
15466SOL     OW47838   3.833   4.256   6.958
15466SOL    HW147839   3.881   4.183   6.998
15466SOL    HW247840   3.839   4.326   7.022
15467SOL     OW47841   4.606   4.217   6.230
15467SOL    HW147842   4.543   4.273   6.184
15467SOL    HW247843   4.617   4.141   6.172
15468SOL     OW47844   5.129   4.883   6.434
15468SOL    HW147845   5.056   4.821   6.440
15468SOL    HW247846   5.138   4.900   6.340
15469SOL     OW47847   5.626   4.532   5.941
15469SOL    HW147848   5.654   4.479   6.016
15469SOL    HW247849   5.562   4.478   5.896
15470SOL     OW47850   5.427   5.025   6.179
15470SOL    HW147851   5.508   5.022   6.230
15470SOL    HW247852   5.369   5.084   6.227
15471SOL     OW47853   5.126   4.275   5.656
15471SOL    HW147854   5.052   4.274   5.717
15471SOL    HW247855   5.171   4.192   5.670
15472SOL     OW47856   4.297   3.998   5.892
15472SOL    HW147857   4.323   3.942   5.819
15472SOL    HW247858   4.257   4.074   5.851
15473SOL     OW47859   5.467   4.965   7.143
15473SOL    HW147860   5.552   4.922   7.140
15473SOL    HW247861   5.486   5.053   7.174
15474SOL     OW47862   4.787   5.093   6.968
15474SOL    HW147863   4.731   5.047   7.031
15474SOL    HW247864   4.870   5.045   6.971
15475SOL     OW47865   5.346   5.365   7.259
15475SOL    HW147866   5.329   5.391   7.169
15475SOL    HW247867   5.419   5.304   7.253
15476SOL     OW47868   4.900   4.996   6.669
15476SOL    HW147869   4.816   4.978   6.712
15476SOL    HW247870   4.880   4.993   6.576
15477SOL     OW47871   5.346   4.830   6.648
15477SOL    HW147872   5.333   4.888   6.723
15477SOL    HW247873   5.263   4.831   6.601
15478SOL     OW47874   4.715   4.815   7.275
15478SOL    HW147875   4.630   4.855   7.295
15478SOL    HW247876   4.697   4.757   7.202
15479SOL     OW47877   4.442   4.804   5.960
15479SOL    HW147878   4.417   4.773   6.048
15479SOL    HW247879   4.523   4.756   5.940
15480SOL     OW47880   3.818   5.403   6.957
15480SOL    HW147881   3.764   5.420   6.880
15480SOL    HW247882   3.830   5.308   6.959
15481SOL     OW47883   4.109   4.849   6.055
15481SOL    HW147884   4.096   4.899   5.975
15481SOL    HW247885   4.099   4.758   6.028
15482SOL     OW47886   4.295   4.246   6.412
15482SOL    HW147887   4.284   4.313   6.344
15482SOL    HW247888   4.389   4.246   6.431
15483SOL     OW47889   4.969   5.088   5.974
15483SOL    HW147890   5.031   5.149   6.014
15483SOL    HW247891   4.884   5.115   6.009
15484SOL     OW47892   5.027   5.223   6.731
15484SOL    HW147893   5.077   5.206   6.811
15484SOL    HW247894   4.976   5.144   6.717
15485SOL     OW47895   5.341   4.428   6.057
15485SOL    HW147896   5.305   4.398   6.141
15485SOL    HW247897   5.264   4.440   6.002
15486SOL     OW47898   5.343   4.510   7.279
15486SOL    HW147899   5.251   4.537   7.272
15486SOL    HW247900   5.380   4.530   7.193
15487SOL     OW47901   4.192   3.761   7.394
15487SOL    HW147902   4.188   3.702   7.319
15487SOL    HW247903   4.128   3.829   7.375
15488SOL     OW47904   4.280   4.639   6.627
15488SOL    HW147905   4.349   4.649   6.561
15488SOL    HW247906   4.261   4.729   6.655
15489SOL     OW47907   4.927   4.264   5.839
15489SOL    HW147908   4.938   4.205   5.913
15489SOL    HW247909   4.873   4.336   5.873
15490SOL     OW47910   3.961   3.946   6.840
15490SOL    HW147911   3.959   3.972   6.933
15490SOL    HW247912   4.044   3.900   6.829
15491SOL     OW47913   5.476   4.694   7.436
15491SOL    HW147914   5.437   4.623   7.385
15491SOL    HW247915   5.412   4.711   7.506
15492SOL     OW47916   5.346   4.085   5.954
15492SOL    HW147917   5.386   4.022   6.014
15492SOL    HW247918   5.265   4.112   5.998
15493SOL     OW47919   4.715   5.293   7.297
15493SOL    HW147920   4.696   5.334   7.213
15493SOL    HW247921   4.756   5.210   7.274
15494SOL     OW47922   5.576   5.217   7.197
15494SOL    HW147923   5.595   5.257   7.112
15494SOL    HW247924   5.657   5.227   7.246
15495SOL     OW47925   5.245   3.997   5.709
15495SOL    HW147926   5.177   3.933   5.730
15495SOL    HW247927   5.278   4.025   5.794
15496SOL     OW47928   5.035   4.549   5.654
15496SOL    HW147929   5.053   4.456   5.637
15496SOL    HW247930   5.047   4.591   5.569
15497SOL     OW47931   4.814   5.008   6.412
15497SOL    HW147932   4.798   4.920   6.379
15497SOL    HW247933   4.865   5.051   6.344
15498SOL     OW47934   4.035   4.537   6.574
15498SOL    HW147935   4.124   4.567   6.587
15498SOL    HW247936   4.040   4.442   6.583
15499SOL     OW47937   4.102   4.271   6.604
15499SOL    HW147938   4.036   4.202   6.597
15499SOL    HW247939   4.158   4.259   6.527
15500SOL     OW47940   3.805   5.502   6.511
15500SOL    HW147941   3.774   5.416   6.481
15500SOL    HW247942   3.900   5.499   6.497
15501SOL     OW47943   4.272   5.318   6.496
15501SOL    HW147944   4.302   5.267   6.571
15501SOL    HW247945   4.278   5.257   6.422
15502SOL     OW47946   3.760   4.275   6.696
15502SOL    HW147947   3.812   4.209   6.649
15502SOL    HW247948   3.797   4.277   6.784
15503SOL     OW47949   3.896   4.219   7.293
15503SOL    HW147950   3.933   4.165   7.224
15503SOL    HW247951   3.879   4.303   7.251
15504SOL     OW47952   5.103   4.649   7.252
15504SOL    HW147953   5.116   4.744   7.249
15504SOL    HW247954   5.100   4.622   7.160
15505SOL     OW47955   4.549   4.320   5.921
15505SOL    HW147956   4.539   4.231   5.888
15505SOL    HW247957   4.465   4.362   5.903
15506SOL     OW47958   5.363   4.365   6.795
15506SOL    HW147959   5.303   4.316   6.851
15506SOL    HW247960   5.414   4.297   6.749
15507SOL     OW47961   4.647   5.404   7.050
15507SOL    HW147962   4.640   5.358   6.966
15507SOL    HW247963   4.572   5.463   7.052
15508SOL     OW47964   4.210   4.214   5.742
15508SOL    HW147965   4.250   4.290   5.784
15508SOL    HW247966   4.119   4.239   5.728
15509SOL     OW47967   5.052   4.785   6.768
15509SOL    HW147968   4.998   4.711   6.739
15509SOL    HW247969   5.015   4.861   6.722
15510SOL     OW47970   5.023   4.569   5.928
15510SOL    HW147971   4.940   4.533   5.959
15510SOL    HW247972   5.017   4.564   5.833
15511SOL     OW47973   5.520   5.443   6.759
15511SOL    HW147974   5.567   5.473   6.681
15511SOL    HW247975   5.477   5.362   6.732
15512SOL     OW47976   4.965   5.488   6.706
15512SOL    HW147977   5.046   5.505   6.660
15512SOL    HW247978   4.966   5.394   6.722
15513SOL     OW47979   3.788   5.026   6.615
15513SOL    HW147980   3.796   4.978   6.697
15513SOL    HW247981   3.760   4.960   6.551
15514SOL     OW47982   4.415   5.419   7.353
15514SOL    HW147983   4.354   5.483   7.316
15514SOL    HW247984   4.463   5.386   7.277
15515SOL     OW47985   5.492   3.875   6.120
15515SOL    HW147986   5.540   3.865   6.038
15515SOL    HW247987   5.450   3.791   6.135
15516SOL     OW47988   5.129   5.298   6.083
15516SOL    HW147989   5.170   5.338   6.006
15516SOL    HW247990   5.064   5.362   6.112
15517SOL     OW47991   3.837   5.548   7.426
15517SOL    HW147992   3.800   5.463   7.447
15517SOL    HW247993   3.899   5.566   7.497
15518SOL     OW47994   5.101   4.629   6.216
15518SOL    HW147995   5.054   4.606   6.135
15518SOL    HW247996   5.032   4.658   6.276
15519SOL     OW47997   4.416   5.322   5.749
15519SOL    HW147998   4.416   5.334   5.654
15519SOL    HW247999   4.413   5.227   5.761
15520SOL     OW48000   5.347   5.451   6.989
15520SOL    HW148001   5.399   5.449   6.908
15520SOL    HW248002   5.336   5.544   7.008
15521SOL     OW48003   5.562   3.891   6.549
15521SOL    HW148004   5.580   3.802   6.519
15521SOL    HW248005   5.474   3.911   6.515
15522SOL     OW48006   4.016   4.095   6.343
15522SOL    HW148007   3.930   4.114   6.305
15522SOL    HW248008   3.996   4.065   6.432
15523SOL     OW48009   4.930   5.305   5.619
15523SOL    HW148010   4.922   5.214   5.650
15523SOL    HW248011   4.859   5.315   5.556
15524SOL     OW48012   4.676   4.680   5.899
15524SOL    HW148013   4.709   4.679   5.809
15524SOL    HW248014   4.696   4.592   5.933
15525SOL     OW48015   5.201   5.378   5.636
15525SOL    HW148016   5.112   5.346   5.622
15525SOL    HW248017   5.242   5.375   5.550
15526SOL     OW48018   5.355   5.021   6.882
15526SOL    HW148019   5.381   4.979   6.964
15526SOL    HW248020   5.283   5.080   6.907
15527SOL     OW48021   4.311   5.247   6.051
15527SOL    HW148022   4.363   5.187   5.998
15527SOL    HW248023   4.221   5.217   6.039
15528SOL     OW48024   5.495   4.101   6.991
15528SOL    HW148025   5.527   4.184   6.956
15528SOL    HW248026   5.508   4.038   6.920
15529SOL     OW48027   5.143   4.601   6.989
15529SOL    HW148028   5.072   4.616   6.925
15529SOL    HW248029   5.223   4.608   6.938
15530SOL     OW48030   4.909   5.033   5.703
15530SOL    HW148031   4.852   4.956   5.694
15530SOL    HW248032   4.921   5.043   5.797
15531SOL     OW48033   5.212   5.528   6.590
15531SOL    HW148034   5.217   5.546   6.496
15531SOL    HW248035   5.249   5.440   6.599
15532SOL     OW48036   5.194   4.915   7.213
15532SOL    HW148037   5.179   4.936   7.305
15532SOL    HW248038   5.286   4.934   7.199
15533SOL     OW48039   4.110   5.471   7.142
15533SOL    HW148040   4.020   5.504   7.136
15533SOL    HW248041   4.107   5.385   7.100
15534SOL     OW48042   5.394   4.626   6.845
15534SOL    HW148043   5.386   4.534   6.818
15534SOL    HW248044   5.376   4.676   6.765
15535SOL     OW48045   4.324   4.462   6.245
15535SOL    HW148046   4.362   4.548   6.228
15535SOL    HW248047   4.255   4.453   6.179
15536SOL     OW48048   5.474   4.077   7.256
15536SOL    HW148049   5.475   4.088   7.161
15536SOL    HW248050   5.392   4.032   7.274
15537SOL     OW48051   5.500   4.655   7.092
15537SOL    HW148052   5.455   4.735   7.120
15537SOL    HW248053   5.470   4.642   7.002
15538SOL     OW48054   4.451   5.590   6.588
15538SOL    HW148055   4.384   5.626   6.530
15538SOL    HW248056   4.465   5.501   6.555
15539SOL     OW48057   4.807   4.774   5.639
15539SOL    HW148058   4.722   4.782   5.595
15539SOL    HW248059   4.836   4.685   5.619
15540SOL     OW48060   5.556   5.282   6.426
15540SOL    HW148061   5.475   5.272   6.377
15540SOL    HW248062   5.559   5.207   6.485
15541SOL     OW48063   3.822   5.005   6.239
15541SOL    HW148064   3.829   4.947   6.315
15541SOL    HW248065   3.769   4.955   6.176
15542SOL     OW48066   5.571   3.902   6.822
15542SOL    HW148067   5.512   3.829   6.840
15542SOL    HW248068   5.566   3.915   6.728
15543SOL     OW48069   4.157   4.140   6.107
15543SOL    HW148070   4.192   4.063   6.063
15543SOL    HW248071   4.122   4.107   6.189
15544SOL     OW48072   5.413   5.207   6.688
15544SOL    HW148073   5.344   5.183   6.626
15544SOL    HW248074   5.407   5.141   6.757
15545SOL     OW48075   4.527   5.299   6.244
15545SOL    HW148076   4.456   5.302   6.180
15545SOL    HW248077   4.497   5.234   6.309
15546SOL     OW48078   5.168   3.899   6.759
15546SOL    HW148079   5.116   3.821   6.777
15546SOL    HW248080   5.110   3.957   6.710
15547SOL     OW48081   4.467   5.073   5.910
15547SOL    HW148082   4.427   4.987   5.917
15547SOL    HW248083   4.561   5.056   5.915
15548SOL     OW48084   4.307   5.295   6.917
15548SOL    HW148085   4.390   5.335   6.889
15548SOL    HW248086   4.307   5.209   6.875
15549SOL     OW48087   5.058   3.793   5.739
15549SOL    HW148088   5.057   3.720   5.677
15549SOL    HW248089   4.975   3.785   5.787
15550SOL     OW48090   5.301   3.925   6.469
15550SOL    HW148091   5.235   3.957   6.530
15550SOL    HW248092   5.312   3.997   6.407
15551SOL     OW48093   4.623   5.408   5.920
15551SOL    HW148094   4.550   5.373   5.869
15551SOL    HW248095   4.582   5.459   5.989
15552SOL     OW48096   5.302   5.245   8.165
15552SOL    HW148097   5.255   5.205   8.239
15552SOL    HW248098   5.239   5.245   8.093
15553SOL     OW48099   5.535   4.315   7.666
15553SOL    HW148100   5.500   4.312   7.577
15553SOL    HW248101   5.487   4.247   7.713
15554SOL     OW48102   4.589   4.509   9.257
15554SOL    HW148103   4.525   4.573   9.290
15554SOL    HW248104   4.616   4.544   9.172
15555SOL     OW48105   4.420   4.886   9.248
15555SOL    HW148106   4.446   4.970   9.209
15555SOL    HW248107   4.334   4.868   9.211
15556SOL     OW48108   5.186   5.225   8.822
15556SOL    HW148109   5.230   5.310   8.832
15556SOL    HW248110   5.110   5.231   8.880
15557SOL     OW48111   4.144   4.055   8.906
15557SOL    HW148112   4.224   4.056   8.959
15557SOL    HW248113   4.103   3.971   8.926
15558SOL     OW48114   5.340   4.180   8.192
15558SOL    HW148115   5.265   4.185   8.132
15558SOL    HW248116   5.311   4.226   8.271
15559SOL     OW48117   3.938   5.441   7.913
15559SOL    HW148118   3.970   5.514   7.966
15559SOL    HW248119   4.008   5.422   7.852
15560SOL     OW48120   4.869   5.062   9.154
15560SOL    HW148121   4.894   5.042   9.244
15560SOL    HW248122   4.819   4.986   9.125
15561SOL     OW48123   3.962   5.167   8.018
15561SOL    HW148124   3.923   5.253   8.002
15561SOL    HW248125   3.889   5.114   8.051
15562SOL     OW48126   4.355   5.513   8.936
15562SOL    HW148127   4.264   5.489   8.947
15562SOL    HW248128   4.354   5.608   8.922
15563SOL     OW48129   5.297   3.857   8.889
15563SOL    HW148130   5.285   3.889   8.800
15563SOL    HW248131   5.209   3.850   8.924
15564SOL     OW48132   5.568   5.474   7.766
15564SOL    HW148133   5.635   5.450   7.830
15564SOL    HW248134   5.583   5.567   7.750
15565SOL     OW48135   3.746   5.329   7.564
15565SOL    HW148136   3.756   5.237   7.587
15565SOL    HW248137   3.727   5.372   7.647
15566SOL     OW48138   5.465   4.670   8.096
15566SOL    HW148139   5.459   4.578   8.070
15566SOL    HW248140   5.415   4.717   8.028
15567SOL     OW48141   5.359   4.810   7.874
15567SOL    HW148142   5.440   4.811   7.824
15567SOL    HW248143   5.362   4.891   7.926
15568SOL     OW48144   3.840   4.519   9.076
15568SOL    HW148145   3.919   4.524   9.023
15568SOL    HW248146   3.795   4.601   9.060
15569SOL     OW48147   5.017   4.963   8.865
15569SOL    HW148148   5.032   4.893   8.802
15569SOL    HW248149   5.077   4.943   8.937
15570SOL     OW48150   4.546   3.732   8.005
15570SOL    HW148151   4.591   3.758   7.925
15570SOL    HW248152   4.454   3.757   7.990
15571SOL     OW48153   5.263   4.720   7.618
15571SOL    HW148154   5.190   4.659   7.604
15571SOL    HW248155   5.267   4.732   7.713
15572SOL     OW48156   4.931   5.540   9.078
15572SOL    HW148157   4.912   5.595   9.002
15572SOL    HW248158   4.935   5.451   9.043
15573SOL     OW48159   4.098   4.057   9.239
15573SOL    HW148160   4.130   4.072   9.328
15573SOL    HW248161   4.055   3.972   9.242
15574SOL     OW48162   5.180   5.132   8.383
15574SOL    HW148163   5.113   5.151   8.449
15574SOL    HW248164   5.163   5.042   8.357
15575SOL     OW48165   5.370   5.495   8.019
15575SOL    HW148166   5.347   5.458   7.933
15575SOL    HW248167   5.356   5.423   8.080
15576SOL     OW48168   5.051   4.068   8.383
15576SOL    HW148169   4.989   4.085   8.312
15576SOL    HW248170   4.996   4.059   8.461
15577SOL     OW48171   5.296   5.415   7.760
15577SOL    HW148172   5.391   5.424   7.747
15577SOL    HW248173   5.262   5.395   7.673
15578SOL     OW48174   4.525   4.337   8.898
15578SOL    HW148175   4.493   4.305   8.982
15578SOL    HW248176   4.490   4.276   8.833
15579SOL     OW48177   5.148   4.237   9.119
15579SOL    HW148178   5.128   4.273   9.205
15579SOL    HW248179   5.107   4.151   9.118
15580SOL     OW48180   4.680   4.618   9.016
15580SOL    HW148181   4.727   4.539   8.990
15580SOL    HW248182   4.639   4.649   8.935
15581SOL     OW48183   4.728   4.131   8.679
15581SOL    HW148184   4.636   4.138   8.705
15581SOL    HW248185   4.726   4.103   8.588
15582SOL     OW48186   3.838   5.595   9.025
15582SOL    HW148187   3.830   5.579   9.119
15582SOL    HW248188   3.801   5.517   8.984
15583SOL     OW48189   5.448   4.300   9.275
15583SOL    HW148190   5.406   4.371   9.226
15583SOL    HW248191   5.442   4.224   9.218
15584SOL     OW48192   5.117   4.917   8.031
15584SOL    HW148193   5.154   4.843   7.982
15584SOL    HW248194   5.060   4.961   7.969
15585SOL     OW48195   4.262   3.892   8.348
15585SOL    HW148196   4.269   3.936   8.432
15585SOL    HW248197   4.267   3.962   8.283
15586SOL     OW48198   4.740   5.192   7.936
15586SOL    HW148199   4.701   5.249   7.870
15586SOL    HW248200   4.685   5.204   8.013
15587SOL     OW48201   4.081   5.540   8.323
15587SOL    HW148202   4.139   5.465   8.339
15587SOL    HW248203   4.137   5.617   8.335
15588SOL     OW48204   5.535   4.816   8.314
15588SOL    HW148205   5.499   4.767   8.240
15588SOL    HW248206   5.467   4.808   8.382
15589SOL     OW48207   4.957   5.264   8.976
15589SOL    HW148208   4.953   5.192   9.038
15589SOL    HW248209   4.893   5.241   8.908
15590SOL     OW48210   4.182   4.979   9.127
15590SOL    HW148211   4.155   4.947   9.041
15590SOL    HW248212   4.100   4.986   9.177
15591SOL     OW48213   4.855   5.503   7.682
15591SOL    HW148214   4.775   5.468   7.721
15591SOL    HW248215   4.876   5.441   7.612
15592SOL     OW48216   5.358   5.116   7.543
15592SOL    HW148217   5.312   5.199   7.529
15592SOL    HW248218   5.292   5.049   7.526
15593SOL     OW48219   4.185   5.471   7.763
15593SOL    HW148220   4.240   5.491   7.839
15593SOL    HW248221   4.240   5.413   7.709
15594SOL     OW48222   4.024   5.497   8.672
15594SOL    HW148223   4.056   5.422   8.721
15594SOL    HW248224   4.001   5.462   8.586
15595SOL     OW48225   4.657   5.422   8.339
15595SOL    HW148226   4.742   5.378   8.350
15595SOL    HW248227   4.611   5.369   8.274
15596SOL     OW48228   4.613   5.229   8.651
15596SOL    HW148229   4.600   5.155   8.592
15596SOL    HW248230   4.681   5.199   8.711
15597SOL     OW48231   5.067   4.311   8.865
15597SOL    HW148232   5.101   4.285   8.950
15597SOL    HW248233   5.095   4.402   8.854
15598SOL     OW48234   4.698   4.256   8.356
15598SOL    HW148235   4.766   4.283   8.293
15598SOL    HW248236   4.708   4.162   8.364
15599SOL     OW48237   4.282   3.807   7.937
15599SOL    HW148238   4.198   3.797   7.982
15599SOL    HW248239   4.274   3.890   7.890
15600SOL     OW48240   5.155   4.936   7.486
15600SOL    HW148241   5.190   4.858   7.529
15600SOL    HW248242   5.061   4.934   7.506
15601SOL     OW48243   4.020   3.777   7.629
15601SOL    HW148244   4.062   3.829   7.560
15601SOL    HW248245   4.081   3.705   7.645
15602SOL     OW48246   4.794   4.368   8.950
15602SOL    HW148247   4.711   4.331   8.920
15602SOL    HW248248   4.860   4.334   8.890
15603SOL     OW48249   4.921   5.333   8.265
15603SOL    HW148250   4.955   5.381   8.190
15603SOL    HW248251   4.984   5.261   8.278
15604SOL     OW48252   4.989   5.521   8.060
15604SOL    HW148253   5.025   5.586   7.999
15604SOL    HW248254   4.909   5.561   8.093
15605SOL     OW48255   4.278   3.949   8.623
15605SOL    HW148256   4.319   3.863   8.633
15605SOL    HW248257   4.209   3.950   8.689
15606SOL     OW48258   4.736   3.759   8.219
15606SOL    HW148259   4.677   3.763   8.144
15606SOL    HW248260   4.704   3.684   8.271
15607SOL     OW48261   5.154   4.860   8.302
15607SOL    HW148262   5.117   4.773   8.309
15607SOL    HW248263   5.140   4.886   8.211
15608SOL     OW48264   5.231   4.279   8.421
15608SOL    HW148265   5.154   4.224   8.407
15608SOL    HW248266   5.204   4.341   8.489
15609SOL     OW48267   5.586   4.532   7.821
15609SOL    HW148268   5.632   4.482   7.888
15609SOL    HW248269   5.557   4.466   7.757
15610SOL     OW48270   4.213   5.128   7.589
15610SOL    HW148271   4.138   5.126   7.648
15610SOL    HW248272   4.187   5.075   7.514
15611SOL     OW48273   5.426   5.022   8.030
15611SOL    HW148274   5.511   5.014   8.073
15611SOL    HW248275   5.377   5.084   8.085
15612SOL     OW48276   5.471   4.966   9.005
15612SOL    HW148277   5.557   4.926   8.989
15612SOL    HW248278   5.491   5.054   9.035
15613SOL     OW48279   4.775   5.108   8.834
15613SOL    HW148280   4.696   5.054   8.836
15613SOL    HW248281   4.847   5.044   8.832
15614SOL     OW48282   5.347   5.362   9.124
15614SOL    HW148283   5.328   5.391   9.035
15614SOL    HW248284   5.422   5.303   9.115
15615SOL     OW48285   4.893   4.954   8.559
15615SOL    HW148286   4.798   4.956   8.570
15615SOL    HW248287   4.906   4.959   8.465
15616SOL     OW48288   5.351   4.826   8.518
15616SOL    HW148289   5.330   4.884   8.591
15616SOL    HW248290   5.271   4.824   8.466
15617SOL     OW48291   4.675   3.842   8.844
15617SOL    HW148292   4.648   3.840   8.753
15617SOL    HW248293   4.760   3.797   8.845
15618SOL     OW48294   4.700   4.834   9.179
15618SOL    HW148295   4.606   4.847   9.194
15618SOL    HW248296   4.704   4.764   9.114
15619SOL     OW48297   5.003   4.117   8.679
15619SOL    HW148298   5.030   4.185   8.741
15619SOL    HW248299   4.908   4.117   8.682
15620SOL     OW48300   3.815   5.339   8.832
15620SOL    HW148301   3.785   5.361   8.744
15620SOL    HW248302   3.890   5.282   8.819
15621SOL     OW48303   4.973   5.078   7.851
15621SOL    HW148304   5.031   5.148   7.881
15621SOL    HW248305   4.886   5.105   7.880
15622SOL     OW48306   5.014   5.196   8.595
15622SOL    HW148307   5.061   5.185   8.678
15622SOL    HW248308   4.956   5.120   8.590
15623SOL     OW48309   5.321   4.390   7.947
15623SOL    HW148310   5.241   4.407   7.996
15623SOL    HW248311   5.325   4.460   7.882
15624SOL     OW48312   4.124   4.470   9.021
15624SOL    HW148313   4.204   4.512   8.990
15624SOL    HW248314   4.104   4.404   8.954
15625SOL     OW48315   5.345   4.517   9.144
15625SOL    HW148316   5.253   4.540   9.131
15625SOL    HW248317   5.387   4.536   9.060
15626SOL     OW48318   5.100   4.574   8.477
15626SOL    HW148319   5.006   4.558   8.482
15626SOL    HW248320   5.124   4.552   8.387
15627SOL     OW48321   4.496   4.373   8.513
15627SOL    HW148322   4.563   4.332   8.458
15627SOL    HW248323   4.493   4.464   8.484
15628SOL     OW48324   5.473   4.689   9.315
15628SOL    HW148325   5.436   4.624   9.255
15628SOL    HW248326   5.405   4.704   9.380
15629SOL     OW48327   4.030   3.797   8.057
15629SOL    HW148328   3.957   3.859   8.062
15629SOL    HW248329   4.036   3.760   8.145
15630SOL     OW48330   5.392   4.129   7.818
15630SOL    HW148331   5.332   4.062   7.851
15630SOL    HW248332   5.380   4.203   7.878
15631SOL     OW48333   4.842   4.528   8.456
15631SOL    HW148334   4.785   4.521   8.533
15631SOL    HW248335   4.807   4.463   8.395
15632SOL     OW48336   4.715   5.291   9.164
15632SOL    HW148337   4.695   5.334   9.081
15632SOL    HW248338   4.758   5.209   9.139
15633SOL     OW48339   5.578   5.219   9.060
15633SOL    HW148340   5.594   5.256   8.973
15633SOL    HW248341   5.662   5.228   9.105
15634SOL     OW48342   4.100   4.616   9.268
15634SOL    HW148343   4.195   4.620   9.285
15634SOL    HW248344   4.092   4.565   9.188
15635SOL     OW48345   5.309   3.985   7.580
15635SOL    HW148346   5.234   3.947   7.626
15635SOL    HW248347   5.353   4.038   7.646
15636SOL     OW48348   5.051   4.568   7.510
15636SOL    HW148349   5.028   4.475   7.512
15636SOL    HW248350   5.066   4.588   7.418
15637SOL     OW48351   4.869   5.046   8.297
15637SOL    HW148352   4.794   4.986   8.302
15637SOL    HW248353   4.832   5.128   8.266
15638SOL     OW48354   4.839   4.168   9.150
15638SOL    HW148355   4.786   4.198   9.224
15638SOL    HW248356   4.830   4.238   9.085
15639SOL     OW48357   4.950   3.962   8.964
15639SOL    HW148358   4.870   4.014   8.953
15639SOL    HW248359   4.938   3.887   8.907
15640SOL     OW48360   3.709   5.083   7.705
15640SOL    HW148361   3.618   5.111   7.689
15640SOL    HW248362   3.713   4.995   7.668
15641SOL     OW48363   3.812   5.505   8.389
15641SOL    HW148364   3.778   5.428   8.344
15641SOL    HW248365   3.903   5.511   8.359
15642SOL     OW48366   4.717   4.493   8.692
15642SOL    HW148367   4.723   4.456   8.780
15642SOL    HW248368   4.624   4.487   8.670
15643SOL     OW48369   3.899   4.266   9.181
15643SOL    HW148370   3.985   4.236   9.152
15643SOL    HW248371   3.883   4.345   9.129
15644SOL     OW48372   5.103   4.653   9.108
15644SOL    HW148373   5.125   4.745   9.096
15644SOL    HW248374   5.094   4.618   9.020
15645SOL     OW48375   5.372   4.349   8.678
15645SOL    HW148376   5.327   4.270   8.707
15645SOL    HW248377   5.432   4.319   8.610
15646SOL     OW48378   4.002   5.293   9.212
15646SOL    HW148379   3.928   5.317   9.268
15646SOL    HW248380   4.004   5.197   9.216
15647SOL     OW48381   4.445   4.171   8.699
15647SOL    HW148382   4.384   4.104   8.670
15647SOL    HW248383   4.442   4.238   8.631
15648SOL     OW48384   4.643   5.406   8.925
15648SOL    HW148385   4.638   5.347   8.849
15648SOL    HW248386   4.587   5.480   8.901
15649SOL     OW48387   3.949   4.879   9.004
15649SOL    HW148388   3.863   4.838   9.015
15649SOL    HW248389   3.958   4.890   8.909
15650SOL     OW48390   5.054   4.765   8.669
15650SOL    HW148391   5.070   4.697   8.603
15650SOL    HW248392   4.987   4.821   8.631
15651SOL     OW48393   5.517   5.442   8.622
15651SOL    HW148394   5.568   5.470   8.545
15651SOL    HW248395   5.471   5.364   8.592
15652SOL     OW48396   4.965   5.472   8.580
15652SOL    HW148397   5.043   5.491   8.528
15652SOL    HW248398   4.962   5.377   8.586
15653SOL     OW48399   4.421   5.408   9.204
15653SOL    HW148400   4.359   5.462   9.156
15653SOL    HW248401   4.496   5.399   9.145
15654SOL     OW48402   5.507   3.881   8.002
15654SOL    HW148403   5.530   3.885   7.910
15654SOL    HW248404   5.414   3.858   8.003
15655SOL     OW48405   5.127   5.296   7.952
15655SOL    HW148406   5.174   5.327   7.875
15655SOL    HW248407   5.067   5.367   7.974
15656SOL     OW48408   3.823   5.566   9.300
15656SOL    HW148409   3.794   5.477   9.319
15656SOL    HW248410   3.892   5.583   9.365
15657SOL     OW48411   4.506   5.002   8.863
15657SOL    HW148412   4.476   5.042   8.945
15657SOL    HW248413   4.427   4.998   8.808
15658SOL     OW48414   4.384   5.342   7.610
15658SOL    HW148415   4.398   5.366   7.518
15658SOL    HW248416   4.331   5.263   7.607
15659SOL     OW48417   5.348   5.453   8.856
15659SOL    HW148418   5.397   5.448   8.774
15659SOL    HW248419   5.335   5.546   8.871
15660SOL     OW48420   5.559   3.893   8.419
15660SOL    HW148421   5.573   3.807   8.380
15660SOL    HW248422   5.471   3.919   8.392
15661SOL     OW48423   4.933   5.336   7.478
15661SOL    HW148424   4.925   5.247   7.511
15661SOL    HW248425   4.867   5.343   7.410
15662SOL     OW48426   4.558   4.733   8.787
15662SOL    HW148427   4.575   4.724   8.693
15662SOL    HW248428   4.546   4.827   8.799
15663SOL     OW48429   5.208   5.374   7.499
15663SOL    HW148430   5.116   5.353   7.482
15663SOL    HW248431   5.249   5.374   7.413
15664SOL     OW48432   5.352   5.025   8.741
15664SOL    HW148433   5.375   4.978   8.821
15664SOL    HW248434   5.281   5.083   8.767
15665SOL     OW48435   4.748   3.977   8.413
15665SOL    HW148436   4.751   3.928   8.331
15665SOL    HW248437   4.735   3.910   8.480
15666SOL     OW48438   4.341   5.248   7.924
15666SOL    HW148439   4.391   5.187   7.871
15666SOL    HW248440   4.252   5.214   7.924
15667SOL     OW48441   5.487   4.112   8.855
15667SOL    HW148442   5.540   4.185   8.822
15667SOL    HW248443   5.495   4.044   8.789
15668SOL     OW48444   3.989   5.119   7.748
15668SOL    HW148445   3.897   5.105   7.727
15668SOL    HW248446   3.992   5.120   7.844
15669SOL     OW48447   3.871   4.776   9.301
15669SOL    HW148448   3.809   4.763   9.229
15669SOL    HW248449   3.942   4.714   9.284
15670SOL     OW48450   3.782   4.063   7.497
15670SOL    HW148451   3.719   4.054   7.426
15670SOL    HW248452   3.828   4.145   7.478
15671SOL     OW48453   5.153   4.580   8.850
15671SOL    HW148454   5.097   4.634   8.794
15671SOL    HW248455   5.236   4.574   8.802
15672SOL     OW48456   3.790   3.874   7.735
15672SOL    HW148457   3.768   3.948   7.679
15672SOL    HW248458   3.876   3.846   7.704
15673SOL     OW48459   4.902   5.087   7.569
15673SOL    HW148460   4.809   5.066   7.563
15673SOL    HW248461   4.927   5.059   7.657
15674SOL     OW48462   4.362   4.569   8.921
15674SOL    HW148463   4.401   4.638   8.866
15674SOL    HW248464   4.412   4.491   8.901
15675SOL     OW48465   5.208   5.529   8.454
15675SOL    HW148466   5.225   5.561   8.366
15675SOL    HW248467   5.253   5.445   8.458
15676SOL     OW48468   4.474   4.268   9.157
15676SOL    HW148469   4.501   4.349   9.202
15676SOL    HW248470   4.506   4.198   9.214
15677SOL     OW48471   5.202   4.911   9.077
15677SOL    HW148472   5.191   4.932   9.169
15677SOL    HW248473   5.294   4.932   9.059
15678SOL     OW48474   4.099   5.469   9.022
15678SOL    HW148475   4.017   5.494   8.979
15678SOL    HW248476   4.076   5.390   9.072
15679SOL     OW48477   5.401   4.614   8.708
15679SOL    HW148478   5.391   4.522   8.684
15679SOL    HW248479   5.377   4.662   8.629
15680SOL     OW48480   5.460   4.069   9.118
15680SOL    HW148481   5.465   4.096   9.026
15680SOL    HW248482   5.392   4.002   9.120
15681SOL     OW48483   5.502   4.651   8.954
15681SOL    HW148484   5.460   4.734   8.976
15681SOL    HW248485   5.475   4.634   8.864
15682SOL     OW48486   4.629   5.116   7.513
15682SOL    HW148487   4.540   5.126   7.548
15682SOL    HW248488   4.635   5.183   7.445
15683SOL     OW48489   4.440   5.606   8.448
15683SOL    HW148490   4.401   5.620   8.362
15683SOL    HW248491   4.476   5.517   8.443
15684SOL     OW48492   4.888   4.797   7.510
15684SOL    HW148493   4.818   4.785   7.446
15684SOL    HW248494   4.925   4.710   7.521
15685SOL     OW48495   5.563   5.282   8.290
15685SOL    HW148496   5.482   5.270   8.241
15685SOL    HW248497   5.575   5.199   8.337
15686SOL     OW48498   3.961   5.033   9.294
15686SOL    HW148499   3.930   4.949   9.260
15686SOL    HW248500   3.922   5.040   9.381
15687SOL     OW48501   3.781   4.945   8.079
15687SOL    HW148502   3.809   4.872   8.133
15687SOL    HW248503   3.784   4.912   7.989
15688SOL     OW48504   4.411   5.122   9.108
15688SOL    HW148505   4.325   5.080   9.098
15688SOL    HW248506   4.391   5.215   9.117
15689SOL     OW48507   5.575   3.907   8.693
15689SOL    HW148508   5.532   3.825   8.718
15689SOL    HW248509   5.562   3.912   8.598
15690SOL     OW48510   5.393   5.214   8.544
15690SOL    HW148511   5.325   5.188   8.481
15690SOL    HW248512   5.392   5.145   8.611
15691SOL     OW48513   4.069   4.293   8.807
15691SOL    HW148514   4.088   4.204   8.837
15691SOL    HW248515   4.035   4.282   8.718
15692SOL     OW48516   4.539   5.290   8.125
15692SOL    HW148517   4.511   5.348   8.054
15692SOL    HW248518   4.476   5.218   8.124
15693SOL     OW48519   5.175   3.906   8.654
15693SOL    HW148520   5.110   3.837   8.641
15693SOL    HW248521   5.124   3.986   8.657
15694SOL     OW48522   4.721   3.754   8.572
15694SOL    HW148523   4.650   3.702   8.532
15694SOL    HW248524   4.797   3.696   8.569
15695SOL     OW48525   4.474   5.055   7.782
15695SOL    HW148526   4.411   4.998   7.737
15695SOL    HW248527   4.559   5.014   7.765
15696SOL     OW48528   4.375   5.379   8.672
15696SOL    HW148529   4.363   5.387   8.767
15696SOL    HW248530   4.442   5.311   8.662
15697SOL     OW48531   5.304   3.945   8.344
15697SOL    HW148532   5.217   3.971   8.376
15697SOL    HW248533   5.322   4.007   8.273
15698SOL     OW48534   4.614   5.393   7.783
15698SOL    HW148535   4.539   5.365   7.732
15698SOL    HW248536   4.579   5.458   7.844
15699SOL     OW48537   3.940   4.355   9.446
15699SOL    HW148538   3.867   4.297   9.466
15699SOL    HW248539   3.943   4.358   9.351
15700SOL     OW48540   3.943   4.020  10.309
15700SOL    HW148541   3.975   3.976  10.388
15700SOL    HW248542   3.857   3.981  10.293
15701SOL     OW48543   3.729   4.096   9.956
15701SOL    HW148544   3.642   4.122   9.988
15701SOL    HW248545   3.710   4.030   9.889
15702SOL     OW48546   4.298   5.023  10.506
15702SOL    HW148547   4.217   5.019  10.454
15702SOL    HW248548   4.309   5.117  10.525
15703SOL     OW48549   5.307   5.248  10.019
15703SOL    HW148550   5.258   5.215  10.095
15703SOL    HW248551   5.241   5.252   9.949
15704SOL     OW48552   4.868   4.417  10.006
15704SOL    HW148553   4.910   4.501   9.987
15704SOL    HW248554   4.816   4.433  10.084
15705SOL     OW48555   5.498   4.327   9.536
15705SOL    HW148556   5.480   4.331   9.442
15705SOL    HW248557   5.465   4.242   9.564
15706SOL     OW48558   4.504   4.877  10.385
15706SOL    HW148559   4.425   4.901  10.435
15706SOL    HW248560   4.522   4.953  10.330
15707SOL     OW48561   4.608   4.480  11.133
15707SOL    HW148562   4.582   4.552  11.190
15707SOL    HW248563   4.626   4.521  11.049
15708SOL     OW48564   4.414   4.718   9.956
15708SOL    HW148565   4.477   4.718  10.029
15708SOL    HW248566   4.344   4.777   9.985
15709SOL     OW48567   4.440   4.877  11.141
15709SOL    HW148568   4.492   4.953  11.169
15709SOL    HW248569   4.365   4.914  11.095
15710SOL     OW48570   4.051   5.138  10.375
15710SOL    HW148571   3.980   5.092  10.329
15710SOL    HW248572   4.096   5.187  10.307
15711SOL     OW48573   5.180   5.222  10.680
15711SOL    HW148574   5.232   5.302  10.687
15711SOL    HW248575   5.107   5.236  10.740
15712SOL     OW48576   4.176   4.117  10.801
15712SOL    HW148577   4.249   4.055  10.795
15712SOL    HW248578   4.098   4.061  10.808
15713SOL     OW48579   5.315   4.160  10.051
15713SOL    HW148580   5.234   4.158  10.001
15713SOL    HW248581   5.330   4.253  10.069
15714SOL     OW48582   3.939   5.444   9.773
15714SOL    HW148583   3.968   5.518   9.826
15714SOL    HW248584   4.010   5.430   9.711
15715SOL     OW48585   4.865   5.065  11.008
15715SOL    HW148586   4.900   5.053  11.097
15715SOL    HW248587   4.815   4.986  10.991
15716SOL     OW48588   3.971   5.178   9.861
15716SOL    HW148589   3.936   5.266   9.851
15716SOL    HW248590   3.904   5.131   9.911
15717SOL     OW48591   4.016   4.819  10.224
15717SOL    HW148592   4.009   4.725  10.241
15717SOL    HW248593   3.934   4.855  10.257
15718SOL     OW48594   4.323   5.519  10.748
15718SOL    HW148595   4.240   5.501  10.791
15718SOL    HW248596   4.343   5.610  10.769
15719SOL     OW48597   4.341   4.699   9.442
15719SOL    HW148598   4.371   4.764   9.379
15719SOL    HW248599   4.364   4.736   9.527
15720SOL     OW48600   5.324   3.849  10.777
15720SOL    HW148601   5.344   3.927  10.725
15720SOL    HW248602   5.294   3.884  10.861
15721SOL     OW48603   3.848   4.363   9.874
15721SOL    HW148604   3.813   4.274   9.882
15721SOL    HW248605   3.832   4.403   9.959
15722SOL     OW48606   5.568   5.476   9.632
15722SOL    HW148607   5.639   5.454   9.692
15722SOL    HW248608   5.583   5.568   9.610
15723SOL     OW48609   3.785   5.318   9.418
15723SOL    HW148610   3.769   5.225   9.430
15723SOL    HW248611   3.746   5.359   9.496
15724SOL     OW48612   5.428   4.647   9.952
15724SOL    HW148613   5.483   4.588   9.900
15724SOL    HW248614   5.388   4.705   9.888
15725SOL     OW48615   5.369   4.825   9.743
15725SOL    HW148616   5.454   4.825   9.698
15725SOL    HW248617   5.377   4.894   9.810
15726SOL     OW48618   3.844   4.471  10.898
15726SOL    HW148619   3.932   4.508  10.888
15726SOL    HW248620   3.785   4.543  10.876
15727SOL     OW48621   4.330   5.115  10.053
15727SOL    HW148622   4.290   5.028  10.052
15727SOL    HW248623   4.319   5.147   9.963
15728SOL     OW48624   5.002   4.955  10.733
15728SOL    HW148625   5.027   4.888  10.669
15728SOL    HW248626   5.067   4.947  10.803
15729SOL     OW48627   4.554   3.732   9.871
15729SOL    HW148628   4.594   3.804   9.822
15729SOL    HW248629   4.460   3.744   9.859
15730SOL     OW48630   3.903   4.684  10.599
15730SOL    HW148631   3.989   4.645  10.585
15730SOL    HW248632   3.849   4.650  10.527
15731SOL     OW48633   5.262   4.723   9.506
15731SOL    HW148634   5.191   4.662   9.527
15731SOL    HW248635   5.293   4.753   9.592
15732SOL     OW48636   4.910   5.539  10.940
15732SOL    HW148637   4.908   5.601  10.867
15732SOL    HW248638   4.922   5.453  10.900
15733SOL     OW48639   4.065   3.967  11.164
15733SOL    HW148640   4.105   4.053  11.153
15733SOL    HW248641   3.971   3.984  11.170
15734SOL     OW48642   5.188   5.145  10.246
15734SOL    HW148643   5.122   5.159  10.314
15734SOL    HW248644   5.176   5.054  10.219
15735SOL     OW48645   5.372   5.496   9.880
15735SOL    HW148646   5.352   5.461   9.793
15735SOL    HW248647   5.358   5.422   9.939
15736SOL     OW48648   4.320   4.454   9.591
15736SOL    HW148649   4.320   4.531   9.535
15736SOL    HW248650   4.246   4.467   9.650
15737SOL     OW48651   5.006   4.104  10.251
15737SOL    HW148652   4.916   4.070  10.254
15737SOL    HW248653   5.056   4.045  10.307
15738SOL     OW48654   5.299   5.408   9.623
15738SOL    HW148655   5.393   5.423   9.609
15738SOL    HW248656   5.264   5.392   9.536
15739SOL     OW48657   4.520   4.336  10.761
15739SOL    HW148658   4.488   4.308  10.847
15739SOL    HW248659   4.489   4.268  10.701
15740SOL     OW48660   5.113   4.204  10.985
15740SOL    HW148661   5.119   4.246  11.071
15740SOL    HW248662   5.167   4.126  10.993
15741SOL     OW48663   4.672   4.609  10.896
15741SOL    HW148664   4.725   4.540  10.855
15741SOL    HW248665   4.623   4.648  10.824
15742SOL     OW48666   4.722   4.125  10.535
15742SOL    HW148667   4.631   4.138  10.560
15742SOL    HW248668   4.718   4.093  10.445
15743SOL     OW48669   4.778   4.412   9.729
15743SOL    HW148670   4.787   4.402   9.824
15743SOL    HW248671   4.693   4.371   9.709
15744SOL     OW48672   3.806   4.500  10.107
15744SOL    HW148673   3.886   4.526  10.152
15744SOL    HW248674   3.754   4.580  10.101
15745SOL     OW48675   3.845   5.601  10.892
15745SOL    HW148676   3.845   5.580  10.985
15745SOL    HW248677   3.773   5.550  10.855
15746SOL     OW48678   5.427   4.296  11.144
15746SOL    HW148679   5.395   4.371  11.093
15746SOL    HW248680   5.450   4.230  11.079
15747SOL     OW48681   5.110   4.868   9.859
15747SOL    HW148682   5.179   4.847   9.796
15747SOL    HW248683   5.052   4.928   9.811
15748SOL     OW48684   4.294   3.895  10.198
15748SOL    HW148685   4.275   3.964  10.262
15748SOL    HW248686   4.277   3.936  10.113
15749SOL     OW48687   4.753   5.201   9.795
15749SOL    HW148688   4.710   5.257   9.731
15749SOL    HW248689   4.686   5.187   9.863
15750SOL     OW48690   4.078   5.541  10.186
15750SOL    HW148691   4.122   5.455  10.189
15750SOL    HW248692   4.149   5.604  10.198
15751SOL     OW48693   5.534   4.779  10.176
15751SOL    HW148694   5.488   4.750  10.097
15751SOL    HW248695   5.466   4.782  10.243
15752SOL     OW48696   4.947   5.266  10.827
15752SOL    HW148697   4.940   5.194  10.890
15752SOL    HW248698   4.885   5.243  10.757
15753SOL     OW48699   4.054   4.653   9.566
15753SOL    HW148700   4.103   4.684   9.489
15753SOL    HW248701   4.003   4.579   9.534
15754SOL     OW48702   5.213   4.481  10.032
15754SOL    HW148703   5.208   4.441  10.119
15754SOL    HW248704   5.294   4.531  10.034
15755SOL     OW48705   4.192   5.002  11.056
15755SOL    HW148706   4.167   5.007  10.964
15755SOL    HW248707   4.109   4.990  11.103
15756SOL     OW48708   4.857   5.493   9.547
15756SOL    HW148709   4.775   5.460   9.583
15756SOL    HW248710   4.877   5.433   9.476
15757SOL     OW48711   3.931   3.991  10.813
15757SOL    HW148712   3.854   4.045  10.795
15757SOL    HW248713   3.895   3.908  10.843
15758SOL     OW48714   5.360   5.119   9.415
15758SOL    HW148715   5.317   5.200   9.390
15758SOL    HW248716   5.298   5.050   9.393
15759SOL     OW48717   4.182   5.463   9.628
15759SOL    HW148718   4.239   5.508   9.690
15759SOL    HW248719   4.242   5.419   9.568
15760SOL     OW48720   5.110   3.820   9.728
15760SOL    HW148721   5.097   3.791   9.638
15760SOL    HW248722   5.197   3.859   9.729
15761SOL     OW48723   3.987   5.515  10.527
15761SOL    HW148724   4.032   5.436  10.557
15761SOL    HW248725   3.962   5.495  10.437
15762SOL     OW48726   4.671   5.421  10.198
15762SOL    HW148727   4.757   5.379  10.200
15762SOL    HW248728   4.622   5.374  10.131
15763SOL     OW48729   4.124   4.413   9.800
15763SOL    HW148730   4.146   4.320   9.813
15763SOL    HW248731   4.029   4.415   9.797
15764SOL     OW48732   5.239   3.952  11.030
15764SOL    HW148733   5.249   3.968  11.124
15764SOL    HW248734   5.167   3.889  11.024
15765SOL     OW48735   4.493   4.005  11.075
15765SOL    HW148736   4.573   3.952  11.068
15765SOL    HW248737   4.441   3.960  11.141
15766SOL     OW48738   4.596   5.250  10.508
15766SOL    HW148739   4.582   5.216  10.420
15766SOL    HW248740   4.669   5.199  10.543
15767SOL     OW48741   5.057   4.312  10.737
15767SOL    HW148742   5.088   4.286  10.824
15767SOL    HW248743   5.092   4.401  10.726
15768SOL     OW48744   4.540   5.118  10.256
15768SOL    HW148745   4.625   5.107  10.214
15768SOL    HW248746   4.477   5.123  10.184
15769SOL     OW48747   4.650   4.236  10.200
15769SOL    HW148748   4.627   4.229  10.108
15769SOL    HW248749   4.678   4.148  10.225
15770SOL     OW48750   4.296   3.792   9.828
15770SOL    HW148751   4.209   3.775   9.864
15770SOL    HW248752   4.283   3.861   9.763
15771SOL     OW48753   5.164   4.937   9.354
15771SOL    HW148754   5.186   4.854   9.396
15771SOL    HW248755   5.072   4.953   9.377
15772SOL     OW48756   4.668   3.962   9.768
15772SOL    HW148757   4.634   3.983   9.681
15772SOL    HW248758   4.760   3.988   9.765
15773SOL     OW48759   4.798   4.409  10.765
15773SOL    HW148760   4.727   4.344  10.763
15773SOL    HW248761   4.877   4.358  10.751
15774SOL     OW48762   4.926   5.317  10.118
15774SOL    HW148763   4.941   5.372  10.041
15774SOL    HW248764   5.011   5.312  10.161
15775SOL     OW48765   4.199   4.876  10.028
15775SOL    HW148766   4.133   4.857  10.095
15775SOL    HW248767   4.153   4.863   9.945
15776SOL     OW48768   4.982   5.520   9.929
15776SOL    HW148769   5.028   5.577   9.868
15776SOL    HW248770   4.904   5.569   9.954
15777SOL     OW48771   4.725   4.301   9.369
15777SOL    HW148772   4.682   4.378   9.331
15777SOL    HW248773   4.810   4.333   9.398
15778SOL     OW48774   3.824   4.256  10.731
15778SOL    HW148775   3.909   4.267  10.687
15778SOL    HW248776   3.814   4.336  10.783
15779SOL     OW48777   4.282   3.962  10.487
15779SOL    HW148778   4.312   3.874  10.463
15779SOL    HW248779   4.190   3.951  10.511
15780SOL     OW48780   4.590   4.183   9.938
15780SOL    HW148781   4.540   4.233   9.874
15780SOL    HW248782   4.611   4.101   9.894
15781SOL     OW48783   4.749   3.785  10.066
15781SOL    HW148784   4.686   3.788   9.994
15781SOL    HW248785   4.725   3.707  10.116
15782SOL     OW48786   5.163   4.883  10.158
15782SOL    HW148787   5.088   4.823  10.158
15782SOL    HW248788   5.186   4.892  10.066
15783SOL     OW48789   5.183   4.345  10.276
15783SOL    HW148790   5.128   4.267  10.269
15783SOL    HW248791   5.240   4.327  10.351
15784SOL     OW48792   5.566   4.533   9.707
15784SOL    HW148793   5.627   4.478   9.756
15784SOL    HW248794   5.534   4.476   9.637
15785SOL     OW48795   4.213   5.145   9.462
15785SOL    HW148796   4.141   5.112   9.516
15785SOL    HW248797   4.195   5.109   9.375
15786SOL     OW48798   5.407   4.994   9.950
15786SOL    HW148799   5.502   4.997   9.959
15786SOL    HW248800   5.379   5.085   9.965
15787SOL     OW48801   5.125   4.306   9.389
15787SOL    HW148802   5.067   4.279   9.460
15787SOL    HW248803   5.202   4.249   9.397
15788SOL     OW48804   4.260   4.011   9.655
15788SOL    HW148805   4.289   3.952   9.586
15788SOL    HW248806   4.228   4.088   9.608
15789SOL     OW48807   5.469   4.967  10.862
15789SOL    HW148808   5.557   4.931  10.848
15789SOL    HW248809   5.485   5.056  10.894
15790SOL     OW48810   4.777   5.104  10.669
15790SOL    HW148811   4.698   5.058  10.697
15790SOL    HW248812   4.849   5.044  10.690
15791SOL     OW48813   5.339   5.357  10.979
15791SOL    HW148814   5.323   5.388  10.890
15791SOL    HW248815   5.418   5.303  10.972
15792SOL     OW48816   4.861   4.952  10.412
15792SOL    HW148817   4.774   4.935  10.448
15792SOL    HW248818   4.845   4.983  10.323
15793SOL     OW48819   5.345   4.816  10.378
15793SOL    HW148820   5.333   4.880  10.448
15793SOL    HW248821   5.272   4.831  10.319
15794SOL     OW48822   4.643   3.809  10.700
15794SOL    HW148823   4.659   3.793  10.607
15794SOL    HW248824   4.724   3.850  10.731
15795SOL     OW48825   4.709   4.836  11.037
15795SOL    HW148826   4.617   4.853  11.058
15795SOL    HW248827   4.707   4.759  10.979
15796SOL     OW48828   4.443   4.789   9.686
15796SOL    HW148829   4.422   4.760   9.775
15796SOL    HW248830   4.523   4.742   9.663
15797SOL     OW48831   4.138   4.549  10.572
15797SOL    HW148832   4.213   4.555  10.630
15797SOL    HW248833   4.109   4.458  10.579
15798SOL     OW48834   4.984   4.088  10.600
15798SOL    HW148835   5.015   4.170  10.638
15798SOL    HW248836   4.895   4.107  10.571
15799SOL     OW48837   3.803   5.296  10.671
15799SOL    HW148838   3.769   5.359  10.607
15799SOL    HW248839   3.897   5.295  10.654
15800SOL     OW48840   4.060   4.838   9.789
15800SOL    HW148841   4.056   4.909   9.724
15800SOL    HW248842   4.060   4.758   9.736
15801SOL     OW48843   4.273   4.260  10.185
15801SOL    HW148844   4.274   4.308  10.102
15801SOL    HW248845   4.357   4.280  10.225
15802SOL     OW48846   4.976   5.069   9.718
15802SOL    HW148847   5.036   5.141   9.740
15802SOL    HW248848   4.890   5.101   9.744
15803SOL     OW48849   5.016   5.185  10.454
15803SOL    HW148850   5.064   5.182  10.537
15803SOL    HW248851   4.956   5.111  10.457
15804SOL     OW48852   5.312   4.340   9.800
15804SOL    HW148853   5.251   4.389   9.855
15804SOL    HW248854   5.321   4.393   9.720
15805SOL     OW48855   4.071   5.257  10.612
15805SOL    HW148856   4.059   5.210  10.529
15805SOL    HW248857   4.166   5.269  10.619
15806SOL     OW48858   4.140   4.472  10.913
15806SOL    HW148859   4.207   4.511  10.857
15806SOL    HW248860   4.163   4.379  10.916
15807SOL     OW48861   5.343   4.511  11.001
15807SOL    HW148862   5.255   4.549  10.992
15807SOL    HW248863   5.393   4.547  10.928
15808SOL     OW48864   4.724   3.859  11.073
15808SOL    HW148865   4.779   3.933  11.049
15808SOL    HW248866   4.771   3.782  11.042
15809SOL     OW48867   4.211   3.752  11.076
15809SOL    HW148868   4.168   3.705  11.004
15809SOL    HW248869   4.157   3.830  11.090
15810SOL     OW48870   4.334   4.593  10.368
15810SOL    HW148871   4.325   4.672  10.315
15810SOL    HW248872   4.252   4.586  10.417
15811SOL     OW48873   5.058   4.584  10.332
15811SOL    HW148874   4.977   4.575  10.282
15811SOL    HW248875   5.105   4.503  10.316
15812SOL     OW48876   4.957   4.250   9.595
15812SOL    HW148877   4.942   4.167   9.641
15812SOL    HW248878   4.894   4.311   9.635
15813SOL     OW48879   4.023   3.916  10.557
15813SOL    HW148880   3.985   3.942  10.640
15813SOL    HW248881   4.004   3.822  10.550
15814SOL     OW48882   3.741   5.036  10.591
15814SOL    HW148883   3.789   4.979  10.651
15814SOL    HW248884   3.764   5.124  10.618
15815SOL     OW48885   4.470   4.357  10.384
15815SOL    HW148886   4.530   4.344  10.310
15815SOL    HW248887   4.429   4.442  10.367
15816SOL     OW48888   5.471   4.685  11.176
15816SOL    HW148889   5.431   4.618  11.120
15816SOL    HW248890   5.405   4.703  11.243
15817SOL     OW48891   4.049   3.778   9.957
15817SOL    HW148892   4.027   3.870   9.970
15817SOL    HW248893   3.968   3.740   9.922
15818SOL     OW48894   5.307   4.079   9.708
15818SOL    HW148895   5.370   4.031   9.762
15818SOL    HW248896   5.307   4.167   9.745
15819SOL     OW48897   4.754   4.484  10.262
15819SOL    HW148898   4.743   4.498  10.356
15819SOL    HW248899   4.726   4.393  10.249
15820SOL     OW48900   4.707   5.287  11.034
15820SOL    HW148901   4.685   5.333  10.953
15820SOL    HW248902   4.752   5.208  11.006
15821SOL     OW48903   5.573   5.222  10.916
15821SOL    HW148904   5.593   5.250  10.827
15821SOL    HW248905   5.656   5.233  10.964
15822SOL     OW48906   4.074   4.636  11.123
15822SOL    HW148907   4.157   4.653  11.167
15822SOL    HW248908   4.096   4.575  11.053
15823SOL     OW48909   5.301   4.021   9.439
15823SOL    HW148910   5.215   4.005   9.402
15823SOL    HW248911   5.285   4.038   9.532
15824SOL     OW48912   5.022   4.555   9.349
15824SOL    HW148913   5.060   4.467   9.351
15824SOL    HW248914   5.045   4.589   9.262
15825SOL     OW48915   4.796   5.070  10.173
15825SOL    HW148916   4.797   4.997  10.111
15825SOL    HW248917   4.842   5.140  10.127
15826SOL     OW48918   4.045   4.537  10.244
15826SOL    HW148919   4.118   4.528  10.182
15826SOL    HW248920   4.037   4.450  10.285
15827SOL     OW48921   4.055   4.262  10.333
15827SOL    HW148922   4.012   4.178  10.315
15827SOL    HW248923   4.132   4.262  10.278
15828SOL     OW48924   4.859   4.092  11.002
15828SOL    HW148925   4.810   4.147  11.062
15828SOL    HW248926   4.942   4.138  10.989
15829SOL     OW48927   4.886   3.914  10.789
15829SOL    HW148928   4.871   3.979  10.857
15829SOL    HW248929   4.925   3.963  10.717
15830SOL     OW48930   3.734   5.054   9.513
15830SOL    HW148931   3.646   5.070   9.477
15830SOL    HW248932   3.734   4.961   9.535
15831SOL     OW48933   3.819   5.499  10.265
15831SOL    HW148934   3.784   5.423  10.218
15831SOL    HW248935   3.905   5.514  10.225
15832SOL     OW48936   4.215   5.302  10.219
15832SOL    HW148937   4.288   5.358  10.244
15832SOL    HW248938   4.252   5.239  10.158
15833SOL     OW48939   4.692   4.510  10.527
15833SOL    HW148940   4.738   4.488  10.608
15833SOL    HW248941   4.611   4.459  10.531
15834SOL     OW48942   3.760   4.268  10.430
15834SOL    HW148943   3.799   4.257  10.343
15834SOL    HW248944   3.834   4.263  10.491
15835SOL     OW48945   3.924   4.246  11.041
15835SOL    HW148946   3.957   4.193  10.969
15835SOL    HW248947   3.888   4.324  10.998
15836SOL     OW48948   5.109   4.652  10.966
15836SOL    HW148949   5.129   4.745  10.958
15836SOL    HW248950   5.100   4.622  10.875
15837SOL     OW48951   4.538   4.298   9.661
15837SOL    HW148952   4.550   4.250   9.579
15837SOL    HW248953   4.462   4.354   9.646
15838SOL     OW48954   5.360   4.326  10.491
15838SOL    HW148955   5.346   4.261  10.560
15838SOL    HW248956   5.447   4.306  10.457
15839SOL     OW48957   3.958   5.269  11.037
15839SOL    HW148958   3.935   5.320  11.114
15839SOL    HW248959   3.967   5.179  11.069
15840SOL     OW48960   4.448   4.162  10.569
15840SOL    HW148961   4.388   4.092  10.542
15840SOL    HW248962   4.441   4.227  10.499
15841SOL     OW48963   4.630   5.406  10.794
15841SOL    HW148964   4.621   5.354  10.714
15841SOL    HW248965   4.623   5.497  10.765
15842SOL     OW48966   4.174   4.223   9.514
15842SOL    HW148967   4.233   4.299   9.518
15842SOL    HW248968   4.090   4.260   9.488
15843SOL     OW48969   3.860   4.872  10.787
15843SOL    HW148970   3.866   4.827  10.872
15843SOL    HW248971   3.875   4.803  10.723
15844SOL     OW48972   5.038   4.770  10.527
15844SOL    HW148973   5.052   4.704  10.460
15844SOL    HW248974   4.978   4.833  10.487
15845SOL     OW48975   5.043   4.580   9.622
15845SOL    HW148976   4.965   4.548   9.666
15845SOL    HW248977   5.023   4.571   9.529
15846SOL     OW48978   5.518   5.449  10.484
15846SOL    HW148979   5.572   5.476  10.410
15846SOL    HW248980   5.476   5.368  10.455
15847SOL     OW48981   4.969   5.463  10.433
15847SOL    HW148982   5.048   5.486  10.385
15847SOL    HW248983   4.972   5.368  10.442
15848SOL     OW48984   3.798   5.002  10.312
15848SOL    HW148985   3.768   5.004  10.403
15848SOL    HW248986   3.743   4.936  10.271
15849SOL     OW48987   4.411   5.401  11.052
15849SOL    HW148988   4.346   5.470  11.035
15849SOL    HW248989   4.477   5.414  10.984
15850SOL     OW48990   5.477   3.888   9.830
15850SOL    HW148991   5.529   3.874   9.751
15850SOL    HW248992   5.448   3.800   9.855
15851SOL     OW48993   5.129   5.293   9.812
15851SOL    HW148994   5.177   5.326   9.736
15851SOL    HW248995   5.062   5.359   9.828
15852SOL     OW48996   3.852   5.533  11.153
15852SOL    HW148997   3.810   5.457  11.194
15852SOL    HW248998   3.904   5.572  11.223
15853SOL     OW48999   5.005   4.654   9.988
15853SOL    HW149000   5.079   4.593   9.994
15853SOL    HW249001   5.037   4.724   9.931
15854SOL     OW49002   4.521   5.005  10.726
15854SOL    HW149003   4.491   5.047  10.806
15854SOL    HW249004   4.451   5.020  10.663
15855SOL     OW49005   4.386   5.355   9.470
15855SOL    HW149006   4.403   5.372   9.378
15855SOL    HW249007   4.335   5.275   9.471
15856SOL     OW49008   5.342   5.449  10.710
15856SOL    HW149009   5.396   5.449  10.631
15856SOL    HW249010   5.327   5.542  10.729
15857SOL     OW49011   5.569   3.889  10.279
15857SOL    HW149012   5.595   3.802  10.250
15857SOL    HW249013   5.483   3.904  10.240
15858SOL     OW49014   3.982   4.031  10.028
15858SOL    HW149015   3.895   4.059   9.998
15858SOL    HW249016   3.975   4.033  10.124
15859SOL     OW49017   4.934   5.323   9.346
15859SOL    HW149018   4.926   5.231   9.369
15859SOL    HW249019   4.872   5.335   9.274
15860SOL     OW49020   4.545   4.732  10.687
15860SOL    HW149021   4.569   4.719  10.596
15860SOL    HW249022   4.540   4.827  10.697
15861SOL     OW49023   4.669   4.658   9.626
15861SOL    HW149024   4.717   4.685   9.548
15861SOL    HW249025   4.703   4.571   9.646
15862SOL     OW49026   5.208   5.372   9.362
15862SOL    HW149027   5.117   5.350   9.344
15862SOL    HW249028   5.251   5.373   9.276
15863SOL     OW49029   4.086   5.039  10.811
15863SOL    HW149030   4.083   5.107  10.743
15863SOL    HW249031   4.013   4.981  10.789
15864SOL     OW49032   5.329   5.009  10.588
15864SOL    HW149033   5.383   4.987  10.664
15864SOL    HW249034   5.266   5.073  10.621
15865SOL     OW49035   4.788   4.840  10.036
15865SOL    HW149036   4.710   4.791  10.063
15865SOL    HW249037   4.842   4.776   9.990
15866SOL     OW49038   4.754   3.971  10.279
15866SOL    HW149039   4.751   3.928  10.193
15866SOL    HW249040   4.743   3.901  10.342
15867SOL     OW49041   4.332   5.220   9.803
15867SOL    HW149042   4.388   5.166   9.748
15867SOL    HW249043   4.251   5.230   9.752
15868SOL     OW49044   5.462   4.108  10.698
15868SOL    HW149045   5.531   4.174  10.691
15868SOL    HW249046   5.489   4.039  10.637
15869SOL     OW49047   3.997   5.064   9.618
15869SOL    HW149048   3.906   5.059   9.588
15869SOL    HW249049   3.992   5.107   9.703
15870SOL     OW49050   3.847   4.776  11.051
15870SOL    HW149051   3.767   4.742  11.093
15870SOL    HW249052   3.917   4.719  11.082
15871SOL     OW49053   4.400   3.915  10.817
15871SOL    HW149054   4.479   3.897  10.767
15871SOL    HW249055   4.431   3.956  10.898
15872SOL     OW49056   3.807   4.089   9.394
15872SOL    HW149057   3.774   4.005   9.363
15872SOL    HW249058   3.832   4.136   9.314
15873SOL     OW49059   5.144   4.580  10.704
15873SOL    HW149060   5.091   4.638  10.650
15873SOL    HW249061   5.231   4.582  10.663
15874SOL     OW49062   4.904   5.058   9.434
15874SOL    HW149063   4.808   5.062   9.429
15874SOL    HW249064   4.922   5.042   9.526
15875SOL     OW49065   4.348   4.550  10.749
15875SOL    HW149066   4.404   4.625  10.729
15875SOL    HW249067   4.407   4.476  10.751
15876SOL     OW49068   5.204   5.524  10.303
15876SOL    HW149069   5.225   5.583  10.231
15876SOL    HW249070   5.279   5.465  10.308
15877SOL     OW49071   4.443   4.275  11.013
15877SOL    HW149072   4.492   4.332  11.072
15877SOL    HW249073   4.461   4.187  11.044
15878SOL     OW49074   5.200   4.912  10.936
15878SOL    HW149075   5.190   4.933  11.029
15878SOL    HW249076   5.290   4.934  10.915
15879SOL     OW49077   4.090   5.468  10.885
15879SOL    HW149078   4.009   5.513  10.862
15879SOL    HW249079   4.062   5.384  10.920
15880SOL     OW49080   5.385   4.600  10.564
15880SOL    HW149081   5.378   4.514  10.523
15880SOL    HW249082   5.373   4.663  10.493
15881SOL     OW49083   4.935   4.035   9.775
15881SOL    HW149084   4.997   3.964   9.760
15881SOL    HW249085   4.974   4.086   9.846
15882SOL     OW49086   4.289   4.475  10.007
15882SOL    HW149087   4.342   4.549   9.978
15882SOL    HW249088   4.234   4.453   9.932
15883SOL     OW49089   5.474   4.085  10.972
15883SOL    HW149090   5.469   4.100  10.878
15883SOL    HW249091   5.397   4.031  10.991
15884SOL     OW49092   5.487   4.651  10.815
15884SOL    HW149093   5.465   4.743  10.828
15884SOL    HW249094   5.462   4.633  10.724
15885SOL     OW49095   4.635   5.130   9.395
15885SOL    HW149096   4.545   5.098   9.385
15885SOL    HW249097   4.648   5.187   9.319
15886SOL     OW49098   4.397   5.505  10.264
15886SOL    HW149099   4.377   5.591  10.228
15886SOL    HW249100   4.488   5.489  10.238
15887SOL     OW49101   4.589   4.702  10.174
15887SOL    HW149102   4.639   4.625  10.202
15887SOL    HW249103   4.560   4.743  10.256
15888SOL     OW49104   4.813   4.727   9.408
15888SOL    HW149105   4.776   4.765   9.328
15888SOL    HW249106   4.881   4.667   9.375
15889SOL     OW49107   5.563   5.284  10.150
15889SOL    HW149108   5.485   5.274  10.096
15889SOL    HW249109   5.568   5.203  10.200
15890SOL     OW49110   3.934   5.014  11.154
15890SOL    HW149111   3.903   4.936  11.109
15890SOL    HW249112   3.873   5.027  11.226
15891SOL     OW49113   3.808   4.960   9.960
15891SOL    HW149114   3.809   4.896  10.031
15891SOL    HW249115   3.858   4.919   9.890
15892SOL     OW49116   4.416   5.130  10.951
15892SOL    HW149117   4.332   5.094  10.979
15892SOL    HW249118   4.413   5.222  10.980
15893SOL     OW49119   5.544   3.898  10.550
15893SOL    HW149120   5.534   3.804  10.559
15893SOL    HW249121   5.552   3.913  10.456
15894SOL     OW49122   4.180   4.158   9.874
15894SOL    HW149123   4.208   4.101   9.803
15894SOL    HW249124   4.111   4.108   9.918
15895SOL     OW49125   5.404   5.215  10.409
15895SOL    HW149126   5.334   5.195  10.346
15895SOL    HW249127   5.403   5.141  10.470
15896SOL     OW49128   4.062   4.285  10.604
15896SOL    HW149129   4.120   4.225  10.650
15896SOL    HW249130   4.074   4.265  10.512
15897SOL     OW49131   4.545   5.315   9.983
15897SOL    HW149132   4.546   5.380   9.913
15897SOL    HW249133   4.472   5.258   9.962
15898SOL     OW49134   5.146   3.949  10.428
15898SOL    HW149135   5.139   3.857  10.453
15898SOL    HW249136   5.096   3.996  10.495
15899SOL     OW49137   4.731   3.736  10.439
15899SOL    HW149138   4.679   3.675  10.386
15899SOL    HW249139   4.818   3.695  10.443
15900SOL     OW49140   4.495   5.058   9.664
15900SOL    HW149141   4.468   4.966   9.667
15900SOL    HW249142   4.568   5.060   9.602
15901SOL     OW49143   4.343   5.286  10.602
15901SOL    HW149144   4.345   5.368  10.651
15901SOL    HW249145   4.430   5.278  10.563
15902SOL     OW49146   5.035   4.187   9.989
15902SOL    HW149147   4.981   4.266   9.981
15902SOL    HW249148   5.020   4.156  10.078
15903SOL     OW49149   5.312   3.923  10.202
15903SOL    HW149150   5.254   3.948  10.273
15903SOL    HW249151   5.309   3.997  10.141
15904SOL     OW49152   3.761   4.795   9.611
15904SOL    HW149153   3.811   4.778   9.531
15904SOL    HW249154   3.749   4.709   9.651
15905SOL     OW49155   4.612   5.391   9.648
15905SOL    HW149156   4.543   5.364   9.587
15905SOL    HW249157   4.573   5.463   9.697
15906SOL     OW49158   3.948   4.346  11.301
15906SOL    HW149159   3.856   4.344  11.327
15906SOL    HW249160   3.947   4.327  11.207
15907SOL     OW49161   3.947   4.013  12.166
15907SOL    HW149162   3.978   3.973  12.247
15907SOL    HW249163   3.859   3.977  12.154
15908SOL     OW49164   3.723   4.108  11.811
15908SOL    HW149165   3.642   4.133  11.856
15908SOL    HW249166   3.697   4.033  11.758
15909SOL     OW49167   4.267   4.974  12.333
15909SOL    HW149168   4.190   5.011  12.289
15909SOL    HW249169   4.275   5.024  12.414
15910SOL     OW49170   5.307   5.243  11.885
15910SOL    HW149171   5.262   5.216  11.965
15910SOL    HW249172   5.237   5.247  11.818
15911SOL     OW49173   4.862   4.421  11.866
15911SOL    HW149174   4.905   4.506  11.855
15911SOL    HW249175   4.808   4.432  11.944
15912SOL     OW49176   5.505   4.320  11.399
15912SOL    HW149177   5.478   4.319  11.308
15912SOL    HW249178   5.466   4.241  11.437
15913SOL     OW49179   4.490   4.863  12.237
15913SOL    HW149180   4.406   4.891  12.273
15913SOL    HW249181   4.520   4.938  12.185
15914SOL     OW49182   4.410   4.716  11.817
15914SOL    HW149183   4.475   4.713  11.887
15914SOL    HW249184   4.341   4.774  11.851
15915SOL     OW49185   4.057   5.131  12.227
15915SOL    HW149186   3.978   5.096  12.187
15915SOL    HW249187   4.097   5.185  12.159
15916SOL     OW49188   5.322   4.160  11.918
15916SOL    HW149189   5.254   4.171  11.852
15916SOL    HW249190   5.314   4.238  11.974
15917SOL     OW49191   3.942   5.444  11.636
15917SOL    HW149192   3.968   5.518  11.691
15917SOL    HW249193   4.015   5.434  11.574
15918SOL     OW49194   3.958   5.176  11.714
15918SOL    HW149195   3.936   5.268  11.711
15918SOL    HW249196   3.898   5.138  11.778
15919SOL     OW49197   3.997   4.815  12.066
15919SOL    HW149198   3.997   4.725  12.098
15919SOL    HW249199   3.942   4.863  12.128
15920SOL     OW49200   4.299   4.710  11.318
15920SOL    HW149201   4.347   4.755  11.248
15920SOL    HW249202   4.339   4.741  11.399
15921SOL     OW49203   3.844   4.380  11.735
15921SOL    HW149204   3.814   4.292  11.756
15921SOL    HW249205   3.836   4.429  11.817
15922SOL     OW49206   5.567   5.476  11.497
15922SOL    HW149207   5.639   5.454  11.556
15922SOL    HW249208   5.582   5.567  11.475
15923SOL     OW49209   3.776   5.313  11.290
15923SOL    HW149210   3.756   5.221  11.307
15923SOL    HW249211   3.743   5.359  11.368
15924SOL     OW49212   5.421   4.648  11.821
15924SOL    HW149213   5.492   4.596  11.785
15924SOL    HW249214   5.390   4.701  11.747
15925SOL     OW49215   5.374   4.825  11.605
15925SOL    HW149216   5.460   4.824  11.562
15925SOL    HW249217   5.382   4.892  11.673
15926SOL     OW49218   3.900   4.471   0.222
15926SOL    HW149219   3.880   4.444   0.311
15926SOL    HW249220   3.820   4.516   0.192
15927SOL     OW49221   4.335   5.119  11.901
15927SOL    HW149222   4.291   5.034  11.907
15927SOL    HW249223   4.319   5.148  11.811
15928SOL     OW49224   4.549   3.734  11.695
15928SOL    HW149225   4.589   3.815  11.663
15928SOL    HW249226   4.455   3.751  11.693
15929SOL     OW49227   3.918   4.720  12.409
15929SOL    HW149228   3.996   4.665  12.412
15929SOL    HW249229   3.848   4.665  12.443
15930SOL     OW49230   5.257   4.726  11.372
15930SOL    HW149231   5.187   4.667  11.402
15930SOL    HW249232   5.298   4.758  11.453
15931SOL     OW49233   5.196   5.136  12.118
15931SOL    HW149234   5.130   5.150  12.186
15931SOL    HW249235   5.180   5.047  12.087
15932SOL     OW49236   5.373   5.493  11.745
15932SOL    HW149237   5.353   5.457  11.659
15932SOL    HW249238   5.362   5.420  11.805
15933SOL     OW49239   4.320   4.444  11.449
15933SOL    HW149240   4.316   4.525  11.400
15933SOL    HW249241   4.253   4.453  11.516
15934SOL     OW49242   5.006   4.100  12.108
15934SOL    HW149243   4.918   4.063  12.111
15934SOL    HW249244   5.057   4.044  12.167
15935SOL     OW49245   5.300   5.401  11.487
15935SOL    HW149246   5.393   5.420  11.475
15935SOL    HW249247   5.267   5.385  11.398
15936SOL     OW49248   4.707   4.067  12.384
15936SOL    HW149249   4.631   4.114  12.419
15936SOL    HW249250   4.686   4.055  12.291
15937SOL     OW49251   4.781   4.420  11.594
15937SOL    HW149252   4.799   4.412  11.688
15937SOL    HW249253   4.696   4.378  11.582
15938SOL     OW49254   3.811   4.545  11.954
15938SOL    HW149255   3.893   4.540  12.002
15938SOL    HW249256   3.766   4.621  11.991
15939SOL     OW49257   4.622   4.078  11.371
15939SOL    HW149258   4.668   4.139  11.313
15939SOL    HW249259   4.601   4.003  11.316
15940SOL     OW49260   5.107   4.867  11.711
15940SOL    HW149261   5.183   4.852  11.655
15940SOL    HW249262   5.052   4.928  11.662
15941SOL     OW49263   4.278   3.904  12.066
15941SOL    HW149264   4.278   3.966  12.138
15941SOL    HW249265   4.271   3.959  11.987
15942SOL     OW49266   4.727   5.178  11.642
15942SOL    HW149267   4.694   5.248  11.587
15942SOL    HW249268   4.690   5.196  11.729
15943SOL     OW49269   4.080   5.541  12.041
15943SOL    HW149270   4.123   5.456  12.049
15943SOL    HW249271   4.148   5.605  12.063
15944SOL     OW49272   5.528   4.782  12.049
15944SOL    HW149273   5.481   4.756  11.969
15944SOL    HW249274   5.460   4.784  12.117
15945SOL     OW49275   4.032   4.684  11.427
15945SOL    HW149276   4.115   4.706  11.384
15945SOL    HW249277   4.002   4.605  11.382
15946SOL     OW49278   5.207   4.482  11.888
15946SOL    HW149279   5.205   4.439  11.973
15946SOL    HW249280   5.288   4.534  11.889
15947SOL     OW49281   4.855   5.496  11.406
15947SOL    HW149282   4.774   5.461  11.443
15947SOL    HW249283   4.877   5.435  11.336
15948SOL     OW49284   5.358   5.113  11.275
15948SOL    HW149285   5.317   5.196  11.254
15948SOL    HW249286   5.293   5.047  11.250
15949SOL     OW49287   4.185   5.464  11.486
15949SOL    HW149288   4.236   5.514  11.550
15949SOL    HW249289   4.251   5.424  11.430
15950SOL     OW49290   5.122   3.828  11.619
15950SOL    HW149291   5.111   3.804  11.527
15950SOL    HW249292   5.216   3.830  11.632
15951SOL     OW49293   3.966   5.505  12.391
15951SOL    HW149294   3.970   5.428  12.448
15951SOL    HW249295   3.923   5.473  12.312
15952SOL     OW49296   4.672   5.418  12.066
15952SOL    HW149297   4.755   5.370  12.070
15952SOL    HW249298   4.622   5.372  11.999
15953SOL     OW49299   4.125   4.415  11.650
15953SOL    HW149300   4.141   4.321  11.661
15953SOL    HW249301   4.030   4.425  11.660
15954SOL     OW49302   4.380   3.833  11.273
15954SOL    HW149303   4.441   3.760  11.280
15954SOL    HW249304   4.317   3.806  11.206
15955SOL     OW49305   4.535   5.090  12.100
15955SOL    HW149306   4.622   5.097  12.061
15955SOL    HW249307   4.475   5.105  12.027
15956SOL     OW49308   4.656   4.234  12.063
15956SOL    HW149309   4.627   4.227  11.972
15956SOL    HW249310   4.688   4.146  12.085
15957SOL     OW49311   4.283   3.788  11.666
15957SOL    HW149312   4.200   3.786  11.714
15957SOL    HW249313   4.275   3.862  11.607
15958SOL     OW49314   5.159   4.933  11.212
15958SOL    HW149315   5.184   4.854  11.260
15958SOL    HW249316   5.070   4.951  11.241
15959SOL     OW49317   4.006   3.773  11.359
15959SOL    HW149318   4.052   3.837  11.304
15959SOL    HW249319   4.076   3.716  11.393
15960SOL     OW49320   4.671   3.974  11.624
15960SOL    HW149321   4.646   4.009  11.539
15960SOL    HW249322   4.765   3.990  11.630
15961SOL     OW49323   4.937   5.312  11.974
15961SOL    HW149324   4.948   5.371  11.900
15961SOL    HW249325   5.018   5.320  12.023
15962SOL     OW49326   4.197   4.879  11.892
15962SOL    HW149327   4.132   4.858  11.958
15962SOL    HW249328   4.151   4.868  11.809
15963SOL     OW49329   4.981   5.517  11.787
15963SOL    HW149330   5.030   5.577  11.731
15963SOL    HW249331   4.908   5.569  11.820
15964SOL     OW49332   4.750   4.255  11.202
15964SOL    HW149333   4.706   4.336  11.177
15964SOL    HW249334   4.818   4.282  11.264
15965SOL     OW49335   4.290   3.934  12.360
15965SOL    HW149336   4.305   3.850  12.315
15965SOL    HW249337   4.196   3.936  12.376
15966SOL     OW49338   4.590   4.181  11.803
15966SOL    HW149339   4.549   4.237  11.738
15966SOL    HW249340   4.615   4.102  11.755
15967SOL     OW49341   4.741   3.773  11.911
15967SOL    HW149342   4.682   3.770  11.835
15967SOL    HW249343   4.717   3.696  11.962
15968SOL     OW49344   5.161   4.879  12.020
15968SOL    HW149345   5.089   4.816  12.012
15968SOL    HW249346   5.191   4.892  11.931
15969SOL     OW49347   5.185   4.337  12.126
15969SOL    HW149348   5.127   4.261  12.130
15969SOL    HW249349   5.245   4.325  12.200
15970SOL     OW49350   5.562   4.531  11.564
15970SOL    HW149351   5.624   4.482  11.619
15970SOL    HW249352   5.537   4.470  11.495
15971SOL     OW49353   4.215   5.147  11.319
15971SOL    HW149354   4.142   5.113  11.371
15971SOL    HW249355   4.212   5.097  11.237
15972SOL     OW49356   5.406   4.990  11.814
15972SOL    HW149357   5.501   4.988  11.826
15972SOL    HW249358   5.381   5.081  11.832
15973SOL     OW49359   5.118   4.297  11.242
15973SOL    HW149360   5.057   4.274  11.313
15973SOL    HW249361   5.202   4.260  11.271
15974SOL     OW49362   4.255   3.982  11.479
15974SOL    HW149363   4.302   3.938  11.409
15974SOL    HW249364   4.225   4.065  11.440
15975SOL     OW49365   4.830   4.968  12.282
15975SOL    HW149366   4.744   4.977  12.325
15975SOL    HW249367   4.814   4.994  12.192
15976SOL     OW49368   5.325   4.814  12.241
15976SOL    HW149369   5.286   4.849  12.321
15976SOL    HW249370   5.261   4.834  12.172
15977SOL     OW49371   4.436   4.787  11.546
15977SOL    HW149372   4.420   4.761  11.637
15977SOL    HW249373   4.513   4.736  11.520
15978SOL     OW49374   4.155   4.553  12.449
15978SOL    HW149375   4.201   4.598  12.520
15978SOL    HW249376   4.173   4.460  12.464
15979SOL     OW49377   4.971   4.087  12.434
15979SOL    HW149378   4.996   4.173  12.466
15979SOL    HW249379   4.877   4.095  12.415
15980SOL     OW49380   4.052   4.849  11.659
15980SOL    HW149381   4.052   4.921  11.596
15980SOL    HW249382   4.052   4.770  11.604
15981SOL     OW49383   4.264   4.249  12.038
15981SOL    HW149384   4.277   4.306  11.962
15981SOL    HW249385   4.331   4.276  12.101
15982SOL     OW49386   4.970   5.073  11.570
15982SOL    HW149387   5.027   5.144  11.599
15982SOL    HW249388   4.883   5.099  11.599
15983SOL     OW49389   5.017   5.165  12.326
15983SOL    HW149390   5.056   5.142  12.411
15983SOL    HW249391   4.949   5.099  12.312
15984SOL     OW49392   5.300   4.337  11.661
15984SOL    HW149393   5.248   4.385  11.725
15984SOL    HW249394   5.332   4.404  11.600
15985SOL     OW49395   4.104   5.258  12.461
15985SOL    HW149396   4.073   5.205  12.389
15985SOL    HW249397   4.159   5.325  12.420
15986SOL     OW49398   4.308   4.596  12.216
15986SOL    HW149399   4.325   4.690  12.205
15986SOL    HW249400   4.248   4.592  12.291
15987SOL     OW49401   5.046   4.577  12.178
15987SOL    HW149402   4.962   4.555  12.138
15987SOL    HW249403   5.100   4.499  12.165
15988SOL     OW49404   4.929   4.249  11.435
15988SOL    HW149405   4.932   4.170  11.488
15988SOL    HW249406   4.883   4.313  11.490
15989SOL     OW49407   4.023   3.905  12.408
15989SOL    HW149408   3.995   3.933  12.496
15989SOL    HW249409   4.007   3.811  12.406
15990SOL     OW49410   3.781   5.052  12.429
15990SOL    HW149411   3.819   4.976  12.474
15990SOL    HW249412   3.784   5.122  12.494
15991SOL     OW49413   4.440   4.352  12.223
15991SOL    HW149414   4.516   4.344  12.164
15991SOL    HW249415   4.408   4.441  12.210
15992SOL     OW49416   4.039   3.783  11.793
15992SOL    HW149417   4.010   3.872  11.812
15992SOL    HW249418   4.044   3.741  11.879
15993SOL     OW49419   5.352   4.103  11.528
15993SOL    HW149420   5.382   4.038  11.591
15993SOL    HW249421   5.325   4.178  11.582
15994SOL     OW49422   4.752   4.478  12.139
15994SOL    HW149423   4.743   4.486  12.234
15994SOL    HW249424   4.725   4.389  12.120
15995SOL     OW49425   5.244   3.995  11.296
15995SOL    HW149426   5.183   3.929  11.327
15995SOL    HW249427   5.282   4.032  11.376
15996SOL     OW49428   5.014   4.549  11.201
15996SOL    HW149429   5.054   4.462  11.203
15996SOL    HW249430   5.043   4.586  11.118
15997SOL     OW49431   4.799   5.072  12.029
15997SOL    HW149432   4.804   4.998  11.969
15997SOL    HW249433   4.852   5.140  11.989
15998SOL     OW49434   4.037   4.538  12.111
15998SOL    HW149435   4.132   4.549  12.101
15998SOL    HW249436   4.027   4.448  12.140
15999SOL     OW49437   4.031   4.267  12.170
15999SOL    HW149438   4.001   4.176  12.169
15999SOL    HW249439   4.114   4.266  12.122
16000SOL     OW49440   4.892   3.941   0.154
16000SOL    HW149441   4.859   4.009   0.213
16000SOL    HW249442   4.918   3.989   0.075
16001SOL     OW49443   3.744   5.037  11.360
16001SOL    HW149444   3.655   5.056  11.331
16001SOL    HW249445   3.738   4.949  11.398
16002SOL     OW49446   3.819   5.503  12.118
16002SOL    HW149447   3.787   5.426  12.071
16002SOL    HW249448   3.907   5.518  12.084
16003SOL     OW49449   4.219   5.305  12.075
16003SOL    HW149450   4.291   5.362  12.101
16003SOL    HW249451   4.259   5.241  12.016
16004SOL     OW49452   4.696   4.509  12.413
16004SOL    HW149453   4.736   4.581  12.461
16004SOL    HW249454   4.602   4.520  12.424
16005SOL     OW49455   3.781   4.294  12.288
16005SOL    HW149456   3.859   4.297  12.232
16005SOL    HW249457   3.798   4.221  12.348
16006SOL     OW49458   4.541   4.296  11.543
16006SOL    HW149459   4.548   4.223  11.482
16006SOL    HW249460   4.467   4.348  11.511
16007SOL     OW49461   5.377   4.326  12.325
16007SOL    HW149462   5.373   4.272  12.404
16007SOL    HW249463   5.470   4.331  12.303
16008SOL     OW49464   4.454   4.161  12.422
16008SOL    HW149465   4.386   4.097  12.403
16008SOL    HW249466   4.439   4.232  12.359
16009SOL     OW49467   4.618   5.375   0.029
16009SOL    HW149468   4.619   5.438  -0.042
16009SOL    HW249469   4.643   5.425   0.106
16010SOL     OW49470   4.182   4.216  11.366
16010SOL    HW149471   4.241   4.289  11.384
16010SOL    HW249472   4.098   4.258  11.348
16011SOL     OW49473   5.010   4.768  12.368
16011SOL    HW149474   5.028   4.706  12.297
16011SOL    HW249475   4.955   4.835  12.328
16012SOL     OW49476   5.044   4.578  11.474
16012SOL    HW149477   4.968   4.546  11.522
16012SOL    HW249478   5.021   4.567  11.382
16013SOL     OW49479   5.471   5.477  12.294
16013SOL    HW149480   5.545   5.488  12.235
16013SOL    HW249481   5.453   5.383  12.294
16014SOL     OW49482   4.976   5.442  12.285
16014SOL    HW149483   5.054   5.474  12.240
16014SOL    HW249484   4.990   5.347  12.292
16015SOL     OW49485   3.805   5.009  12.163
16015SOL    HW149486   3.792   5.021  12.257
16015SOL    HW249487   3.748   4.936  12.139
16016SOL     OW49488   5.459   3.889  11.678
16016SOL    HW149489   5.522   3.872  11.608
16016SOL    HW249490   5.438   3.802  11.712
16017SOL     OW49491   5.123   5.292  11.673
16017SOL    HW149492   5.177   5.323  11.601
16017SOL    HW249493   5.066   5.366  11.695
16018SOL     OW49494   5.002   4.657  11.847
16018SOL    HW149495   5.075   4.596  11.854
16018SOL    HW249496   5.035   4.726  11.789
16019SOL     OW49497   4.392   5.353  11.326
16019SOL    HW149498   4.407   5.368  11.233
16019SOL    HW249499   4.336   5.275  11.329
16020SOL     OW49500   5.396   5.521   0.051
16020SOL    HW149501   5.428   5.504  -0.037
16020SOL    HW249502   5.388   5.617   0.056
16021SOL     OW49503   5.568   3.893  12.144
16021SOL    HW149504   5.598   3.806  12.118
16021SOL    HW249505   5.482   3.902  12.103
16022SOL     OW49506   3.978   4.032  11.883
16022SOL    HW149507   3.893   4.067  11.858
16022SOL    HW249508   3.978   4.035  11.979
16023SOL     OW49509   4.933   5.322  11.208
16023SOL    HW149510   4.922   5.229  11.231
16023SOL    HW249511   4.869   5.337  11.138
16024SOL     OW49512   4.514   4.739  12.485
16024SOL    HW149513   4.513   4.782  12.399
16024SOL    HW249514   4.588   4.778  12.531
16025SOL     OW49515   4.651   4.644  11.474
16025SOL    HW149516   4.706   4.674  11.402
16025SOL    HW249517   4.698   4.569  11.510
16026SOL     OW49518   5.211   5.363  11.223
16026SOL    HW149519   5.118   5.346  11.205
16026SOL    HW249520   5.251   5.366  11.136
16027SOL     OW49521   4.791   4.839  11.895
16027SOL    HW149522   4.715   4.789  11.925
16027SOL    HW249523   4.852   4.773  11.862
16028SOL     OW49524   4.754   3.963  12.119
16028SOL    HW149525   4.750   3.914  12.037
16028SOL    HW249526   4.752   3.896  12.187
16029SOL     OW49527   4.329   5.220  11.649
16029SOL    HW149528   4.384   5.166  11.591
16029SOL    HW249529   4.250   5.237  11.599
16030SOL     OW49530   5.486   4.156   0.026
16030SOL    HW149531   5.564   4.147   0.081
16030SOL    HW249532   5.465   4.067  -0.001
16031SOL     OW49533   4.003   5.061  11.477
16031SOL    HW149534   3.916   5.058  11.437
16031SOL    HW249535   3.989   5.106  11.560
16032SOL     OW49536   3.799   4.053  11.196
16032SOL    HW149537   3.725   4.033  11.139
16032SOL    HW249538   3.838   4.132  11.158
16033SOL     OW49539   3.777   3.880  11.460
16033SOL    HW149540   3.761   3.950  11.398
16033SOL    HW249541   3.863   3.846  11.437
16034SOL     OW49542   4.900   5.053  11.290
16034SOL    HW149543   4.807   5.032  11.285
16034SOL    HW249544   4.921   5.049  11.383
16035SOL     OW49545   5.213   5.513  12.161
16035SOL    HW149546   5.230   5.579  12.094
16035SOL    HW249547   5.299   5.494  12.199
16036SOL     OW49548   5.418   4.595  12.395
16036SOL    HW149549   5.386   4.511  12.361
16036SOL    HW249550   5.385   4.660  12.332
16037SOL     OW49551   4.941   4.042  11.632
16037SOL    HW149552   5.002   3.969  11.625
16037SOL    HW249553   4.973   4.094  11.706
16038SOL     OW49554   4.303   4.457  11.857
16038SOL    HW149555   4.347   4.540  11.837
16038SOL    HW249556   4.243   4.444  11.785
16039SOL     OW49557   5.533   4.621   0.134
16039SOL    HW149558   5.472   4.682   0.176
16039SOL    HW249559   5.495   4.606   0.047
16040SOL     OW49560   4.605   5.093  11.227
16040SOL    HW149561   4.552   5.129  11.297
16040SOL    HW249562   4.615   5.165  11.165
16041SOL     OW49563   4.392   5.517  12.127
16041SOL    HW149564   4.373   5.604  12.093
16041SOL    HW249565   4.485   5.503  12.108
16042SOL     OW49566   4.595   4.696  12.031
16042SOL    HW149567   4.642   4.621  12.066
16042SOL    HW249568   4.560   4.741  12.107
16043SOL     OW49569   4.806   4.716  11.265
16043SOL    HW149570   4.779   4.764  11.187
16043SOL    HW249571   4.877   4.659  11.235
16044SOL     OW49572   5.574   5.276  12.016
16044SOL    HW149573   5.491   5.265  11.971
16044SOL    HW249574   5.588   5.193  12.061
16045SOL     OW49575   3.816   4.951  11.835
16045SOL    HW149576   3.838   4.909  11.918
16045SOL    HW249577   3.879   4.915  11.772
16046SOL     OW49578   5.532   3.896  12.417
16046SOL    HW149579   5.552   3.803  12.424
16046SOL    HW249580   5.539   3.915  12.323
16047SOL     OW49581   4.158   4.153  11.702
16047SOL    HW149582   4.184   4.087  11.636
16047SOL    HW249583   4.101   4.105  11.762
16048SOL     OW49584   5.410   5.218  12.289
16048SOL    HW149585   5.344   5.178  12.234
16048SOL    HW249586   5.432   5.151  12.354
16049SOL     OW49587   4.550   5.311  11.846
16049SOL    HW149588   4.532   5.375  11.778
16049SOL    HW249589   4.477   5.250  11.842
16050SOL     OW49590   5.163   3.962  12.292
16050SOL    HW149591   5.220   3.914  12.351
16050SOL    HW249592   5.097   4.002  12.349
16051SOL     OW49593   4.725   3.699  12.304
16051SOL    HW149594   4.690   3.654  12.227
16051SOL    HW249595   4.817   3.674  12.308
16052SOL     OW49596   4.494   5.058  11.506
16052SOL    HW149597   4.467   4.966  11.507
16052SOL    HW249598   4.584   5.056  11.540
16053SOL     OW49599   5.083   3.773  11.352
16053SOL    HW149600   5.116   3.710  11.289
16053SOL    HW249601   4.994   3.743  11.371
16054SOL     OW49602   5.027   4.191  11.848
16054SOL    HW149603   4.973   4.270  11.848
16054SOL    HW249604   5.019   4.157  11.937
16055SOL     OW49605   5.310   3.916  12.060
16055SOL    HW149606   5.252   3.941  12.131
16055SOL    HW249607   5.308   3.990  12.000
16056SOL     OW49608   3.766   4.787  11.487
16056SOL    HW149609   3.858   4.777  11.462
16056SOL    HW249610   3.737   4.698  11.506
16057SOL     OW49611   4.611   5.391  11.509
16057SOL    HW149612   4.537   5.373  11.451
16057SOL    HW249613   4.583   5.464  11.564
16058SOL     OW49614   3.997   6.186   0.024
16058SOL    HW149615   3.959   6.235   0.097
16058SOL    HW249616   3.930   6.186  -0.044
16059SOL     OW49617   3.947   5.871   0.994
16059SOL    HW149618   3.975   5.837   1.079
16059SOL    HW249619   3.859   5.836   0.981
16060SOL     OW49620   3.717   5.972   0.637
16060SOL    HW149621   3.642   6.002   0.688
16060SOL    HW249622   3.688   5.891   0.596
16061SOL     OW49623   4.297   6.888   1.193
16061SOL    HW149624   4.211   6.889   1.152
16061SOL    HW249625   4.311   6.978   1.222
16062SOL     OW49626   5.298   7.110   0.717
16062SOL    HW149627   5.256   7.080   0.797
16062SOL    HW249628   5.228   7.109   0.651
16063SOL     OW49629   4.860   6.283   0.691
16063SOL    HW149630   4.905   6.367   0.683
16063SOL    HW249631   4.810   6.290   0.772
16064SOL     OW49632   5.473   6.193   0.261
16064SOL    HW149633   5.446   6.194   0.169
16064SOL    HW249634   5.432   6.114   0.297
16065SOL     OW49635   4.466   6.722   1.052
16065SOL    HW149636   4.402   6.759   1.112
16065SOL    HW249637   4.506   6.797   1.009
16066SOL     OW49638   4.608   6.338   1.832
16066SOL    HW149639   4.585   6.404   1.898
16066SOL    HW249640   4.625   6.388   1.752
16067SOL     OW49641   4.410   6.580   0.644
16067SOL    HW149642   4.476   6.574   0.713
16067SOL    HW249643   4.342   6.636   0.682
16068SOL     OW49644   4.440   6.734   1.822
16068SOL    HW149645   4.486   6.811   1.855
16068SOL    HW249646   4.360   6.769   1.783
16069SOL     OW49647   4.057   6.997   1.067
16069SOL    HW149648   3.982   6.955   1.026
16069SOL    HW249649   4.098   7.048   0.997
16070SOL     OW49650   5.181   7.089   1.366
16070SOL    HW149651   5.233   7.168   1.377
16070SOL    HW249652   5.109   7.098   1.429
16071SOL     OW49653   4.177   5.968   1.464
16071SOL    HW149654   4.253   5.912   1.481
16071SOL    HW249655   4.102   5.918   1.497
16072SOL     OW49656   5.323   6.025   0.753
16072SOL    HW149657   5.258   6.043   0.686
16072SOL    HW249658   5.305   6.089   0.822
16073SOL     OW49659   3.936   7.309   0.475
16073SOL    HW149660   3.960   7.384   0.530
16073SOL    HW249661   4.014   7.294   0.420
16074SOL     OW49662   4.860   6.929   1.697
16074SOL    HW149663   4.896   6.922   1.785
16074SOL    HW249664   4.807   6.850   1.687
16075SOL     OW49665   3.952   7.039   0.547
16075SOL    HW149666   3.926   7.131   0.551
16075SOL    HW249667   3.897   6.996   0.612
16076SOL     OW49668   4.004   6.677   0.898
16076SOL    HW149669   3.996   6.587   0.929
16076SOL    HW249670   3.941   6.727   0.951
16077SOL     OW49671   4.320   7.376   1.429
16077SOL    HW149672   4.240   7.357   1.477
16077SOL    HW249673   4.344   7.465   1.457
16078SOL     OW49674   4.302   6.546   0.154
16078SOL    HW149675   4.367   6.564   0.087
16078SOL    HW249676   4.333   6.593   0.231
16079SOL     OW49677   5.321   5.718   1.462
16079SOL    HW149678   5.339   5.803   1.421
16079SOL    HW249679   5.293   5.739   1.551
16080SOL     OW49680   3.841   6.235   0.561
16080SOL    HW149681   3.812   6.147   0.584
16080SOL    HW249682   3.836   6.285   0.642
16081SOL     OW49683   5.574   7.329   0.307
16081SOL    HW149684   5.638   7.301   0.372
16081SOL    HW249685   5.593   7.422   0.293
16082SOL     OW49686   3.756   7.113   0.126
16082SOL    HW149687   3.668   7.075   0.119
16082SOL    HW249688   3.746   7.188   0.184
16083SOL     OW49689   5.410   6.523   0.654
16083SOL    HW149690   5.470   6.471   0.599
16083SOL    HW249691   5.372   6.586   0.594
16084SOL     OW49692   5.369   6.704   0.435
16084SOL    HW149693   5.458   6.698   0.399
16084SOL    HW249694   5.376   6.769   0.505
16085SOL     OW49695   3.850   6.331   1.579
16085SOL    HW149696   3.939   6.363   1.587
16085SOL    HW249697   3.795   6.409   1.583
16086SOL     OW49698   4.347   6.980   0.734
16086SOL    HW149699   4.303   6.896   0.745
16086SOL    HW249700   4.330   7.005   0.643
16087SOL     OW49701   5.006   6.821   1.417
16087SOL    HW149702   5.035   6.751   1.359
16087SOL    HW249703   5.063   6.813   1.494
16088SOL     OW49704   4.549   5.598   0.526
16088SOL    HW149705   4.585   5.683   0.499
16088SOL    HW249706   4.454   5.613   0.529
16089SOL     OW49707   3.912   6.545   1.281
16089SOL    HW149708   3.998   6.506   1.266
16089SOL    HW249709   3.852   6.489   1.233
16090SOL     OW49710   5.232   6.594   0.227
16090SOL    HW149711   5.164   6.538   0.263
16090SOL    HW249712   5.278   6.628   0.303
16091SOL     OW49713   4.928   7.405   1.635
16091SOL    HW149714   4.918   7.465   1.561
16091SOL    HW249715   4.932   7.318   1.596
16092SOL     OW49716   4.078   5.848   1.825
16092SOL    HW149717   4.114   5.924   1.871
16092SOL    HW249718   3.986   5.846   1.852
16093SOL     OW49719   5.194   7.001   0.944
16093SOL    HW149720   5.128   7.018   1.011
16093SOL    HW249721   5.178   6.911   0.918
16094SOL     OW49722   5.371   7.348   0.578
16094SOL    HW149723   5.351   7.306   0.494
16094SOL    HW249724   5.358   7.279   0.643
16095SOL     OW49725   4.306   6.295   0.280
16095SOL    HW149726   4.311   6.382   0.240
16095SOL    HW249727   4.241   6.304   0.349
16096SOL     OW49728   5.005   5.960   0.935
16096SOL    HW149729   4.915   5.927   0.942
16096SOL    HW249730   5.056   5.904   0.993
16097SOL     OW49731   5.308   7.255   0.322
16097SOL    HW149732   5.401   7.276   0.311
16097SOL    HW249733   5.285   7.205   0.244
16098SOL     OW49734   4.518   6.203   1.442
16098SOL    HW149735   4.495   6.175   1.531
16098SOL    HW249736   4.487   6.131   1.386
16099SOL     OW49737   5.122   6.060   1.680
16099SOL    HW149738   5.124   6.102   1.766
16099SOL    HW249739   5.169   5.978   1.692
16100SOL     OW49740   4.673   6.469   1.591
16100SOL    HW149741   4.727   6.401   1.551
16100SOL    HW249742   4.622   6.505   1.519
16101SOL     OW49743   4.725   5.994   1.222
16101SOL    HW149744   4.636   6.008   1.252
16101SOL    HW249745   4.715   5.942   1.142
16102SOL     OW49746   4.780   6.289   0.424
16102SOL    HW149747   4.796   6.281   0.518
16102SOL    HW249748   4.695   6.247   0.411
16103SOL     OW49749   3.818   6.404   0.774
16103SOL    HW149750   3.896   6.399   0.829
16103SOL    HW249751   3.770   6.479   0.810
16104SOL     OW49752   3.848   7.459   1.583
16104SOL    HW149753   3.853   7.439   1.677
16104SOL    HW249754   3.765   7.421   1.555
16105SOL     OW49755   4.616   5.946   0.220
16105SOL    HW149756   4.647   6.016   0.162
16105SOL    HW249757   4.597   5.873   0.160
16106SOL     OW49758   5.435   6.154   1.830
16106SOL    HW149759   5.399   6.228   1.781
16106SOL    HW249760   5.455   6.088   1.762
16107SOL     OW49761   5.108   6.730   0.544
16107SOL    HW149762   5.186   6.724   0.489
16107SOL    HW249763   5.049   6.789   0.496
16108SOL     OW49764   4.278   5.760   0.907
16108SOL    HW149765   4.279   5.787   0.999
16108SOL    HW249766   4.273   5.842   0.858
16109SOL     OW49767   4.720   7.031   0.473
16109SOL    HW149768   4.684   7.104   0.422
16109SOL    HW249769   4.690   7.048   0.563
16110SOL     OW49770   4.076   7.400   0.875
16110SOL    HW149771   4.119   7.315   0.879
16110SOL    HW249772   4.144   7.463   0.898
16111SOL     OW49773   5.532   6.638   0.876
16111SOL    HW149774   5.481   6.611   0.799
16111SOL    HW249775   5.467   6.644   0.946
16112SOL     OW49776   4.950   7.127   1.516
16112SOL    HW149777   4.936   7.056   1.578
16112SOL    HW249778   4.877   7.119   1.454
16113SOL     OW49779   4.035   6.569   0.264
16113SOL    HW149780   4.114   6.575   0.210
16113SOL    HW249781   3.998   6.483   0.242
16114SOL     OW49782   5.206   6.343   0.721
16114SOL    HW149783   5.204   6.298   0.806
16114SOL    HW249784   5.284   6.398   0.726
16115SOL     OW49785   4.200   6.859   1.737
16115SOL    HW149786   4.173   6.863   1.646
16115SOL    HW249787   4.118   6.849   1.786
16116SOL     OW49788   4.812   7.376   0.226
16116SOL    HW149789   4.754   7.334   0.290
16116SOL    HW249790   4.852   7.303   0.179
16117SOL     OW49791   3.922   5.852   1.506
16117SOL    HW149792   3.841   5.899   1.526
16117SOL    HW249793   3.907   5.764   1.541
16118SOL     OW49794   5.378   7.001   0.104
16118SOL    HW149795   5.314   7.063   0.068
16118SOL    HW249796   5.334   6.916   0.098
16119SOL     OW49797   4.174   7.316   0.331
16119SOL    HW149798   4.223   7.373   0.390
16119SOL    HW249799   4.240   7.276   0.275
16120SOL     OW49800   5.128   5.685   0.444
16120SOL    HW149801   5.121   5.653   0.354
16120SOL    HW249802   5.222   5.687   0.461
16121SOL     OW49803   3.982   7.376   1.223
16121SOL    HW149804   4.026   7.301   1.264
16121SOL    HW249805   3.970   7.349   1.132
16122SOL     OW49806   4.662   7.288   0.894
16122SOL    HW149807   4.735   7.234   0.927
16122SOL    HW249808   4.624   7.235   0.824
16123SOL     OW49809   4.115   6.278   0.480
16123SOL    HW149810   4.133   6.184   0.491
16123SOL    HW249811   4.024   6.288   0.506
16124SOL     OW49812   5.243   5.805   1.724
16124SOL    HW149813   5.255   5.828   1.816
16124SOL    HW249814   5.179   5.734   1.724
16125SOL     OW49815   4.356   5.709   0.121
16125SOL    HW149816   4.448   5.682   0.120
16125SOL    HW249817   4.340   5.746   0.034
16126SOL     OW49818   4.485   5.862   1.755
16126SOL    HW149819   4.568   5.813   1.750
16126SOL    HW249820   4.439   5.821   1.829
16127SOL     OW49821   4.602   7.116   1.194
16127SOL    HW149822   4.580   7.072   1.112
16127SOL    HW249823   4.666   7.058   1.235
16128SOL     OW49824   5.061   6.175   1.437
16128SOL    HW149825   5.093   6.142   1.522
16128SOL    HW249826   5.098   6.263   1.430
16129SOL     OW49827   4.544   6.974   0.953
16129SOL    HW149828   4.629   6.962   0.910
16129SOL    HW249829   4.481   6.980   0.881
16130SOL     OW49830   4.658   6.100   0.894
16130SOL    HW149831   4.631   6.089   0.803
16130SOL    HW249832   4.682   6.012   0.923
16131SOL     OW49833   4.279   5.641   0.503
16131SOL    HW149834   4.200   5.642   0.557
16131SOL    HW249835   4.272   5.720   0.449
16132SOL     OW49836   5.194   6.802   0.054
16132SOL    HW149837   5.210   6.722   0.104
16132SOL    HW249838   5.100   6.816   0.060
16133SOL     OW49839   4.036   5.665   0.203
16133SOL    HW149840   4.119   5.714   0.200
16133SOL    HW249841   4.061   5.577   0.231
16134SOL     OW49842   4.670   5.838   0.464
16134SOL    HW149843   4.643   5.874   0.380
16134SOL    HW249844   4.765   5.850   0.466
16135SOL     OW49845   4.803   6.274   1.452
16135SOL    HW149846   4.736   6.206   1.462
16135SOL    HW249847   4.886   6.225   1.452
16136SOL     OW49848   4.944   7.155   0.795
16136SOL    HW149849   4.955   7.222   0.728
16136SOL    HW249850   5.009   7.176   0.862
16137SOL     OW49851   4.204   6.745   0.728
16137SOL    HW149852   4.140   6.722   0.795
16137SOL    HW249853   4.157   6.735   0.645
16138SOL     OW49854   4.982   7.372   0.617
16138SOL    HW149855   5.033   7.438   0.571
16138SOL    HW249856   4.909   7.420   0.655
16139SOL     OW49857   4.738   6.154   0.094
16139SOL    HW149858   4.737   6.220   0.024
16139SOL    HW249859   4.821   6.168   0.139
16140SOL     OW49860   3.810   6.144   1.385
16140SOL    HW149861   3.903   6.139   1.363
16140SOL    HW249862   3.805   6.210   1.454
16141SOL     OW49863   4.281   5.813   1.180
16141SOL    HW149864   4.321   5.746   1.235
16141SOL    HW249865   4.188   5.812   1.205
16142SOL     OW49866   4.593   6.048   0.636
16142SOL    HW149867   4.551   6.103   0.570
16142SOL    HW249868   4.613   5.967   0.590
16143SOL     OW49869   4.749   5.635   0.738
16143SOL    HW149870   4.684   5.631   0.667
16143SOL    HW249871   4.722   5.565   0.798
16144SOL     OW49872   5.159   6.742   0.856
16144SOL    HW149873   5.090   6.676   0.866
16144SOL    HW249874   5.173   6.749   0.762
16145SOL     OW49875   5.190   6.193   0.958
16145SOL    HW149876   5.126   6.122   0.967
16145SOL    HW249877   5.244   6.187   1.037
16146SOL     OW49878   5.542   6.407   0.432
16146SOL    HW149879   5.598   6.345   0.479
16146SOL    HW249880   5.506   6.356   0.359
16147SOL     OW49881   4.211   6.988   0.176
16147SOL    HW149882   4.144   6.943   0.228
16147SOL    HW249883   4.163   7.028   0.104
16148SOL     OW49884   5.400   6.863   0.643
16148SOL    HW149885   5.494   6.860   0.661
16148SOL    HW249886   5.373   6.951   0.669
16149SOL     OW49887   5.128   6.134   0.085
16149SOL    HW149888   5.073   6.131   0.163
16149SOL    HW249889   5.175   6.050   0.086
16150SOL     OW49890   4.254   5.846   0.328
16150SOL    HW149891   4.303   5.798   0.262
16150SOL    HW249892   4.229   5.928   0.284
16151SOL     OW49893   5.467   6.830   1.552
16151SOL    HW149894   5.554   6.789   1.546
16151SOL    HW249895   5.485   6.919   1.581
16152SOL     OW49896   4.772   6.942   1.332
16152SOL    HW149897   4.695   6.908   1.379
16152SOL    HW249898   4.847   6.899   1.374
16153SOL     OW49899   5.340   7.224   1.662
16153SOL    HW149900   5.325   7.257   1.574
16153SOL    HW249901   5.418   7.168   1.654
16154SOL     OW49902   4.868   6.810   1.101
16154SOL    HW149903   4.803   6.839   1.164
16154SOL    HW249904   4.835   6.840   1.016
16155SOL     OW49905   5.347   6.681   1.074
16155SOL    HW149906   5.339   6.743   1.146
16155SOL    HW249907   5.271   6.698   1.018
16156SOL     OW49908   4.642   5.676   1.388
16156SOL    HW149909   4.667   5.660   1.297
16156SOL    HW249910   4.720   5.716   1.427
16157SOL     OW49911   4.707   6.702   1.722
16157SOL    HW149912   4.616   6.717   1.751
16157SOL    HW249913   4.703   6.621   1.671
16158SOL     OW49914   4.436   6.651   0.374
16158SOL    HW149915   4.420   6.627   0.466
16158SOL    HW249916   4.515   6.601   0.350
16159SOL     OW49917   4.149   6.406   1.253
16159SOL    HW149918   4.214   6.416   1.321
16159SOL    HW249919   4.114   6.317   1.265
16160SOL     OW49920   4.990   5.964   1.279
16160SOL    HW149921   5.019   6.041   1.329
16160SOL    HW249922   4.899   5.983   1.257
16161SOL     OW49923   3.800   7.161   1.363
16161SOL    HW149924   3.772   7.230   1.304
16161SOL    HW249925   3.895   7.157   1.352
16162SOL     OW49926   4.061   6.714   0.498
16162SOL    HW149927   4.048   6.789   0.440
16162SOL    HW249928   4.064   6.638   0.440
16163SOL     OW49929   4.266   6.109   0.857
16163SOL    HW149930   4.281   6.169   0.783
16163SOL    HW249931   4.333   6.134   0.921
16164SOL     OW49932   4.967   6.934   0.401
16164SOL    HW149933   5.022   7.004   0.436
16164SOL    HW249934   4.879   6.955   0.432
16165SOL     OW49935   5.020   7.049   1.146
16165SOL    HW149936   5.070   7.052   1.228
16165SOL    HW249937   4.965   6.970   1.155
16166SOL     OW49938   5.278   6.191   0.498
16166SOL    HW149939   5.236   6.239   0.569
16166SOL    HW249940   5.297   6.258   0.432
16167SOL     OW49941   4.068   7.120   1.305
16167SOL    HW149942   4.058   7.070   1.224
16167SOL    HW249943   4.163   7.130   1.315
16168SOL     OW49944   4.142   6.334   1.607
16168SOL    HW149945   4.208   6.371   1.549
16168SOL    HW249946   4.173   6.246   1.628
16169SOL     OW49947   5.346   6.371   1.691
16169SOL    HW149948   5.258   6.408   1.685
16169SOL    HW249949   5.394   6.411   1.619
16170SOL     OW49950   4.719   5.724   1.742
16170SOL    HW149951   4.781   5.796   1.728
16170SOL    HW249952   4.771   5.645   1.730
16171SOL     OW49953   4.224   5.625   1.749
16171SOL    HW149954   4.170   5.569   1.692
16171SOL    HW249955   4.169   5.701   1.767
16172SOL     OW49956   4.311   6.459   1.034
16172SOL    HW149957   4.343   6.549   1.040
16172SOL    HW249958   4.253   6.449   1.110
16173SOL     OW49959   5.056   6.442   1.013
16173SOL    HW149960   4.967   6.420   0.985
16173SOL    HW249961   5.105   6.360   1.001
16174SOL     OW49962   4.945   6.118   0.286
16174SOL    HW149963   4.953   6.040   0.342
16174SOL    HW249964   4.891   6.178   0.336
16175SOL     OW49965   4.016   5.785   1.247
16175SOL    HW149966   3.980   5.815   1.330
16175SOL    HW249967   4.000   5.690   1.247
16176SOL     OW49968   3.781   6.899   1.269
16176SOL    HW149969   3.806   6.840   1.339
16176SOL    HW249970   3.777   6.986   1.310
16177SOL     OW49971   4.440   6.211   1.045
16177SOL    HW149972   4.518   6.202   0.990
16177SOL    HW249973   4.410   6.301   1.031
16178SOL     OW49974   5.462   6.558   1.862
16178SOL    HW149975   5.430   6.483   1.812
16178SOL    HW249976   5.400   6.567   1.934
16179SOL     OW49977   4.035   5.647   0.629
16179SOL    HW149978   4.009   5.737   0.650
16179SOL    HW249979   4.042   5.604   0.714
16180SOL     OW49980   5.350   5.961   0.368
16180SOL    HW149981   5.374   5.891   0.428
16180SOL    HW249982   5.313   6.029   0.424
16181SOL     OW49983   4.759   6.345   0.960
16181SOL    HW149984   4.742   6.361   1.053
16181SOL    HW249985   4.730   6.255   0.946
16182SOL     OW49986   4.712   7.161   1.724
16182SOL    HW149987   4.690   7.199   1.639
16182SOL    HW249988   4.743   7.073   1.704
16183SOL     OW49989   5.572   7.085   1.604
16183SOL    HW149990   5.593   7.112   1.515
16183SOL    HW249991   5.654   7.094   1.652
16184SOL     OW49992   4.075   6.516   1.803
16184SOL    HW149993   4.150   6.524   1.862
16184SOL    HW249994   4.101   6.448   1.740
16185SOL     OW49995   5.228   5.872   0.133
16185SOL    HW149996   5.179   5.791   0.152
16185SOL    HW249997   5.270   5.894   0.216
16186SOL     OW49998   5.019   6.390   0.056
16186SOL    HW149999   5.069   6.309   0.048
16186SOL    HW250000   5.060   6.449  -0.007
16187SOL     OW50001   4.793   6.929   0.858
16187SOL    HW150002   4.800   6.856   0.796
16187SOL    HW250003   4.851   6.996   0.821
16188SOL     OW50004   4.035   6.395   0.944
16188SOL    HW150005   4.129   6.413   0.942
16188SOL    HW250006   4.028   6.305   0.976
16189SOL     OW50007   4.044   6.119   1.010
16189SOL    HW150008   4.009   6.031   1.001
16189SOL    HW250009   4.122   6.119   0.953
16190SOL     OW50010   4.862   5.960   1.679
16190SOL    HW150011   4.814   6.009   1.745
16190SOL    HW250012   4.950   6.000   1.679
16191SOL     OW50013   4.884   5.784   1.465
16191SOL    HW150014   4.872   5.844   1.539
16191SOL    HW250015   4.928   5.837   1.399
16192SOL     OW50016   3.811   7.364   0.941
16192SOL    HW150017   3.781   7.286   0.894
16192SOL    HW250018   3.900   7.377   0.910
16193SOL     OW50019   4.212   7.161   0.900
16193SOL    HW150020   4.282   7.223   0.923
16193SOL    HW250021   4.255   7.097   0.843
16194SOL     OW50022   4.686   6.371   1.222
16194SOL    HW150023   4.746   6.352   1.294
16194SOL    HW250024   4.605   6.327   1.247
16195SOL     OW50025   3.762   6.149   1.113
16195SOL    HW150026   3.845   6.139   1.067
16195SOL    HW250027   3.786   6.144   1.206
16196SOL     OW50028   3.907   6.113   1.740
16196SOL    HW150029   3.958   6.059   1.680
16196SOL    HW250030   3.876   6.186   1.686
16197SOL     OW50031   5.112   6.513   1.656
16197SOL    HW150032   5.129   6.607   1.651
16197SOL    HW250033   5.104   6.484   1.565
16198SOL     OW50034   4.538   6.167   0.379
16198SOL    HW150035   4.548   6.091   0.322
16198SOL    HW250036   4.460   6.211   0.347
16199SOL     OW50037   5.362   6.189   1.173
16199SOL    HW150038   5.353   6.129   1.247
16199SOL    HW250039   5.451   6.174   1.141
16200SOL     OW50040   3.959   7.129   1.724
16200SOL    HW150041   3.935   7.186   1.797
16200SOL    HW250042   3.968   7.042   1.763
16201SOL     OW50043   4.449   6.027   1.246
16201SOL    HW150044   4.386   5.957   1.231
16201SOL    HW250045   4.434   6.090   1.175
16202SOL     OW50046   4.649   7.262   1.472
16202SOL    HW150047   4.620   7.218   1.392
16202SOL    HW250048   4.638   7.355   1.454
16203SOL     OW50049   4.188   6.063   0.184
16203SOL    HW150050   4.238   6.140   0.211
16203SOL    HW250051   4.123   6.097   0.122
16204SOL     OW50052   3.867   6.731   1.474
16204SOL    HW150053   3.867   6.687   1.559
16204SOL    HW250054   3.883   6.661   1.410
16205SOL     OW50055   5.043   6.628   1.212
16205SOL    HW150056   5.057   6.563   1.144
16205SOL    HW250057   4.981   6.690   1.174
16206SOL     OW50058   5.030   6.435   0.328
16206SOL    HW150059   4.954   6.398   0.374
16206SOL    HW250060   5.018   6.407   0.237
16207SOL     OW50061   5.509   7.317   1.163
16207SOL    HW150062   5.569   7.341   1.091
16207SOL    HW250063   5.478   7.230   1.140
16208SOL     OW50064   4.962   7.316   1.098
16208SOL    HW150065   5.046   7.342   1.061
16208SOL    HW250066   4.974   7.224   1.122
16209SOL     OW50067   3.814   6.855   1.004
16209SOL    HW150068   3.797   6.868   1.098
16209SOL    HW250069   3.747   6.794   0.976
16210SOL     OW50070   4.403   7.263   1.744
16210SOL    HW150071   4.340   7.334   1.737
16210SOL    HW250072   4.470   7.284   1.679
16211SOL     OW50073   4.630   5.673   0.097
16211SOL    HW150074   4.674   5.697   0.016
16211SOL    HW250075   4.700   5.650   0.158
16212SOL     OW50076   5.451   5.739   0.507
16212SOL    HW150077   5.519   5.718   0.443
16212SOL    HW250078   5.431   5.655   0.549
16213SOL     OW50079   5.116   7.153   0.501
16213SOL    HW150080   5.173   7.190   0.434
16213SOL    HW250081   5.063   7.226   0.532
16214SOL     OW50082   3.864   7.388   1.842
16214SOL    HW150083   3.817   7.316   1.886
16214SOL    HW250084   3.912   7.431   1.913
16215SOL     OW50085   5.000   6.516   0.672
16215SOL    HW150086   5.074   6.456   0.684
16215SOL    HW250087   5.035   6.586   0.616
16216SOL     OW50088   4.517   6.866   1.415
16216SOL    HW150089   4.492   6.910   1.497
16216SOL    HW250090   4.441   6.874   1.358
16217SOL     OW50091   4.380   7.195   0.191
16217SOL    HW150092   4.435   7.193   0.113
16217SOL    HW250093   4.329   7.114   0.187
16218SOL     OW50094   5.339   7.316   1.395
16218SOL    HW150095   5.395   7.318   1.317
16218SOL    HW250096   5.324   7.408   1.416
16219SOL     OW50097   5.571   5.747   0.960
16219SOL    HW150098   5.595   5.657   0.938
16219SOL    HW250099   5.481   5.757   0.927
16220SOL     OW50100   3.975   5.897   0.715
16220SOL    HW150101   3.888   5.931   0.694
16220SOL    HW250102   3.976   5.893   0.811
16221SOL     OW50103   4.923   7.193   0.067
16221SOL    HW150104   4.921   7.100   0.089
16221SOL    HW250105   4.895   7.196  -0.025
16222SOL     OW50106   4.546   6.593   1.382
16222SOL    HW150107   4.587   6.583   1.295
16222SOL    HW250108   4.540   6.688   1.394
16223SOL     OW50109   4.657   6.517   0.298
16223SOL    HW150110   4.713   6.534   0.222
16223SOL    HW250111   4.698   6.440   0.340
16224SOL     OW50112   5.194   7.179   0.033
16224SOL    HW150113   5.100   7.197   0.041
16224SOL    HW250114   5.233   7.264   0.018
16225SOL     OW50115   4.093   6.894   1.492
16225SOL    HW150116   4.075   6.970   1.436
16225SOL    HW250117   4.017   6.837   1.479
16226SOL     OW50118   5.333   6.872   1.282
16226SOL    HW150119   5.384   6.849   1.360
16226SOL    HW250120   5.270   6.938   1.313
16227SOL     OW50121   4.792   6.699   0.716
16227SOL    HW150122   4.717   6.650   0.751
16227SOL    HW250123   4.855   6.632   0.692
16228SOL     OW50124   4.753   5.829   0.961
16228SOL    HW150125   4.749   5.783   0.877
16228SOL    HW250126   4.746   5.760   1.026
16229SOL     OW50127   4.330   7.066   0.476
16229SOL    HW150128   4.372   7.016   0.406
16229SOL    HW250129   4.246   7.094   0.439
16230SOL     OW50130   5.451   5.982   1.374
16230SOL    HW150131   5.525   6.042   1.378
16230SOL    HW250132   5.480   5.910   1.319
16231SOL     OW50133   3.991   6.912   0.317
16231SOL    HW150134   3.906   6.914   0.273
16231SOL    HW250135   3.977   6.963   0.397
16232SOL     OW50136   3.839   6.637   1.732
16232SOL    HW150137   3.762   6.605   1.779
16232SOL    HW250138   3.912   6.587   1.768
16233SOL     OW50139   4.402   5.781   1.497
16233SOL    HW150140   4.487   5.755   1.461
16233SOL    HW250141   4.422   5.810   1.586
16234SOL     OW50142   5.146   6.443   1.394
16234SOL    HW150143   5.095   6.502   1.339
16234SOL    HW250144   5.234   6.445   1.356
16235SOL     OW50145   3.790   5.731   0.305
16235SOL    HW150146   3.796   5.827   0.313
16235SOL    HW250147   3.876   5.705   0.272
16236SOL     OW50148   4.919   6.925   0.121
16236SOL    HW150149   4.825   6.911   0.108
16236SOL    HW250150   4.932   6.912   0.214
16237SOL     OW50151   4.346   6.414   1.438
16237SOL    HW150152   4.404   6.489   1.426
16237SOL    HW250153   4.404   6.339   1.443
16238SOL     OW50154   5.208   7.376   0.987
16238SOL    HW150155   5.233   7.446   0.926
16238SOL    HW250156   5.291   7.338   1.016
16239SOL     OW50157   4.451   6.136   1.694
16239SOL    HW150158   4.493   6.189   1.762
16239SOL    HW250159   4.459   6.046   1.726
16240SOL     OW50160   5.196   6.777   1.629
16240SOL    HW150161   5.188   6.795   1.723
16240SOL    HW250162   5.288   6.796   1.609
16241SOL     OW50163   4.089   7.323   1.569
16241SOL    HW150164   4.008   7.371   1.553
16241SOL    HW250165   4.062   7.241   1.610
16242SOL     OW50166   5.386   6.463   1.255
16242SOL    HW150167   5.381   6.377   1.213
16242SOL    HW250168   5.376   6.525   1.183
16243SOL     OW50169   4.947   5.901   0.456
16243SOL    HW150170   5.005   5.825   0.451
16243SOL    HW250171   4.975   5.948   0.535
16244SOL     OW50172   4.310   6.317   0.676
16244SOL    HW150173   4.349   6.403   0.661
16244SOL    HW250174   4.244   6.308   0.607
16245SOL     OW50175   5.473   5.950   1.648
16245SOL    HW150176   5.456   5.966   1.555
16245SOL    HW250177   5.403   5.891   1.676
16246SOL     OW50178   5.484   6.519   1.506
16246SOL    HW150179   5.460   6.611   1.518
16246SOL    HW250180   5.459   6.500   1.415
16247SOL     OW50181   4.646   6.941   0.064
16247SOL    HW150182   4.588   6.924   0.138
16247SOL    HW250183   4.623   7.029   0.035
16248SOL     OW50184   4.386   7.370   0.926
16248SOL    HW150185   4.370   7.463   0.914
16248SOL    HW250186   4.482   7.362   0.925
16249SOL     OW50187   4.596   6.561   0.855
16249SOL    HW150188   4.644   6.487   0.892
16249SOL    HW250189   4.552   6.600   0.930
16250SOL     OW50190   4.812   6.568   0.069
16250SOL    HW150191   4.853   6.639   0.020
16250SOL    HW250192   4.881   6.502   0.078
16251SOL     OW50193   5.566   7.138   0.838
16251SOL    HW150194   5.482   7.127   0.793
16251SOL    HW250195   5.566   7.070   0.906
16252SOL     OW50196   3.947   6.876   1.845
16252SOL    HW150197   3.903   6.801   1.805
16252SOL    HW250198   3.903   6.888   1.929
16253SOL     OW50199   3.816   6.820   0.671
16253SOL    HW150200   3.823   6.773   0.754
16253SOL    HW250201   3.877   6.776   0.613
16254SOL     OW50202   4.413   7.001   1.630
16254SOL    HW150203   4.338   6.954   1.666
16254SOL    HW250204   4.409   7.088   1.671
16255SOL     OW50205   5.537   5.773   1.231
16255SOL    HW150206   5.532   5.679   1.252
16255SOL    HW250207   5.551   5.776   1.136
16256SOL     OW50208   4.146   6.018   0.527
16256SOL    HW150209   4.185   5.948   0.475
16256SOL    HW250210   4.099   5.972   0.597
16257SOL     OW50211   5.417   7.071   1.093
16257SOL    HW150212   5.340   7.050   1.040
16257SOL    HW250213   5.420   7.002   1.159
16258SOL     OW50214   4.066   6.147   1.292
16258SOL    HW150215   4.114   6.086   1.347
16258SOL    HW250216   4.078   6.115   1.203
16259SOL     OW50217   4.557   7.162   0.677
16259SOL    HW150218   4.523   7.232   0.620
16259SOL    HW250219   4.484   7.100   0.685
16260SOL     OW50220   5.151   5.815   1.116
16260SOL    HW150221   5.158   5.729   1.156
16260SOL    HW250222   5.103   5.868   1.181
16261SOL     OW50223   4.735   5.606   1.130
16261SOL    HW150224   4.674   5.541   1.096
16261SOL    HW250225   4.820   5.563   1.128
16262SOL     OW50226   4.514   6.909   0.309
16262SOL    HW150227   4.477   6.822   0.326
16262SOL    HW250228   4.586   6.917   0.372
16263SOL     OW50229   4.344   7.146   1.285
16263SOL    HW150230   4.342   7.226   1.337
16263SOL    HW250231   4.433   7.141   1.251
16264SOL     OW50232   5.093   5.629   0.175
16264SOL    HW150233   5.082   5.559   0.110
16264SOL    HW250234   5.006   5.669   0.181
16265SOL     OW50235   5.021   6.049   0.675
16265SOL    HW150236   4.967   6.128   0.677
16265SOL    HW250237   5.015   6.015   0.765
16266SOL     OW50238   5.309   5.776   0.891
16266SOL    HW150239   5.254   5.800   0.965
16266SOL    HW250240   5.306   5.852   0.833
16267SOL     OW50241   3.767   6.659   0.342
16267SOL    HW150242   3.858   6.656   0.313
16267SOL    HW250243   3.750   6.573   0.378
16268SOL     OW50244   4.602   7.248   0.346
16268SOL    HW150245   4.519   7.220   0.308
16268SOL    HW250246   4.578   7.313   0.412
16269SOL     OW50247   3.937   6.219   1.998
16269SOL    HW150248   3.852   6.205   2.040
16269SOL    HW250249   3.925   6.191   1.907
16270SOL     OW50250   3.945   5.876   2.856
16270SOL    HW150251   3.974   5.840   2.940
16270SOL    HW250252   3.859   5.835   2.842
16271SOL     OW50253   3.715   5.980   2.499
16271SOL    HW150254   3.636   6.005   2.548
16271SOL    HW250255   3.691   5.900   2.453
16272SOL     OW50256   4.304   6.886   3.058
16272SOL    HW150257   4.216   6.877   3.021
16272SOL    HW250258   4.310   6.978   3.084
16273SOL     OW50259   5.302   7.103   2.583
16273SOL    HW150260   5.259   7.075   2.664
16273SOL    HW250261   5.232   7.108   2.519
16274SOL     OW50262   4.862   6.281   2.549
16274SOL    HW150263   4.902   6.368   2.551
16274SOL    HW250264   4.807   6.279   2.627
16275SOL     OW50265   5.517   6.179   2.084
16275SOL    HW150266   5.485   6.172   1.994
16275SOL    HW250267   5.473   6.108   2.130
16276SOL     OW50268   4.494   6.734   2.924
16276SOL    HW150269   4.423   6.762   2.982
16276SOL    HW250270   4.517   6.813   2.874
16277SOL     OW50271   4.614   6.339   3.703
16277SOL    HW150272   4.586   6.405   3.766
16277SOL    HW250273   4.626   6.388   3.621
16278SOL     OW50274   4.412   6.584   2.503
16278SOL    HW150275   4.476   6.574   2.574
16278SOL    HW250276   4.342   6.637   2.541
16279SOL     OW50277   4.442   6.744   3.682
16279SOL    HW150278   4.481   6.826   3.713
16279SOL    HW250279   4.357   6.770   3.646
16280SOL     OW50280   4.057   6.997   2.929
16280SOL    HW150281   3.981   6.954   2.889
16280SOL    HW250282   4.096   7.047   2.857
16281SOL     OW50283   5.141   7.107   3.295
16281SOL    HW150284   5.180   7.182   3.249
16281SOL    HW250285   5.198   7.094   3.371
16282SOL     OW50286   4.172   5.970   3.333
16282SOL    HW150287   4.250   5.915   3.345
16282SOL    HW250288   4.100   5.916   3.365
16283SOL     OW50289   5.316   6.028   2.613
16283SOL    HW150290   5.238   6.034   2.558
16283SOL    HW250291   5.298   6.087   2.686
16284SOL     OW50292   3.939   7.311   2.329
16284SOL    HW150293   3.965   7.383   2.386
16284SOL    HW250294   4.015   7.297   2.272
16285SOL     OW50295   4.897   6.883   3.571
16285SOL    HW150296   4.912   6.893   3.665
16285SOL    HW250297   4.829   6.816   3.565
16286SOL     OW50298   3.962   7.034   2.401
16286SOL    HW150299   3.931   7.124   2.411
16286SOL    HW250300   3.909   6.984   2.463
16287SOL     OW50301   4.009   6.676   2.764
16287SOL    HW150302   4.001   6.585   2.792
16287SOL    HW250303   3.944   6.723   2.816
16288SOL     OW50304   4.336   7.362   3.319
16288SOL    HW150305   4.247   7.349   3.352
16288SOL    HW250306   4.352   7.456   3.330
16289SOL     OW50307   4.295   6.571   2.006
16289SOL    HW150308   4.347   6.613   1.937
16289SOL    HW250309   4.334   6.602   2.088
16290SOL     OW50310   5.328   5.718   3.324
16290SOL    HW150311   5.318   5.804   3.284
16290SOL    HW250312   5.295   5.729   3.414
16291SOL     OW50313   3.843   6.243   2.423
16291SOL    HW150314   3.812   6.155   2.443
16291SOL    HW250315   3.836   6.291   2.505
16292SOL     OW50316   5.596   7.307   2.155
16292SOL    HW150317   5.667   7.295   2.218
16292SOL    HW250318   5.589   7.402   2.144
16293SOL     OW50319   3.772   7.171   1.975
16293SOL    HW150320   3.751   7.080   1.993
16293SOL    HW250321   3.742   7.218   2.053
16294SOL     OW50322   5.424   6.510   2.518
16294SOL    HW150323   5.502   6.458   2.502
16294SOL    HW250324   5.401   6.548   2.433
16295SOL     OW50325   5.382   6.684   2.289
16295SOL    HW150326   5.471   6.670   2.256
16295SOL    HW250327   5.392   6.756   2.351
16296SOL     OW50328   3.848   6.326   3.435
16296SOL    HW150329   3.938   6.354   3.449
16296SOL    HW250330   3.796   6.405   3.448
16297SOL     OW50331   4.347   6.980   2.597
16297SOL    HW150332   4.302   6.896   2.606
16297SOL    HW250333   4.329   7.006   2.506
16298SOL     OW50334   5.029   6.829   3.281
16298SOL    HW150335   5.040   6.756   3.220
16298SOL    HW250336   5.081   6.804   3.358
16299SOL     OW50337   4.552   5.602   2.365
16299SOL    HW150338   4.587   5.689   2.351
16299SOL    HW250339   4.458   5.615   2.377
16300SOL     OW50340   3.913   6.542   3.135
16300SOL    HW150341   3.998   6.501   3.123
16300SOL    HW250342   3.850   6.476   3.106
16301SOL     OW50343   5.258   6.592   2.061
16301SOL    HW150344   5.187   6.534   2.089
16301SOL    HW250345   5.301   6.618   2.143
16302SOL     OW50346   4.910   7.397   3.464
16302SOL    HW150347   4.912   7.478   3.413
16302SOL    HW250348   4.835   7.349   3.429
16303SOL     OW50349   4.073   5.860   3.684
16303SOL    HW150350   4.109   5.929   3.739
16303SOL    HW250351   3.985   5.844   3.720
16304SOL     OW50352   5.191   6.997   2.810
16304SOL    HW150353   5.127   7.012   2.880
16304SOL    HW250354   5.173   6.908   2.780
16305SOL     OW50355   5.393   7.329   2.420
16305SOL    HW150356   5.338   7.283   2.357
16305SOL    HW250357   5.384   7.279   2.501
16306SOL     OW50358   4.312   6.294   2.133
16306SOL    HW150359   4.311   6.382   2.094
16306SOL    HW250360   4.248   6.300   2.204
16307SOL     OW50361   5.001   5.959   2.794
16307SOL    HW150362   4.913   5.923   2.802
16307SOL    HW250363   5.054   5.904   2.852
16308SOL     OW50364   5.301   7.250   2.151
16308SOL    HW150365   5.336   7.340   2.155
16308SOL    HW250366   5.254   7.246   2.068
16309SOL     OW50367   4.515   6.205   3.306
16309SOL    HW150368   4.497   6.175   3.395
16309SOL    HW250369   4.487   6.132   3.251
16310SOL     OW50370   5.128   6.060   3.542
16310SOL    HW150371   5.129   6.100   3.630
16310SOL    HW250372   5.169   5.975   3.554
16311SOL     OW50373   4.675   6.466   3.455
16311SOL    HW150374   4.727   6.396   3.417
16311SOL    HW250375   4.619   6.496   3.383
16312SOL     OW50376   4.726   6.000   3.079
16312SOL    HW150377   4.637   6.011   3.113
16312SOL    HW250378   4.718   5.926   3.018
16313SOL     OW50379   4.780   6.290   2.282
16313SOL    HW150380   4.801   6.280   2.375
16313SOL    HW250381   4.696   6.244   2.271
16314SOL     OW50382   3.816   6.419   2.634
16314SOL    HW150383   3.894   6.402   2.687
16314SOL    HW250384   3.771   6.489   2.679
16315SOL     OW50385   3.847   7.456   3.450
16315SOL    HW150386   3.850   7.437   3.543
16315SOL    HW250387   3.767   7.414   3.419
16316SOL     OW50388   4.614   5.938   2.059
16316SOL    HW150389   4.662   5.988   1.993
16316SOL    HW250390   4.595   5.854   2.017
16317SOL     OW50391   5.445   6.154   3.689
16317SOL    HW150392   5.403   6.226   3.642
16317SOL    HW250393   5.457   6.085   3.623
16318SOL     OW50394   5.115   6.735   2.412
16318SOL    HW150395   5.188   6.714   2.354
16318SOL    HW250396   5.056   6.788   2.359
16319SOL     OW50397   4.295   5.782   2.767
16319SOL    HW150398   4.289   5.797   2.861
16319SOL    HW250399   4.279   5.867   2.727
16320SOL     OW50400   4.723   7.035   2.328
16320SOL    HW150401   4.694   7.109   2.273
16320SOL    HW250402   4.690   7.057   2.415
16321SOL     OW50403   4.076   7.400   2.733
16321SOL    HW150404   4.119   7.315   2.740
16321SOL    HW250405   4.143   7.463   2.758
16322SOL     OW50406   5.528   6.654   2.732
16322SOL    HW150407   5.480   6.616   2.658
16322SOL    HW250408   5.465   6.655   2.804
16323SOL     OW50409   4.029   6.545   2.120
16323SOL    HW150410   4.112   6.560   2.075
16323SOL    HW250411   4.004   6.456   2.094
16324SOL     OW50412   5.205   6.344   2.582
16324SOL    HW150413   5.201   6.292   2.663
16324SOL    HW250414   5.288   6.391   2.589
16325SOL     OW50415   4.203   6.862   3.597
16325SOL    HW150416   4.174   6.868   3.506
16325SOL    HW250417   4.123   6.844   3.646
16326SOL     OW50418   4.857   7.359   2.091
16326SOL    HW150419   4.776   7.329   2.132
16326SOL    HW250420   4.875   7.295   2.022
16327SOL     OW50421   3.916   5.843   3.368
16327SOL    HW150422   3.831   5.883   3.387
16327SOL    HW250423   3.905   5.752   3.396
16328SOL     OW50424   5.342   7.006   1.965
16328SOL    HW150425   5.294   7.079   1.925
16328SOL    HW250426   5.289   6.929   1.946
16329SOL     OW50427   4.183   7.327   2.176
16329SOL    HW150428   4.230   7.375   2.245
16329SOL    HW250429   4.251   7.282   2.127
16330SOL     OW50430   5.123   5.699   2.303
16330SOL    HW150431   5.118   5.666   2.213
16330SOL    HW250432   5.213   5.682   2.329
16331SOL     OW50433   3.986   7.377   3.082
16331SOL    HW150434   4.025   7.298   3.120
16331SOL    HW250435   3.962   7.351   2.992
16332SOL     OW50436   4.663   7.288   2.754
16332SOL    HW150437   4.736   7.235   2.785
16332SOL    HW250438   4.624   7.236   2.684
16333SOL     OW50439   4.119   6.277   2.334
16333SOL    HW150440   4.135   6.184   2.348
16333SOL    HW250441   4.026   6.289   2.353
16334SOL     OW50442   5.239   5.801   3.585
16334SOL    HW150443   5.250   5.823   3.678
16334SOL    HW250444   5.177   5.729   3.584
16335SOL     OW50445   4.379   5.700   1.962
16335SOL    HW150446   4.413   5.621   2.003
16335SOL    HW250447   4.322   5.668   1.892
16336SOL     OW50448   4.487   5.865   3.621
16336SOL    HW150449   4.569   5.816   3.613
16336SOL    HW250450   4.437   5.817   3.687
16337SOL     OW50451   4.605   7.117   3.057
16337SOL    HW150452   4.583   7.076   2.974
16337SOL    HW250453   4.668   7.057   3.098
16338SOL     OW50454   5.064   6.176   3.302
16338SOL    HW150455   5.094   6.139   3.385
16338SOL    HW250456   5.103   6.264   3.300
16339SOL     OW50457   4.548   6.980   2.809
16339SOL    HW150458   4.632   6.967   2.765
16339SOL    HW250459   4.484   6.985   2.738
16340SOL     OW50460   4.662   6.106   2.756
16340SOL    HW150461   4.636   6.088   2.666
16340SOL    HW250462   4.683   6.020   2.793
16341SOL     OW50463   4.282   5.652   2.354
16341SOL    HW150464   4.207   5.649   2.414
16341SOL    HW250465   4.263   5.726   2.297
16342SOL     OW50466   5.167   6.801   1.907
16342SOL    HW150467   5.193   6.722   1.953
16342SOL    HW250468   5.077   6.817   1.934
16343SOL     OW50469   4.018   5.638   2.051
16343SOL    HW150470   4.080   5.711   2.048
16343SOL    HW250471   4.065   5.568   2.095
16344SOL     OW50472   4.671   5.850   2.317
16344SOL    HW150473   4.650   5.881   2.229
16344SOL    HW250474   4.766   5.859   2.324
16345SOL     OW50475   4.803   6.270   3.313
16345SOL    HW150476   4.737   6.202   3.328
16345SOL    HW250477   4.887   6.224   3.316
16346SOL     OW50478   4.949   7.157   2.655
16346SOL    HW150479   4.956   7.227   2.589
16346SOL    HW250480   5.012   7.182   2.723
16347SOL     OW50481   4.201   6.746   2.586
16347SOL    HW150482   4.139   6.722   2.655
16347SOL    HW250483   4.152   6.734   2.504
16348SOL     OW50484   4.984   7.373   2.477
16348SOL    HW150485   5.032   7.437   2.425
16348SOL    HW250486   4.912   7.422   2.516
16349SOL     OW50487   4.755   6.109   1.886
16349SOL    HW150488   4.709   6.192   1.873
16349SOL    HW250489   4.812   6.125   1.962
16350SOL     OW50490   3.809   6.145   3.239
16350SOL    HW150491   3.902   6.134   3.220
16350SOL    HW250492   3.806   6.209   3.310
16351SOL     OW50493   4.283   5.813   3.043
16351SOL    HW150494   4.323   5.739   3.089
16351SOL    HW250495   4.191   5.811   3.069
16352SOL     OW50496   4.597   6.052   2.498
16352SOL    HW150497   4.544   6.102   2.436
16352SOL    HW250498   4.618   5.971   2.452
16353SOL     OW50499   4.747   5.627   2.597
16353SOL    HW150500   4.683   5.617   2.527
16353SOL    HW250501   4.724   5.560   2.661
16354SOL     OW50502   5.147   6.741   2.712
16354SOL    HW150503   5.093   6.664   2.728
16354SOL    HW250504   5.150   6.749   2.616
16355SOL     OW50505   5.188   6.193   2.820
16355SOL    HW150506   5.123   6.123   2.830
16355SOL    HW250507   5.243   6.186   2.899
16356SOL     OW50508   5.556   6.391   2.249
16356SOL    HW150509   5.613   6.344   2.310
16356SOL    HW250510   5.535   6.327   2.181
16357SOL     OW50511   4.214   7.009   2.012
16357SOL    HW150512   4.138   6.981   2.064
16357SOL    HW250513   4.211   6.955   1.934
16358SOL     OW50514   5.430   6.884   2.459
16358SOL    HW150515   5.514   6.864   2.499
16358SOL    HW250516   5.390   6.949   2.517
16359SOL     OW50517   5.116   6.156   1.936
16359SOL    HW150518   5.049   6.137   2.002
16359SOL    HW250519   5.195   6.112   1.969
16360SOL     OW50520   4.239   5.844   2.159
16360SOL    HW150521   4.300   5.805   2.097
16360SOL    HW250522   4.214   5.928   2.120
16361SOL     OW50523   5.469   6.832   3.421
16361SOL    HW150524   5.548   6.783   3.439
16361SOL    HW250525   5.490   6.922   3.446
16362SOL     OW50526   4.773   6.956   3.240
16362SOL    HW150527   4.685   6.923   3.256
16362SOL    HW250528   4.826   6.877   3.225
16363SOL     OW50529   5.314   7.189   3.504
16363SOL    HW150530   5.321   7.246   3.428
16363SOL    HW250531   5.400   7.149   3.513
16364SOL     OW50532   4.841   6.815   2.965
16364SOL    HW150533   4.757   6.771   2.981
16364SOL    HW250534   4.833   6.851   2.877
16365SOL     OW50535   5.346   6.684   2.932
16365SOL    HW150536   5.340   6.744   3.007
16365SOL    HW250537   5.266   6.699   2.883
16366SOL     OW50538   4.630   5.698   3.241
16366SOL    HW150539   4.660   5.667   3.155
16366SOL    HW250540   4.709   5.728   3.285
16367SOL     OW50541   4.699   6.700   3.581
16367SOL    HW150542   4.609   6.714   3.611
16367SOL    HW250543   4.696   6.618   3.531
16368SOL     OW50544   4.437   6.652   2.232
16368SOL    HW150545   4.422   6.629   2.324
16368SOL    HW250546   4.511   6.597   2.206
16369SOL     OW50547   4.149   6.401   3.112
16369SOL    HW150548   4.212   6.411   3.184
16369SOL    HW250549   4.115   6.312   3.123
16370SOL     OW50550   4.993   5.969   3.136
16370SOL    HW150551   5.021   6.043   3.191
16370SOL    HW250552   4.902   5.988   3.115
16371SOL     OW50553   3.799   7.164   3.228
16371SOL    HW150554   3.766   7.228   3.164
16371SOL    HW250555   3.893   7.160   3.212
16372SOL     OW50556   4.054   6.712   2.353
16372SOL    HW150557   4.049   6.782   2.287
16372SOL    HW250558   4.051   6.631   2.302
16373SOL     OW50559   4.271   6.106   2.715
16373SOL    HW150560   4.287   6.167   2.643
16373SOL    HW250561   4.335   6.130   2.782
16374SOL     OW50562   4.972   6.940   2.256
16374SOL    HW150563   5.026   7.007   2.298
16374SOL    HW250564   4.883   6.958   2.286
16375SOL     OW50565   5.016   7.036   3.021
16375SOL    HW150566   5.050   7.028   3.110
16375SOL    HW250567   4.951   6.965   3.014
16376SOL     OW50568   5.292   6.208   2.342
16376SOL    HW150569   5.243   6.240   2.418
16376SOL    HW250570   5.331   6.287   2.303
16377SOL     OW50571   4.067   7.123   3.164
16377SOL    HW150572   4.055   7.071   3.084
16377SOL    HW250573   4.161   7.132   3.174
16378SOL     OW50574   4.132   6.334   3.470
16378SOL    HW150575   4.203   6.364   3.413
16378SOL    HW250576   4.154   6.243   3.489
16379SOL     OW50577   5.343   6.367   3.553
16379SOL    HW150578   5.255   6.404   3.551
16379SOL    HW250579   5.389   6.411   3.482
16380SOL     OW50580   4.715   5.722   3.607
16380SOL    HW150581   4.795   5.768   3.582
16380SOL    HW250582   4.742   5.630   3.612
16381SOL     OW50583   4.224   5.640   3.607
16381SOL    HW150584   4.172   5.578   3.557
16381SOL    HW250585   4.164   5.714   3.624
16382SOL     OW50586   4.308   6.457   2.896
16382SOL    HW150587   4.329   6.550   2.906
16382SOL    HW250588   4.252   6.437   2.971
16383SOL     OW50589   5.053   6.447   2.879
16383SOL    HW150590   4.965   6.418   2.855
16383SOL    HW250591   5.107   6.369   2.870
16384SOL     OW50592   4.916   6.115   2.119
16384SOL    HW150593   4.928   6.038   2.174
16384SOL    HW250594   4.873   6.179   2.176
16385SOL     OW50595   4.018   5.792   3.108
16385SOL    HW150596   3.980   5.814   3.193
16385SOL    HW250597   4.002   5.698   3.098
16386SOL     OW50598   3.788   6.900   3.132
16386SOL    HW150599   3.813   6.838   3.200
16386SOL    HW250600   3.777   6.983   3.178
16387SOL     OW50601   4.442   6.209   2.904
16387SOL    HW150602   4.520   6.198   2.851
16387SOL    HW250603   4.414   6.299   2.887
16388SOL     OW50604   5.462   6.557   3.718
16388SOL    HW150605   5.428   6.479   3.674
16388SOL    HW250606   5.405   6.569   3.794
16389SOL     OW50607   4.042   5.651   2.490
16389SOL    HW150608   4.013   5.739   2.515
16389SOL    HW250609   4.051   5.604   2.572
16390SOL     OW50610   5.360   5.974   2.214
16390SOL    HW150611   5.382   5.904   2.276
16390SOL    HW250612   5.327   6.045   2.269
16391SOL     OW50613   4.760   6.350   2.829
16391SOL    HW150614   4.741   6.363   2.922
16391SOL    HW250615   4.733   6.260   2.811
16392SOL     OW50616   4.757   7.135   3.529
16392SOL    HW150617   4.706   7.185   3.465
16392SOL    HW250618   4.694   7.074   3.568
16393SOL     OW50619   5.567   7.089   3.466
16393SOL    HW150620   5.598   7.115   3.379
16393SOL    HW250621   5.645   7.098   3.521
16394SOL     OW50622   4.076   6.527   3.655
16394SOL    HW150623   4.144   6.523   3.723
16394SOL    HW250624   4.097   6.456   3.596
16395SOL     OW50625   5.246   5.866   1.986
16395SOL    HW150626   5.189   5.794   2.014
16395SOL    HW250627   5.286   5.898   2.067
16396SOL     OW50628   5.010   6.408   1.890
16396SOL    HW150629   5.049   6.321   1.898
16396SOL    HW250630   5.044   6.442   1.807
16397SOL     OW50631   4.800   6.930   2.718
16397SOL    HW150632   4.804   6.857   2.656
16397SOL    HW250633   4.856   6.997   2.679
16398SOL     OW50634   4.033   6.394   2.802
16398SOL    HW150635   4.128   6.407   2.803
16398SOL    HW250636   4.022   6.304   2.835
16399SOL     OW50637   4.047   6.121   2.866
16399SOL    HW150638   4.010   6.032   2.861
16399SOL    HW250639   4.125   6.117   2.810
16400SOL     OW50640   4.863   5.978   3.524
16400SOL    HW150641   4.813   6.014   3.598
16400SOL    HW250642   4.952   6.011   3.536
16401SOL     OW50643   4.873   5.793   3.323
16401SOL    HW150644   4.864   5.855   3.396
16401SOL    HW250645   4.925   5.839   3.258
16402SOL     OW50646   3.739   6.896   2.048
16402SOL    HW150647   3.650   6.914   2.017
16402SOL    HW250648   3.733   6.809   2.087
16403SOL     OW50649   3.813   7.362   2.806
16403SOL    HW150650   3.781   7.284   2.759
16403SOL    HW250651   3.901   7.376   2.771
16404SOL     OW50652   4.213   7.162   2.761
16404SOL    HW150653   4.282   7.224   2.784
16404SOL    HW250654   4.256   7.097   2.705
16405SOL     OW50655   4.682   6.376   3.090
16405SOL    HW150656   4.741   6.351   3.161
16405SOL    HW250657   4.603   6.323   3.105
16406SOL     OW50658   3.760   6.161   2.970
16406SOL    HW150659   3.836   6.128   2.923
16406SOL    HW250660   3.782   6.150   3.062
16407SOL     OW50661   3.908   6.111   3.606
16407SOL    HW150662   3.949   6.042   3.553
16407SOL    HW250663   3.873   6.173   3.542
16408SOL     OW50664   5.110   6.515   3.523
16408SOL    HW150665   5.130   6.609   3.521
16408SOL    HW250666   5.107   6.489   3.431
16409SOL     OW50667   4.546   6.163   2.222
16409SOL    HW150668   4.551   6.084   2.169
16409SOL    HW250669   4.465   6.206   2.193
16410SOL     OW50670   5.362   6.193   3.035
16410SOL    HW150671   5.353   6.130   3.107
16410SOL    HW250672   5.450   6.178   3.002
16411SOL     OW50673   3.960   7.128   3.590
16411SOL    HW150674   3.939   7.179   3.668
16411SOL    HW250675   3.970   7.038   3.621
16412SOL     OW50676   4.450   6.029   3.112
16412SOL    HW150677   4.390   5.954   3.101
16412SOL    HW250678   4.431   6.086   3.037
16413SOL     OW50679   4.668   7.276   3.315
16413SOL    HW150680   4.642   7.228   3.237
16413SOL    HW250681   4.639   7.366   3.299
16414SOL     OW50682   4.174   6.075   2.024
16414SOL    HW150683   4.236   6.141   2.054
16414SOL    HW250684   4.089   6.119   2.025
16415SOL     OW50685   3.883   6.729   3.330
16415SOL    HW150686   3.871   6.686   3.414
16415SOL    HW250687   3.892   6.658   3.267
16416SOL     OW50688   5.037   6.643   3.071
16416SOL    HW150689   5.052   6.573   3.008
16416SOL    HW250690   4.971   6.699   3.031
16417SOL     OW50691   5.043   6.451   2.164
16417SOL    HW150692   4.978   6.411   2.221
16417SOL    HW250693   5.014   6.431   2.076
16418SOL     OW50694   5.504   7.323   3.019
16418SOL    HW150695   5.565   7.344   2.949
16418SOL    HW250696   5.475   7.234   3.000
16419SOL     OW50697   4.963   7.307   2.961
16419SOL    HW150698   5.047   7.336   2.925
16419SOL    HW250699   4.978   7.216   2.986
16420SOL     OW50700   3.814   6.860   2.866
16420SOL    HW150701   3.799   6.870   2.960
16420SOL    HW250702   3.747   6.797   2.838
16421SOL     OW50703   4.402   7.269   3.590
16421SOL    HW150704   4.337   7.336   3.610
16421SOL    HW250705   4.425   7.283   3.498
16422SOL     OW50706   5.453   5.752   2.365
16422SOL    HW150707   5.521   5.730   2.301
16422SOL    HW250708   5.431   5.668   2.405
16423SOL     OW50709   5.125   7.158   2.362
16423SOL    HW150710   5.156   7.193   2.278
16423SOL    HW250711   5.066   7.226   2.396
16424SOL     OW50712   3.861   7.397   3.714
16424SOL    HW150713   3.817   7.322   3.754
16424SOL    HW250714   3.897   7.445   3.788
16425SOL     OW50715   5.001   6.519   2.538
16425SOL    HW150716   5.072   6.456   2.550
16425SOL    HW250717   5.039   6.588   2.483
16426SOL     OW50718   4.515   6.869   3.263
16426SOL    HW150719   4.486   6.909   3.345
16426SOL    HW250720   4.437   6.870   3.207
16427SOL     OW50721   4.391   7.215   2.018
16427SOL    HW150722   4.402   7.230   1.924
16427SOL    HW250723   4.336   7.136   2.023
16428SOL     OW50724   5.329   7.318   3.249
16428SOL    HW150725   5.389   7.319   3.174
16428SOL    HW250726   5.319   7.410   3.273
16429SOL     OW50727   5.573   5.750   2.824
16429SOL    HW150728   5.599   5.660   2.806
16429SOL    HW250729   5.484   5.757   2.790
16430SOL     OW50730   3.976   5.905   2.576
16430SOL    HW150731   3.887   5.935   2.556
16430SOL    HW250732   3.976   5.895   2.672
16431SOL     OW50733   4.931   7.180   1.895
16431SOL    HW150734   4.919   7.090   1.925
16431SOL    HW250735   4.862   7.193   1.830
16432SOL     OW50736   4.542   6.590   3.247
16432SOL    HW150737   4.583   6.567   3.164
16432SOL    HW250738   4.538   6.685   3.247
16433SOL     OW50739   4.644   6.502   2.146
16433SOL    HW150740   4.709   6.536   2.085
16433SOL    HW250741   4.690   6.433   2.194
16434SOL     OW50742   5.199   7.241   1.897
16434SOL    HW150743   5.107   7.220   1.882
16434SOL    HW250744   5.237   7.243   1.809
16435SOL     OW50745   4.097   6.900   3.352
16435SOL    HW150746   4.073   6.973   3.295
16435SOL    HW250747   4.025   6.837   3.340
16436SOL     OW50748   5.327   6.870   3.146
16436SOL    HW150749   5.397   6.854   3.209
16436SOL    HW250750   5.251   6.894   3.199
16437SOL     OW50751   4.791   6.699   2.578
16437SOL    HW150752   4.716   6.651   2.613
16437SOL    HW250753   4.855   6.631   2.557
16438SOL     OW50754   4.755   5.822   2.821
16438SOL    HW150755   4.748   5.776   2.738
16438SOL    HW250756   4.746   5.754   2.887
16439SOL     OW50757   4.331   7.072   2.339
16439SOL    HW150758   4.381   7.022   2.273
16439SOL    HW250759   4.244   7.083   2.300
16440SOL     OW50760   5.448   5.992   3.232
16440SOL    HW150761   5.525   6.048   3.237
16440SOL    HW250762   5.477   5.916   3.182
16441SOL     OW50763   3.993   6.929   2.159
16441SOL    HW150764   3.902   6.921   2.130
16441SOL    HW250765   3.986   6.971   2.245
16442SOL     OW50766   3.834   6.645   3.592
16442SOL    HW150767   3.758   6.611   3.640
16442SOL    HW250768   3.908   6.594   3.625
16443SOL     OW50769   4.397   5.796   3.359
16443SOL    HW150770   4.479   5.767   3.319
16443SOL    HW250771   4.420   5.815   3.450
16444SOL     OW50772   3.811   5.908   1.900
16444SOL    HW150773   3.721   5.889   1.875
16444SOL    HW250774   3.832   5.988   1.852
16445SOL     OW50775   5.146   6.455   3.260
16445SOL    HW150776   5.094   6.509   3.200
16445SOL    HW250777   5.232   6.450   3.219
16446SOL     OW50778   3.780   5.736   2.156
16446SOL    HW150779   3.775   5.816   2.103
16446SOL    HW250780   3.866   5.699   2.135
16447SOL     OW50781   4.904   6.915   1.982
16447SOL    HW150782   4.818   6.874   1.980
16447SOL    HW250783   4.929   6.916   2.074
16448SOL     OW50784   4.340   6.412   3.303
16448SOL    HW150785   4.400   6.486   3.293
16448SOL    HW250786   4.397   6.335   3.308
16449SOL     OW50787   5.208   7.372   2.849
16449SOL    HW150788   5.229   7.448   2.794
16449SOL    HW250789   5.293   7.344   2.884
16450SOL     OW50790   4.460   6.135   3.559
16450SOL    HW150791   4.499   6.181   3.632
16450SOL    HW250792   4.462   6.043   3.585
16451SOL     OW50793   5.200   6.786   3.491
16451SOL    HW150794   5.184   6.793   3.585
16451SOL    HW250795   5.294   6.797   3.482
16452SOL     OW50796   4.089   7.322   3.432
16452SOL    HW150797   4.008   7.370   3.415
16452SOL    HW250798   4.061   7.240   3.473
16453SOL     OW50799   5.382   6.462   3.115
16453SOL    HW150800   5.380   6.373   3.079
16453SOL    HW250801   5.378   6.519   3.038
16454SOL     OW50802   4.949   5.916   2.314
16454SOL    HW150803   5.004   5.838   2.309
16454SOL    HW250804   4.978   5.961   2.392
16455SOL     OW50805   4.314   6.316   2.533
16455SOL    HW150806   4.351   6.403   2.517
16455SOL    HW250807   4.246   6.306   2.466
16456SOL     OW50808   5.470   5.950   3.507
16456SOL    HW150809   5.450   5.965   3.414
16456SOL    HW250810   5.403   5.887   3.535
16457SOL     OW50811   5.472   6.522   3.366
16457SOL    HW150812   5.456   6.616   3.372
16457SOL    HW250813   5.450   6.500   3.276
16458SOL     OW50814   4.587   6.949   1.915
16458SOL    HW150815   4.553   6.959   2.003
16458SOL    HW250816   4.594   7.038   1.881
16459SOL     OW50817   4.387   7.371   2.789
16459SOL    HW150818   4.369   7.464   2.776
16459SOL    HW250819   4.482   7.364   2.787
16460SOL     OW50820   4.596   6.562   2.718
16460SOL    HW150821   4.642   6.485   2.753
16460SOL    HW250822   4.555   6.602   2.795
16461SOL     OW50823   4.815   6.591   1.953
16461SOL    HW150824   4.785   6.630   1.871
16461SOL    HW250825   4.880   6.526   1.926
16462SOL     OW50826   5.572   7.130   2.697
16462SOL    HW150827   5.483   7.118   2.665
16462SOL    HW250828   5.584   7.059   2.760
16463SOL     OW50829   3.945   6.874   3.703
16463SOL    HW150830   3.907   6.798   3.660
16463SOL    HW250831   3.896   6.883   3.784
16464SOL     OW50832   3.824   6.819   2.530
16464SOL    HW150833   3.813   6.772   2.613
16464SOL    HW250834   3.889   6.768   2.482
16465SOL     OW50835   4.420   7.003   3.486
16465SOL    HW150836   4.347   6.951   3.520
16465SOL    HW250837   4.412   7.087   3.532
16466SOL     OW50838   5.542   5.780   3.096
16466SOL    HW150839   5.528   5.690   3.123
16466SOL    HW250840   5.554   5.775   3.001
16467SOL     OW50841   4.149   6.016   2.384
16467SOL    HW150842   4.178   5.941   2.332
16467SOL    HW250843   4.100   5.978   2.456
16468SOL     OW50844   5.412   7.075   2.960
16468SOL    HW150845   5.338   7.050   2.905
16468SOL    HW250846   5.419   7.005   3.025
16469SOL     OW50847   4.069   6.144   3.154
16469SOL    HW150848   4.113   6.083   3.213
16469SOL    HW250849   4.079   6.105   3.067
16470SOL     OW50850   4.561   7.167   2.531
16470SOL    HW150851   4.533   7.240   2.476
16470SOL    HW250852   4.484   7.109   2.536
16471SOL     OW50853   5.150   5.814   2.970
16471SOL    HW150854   5.146   5.722   2.997
16471SOL    HW250855   5.103   5.861   3.040
16472SOL     OW50856   4.733   5.606   2.997
16472SOL    HW150857   4.670   5.535   2.982
16472SOL    HW250858   4.818   5.563   2.994
16473SOL     OW50859   4.504   6.918   2.181
16473SOL    HW150860   4.475   6.828   2.192
16473SOL    HW250861   4.582   6.926   2.236
16474SOL     OW50862   4.344   7.147   3.149
16474SOL    HW150863   4.346   7.221   3.209
16474SOL    HW250864   4.433   7.142   3.113
16475SOL     OW50865   5.093   5.635   2.031
16475SOL    HW150866   5.132   5.555   1.994
16475SOL    HW250867   5.002   5.611   2.048
16476SOL     OW50868   5.033   6.055   2.540
16476SOL    HW150869   4.975   6.131   2.539
16476SOL    HW250870   5.018   6.015   2.625
16477SOL     OW50871   5.314   5.776   2.749
16477SOL    HW150872   5.257   5.795   2.823
16477SOL    HW250873   5.307   5.853   2.692
16478SOL     OW50874   3.767   6.645   2.168
16478SOL    HW150875   3.860   6.632   2.148
16478SOL    HW250876   3.736   6.557   2.191
16479SOL     OW50877   4.618   7.250   2.187
16479SOL    HW150878   4.540   7.232   2.134
16479SOL    HW250879   4.588   7.311   2.254
16480SOL     OW50880   3.940   6.230   3.855
16480SOL    HW150881   3.859   6.208   3.900
16480SOL    HW250882   3.929   6.195   3.767
16481SOL     OW50883   3.942   5.885   4.723
16481SOL    HW150884   3.975   5.844   4.803
16481SOL    HW250885   3.858   5.842   4.707
16482SOL     OW50886   3.718   5.983   4.360
16482SOL    HW150887   3.638   6.006   4.408
16482SOL    HW250888   3.694   5.904   4.312
16483SOL     OW50889   4.301   6.886   4.922
16483SOL    HW150890   4.212   6.880   4.886
16483SOL    HW250891   4.310   6.978   4.946
16484SOL     OW50892   5.302   7.106   4.437
16484SOL    HW150893   5.260   7.076   4.517
16484SOL    HW250894   5.233   7.105   4.371
16485SOL     OW50895   4.862   6.283   4.410
16485SOL    HW150896   4.903   6.369   4.412
16485SOL    HW250897   4.808   6.280   4.489
16486SOL     OW50898   5.518   6.179   3.947
16486SOL    HW150899   5.488   6.172   3.856
16486SOL    HW250900   5.473   6.108   3.993
16487SOL     OW50901   4.472   6.725   4.779
16487SOL    HW150902   4.407   6.761   4.839
16487SOL    HW250903   4.510   6.801   4.735
16488SOL     OW50904   4.556   6.362   5.578
16488SOL    HW150905   4.528   6.340   5.667
16488SOL    HW250906   4.532   6.286   5.525
16489SOL     OW50907   4.411   6.587   4.364
16489SOL    HW150908   4.476   6.574   4.434
16489SOL    HW250909   4.342   6.639   4.405
16490SOL     OW50910   4.442   6.727   5.544
16490SOL    HW150911   4.488   6.806   5.572
16490SOL    HW250912   4.360   6.758   5.506
16491SOL     OW50913   4.054   7.002   4.792
16491SOL    HW150914   3.978   6.959   4.751
16491SOL    HW250915   4.096   7.049   4.720
16492SOL     OW50916   5.179   7.088   5.089
16492SOL    HW150917   5.235   7.165   5.097
16492SOL    HW250918   5.107   7.103   5.151
16493SOL     OW50919   4.177   5.979   5.206
16493SOL    HW150920   4.252   5.920   5.210
16493SOL    HW250921   4.102   5.925   5.231
16494SOL     OW50922   5.316   6.033   4.474
16494SOL    HW150923   5.238   6.036   4.418
16494SOL    HW250924   5.296   6.090   4.548
16495SOL     OW50925   3.945   7.333   4.179
16495SOL    HW150926   3.975   7.396   4.244
16495SOL    HW250927   4.024   7.310   4.130
16496SOL     OW50928   4.881   6.932   5.407
16496SOL    HW150929   4.898   6.904   5.497
16496SOL    HW250930   4.912   6.859   5.353
16497SOL     OW50931   3.955   7.035   4.265
16497SOL    HW150932   3.921   7.120   4.292
16497SOL    HW250933   3.911   6.972   4.322
16498SOL     OW50934   4.008   6.674   4.626
16498SOL    HW150935   4.006   6.581   4.651
16498SOL    HW250936   3.944   6.715   4.684
16499SOL     OW50937   4.316   7.379   5.149
16499SOL    HW150938   4.237   7.359   5.199
16499SOL    HW250939   4.342   7.466   5.179
16500SOL     OW50940   4.293   6.572   3.871
16500SOL    HW150941   4.347   6.610   3.802
16500SOL    HW250942   4.334   6.601   3.953
16501SOL     OW50943   5.331   5.717   5.188
16501SOL    HW150944   5.299   5.797   5.146
16501SOL    HW250945   5.300   5.722   5.278
16502SOL     OW50946   3.843   6.243   4.283
16502SOL    HW150947   3.813   6.154   4.300
16502SOL    HW250948   3.836   6.287   4.367
16503SOL     OW50949   5.567   7.334   4.048
16503SOL    HW150950   5.636   7.311   4.109
16503SOL    HW250951   5.583   7.427   4.028
16504SOL     OW50952   3.770   7.179   3.848
16504SOL    HW150953   3.756   7.085   3.855
16504SOL    HW250954   3.728   7.215   3.926
16505SOL     OW50955   5.424   6.512   4.377
16505SOL    HW150956   5.501   6.458   4.356
16505SOL    HW250957   5.400   6.554   4.295
16506SOL     OW50958   5.379   6.687   4.150
16506SOL    HW150959   5.466   6.681   4.111
16506SOL    HW250960   5.387   6.754   4.217
16507SOL     OW50961   3.844   6.326   5.294
16507SOL    HW150962   3.933   6.356   5.312
16507SOL    HW250963   3.789   6.404   5.304
16508SOL     OW50964   4.349   6.981   4.455
16508SOL    HW150965   4.304   6.897   4.467
16508SOL    HW250966   4.332   7.005   4.364
16509SOL     OW50967   4.997   6.806   5.163
16509SOL    HW150968   5.017   6.743   5.094
16509SOL    HW250969   5.073   6.803   5.221
16510SOL     OW50970   4.558   5.609   4.244
16510SOL    HW150971   4.587   5.697   4.219
16510SOL    HW250972   4.462   5.616   4.246
16511SOL     OW50973   3.913   6.541   4.996
16511SOL    HW150974   3.999   6.502   4.984
16511SOL    HW250975   3.851   6.475   4.964
16512SOL     OW50976   5.257   6.590   3.923
16512SOL    HW150977   5.186   6.533   3.954
16512SOL    HW250978   5.301   6.619   4.003
16513SOL     OW50979   4.912   7.403   5.356
16513SOL    HW150980   4.912   7.466   5.283
16513SOL    HW250981   4.926   7.318   5.314
16514SOL     OW50982   4.065   5.863   5.539
16514SOL    HW150983   4.109   5.920   5.601
16514SOL    HW250984   3.985   5.835   5.583
16515SOL     OW50985   5.194   7.000   4.664
16515SOL    HW150986   5.129   7.018   4.732
16515SOL    HW250987   5.178   6.910   4.638
16516SOL     OW50988   5.370   7.351   4.299
16516SOL    HW150989   5.351   7.309   4.215
16516SOL    HW250990   5.360   7.281   4.363
16517SOL     OW50991   4.309   6.293   3.996
16517SOL    HW150992   4.306   6.381   3.957
16517SOL    HW250993   4.245   6.296   4.067
16518SOL     OW50994   5.000   5.961   4.656
16518SOL    HW150995   4.912   5.924   4.662
16518SOL    HW250996   5.054   5.905   4.713
16519SOL     OW50997   5.299   7.269   4.034
16519SOL    HW150998   5.393   7.286   4.029
16519SOL    HW250999   5.274   7.246   3.944
16520SOL     OW51000   4.510   6.200   5.192
16520SOL    HW151001   4.495   6.162   5.279
16520SOL    HW251002   4.486   6.130   5.131
16521SOL     OW51003   5.130   6.061   5.403
16521SOL    HW151004   5.132   6.097   5.492
16521SOL    HW251005   5.168   5.974   5.411
16522SOL     OW51006   4.696   6.511   5.300
16522SOL    HW151007   4.743   6.432   5.272
16522SOL    HW251008   4.642   6.534   5.224
16523SOL     OW51009   4.724   6.000   4.938
16523SOL    HW151010   4.637   6.009   4.976
16523SOL    HW251011   4.717   5.926   4.878
16524SOL     OW51012   4.778   6.294   4.144
16524SOL    HW151013   4.799   6.282   4.236
16524SOL    HW251014   4.696   6.246   4.131
16525SOL     OW51015   3.818   6.419   4.496
16525SOL    HW151016   3.896   6.400   4.549
16525SOL    HW251017   3.773   6.488   4.544
16526SOL     OW51018   3.848   7.458   5.307
16526SOL    HW151019   3.852   7.439   5.401
16526SOL    HW251020   3.766   7.417   5.278
16527SOL     OW51021   4.609   5.936   3.920
16527SOL    HW151022   4.659   5.978   3.850
16527SOL    HW251023   4.577   5.855   3.882
16528SOL     OW51024   5.451   6.160   5.549
16528SOL    HW151025   5.406   6.230   5.502
16528SOL    HW251026   5.457   6.088   5.485
16529SOL     OW51027   5.114   6.733   4.270
16529SOL    HW151028   5.191   6.715   4.216
16529SOL    HW251029   5.059   6.789   4.216
16530SOL     OW51030   4.290   5.777   4.625
16530SOL    HW151031   4.288   5.798   4.718
16530SOL    HW251032   4.275   5.861   4.581
16531SOL     OW51033   4.720   7.033   4.188
16531SOL    HW151034   4.693   7.110   4.138
16531SOL    HW251035   4.692   7.052   4.278
16532SOL     OW51036   4.074   7.398   4.597
16532SOL    HW151037   4.117   7.313   4.601
16532SOL    HW251038   4.142   7.460   4.624
16533SOL     OW51039   5.530   6.652   4.594
16533SOL    HW151040   5.481   6.617   4.519
16533SOL    HW251041   5.466   6.653   4.666
16534SOL     OW51042   4.947   7.139   5.231
16534SOL    HW151043   4.938   7.073   5.301
16534SOL    HW251044   4.878   7.116   5.169
16535SOL     OW51045   4.027   6.543   3.977
16535SOL    HW151046   4.113   6.554   3.936
16535SOL    HW251047   4.002   6.453   3.954
16536SOL     OW51048   5.204   6.346   4.444
16536SOL    HW151049   5.201   6.293   4.523
16536SOL    HW251050   5.288   6.392   4.450
16537SOL     OW51051   4.199   6.856   5.463
16537SOL    HW151052   4.172   6.862   5.372
16537SOL    HW251053   4.117   6.841   5.511
16538SOL     OW51054   4.854   7.367   3.932
16538SOL    HW151055   4.778   7.335   3.981
16538SOL    HW251056   4.877   7.294   3.874
16539SOL     OW51057   3.923   5.853   5.228
16539SOL    HW151058   3.834   5.888   5.230
16539SOL    HW251059   3.913   5.763   5.259
16540SOL     OW51060   5.353   6.967   3.808
16540SOL    HW151061   5.306   7.051   3.802
16540SOL    HW251062   5.285   6.901   3.794
16541SOL     OW51063   4.180   7.347   4.025
16541SOL    HW151064   4.228   7.392   4.094
16541SOL    HW251065   4.245   7.292   3.981
16542SOL     OW51066   5.121   5.696   4.159
16542SOL    HW151067   5.112   5.663   4.070
16542SOL    HW251068   5.207   5.666   4.188
16543SOL     OW51069   3.984   7.375   4.947
16543SOL    HW151070   4.027   7.302   4.992
16543SOL    HW251071   3.973   7.345   4.857
16544SOL     OW51072   4.662   7.287   4.617
16544SOL    HW151073   4.735   7.235   4.650
16544SOL    HW251074   4.625   7.234   4.546
16545SOL     OW51075   4.118   6.277   4.197
16545SOL    HW151076   4.136   6.184   4.211
16545SOL    HW251077   4.024   6.285   4.216
16546SOL     OW51078   5.235   5.800   5.448
16546SOL    HW151079   5.244   5.820   5.541
16546SOL    HW251080   5.173   5.727   5.445
16547SOL     OW51081   4.379   5.698   3.823
16547SOL    HW151082   4.419   5.617   3.855
16547SOL    HW251083   4.321   5.670   3.752
16548SOL     OW51084   4.501   5.860   5.483
16548SOL    HW151085   4.582   5.811   5.473
16548SOL    HW251086   4.449   5.809   5.545
16549SOL     OW51087   4.602   7.118   4.919
16549SOL    HW151088   4.581   7.074   4.837
16549SOL    HW251089   4.668   7.062   4.960
16550SOL     OW51090   5.059   6.180   5.164
16550SOL    HW151091   5.092   6.141   5.245
16550SOL    HW251092   5.102   6.265   5.159
16551SOL     OW51093   4.546   6.977   4.676
16551SOL    HW151094   4.630   6.963   4.633
16551SOL    HW251095   4.482   6.980   4.604
16552SOL     OW51096   4.659   6.105   4.618
16552SOL    HW151097   4.634   6.088   4.528
16552SOL    HW251098   4.682   6.019   4.653
16553SOL     OW51099   4.287   5.649   4.211
16553SOL    HW151100   4.211   5.643   4.268
16553SOL    HW251101   4.269   5.724   4.154
16554SOL     OW51102   5.152   6.783   3.762
16554SOL    HW151103   5.188   6.709   3.811
16554SOL    HW251104   5.066   6.798   3.801
16555SOL     OW51105   4.028   5.640   3.916
16555SOL    HW151106   4.103   5.700   3.916
16555SOL    HW251107   4.062   5.560   3.957
16556SOL     OW51108   4.673   5.857   4.179
16556SOL    HW151109   4.651   5.882   4.089
16556SOL    HW251110   4.768   5.860   4.183
16557SOL     OW51111   4.799   6.281   5.185
16557SOL    HW151112   4.733   6.214   5.206
16557SOL    HW251113   4.882   6.233   5.184
16558SOL     OW51114   4.943   7.156   4.516
16558SOL    HW151115   4.958   7.225   4.451
16558SOL    HW251116   5.010   7.171   4.583
16559SOL     OW51117   4.199   6.749   4.448
16559SOL    HW151118   4.139   6.723   4.518
16559SOL    HW251119   4.151   6.734   4.367
16560SOL     OW51120   4.984   7.376   4.338
16560SOL    HW151121   5.030   7.442   4.287
16560SOL    HW251122   4.912   7.423   4.380
16561SOL     OW51123   4.760   6.108   3.747
16561SOL    HW151124   4.713   6.191   3.737
16561SOL    HW251125   4.813   6.119   3.826
16562SOL     OW51126   3.811   6.143   5.099
16562SOL    HW151127   3.904   6.133   5.080
16562SOL    HW251128   3.807   6.208   5.169
16563SOL     OW51129   4.288   5.817   4.900
16563SOL    HW151130   4.327   5.736   4.935
16563SOL    HW251131   4.197   5.812   4.928
16564SOL     OW51132   4.597   6.056   4.360
16564SOL    HW151133   4.539   6.102   4.299
16564SOL    HW251134   4.620   5.976   4.314
16565SOL     OW51135   4.746   5.632   4.456
16565SOL    HW151136   4.683   5.621   4.384
16565SOL    HW251137   4.723   5.563   4.518
16566SOL     OW51138   5.153   6.742   4.575
16566SOL    HW151139   5.094   6.668   4.591
16566SOL    HW251140   5.161   6.747   4.480
16567SOL     OW51141   5.187   6.191   4.682
16567SOL    HW151142   5.123   6.121   4.690
16567SOL    HW251143   5.241   6.184   4.761
16568SOL     OW51144   5.562   6.394   4.109
16568SOL    HW151145   5.618   6.347   4.170
16568SOL    HW251146   5.538   6.329   4.042
16569SOL     OW51147   4.212   7.013   3.871
16569SOL    HW151148   4.137   6.985   3.924
16569SOL    HW251149   4.212   6.954   3.796
16570SOL     OW51150   5.417   6.867   4.341
16570SOL    HW151151   5.509   6.860   4.367
16570SOL    HW251152   5.387   6.949   4.380
16571SOL     OW51153   5.117   6.153   3.801
16571SOL    HW151154   5.047   6.136   3.864
16571SOL    HW251155   5.190   6.099   3.831
16572SOL     OW51156   4.247   5.846   4.021
16572SOL    HW151157   4.304   5.804   3.958
16572SOL    HW251158   4.219   5.927   3.978
16573SOL     OW51159   5.465   6.830   5.279
16573SOL    HW151160   5.548   6.784   5.293
16573SOL    HW251161   5.484   6.921   5.305
16574SOL     OW51162   4.775   6.950   5.067
16574SOL    HW151163   4.695   6.915   5.106
16574SOL    HW251164   4.845   6.898   5.105
16575SOL     OW51165   5.332   7.219   5.387
16575SOL    HW151166   5.322   7.251   5.297
16575SOL    HW251167   5.411   7.166   5.385
16576SOL     OW51168   4.869   6.816   4.824
16576SOL    HW151169   4.794   6.832   4.881
16576SOL    HW251170   4.839   6.841   4.737
16577SOL     OW51171   5.348   6.683   4.797
16577SOL    HW151172   5.342   6.743   4.872
16577SOL    HW251173   5.268   6.698   4.747
16578SOL     OW51174   4.626   5.701   5.102
16578SOL    HW151175   4.657   5.666   5.018
16578SOL    HW251176   4.706   5.729   5.146
16579SOL     OW51177   4.439   6.649   4.095
16579SOL    HW151178   4.425   6.626   4.186
16579SOL    HW251179   4.513   6.595   4.068
16580SOL     OW51180   4.152   6.404   4.975
16580SOL    HW151181   4.216   6.413   5.046
16580SOL    HW251182   4.118   6.315   4.983
16581SOL     OW51183   4.992   5.968   4.999
16581SOL    HW151184   5.018   6.043   5.053
16581SOL    HW251185   4.901   5.986   4.976
16582SOL     OW51186   3.800   7.163   5.089
16582SOL    HW151187   3.772   7.230   5.027
16582SOL    HW251188   3.894   7.157   5.077
16583SOL     OW51189   4.052   6.709   4.216
16583SOL    HW151190   4.049   6.772   4.145
16583SOL    HW251191   4.049   6.624   4.173
16584SOL     OW51192   4.275   6.111   4.580
16584SOL    HW151193   4.291   6.171   4.508
16584SOL    HW251194   4.342   6.132   4.645
16585SOL     OW51195   4.972   6.943   4.114
16585SOL    HW151196   5.028   7.010   4.153
16585SOL    HW251197   4.885   6.960   4.149
16586SOL     OW51198   5.020   7.050   4.867
16586SOL    HW151199   5.070   7.051   4.948
16586SOL    HW251200   4.966   6.971   4.873
16587SOL     OW51201   5.292   6.209   4.203
16587SOL    HW151202   5.242   6.241   4.279
16587SOL    HW251203   5.329   6.288   4.164
16588SOL     OW51204   4.067   7.121   5.031
16588SOL    HW151205   4.056   7.072   4.949
16588SOL    HW251206   4.162   7.130   5.040
16589SOL     OW51207   4.131   6.333   5.328
16589SOL    HW151208   4.203   6.363   5.272
16589SOL    HW251209   4.138   6.237   5.326
16590SOL     OW51210   5.342   6.373   5.415
16590SOL    HW151211   5.253   6.407   5.408
16590SOL    HW251212   5.389   6.412   5.342
16591SOL     OW51213   4.723   5.706   5.469
16591SOL    HW151214   4.808   5.700   5.425
16591SOL    HW251215   4.707   5.617   5.502
16592SOL     OW51216   4.229   5.657   5.455
16592SOL    HW151217   4.178   5.588   5.412
16592SOL    HW251218   4.165   5.725   5.476
16593SOL     OW51219   4.309   6.460   4.754
16593SOL    HW151220   4.341   6.549   4.768
16593SOL    HW251221   4.254   6.442   4.831
16594SOL     OW51222   5.057   6.443   4.741
16594SOL    HW151223   4.969   6.418   4.716
16594SOL    HW251224   5.109   6.364   4.730
16595SOL     OW51225   4.914   6.117   3.981
16595SOL    HW151226   4.929   6.040   4.036
16595SOL    HW251227   4.870   6.180   4.039
16596SOL     OW51228   4.024   5.792   4.970
16596SOL    HW151229   3.986   5.812   5.055
16596SOL    HW251230   4.014   5.697   4.960
16597SOL     OW51231   3.785   6.899   4.992
16597SOL    HW151232   3.811   6.837   5.060
16597SOL    HW251233   3.778   6.983   5.037
16598SOL     OW51234   4.449   6.213   4.773
16598SOL    HW151235   4.524   6.196   4.715
16598SOL    HW251236   4.419   6.300   4.748
16599SOL     OW51237   5.463   6.558   5.583
16599SOL    HW151238   5.429   6.482   5.535
16599SOL    HW251239   5.403   6.568   5.657
16600SOL     OW51240   4.049   5.652   4.348
16600SOL    HW151241   4.017   5.738   4.373
16600SOL    HW251242   4.055   5.604   4.431
16601SOL     OW51243   5.362   5.974   4.077
16601SOL    HW151244   5.383   5.904   4.139
16601SOL    HW251245   5.328   6.044   4.132
16602SOL     OW51246   4.758   6.350   4.688
16602SOL    HW151247   4.742   6.363   4.781
16602SOL    HW251248   4.732   6.259   4.672
16603SOL     OW51249   4.710   7.147   5.448
16603SOL    HW151250   4.687   7.190   5.366
16603SOL    HW251251   4.750   7.064   5.421
16604SOL     OW51252   5.569   7.085   5.329
16604SOL    HW151253   5.595   7.114   5.241
16604SOL    HW251254   5.648   7.094   5.382
16605SOL     OW51255   4.075   6.523   5.517
16605SOL    HW151256   4.139   6.512   5.587
16605SOL    HW251257   4.095   6.452   5.455
16606SOL     OW51258   5.241   5.869   3.849
16606SOL    HW151259   5.186   5.795   3.874
16606SOL    HW251260   5.282   5.897   3.930
16607SOL     OW51261   5.006   6.406   3.755
16607SOL    HW151262   5.044   6.319   3.763
16607SOL    HW251263   5.041   6.440   3.672
16608SOL     OW51264   4.792   6.928   4.578
16608SOL    HW151265   4.798   6.855   4.517
16608SOL    HW251266   4.850   6.995   4.542
16609SOL     OW51267   4.036   6.395   4.665
16609SOL    HW151268   4.130   6.407   4.665
16609SOL    HW251269   4.023   6.305   4.697
16610SOL     OW51270   4.055   6.124   4.733
16610SOL    HW151271   4.014   6.038   4.726
16610SOL    HW251272   4.131   6.119   4.676
16611SOL     OW51273   4.859   6.010   5.366
16611SOL    HW151274   4.815   6.027   5.450
16611SOL    HW251275   4.952   6.025   5.384
16612SOL     OW51276   4.866   5.800   5.188
16612SOL    HW151277   4.855   5.867   5.256
16612SOL    HW251278   4.920   5.843   5.122
16613SOL     OW51279   3.742   6.896   3.905
16613SOL    HW151280   3.653   6.915   3.876
16613SOL    HW251281   3.737   6.810   3.945
16614SOL     OW51282   3.807   7.364   4.660
16614SOL    HW151283   3.779   7.283   4.617
16614SOL    HW251284   3.897   7.376   4.632
16615SOL     OW51285   4.212   7.161   4.620
16615SOL    HW151286   4.281   7.222   4.644
16615SOL    HW251287   4.256   7.095   4.566
16616SOL     OW51288   4.682   6.372   4.950
16616SOL    HW151289   4.738   6.350   5.025
16616SOL    HW251290   4.609   6.311   4.956
16617SOL     OW51291   3.755   6.159   4.831
16617SOL    HW151292   3.820   6.109   4.780
16617SOL    HW251293   3.783   6.149   4.922
16618SOL     OW51294   3.909   6.109   5.468
16618SOL    HW151295   3.948   6.035   5.422
16618SOL    HW251296   3.870   6.163   5.399
16619SOL     OW51297   5.104   6.516   5.387
16619SOL    HW151298   5.131   6.608   5.380
16619SOL    HW251299   5.099   6.487   5.296
16620SOL     OW51300   4.547   6.165   4.078
16620SOL    HW151301   4.554   6.083   4.029
16620SOL    HW251302   4.464   6.203   4.050
16621SOL     OW51303   5.360   6.193   4.899
16621SOL    HW151304   5.351   6.130   4.970
16621SOL    HW251305   5.448   6.179   4.864
16622SOL     OW51306   3.959   7.128   5.450
16622SOL    HW151307   3.935   7.181   5.525
16622SOL    HW251308   3.968   7.039   5.485
16623SOL     OW51309   4.449   6.035   4.983
16623SOL    HW151310   4.393   5.958   4.968
16623SOL    HW251311   4.433   6.090   4.907
16624SOL     OW51312   4.637   7.262   5.203
16624SOL    HW151313   4.616   7.219   5.120
16624SOL    HW251314   4.634   7.355   5.183
16625SOL     OW51315   4.172   6.074   3.883
16625SOL    HW151316   4.235   6.139   3.914
16625SOL    HW251317   4.088   6.120   3.884
16626SOL     OW51318   3.880   6.729   5.190
16626SOL    HW151319   3.870   6.685   5.275
16626SOL    HW251320   3.890   6.658   5.127
16627SOL     OW51321   5.040   6.633   4.939
16627SOL    HW151322   5.054   6.564   4.874
16627SOL    HW251323   4.980   6.695   4.897
16628SOL     OW51324   5.040   6.453   4.028
16628SOL    HW151325   4.979   6.408   4.086
16628SOL    HW251326   5.014   6.425   3.940
16629SOL     OW51327   5.511   7.319   4.887
16629SOL    HW151328   5.569   7.341   4.814
16629SOL    HW251329   5.478   7.232   4.865
16630SOL     OW51330   4.961   7.317   4.821
16630SOL    HW151331   5.046   7.344   4.784
16630SOL    HW251332   4.974   7.225   4.845
16631SOL     OW51333   3.808   6.872   4.723
16631SOL    HW151334   3.794   6.877   4.818
16631SOL    HW251335   3.748   6.803   4.693
16632SOL     OW51336   4.405   7.261   5.465
16632SOL    HW151337   4.342   7.333   5.458
16632SOL    HW251338   4.472   7.282   5.400
16633SOL     OW51339   5.461   5.755   4.232
16633SOL    HW151340   5.526   5.732   4.165
16633SOL    HW251341   5.434   5.671   4.269
16634SOL     OW51342   5.119   7.157   4.220
16634SOL    HW151343   5.173   7.195   4.151
16634SOL    HW251344   5.067   7.230   4.252
16635SOL     OW51345   3.861   7.390   5.567
16635SOL    HW151346   3.816   7.317   5.609
16635SOL    HW251347   3.910   7.432   5.638
16636SOL     OW51348   5.001   6.522   4.401
16636SOL    HW151349   5.072   6.459   4.413
16636SOL    HW251350   5.039   6.589   4.345
16637SOL     OW51351   4.518   6.871   5.135
16637SOL    HW151352   4.491   6.911   5.217
16637SOL    HW251353   4.440   6.876   5.079
16638SOL     OW51354   4.392   7.216   3.870
16638SOL    HW151355   4.398   7.231   3.776
16638SOL    HW251356   4.335   7.140   3.879
16639SOL     OW51357   5.338   7.315   5.117
16639SOL    HW151358   5.396   7.318   5.041
16639SOL    HW251359   5.323   7.406   5.139
16640SOL     OW51360   5.574   5.750   4.690
16640SOL    HW151361   5.599   5.659   4.672
16640SOL    HW251362   5.486   5.758   4.654
16641SOL     OW51363   3.977   5.906   4.438
16641SOL    HW151364   3.888   5.932   4.415
16641SOL    HW251365   3.975   5.896   4.534
16642SOL     OW51366   4.935   7.169   3.751
16642SOL    HW151367   4.920   7.082   3.788
16642SOL    HW251368   4.876   7.174   3.676
16643SOL     OW51369   4.539   6.593   5.095
16643SOL    HW151370   4.579   6.569   5.011
16643SOL    HW251371   4.538   6.689   5.094
16644SOL     OW51372   4.648   6.506   4.000
16644SOL    HW151373   4.719   6.542   3.946
16644SOL    HW251374   4.690   6.435   4.050
16645SOL     OW51375   5.208   7.222   3.768
16645SOL    HW151376   5.115   7.203   3.759
16645SOL    HW251377   5.242   7.218   3.679
16646SOL     OW51378   4.096   6.897   5.217
16646SOL    HW151379   4.075   6.971   5.161
16646SOL    HW251380   4.024   6.835   5.202
16647SOL     OW51381   5.334   6.872   5.008
16647SOL    HW151382   5.387   6.849   5.084
16647SOL    HW251383   5.272   6.938   5.040
16648SOL     OW51384   4.789   6.699   4.437
16648SOL    HW151385   4.716   6.649   4.474
16648SOL    HW251386   4.855   6.633   4.418
16649SOL     OW51387   4.753   5.824   4.680
16649SOL    HW151388   4.746   5.778   4.596
16649SOL    HW251389   4.746   5.755   4.746
16650SOL     OW51390   4.331   7.067   4.193
16650SOL    HW151391   4.383   7.016   4.130
16650SOL    HW251392   4.242   7.065   4.158
16651SOL     OW51393   5.448   5.996   5.095
16651SOL    HW151394   5.527   6.050   5.099
16651SOL    HW251395   5.475   5.917   5.047
16652SOL     OW51396   3.995   6.934   4.022
16652SOL    HW151397   3.906   6.921   3.990
16652SOL    HW251398   3.985   6.973   4.108
16653SOL     OW51399   3.835   6.645   5.455
16653SOL    HW151400   3.759   6.611   5.502
16653SOL    HW251401   3.909   6.593   5.487
16654SOL     OW51402   4.396   5.799   5.219
16654SOL    HW151403   4.477   5.769   5.177
16654SOL    HW251404   4.419   5.807   5.312
16655SOL     OW51405   3.806   5.913   3.780
16655SOL    HW151406   3.728   5.872   3.743
16655SOL    HW251407   3.821   5.990   3.726
16656SOL     OW51408   5.148   6.452   5.126
16656SOL    HW151409   5.096   6.507   5.068
16656SOL    HW251410   5.234   6.447   5.084
16657SOL     OW51411   3.794   5.745   4.020
16657SOL    HW151412   3.788   5.816   3.957
16657SOL    HW251413   3.878   5.703   4.001
16658SOL     OW51414   4.901   6.909   3.850
16658SOL    HW151415   4.833   6.843   3.856
16658SOL    HW251416   4.932   6.920   3.940
16659SOL     OW51417   4.344   6.413   5.167
16659SOL    HW151418   4.404   6.484   5.148
16659SOL    HW251419   4.401   6.336   5.176
16660SOL     OW51420   5.208   7.377   4.712
16660SOL    HW151421   5.235   7.446   4.651
16660SOL    HW251422   5.289   7.336   4.741
16661SOL     OW51423   4.461   6.131   5.465
16661SOL    HW151424   4.378   6.124   5.512
16661SOL    HW251425   4.495   6.041   5.463
16662SOL     OW51426   5.197   6.780   5.354
16662SOL    HW151427   5.189   6.793   5.448
16662SOL    HW251428   5.289   6.798   5.335
16663SOL     OW51429   4.089   7.323   5.294
16663SOL    HW151430   4.007   7.370   5.279
16663SOL    HW251431   4.062   7.241   5.335
16664SOL     OW51432   5.384   6.461   4.980
16664SOL    HW151433   5.379   6.373   4.942
16664SOL    HW251434   5.377   6.520   4.904
16665SOL     OW51435   4.953   5.918   4.173
16665SOL    HW151436   5.007   5.839   4.167
16665SOL    HW251437   4.983   5.961   4.253
16666SOL     OW51438   4.313   6.319   4.396
16666SOL    HW151439   4.350   6.405   4.377
16666SOL    HW251440   4.245   6.306   4.330
16667SOL     OW51441   5.465   5.952   5.371
16667SOL    HW151442   5.449   5.966   5.278
16667SOL    HW251443   5.400   5.886   5.397
16668SOL     OW51444   5.479   6.522   5.229
16668SOL    HW151445   5.455   6.615   5.236
16668SOL    HW251446   5.456   6.498   5.139
16669SOL     OW51447   4.567   6.977   3.781
16669SOL    HW151448   4.549   6.943   3.868
16669SOL    HW251449   4.563   7.072   3.790
16670SOL     OW51450   4.386   7.370   4.648
16670SOL    HW151451   4.371   7.464   4.637
16670SOL    HW251452   4.481   7.361   4.650
16671SOL     OW51453   4.596   6.561   4.578
16671SOL    HW151454   4.643   6.485   4.612
16671SOL    HW251455   4.552   6.598   4.654
16672SOL     OW51456   4.826   6.610   3.812
16672SOL    HW151457   4.786   6.630   3.727
16672SOL    HW251458   4.885   6.537   3.793
16673SOL     OW51459   5.569   7.136   4.562
16673SOL    HW151460   5.484   7.123   4.520
16673SOL    HW251461   5.576   7.063   4.624
16674SOL     OW51462   3.941   6.875   5.566
16674SOL    HW151463   3.903   6.799   5.523
16674SOL    HW251464   3.888   6.886   5.645
16675SOL     OW51465   3.829   6.818   4.391
16675SOL    HW151466   3.815   6.771   4.474
16675SOL    HW251467   3.891   6.763   4.343
16676SOL     OW51468   4.416   6.995   5.360
16676SOL    HW151469   4.337   6.952   5.392
16676SOL    HW251470   4.411   7.084   5.395
16677SOL     OW51471   5.548   5.783   4.963
16677SOL    HW151472   5.526   5.695   4.993
16677SOL    HW251473   5.556   5.774   4.868
16678SOL     OW51474   4.153   6.017   4.246
16678SOL    HW151475   4.182   5.943   4.192
16678SOL    HW251476   4.102   5.977   4.316
16679SOL     OW51477   5.414   7.074   4.820
16679SOL    HW151478   5.340   7.050   4.764
16679SOL    HW251479   5.420   7.003   4.884
16680SOL     OW51480   4.072   6.147   5.018
16680SOL    HW151481   4.117   6.084   5.075
16680SOL    HW251482   4.082   6.110   4.930
16681SOL     OW51483   4.558   7.163   4.396
16681SOL    HW151484   4.521   7.229   4.337
16681SOL    HW251485   4.487   7.101   4.410
16682SOL     OW51486   5.149   5.812   4.828
16682SOL    HW151487   5.146   5.718   4.848
16682SOL    HW251488   5.102   5.853   4.900
16683SOL     OW51489   4.731   5.610   4.857
16683SOL    HW151490   4.668   5.544   4.828
16683SOL    HW251491   4.815   5.564   4.859
16684SOL     OW51492   4.511   6.909   4.040
16684SOL    HW151493   4.483   6.819   4.057
16684SOL    HW251494   4.586   6.922   4.097
16685SOL     OW51495   4.343   7.147   5.008
16685SOL    HW151496   4.340   7.229   5.058
16685SOL    HW251497   4.432   7.141   4.976
16686SOL     OW51498   5.093   5.633   3.887
16686SOL    HW151499   5.133   5.555   3.848
16686SOL    HW251500   5.002   5.608   3.904
16687SOL     OW51501   5.035   6.057   4.402
16687SOL    HW151502   4.976   6.132   4.400
16687SOL    HW251503   5.019   6.016   4.487
16688SOL     OW51504   5.319   5.781   4.608
16688SOL    HW151505   5.259   5.796   4.681
16688SOL    HW251506   5.309   5.858   4.552
16689SOL     OW51507   3.770   6.645   4.027
16689SOL    HW151508   3.862   6.630   4.005
16689SOL    HW251509   3.737   6.559   4.052
16690SOL     OW51510   4.619   7.253   4.047
16690SOL    HW151511   4.538   7.234   3.999
16690SOL    HW251512   4.591   7.314   4.116
16691SOL     OW51513   3.946   6.231   5.713
16691SOL    HW151514   3.868   6.203   5.761
16691SOL    HW251515   3.933   6.197   5.625
16692SOL     OW51516   3.934   5.892   6.592
16692SOL    HW151517   3.976   5.844   6.663
16692SOL    HW251518   3.855   5.843   6.572
16693SOL     OW51519   3.723   5.979   6.219
16693SOL    HW151520   3.642   5.998   6.267
16693SOL    HW251521   3.703   5.899   6.171
16694SOL     OW51522   4.299   6.887   6.783
16694SOL    HW151523   4.213   6.884   6.741
16694SOL    HW251524   4.310   6.979   6.808
16695SOL     OW51525   5.302   7.107   6.298
16695SOL    HW151526   5.259   7.075   6.377
16695SOL    HW251527   5.234   7.106   6.231
16696SOL     OW51528   4.864   6.283   6.273
16696SOL    HW151529   4.903   6.370   6.275
16696SOL    HW251530   4.809   6.280   6.352
16697SOL     OW51531   5.513   6.181   5.810
16697SOL    HW151532   5.486   6.175   5.718
16697SOL    HW251533   5.469   6.108   5.853
16698SOL     OW51534   4.470   6.724   6.639
16698SOL    HW151535   4.406   6.760   6.701
16698SOL    HW251536   4.507   6.801   6.595
16699SOL     OW51537   4.619   6.345   7.422
16699SOL    HW151538   4.576   6.414   7.473
16699SOL    HW251539   4.633   6.383   7.335
16700SOL     OW51540   4.412   6.589   6.225
16700SOL    HW151541   4.476   6.575   6.295
16700SOL    HW251542   4.342   6.640   6.265
16701SOL     OW51543   4.438   6.733   7.411
16701SOL    HW151544   4.485   6.811   7.441
16701SOL    HW251545   4.359   6.767   7.369
16702SOL     OW51546   4.053   7.000   6.652
16702SOL    HW151547   3.978   6.959   6.610
16702SOL    HW251548   4.096   7.049   6.582
16703SOL     OW51549   5.179   7.088   6.952
16703SOL    HW151550   5.232   7.167   6.963
16703SOL    HW251551   5.108   7.097   7.015
16704SOL     OW51552   4.171   5.984   7.069
16704SOL    HW151553   4.249   5.930   7.073
16704SOL    HW251554   4.099   5.924   7.089
16705SOL     OW51555   5.318   6.042   6.332
16705SOL    HW151556   5.240   6.042   6.276
16705SOL    HW251557   5.293   6.093   6.409
16706SOL     OW51558   3.938   7.313   6.053
16706SOL    HW151559   3.966   7.385   6.110
16706SOL    HW251560   4.014   7.298   5.996
16707SOL     OW51561   4.860   6.928   7.284
16707SOL    HW151562   4.899   6.918   7.372
16707SOL    HW251563   4.808   6.848   7.272
16708SOL     OW51564   3.962   7.036   6.126
16708SOL    HW151565   3.929   7.125   6.137
16708SOL    HW251566   3.910   6.983   6.187
16709SOL     OW51567   4.006   6.673   6.487
16709SOL    HW151568   4.008   6.580   6.509
16709SOL    HW251569   3.941   6.710   6.547
16710SOL     OW51570   4.316   7.383   7.012
16710SOL    HW151571   4.237   7.361   7.062
16710SOL    HW251572   4.341   7.470   7.042
16711SOL     OW51573   4.288   6.568   5.740
16711SOL    HW151574   4.335   6.612   5.668
16711SOL    HW251575   4.331   6.600   5.819
16712SOL     OW51576   5.330   5.717   7.051
16712SOL    HW151577   5.295   5.789   6.998
16712SOL    HW251578   5.295   5.733   7.139
16713SOL     OW51579   3.844   6.240   6.144
16713SOL    HW151580   3.815   6.150   6.159
16713SOL    HW251581   3.836   6.283   6.229
16714SOL     OW51582   5.567   7.336   5.909
16714SOL    HW151583   5.637   7.313   5.970
16714SOL    HW251584   5.583   7.428   5.888
16715SOL     OW51585   3.773   7.172   5.699
16715SOL    HW151586   3.754   7.080   5.716
16715SOL    HW251587   3.742   7.218   5.777
16716SOL     OW51588   5.428   6.514   6.238
16716SOL    HW151589   5.499   6.457   6.210
16716SOL    HW251590   5.398   6.557   6.157
16717SOL     OW51591   5.376   6.687   6.012
16717SOL    HW151592   5.463   6.680   5.972
16717SOL    HW251593   5.386   6.755   6.079
16718SOL     OW51594   3.848   6.320   7.166
16718SOL    HW151595   3.939   6.348   7.170
16718SOL    HW251596   3.798   6.402   7.161
16719SOL     OW51597   4.345   6.982   6.319
16719SOL    HW151598   4.301   6.897   6.329
16719SOL    HW251599   4.329   7.006   6.228
16720SOL     OW51600   5.006   6.821   7.002
16720SOL    HW151601   5.033   6.750   6.943
16720SOL    HW251602   5.064   6.812   7.078
16721SOL     OW51603   4.556   5.621   6.110
16721SOL    HW151604   4.583   5.709   6.082
16721SOL    HW251605   4.461   5.628   6.124
16722SOL     OW51606   3.913   6.541   6.863
16722SOL    HW151607   4.000   6.504   6.851
16722SOL    HW251608   3.854   6.480   6.819
16723SOL     OW51609   5.246   6.596   5.786
16723SOL    HW151610   5.176   6.538   5.817
16723SOL    HW251611   5.293   6.621   5.866
16724SOL     OW51612   4.913   7.400   7.220
16724SOL    HW151613   4.911   7.460   7.145
16724SOL    HW251614   4.924   7.313   7.180
16725SOL     OW51615   4.064   5.837   7.438
16725SOL    HW151616   4.103   5.923   7.456
16725SOL    HW251617   3.971   5.848   7.458
16726SOL     OW51618   5.192   7.002   6.525
16726SOL    HW151619   5.127   7.018   6.594
16726SOL    HW251620   5.177   6.912   6.498
16727SOL     OW51621   5.371   7.351   6.159
16727SOL    HW151622   5.351   7.312   6.074
16727SOL    HW251623   5.359   7.280   6.221
16728SOL     OW51624   4.306   6.298   5.856
16728SOL    HW151625   4.297   6.386   5.821
16728SOL    HW251626   4.244   6.294   5.928
16729SOL     OW51627   5.000   5.962   6.520
16729SOL    HW151628   4.912   5.924   6.522
16729SOL    HW251629   5.053   5.904   6.576
16730SOL     OW51630   5.299   7.267   5.898
16730SOL    HW151631   5.393   7.284   5.889
16730SOL    HW251632   5.270   7.247   5.809
16731SOL     OW51633   4.512   6.202   7.037
16731SOL    HW151634   4.491   6.170   7.124
16731SOL    HW251635   4.485   6.132   6.978
16732SOL     OW51636   5.125   6.067   7.263
16732SOL    HW151637   5.129   6.103   7.352
16732SOL    HW251638   5.165   5.980   7.271
16733SOL     OW51639   4.676   6.467   7.177
16733SOL    HW151640   4.726   6.396   7.137
16733SOL    HW251641   4.620   6.499   7.107
16734SOL     OW51642   4.723   5.996   6.804
16734SOL    HW151643   4.634   6.004   6.840
16734SOL    HW251644   4.718   5.921   6.745
16735SOL     OW51645   4.778   6.295   6.008
16735SOL    HW151646   4.796   6.279   6.100
16735SOL    HW251647   4.698   6.245   5.990
16736SOL     OW51648   3.818   6.415   6.360
16736SOL    HW151649   3.896   6.396   6.412
16736SOL    HW251650   3.774   6.486   6.407
16737SOL     OW51651   3.849   7.457   7.169
16737SOL    HW151652   3.847   7.440   7.263
16737SOL    HW251653   3.775   7.407   7.134
16738SOL     OW51654   4.600   5.927   5.780
16738SOL    HW151655   4.653   5.948   5.704
16738SOL    HW251656   4.552   5.848   5.755
16739SOL     OW51657   5.451   6.161   7.414
16739SOL    HW151658   5.408   6.232   7.367
16739SOL    HW251659   5.457   6.090   7.350
16740SOL     OW51660   5.113   6.735   6.132
16740SOL    HW151661   5.191   6.718   6.078
16740SOL    HW251662   5.057   6.790   6.077
16741SOL     OW51663   4.246   5.758   6.480
16741SOL    HW151664   4.264   5.799   6.565
16741SOL    HW251665   4.255   5.830   6.417
16742SOL     OW51666   4.720   7.032   6.050
16742SOL    HW151667   4.693   7.109   5.999
16742SOL    HW251668   4.692   7.052   6.140
16743SOL     OW51669   4.078   7.401   6.459
16743SOL    HW151670   4.120   7.315   6.465
16743SOL    HW251671   4.147   7.463   6.481
16744SOL     OW51672   5.532   6.653   6.455
16744SOL    HW151673   5.484   6.617   6.379
16744SOL    HW251674   5.468   6.653   6.526
16745SOL     OW51675   4.945   7.126   7.102
16745SOL    HW151676   4.937   7.057   7.167
16745SOL    HW251677   4.884   7.102   7.033
16746SOL     OW51678   4.023   6.540   5.842
16746SOL    HW151679   4.109   6.553   5.801
16746SOL    HW251680   3.997   6.452   5.817
16747SOL     OW51681   5.204   6.349   6.305
16747SOL    HW151682   5.198   6.291   6.381
16747SOL    HW251683   5.290   6.391   6.313
16748SOL     OW51684   4.198   6.864   7.329
16748SOL    HW151685   4.170   6.870   7.238
16748SOL    HW251686   4.117   6.847   7.377
16749SOL     OW51687   4.855   7.366   5.807
16749SOL    HW151688   4.777   7.333   5.851
16749SOL    HW251689   4.877   7.299   5.742
16750SOL     OW51690   3.924   5.854   7.104
16750SOL    HW151691   3.838   5.877   7.069
16750SOL    HW251692   3.914   5.763   7.133
16751SOL     OW51693   5.357   6.972   5.679
16751SOL    HW151694   5.314   7.056   5.664
16751SOL    HW251695   5.291   6.906   5.657
16752SOL     OW51696   4.183   7.328   5.900
16752SOL    HW151697   4.231   7.374   5.968
16752SOL    HW251698   4.250   7.282   5.850
16753SOL     OW51699   5.122   5.693   6.015
16753SOL    HW151700   5.109   5.661   5.926
16753SOL    HW251701   5.201   5.649   6.045
16754SOL     OW51702   3.987   7.376   6.805
16754SOL    HW151703   4.029   7.299   6.844
16754SOL    HW251704   3.967   7.350   6.715
16755SOL     OW51705   4.662   7.287   6.477
16755SOL    HW151706   4.737   7.236   6.506
16755SOL    HW251707   4.623   7.236   6.406
16756SOL     OW51708   4.119   6.272   6.060
16756SOL    HW151709   4.138   6.180   6.074
16756SOL    HW251710   4.026   6.281   6.078
16757SOL     OW51711   5.233   5.805   7.309
16757SOL    HW151712   5.241   5.825   7.402
16757SOL    HW251713   5.169   5.735   7.304
16758SOL     OW51714   4.376   5.701   5.683
16758SOL    HW151715   4.376   5.627   5.743
16758SOL    HW251716   4.328   5.670   5.606
16759SOL     OW51717   4.493   5.866   7.358
16759SOL    HW151718   4.574   5.817   7.347
16759SOL    HW251719   4.439   5.811   7.415
16760SOL     OW51720   4.601   7.118   6.782
16760SOL    HW151721   4.581   7.074   6.699
16760SOL    HW251722   4.667   7.063   6.824
16761SOL     OW51723   5.059   6.176   7.020
16761SOL    HW151724   5.091   6.141   7.103
16761SOL    HW251725   5.098   6.263   7.014
16762SOL     OW51726   4.544   6.977   6.538
16762SOL    HW151727   4.628   6.963   6.495
16762SOL    HW251728   4.481   6.982   6.465
16763SOL     OW51729   4.660   6.104   6.482
16763SOL    HW151730   4.636   6.089   6.390
16763SOL    HW251731   4.682   6.018   6.515
16764SOL     OW51732   4.291   5.697   6.122
16764SOL    HW151733   4.209   5.664   6.157
16764SOL    HW251734   4.270   5.726   6.033
16765SOL     OW51735   5.152   6.794   5.625
16765SOL    HW151736   5.183   6.720   5.676
16765SOL    HW251737   5.073   6.823   5.671
16766SOL     OW51738   4.019   5.629   5.787
16766SOL    HW151739   4.115   5.632   5.789
16766SOL    HW251740   3.997   5.556   5.845
16767SOL     OW51741   4.674   5.871   6.042
16767SOL    HW151742   4.651   5.883   5.950
16767SOL    HW251743   4.770   5.861   6.042
16768SOL     OW51744   4.798   6.268   7.035
16768SOL    HW151745   4.731   6.201   7.044
16768SOL    HW251746   4.880   6.220   7.032
16769SOL     OW51747   4.939   7.158   6.380
16769SOL    HW151748   4.955   7.225   6.314
16769SOL    HW251749   5.010   7.169   6.442
16770SOL     OW51750   4.198   6.748   6.309
16770SOL    HW151751   4.137   6.722   6.378
16770SOL    HW251752   4.150   6.734   6.228
16771SOL     OW51753   4.985   7.376   6.203
16771SOL    HW151754   5.030   7.440   6.148
16771SOL    HW251755   4.913   7.424   6.242
16772SOL     OW51756   4.774   6.112   5.611
16772SOL    HW151757   4.733   6.199   5.614
16772SOL    HW251758   4.824   6.106   5.693
16773SOL     OW51759   3.814   6.141   6.964
16773SOL    HW151760   3.907   6.135   6.941
16773SOL    HW251761   3.811   6.202   7.037
16774SOL     OW51762   4.298   5.817   6.747
16774SOL    HW151763   4.344   5.733   6.746
16774SOL    HW251764   4.211   5.797   6.782
16775SOL     OW51765   4.596   6.064   6.223
16775SOL    HW151766   4.513   6.090   6.183
16775SOL    HW251767   4.625   5.988   6.172
16776SOL     OW51768   4.744   5.640   6.316
16776SOL    HW151769   4.680   5.630   6.245
16776SOL    HW251770   4.725   5.567   6.375
16777SOL     OW51771   5.154   6.743   6.437
16777SOL    HW151772   5.094   6.670   6.451
16777SOL    HW251773   5.164   6.748   6.342
16778SOL     OW51774   5.186   6.189   6.543
16778SOL    HW151775   5.121   6.119   6.549
16778SOL    HW251776   5.238   6.181   6.622
16779SOL     OW51777   5.560   6.393   5.974
16779SOL    HW151778   5.619   6.345   6.032
16779SOL    HW251779   5.536   6.329   5.906
16780SOL     OW51780   4.214   7.008   5.732
16780SOL    HW151781   4.140   6.979   5.786
16780SOL    HW251782   4.205   6.957   5.651
16781SOL     OW51783   5.415   6.867   6.203
16781SOL    HW151784   5.507   6.862   6.228
16781SOL    HW251785   5.385   6.950   6.240
16782SOL     OW51786   5.122   6.142   5.667
16782SOL    HW151787   5.052   6.130   5.731
16782SOL    HW251788   5.186   6.075   5.689
16783SOL     OW51789   4.254   5.854   5.886
16783SOL    HW151790   4.298   5.796   5.824
16783SOL    HW251791   4.222   5.927   5.832
16784SOL     OW51792   5.466   6.830   7.137
16784SOL    HW151793   5.552   6.787   7.137
16784SOL    HW251794   5.484   6.919   7.168
16785SOL     OW51795   4.776   6.958   6.933
16785SOL    HW151796   4.699   6.916   6.970
16785SOL    HW251797   4.850   6.904   6.962
16786SOL     OW51798   5.336   7.222   7.254
16786SOL    HW151799   5.323   7.252   7.164
16786SOL    HW251800   5.414   7.167   7.250
16787SOL     OW51801   4.868   6.814   6.686
16787SOL    HW151802   4.790   6.821   6.740
16787SOL    HW251803   4.839   6.840   6.598
16788SOL     OW51804   5.351   6.683   6.660
16788SOL    HW151805   5.343   6.743   6.734
16788SOL    HW251806   5.270   6.696   6.610
16789SOL     OW51807   4.627   5.731   6.964
16789SOL    HW151808   4.644   5.682   6.883
16789SOL    HW251809   4.712   5.733   7.009
16790SOL     OW51810   4.706   6.699   7.309
16790SOL    HW151811   4.615   6.712   7.334
16790SOL    HW251812   4.705   6.619   7.256
16791SOL     OW51813   4.442   6.652   5.955
16791SOL    HW151814   4.427   6.630   6.046
16791SOL    HW251815   4.517   6.598   5.929
16792SOL     OW51816   4.152   6.407   6.838
16792SOL    HW151817   4.217   6.413   6.908
16792SOL    HW251818   4.119   6.318   6.843
16793SOL     OW51819   4.988   5.957   6.866
16793SOL    HW151820   5.016   6.035   6.913
16793SOL    HW251821   4.898   5.976   6.840
16794SOL     OW51822   3.801   7.163   6.952
16794SOL    HW151823   3.769   7.224   6.886
16794SOL    HW251824   3.895   7.158   6.936
16795SOL     OW51825   4.051   6.710   6.077
16795SOL    HW151826   4.049   6.776   6.007
16795SOL    HW251827   4.046   6.626   6.031
16796SOL     OW51828   4.275   6.121   6.443
16796SOL    HW151829   4.294   6.181   6.371
16796SOL    HW251830   4.347   6.133   6.504
16797SOL     OW51831   4.968   6.941   5.969
16797SOL    HW151832   5.025   7.007   6.007
16797SOL    HW251833   4.882   6.959   6.007
16798SOL     OW51834   5.019   7.048   6.729
16798SOL    HW151835   5.068   7.048   6.811
16798SOL    HW251836   4.963   6.970   6.734
16799SOL     OW51837   5.289   6.209   6.064
16799SOL    HW151838   5.242   6.245   6.139
16799SOL    HW251839   5.332   6.284   6.024
16800SOL     OW51840   4.068   7.121   6.890
16800SOL    HW151841   4.057   7.072   6.809
16800SOL    HW251842   4.163   7.131   6.899
16801SOL     OW51843   4.131   6.331   7.189
16801SOL    HW151844   4.203   6.365   7.135
16801SOL    HW251845   4.149   6.237   7.196
16802SOL     OW51846   5.345   6.374   7.280
16802SOL    HW151847   5.256   6.408   7.271
16802SOL    HW251848   5.392   6.409   7.204
16803SOL     OW51849   4.722   5.724   7.341
16803SOL    HW151850   4.791   5.773   7.297
16803SOL    HW251851   4.747   5.632   7.331
16804SOL     OW51852   4.218   5.633   7.335
16804SOL    HW151853   4.178   5.576   7.269
16804SOL    HW251854   4.152   5.702   7.350
16805SOL     OW51855   4.308   6.462   6.614
16805SOL    HW151856   4.344   6.549   6.630
16805SOL    HW251857   4.254   6.444   6.692
16806SOL     OW51858   5.056   6.440   6.601
16806SOL    HW151859   4.967   6.415   6.575
16806SOL    HW251860   5.107   6.360   6.588
16807SOL     OW51861   4.918   6.118   5.847
16807SOL    HW151862   4.935   6.040   5.901
16807SOL    HW251863   4.871   6.177   5.906
16808SOL     OW51864   4.034   5.772   6.823
16808SOL    HW151865   3.996   5.781   6.911
16808SOL    HW251866   4.027   5.678   6.804
16809SOL     OW51867   3.777   6.899   6.855
16809SOL    HW151868   3.805   6.837   6.922
16809SOL    HW251869   3.777   6.984   6.899
16810SOL     OW51870   4.456   6.218   6.638
16810SOL    HW151871   4.528   6.197   6.578
16810SOL    HW251872   4.423   6.302   6.607
16811SOL     OW51873   5.468   6.556   7.448
16811SOL    HW151874   5.433   6.483   7.397
16811SOL    HW251875   5.404   6.568   7.518
16812SOL     OW51876   4.036   5.645   6.214
16812SOL    HW151877   4.011   5.732   6.244
16812SOL    HW251878   4.041   5.592   6.293
16813SOL     OW51879   5.363   5.971   5.940
16813SOL    HW151880   5.384   5.901   6.002
16813SOL    HW251881   5.327   6.041   5.995
16814SOL     OW51882   4.760   6.349   6.549
16814SOL    HW151883   4.741   6.364   6.642
16814SOL    HW251884   4.733   6.258   6.534
16815SOL     OW51885   4.707   7.153   7.314
16815SOL    HW151886   4.686   7.195   7.230
16815SOL    HW251887   4.747   7.069   7.290
16816SOL     OW51888   5.571   7.084   7.193
16816SOL    HW151889   5.594   7.113   7.105
16816SOL    HW251890   5.652   7.093   7.244
16817SOL     OW51891   4.076   6.516   7.385
16817SOL    HW151892   4.152   6.518   7.442
16817SOL    HW251893   4.095   6.447   7.321
16818SOL     OW51894   5.233   5.873   5.713
16818SOL    HW151895   5.180   5.797   5.735
16818SOL    HW251896   5.279   5.895   5.794
16819SOL     OW51897   5.007   6.391   5.613
16819SOL    HW151898   5.048   6.305   5.623
16819SOL    HW251899   5.045   6.427   5.533
16820SOL     OW51900   4.791   6.928   6.442
16820SOL    HW151901   4.797   6.855   6.380
16820SOL    HW251902   4.847   6.996   6.404
16821SOL     OW51903   4.036   6.396   6.529
16821SOL    HW151904   4.131   6.409   6.528
16821SOL    HW251905   4.024   6.307   6.560
16822SOL     OW51906   4.057   6.128   6.597
16822SOL    HW151907   4.014   6.043   6.590
16822SOL    HW251908   4.133   6.122   6.539
16823SOL     OW51909   4.860   5.978   7.250
16823SOL    HW151910   4.811   6.015   7.323
16823SOL    HW251911   4.947   6.017   7.258
16824SOL     OW51912   4.884   5.783   7.060
16824SOL    HW151913   4.870   5.854   7.123
16824SOL    HW251914   4.924   5.826   6.984
16825SOL     OW51915   3.743   6.896   5.770
16825SOL    HW151916   3.654   6.914   5.741
16825SOL    HW251917   3.738   6.809   5.810
16826SOL     OW51918   3.814   7.362   6.531
16826SOL    HW151919   3.783   7.284   6.486
16826SOL    HW251920   3.902   7.376   6.497
16827SOL     OW51921   4.213   7.161   6.487
16827SOL    HW151922   4.283   7.222   6.512
16827SOL    HW251923   4.256   7.098   6.430
16828SOL     OW51924   4.679   6.377   6.810
16828SOL    HW151925   4.733   6.349   6.884
16828SOL    HW251926   4.604   6.317   6.812
16829SOL     OW51927   3.754   6.150   6.693
16829SOL    HW151928   3.810   6.093   6.641
16829SOL    HW251929   3.788   6.143   6.782
16830SOL     OW51930   3.914   6.095   7.317
16830SOL    HW151931   3.938   6.026   7.254
16830SOL    HW251932   3.880   6.165   7.263
16831SOL     OW51933   5.108   6.514   7.246
16831SOL    HW151934   5.126   6.608   7.238
16831SOL    HW251935   5.101   6.484   7.155
16832SOL     OW51936   4.556   6.175   5.909
16832SOL    HW151937   4.558   6.084   5.877
16832SOL    HW251938   4.464   6.200   5.901
16833SOL     OW51939   5.358   6.194   6.763
16833SOL    HW151940   5.348   6.129   6.833
16833SOL    HW251941   5.446   6.179   6.729
16834SOL     OW51942   3.957   7.128   7.315
16834SOL    HW151943   3.934   7.174   7.396
16834SOL    HW251944   3.970   7.037   7.341
16835SOL     OW51945   4.446   6.031   6.840
16835SOL    HW151946   4.395   5.953   6.820
16835SOL    HW251947   4.434   6.089   6.764
16836SOL     OW51948   4.631   7.267   7.071
16836SOL    HW151949   4.618   7.217   6.990
16836SOL    HW251950   4.626   7.358   7.043
16837SOL     OW51951   4.182   6.079   5.731
16837SOL    HW151952   4.238   6.141   5.776
16837SOL    HW251953   4.095   6.119   5.732
16838SOL     OW51954   3.871   6.729   7.055
16838SOL    HW151955   3.870   6.684   7.140
16838SOL    HW251956   3.886   6.659   6.991
16839SOL     OW51957   5.045   6.631   6.796
16839SOL    HW151958   5.056   6.562   6.731
16839SOL    HW251959   4.983   6.692   6.756
16840SOL     OW51960   5.024   6.459   5.883
16840SOL    HW151961   4.972   6.407   5.945
16840SOL    HW251962   5.011   6.416   5.799
16841SOL     OW51963   5.516   7.315   6.755
16841SOL    HW151964   5.571   7.339   6.681
16841SOL    HW251965   5.478   7.231   6.730
16842SOL     OW51966   4.963   7.318   6.692
16842SOL    HW151967   5.046   7.344   6.653
16842SOL    HW251968   4.973   7.225   6.712
16843SOL     OW51969   3.801   6.877   6.584
16843SOL    HW151970   3.786   6.879   6.678
16843SOL    HW251971   3.746   6.804   6.553
16844SOL     OW51972   4.412   7.264   7.330
16844SOL    HW151973   4.349   7.332   7.310
16844SOL    HW251974   4.481   7.274   7.264
16845SOL     OW51975   5.467   5.755   6.099
16845SOL    HW151976   5.529   5.732   6.029
16845SOL    HW251977   5.436   5.671   6.132
16846SOL     OW51978   5.119   7.154   6.082
16846SOL    HW151979   5.173   7.191   6.012
16846SOL    HW251980   5.066   7.227   6.112
16847SOL     OW51981   3.851   7.399   7.431
16847SOL    HW151982   3.811   7.320   7.469
16847SOL    HW251983   3.904   7.435   7.502
16848SOL     OW51984   5.001   6.524   6.265
16848SOL    HW151985   5.071   6.461   6.276
16848SOL    HW251986   5.038   6.591   6.208
16849SOL     OW51987   4.521   6.867   6.994
16849SOL    HW151988   4.493   6.908   7.075
16849SOL    HW251989   4.444   6.869   6.937
16850SOL     OW51990   4.390   7.214   5.741
16850SOL    HW151991   4.404   7.229   5.647
16850SOL    HW251992   4.335   7.136   5.745
16851SOL     OW51993   5.339   7.314   6.984
16851SOL    HW151994   5.396   7.315   6.907
16851SOL    HW251995   5.324   7.406   7.004
16852SOL     OW51996   5.578   5.750   6.556
16852SOL    HW151997   5.599   5.659   6.536
16852SOL    HW251998   5.490   5.763   6.519
16853SOL     OW51999   3.982   5.908   6.304
16853SOL    HW152000   3.893   5.932   6.279
16853SOL    HW252001   3.978   5.896   6.399
16854SOL     OW52002   4.933   7.178   5.620
16854SOL    HW152003   4.922   7.086   5.645
16854SOL    HW252004   4.865   7.193   5.554
16855SOL     OW52005   4.544   6.588   6.970
16855SOL    HW152006   4.588   6.561   6.890
16855SOL    HW252007   4.546   6.683   6.968
16856SOL     OW52008   4.653   6.505   5.863
16856SOL    HW152009   4.730   6.528   5.811
16856SOL    HW252010   4.681   6.432   5.918
16857SOL     OW52011   5.208   7.225   5.635
16857SOL    HW152012   5.116   7.207   5.619
16857SOL    HW252013   5.248   7.228   5.548
16858SOL     OW52014   4.087   6.901   7.085
16858SOL    HW152015   4.076   6.970   7.020
16858SOL    HW252016   4.018   6.838   7.066
16859SOL     OW52017   5.336   6.874   6.871
16859SOL    HW152018   5.383   6.848   6.950
16859SOL    HW252019   5.271   6.937   6.901
16860SOL     OW52020   4.788   6.700   6.299
16860SOL    HW152021   4.715   6.650   6.336
16860SOL    HW252022   4.855   6.634   6.281
16861SOL     OW52023   4.752   5.829   6.536
16861SOL    HW152024   4.742   5.782   6.454
16861SOL    HW252025   4.740   5.763   6.604
16862SOL     OW52026   4.331   7.070   6.059
16862SOL    HW152027   4.380   7.021   5.993
16862SOL    HW252028   4.243   7.078   6.023
16863SOL     OW52029   5.452   5.993   6.961
16863SOL    HW152030   5.531   6.048   6.960
16863SOL    HW252031   5.477   5.915   6.912
16864SOL     OW52032   3.999   6.927   5.886
16864SOL    HW152033   3.909   6.919   5.853
16864SOL    HW252034   3.989   6.969   5.972
16865SOL     OW52035   3.840   6.642   7.320
16865SOL    HW152036   3.763   6.608   7.366
16865SOL    HW252037   3.912   6.589   7.351
16866SOL     OW52038   4.396   5.819   7.090
16866SOL    HW152039   4.473   5.791   7.040
16866SOL    HW252040   4.428   5.829   7.179
16867SOL     OW52041   3.799   5.920   5.650
16867SOL    HW152042   3.732   5.869   5.605
16867SOL    HW252043   3.820   5.992   5.590
16868SOL     OW52044   5.148   6.448   6.984
16868SOL    HW152045   5.096   6.504   6.926
16868SOL    HW252046   5.235   6.445   6.943
16869SOL     OW52047   3.789   5.753   5.882
16869SOL    HW152048   3.784   5.822   5.817
16869SOL    HW252049   3.876   5.714   5.870
16870SOL     OW52050   4.894   6.904   5.700
16870SOL    HW152051   4.798   6.902   5.698
16870SOL    HW252052   4.916   6.913   5.793
16871SOL     OW52053   4.342   6.413   7.030
16871SOL    HW152054   4.403   6.485   7.015
16871SOL    HW252055   4.397   6.335   7.034
16872SOL     OW52056   5.206   7.381   6.579
16872SOL    HW152057   5.233   7.444   6.512
16872SOL    HW252058   5.285   7.329   6.596
16873SOL     OW52059   4.456   6.133   7.291
16873SOL    HW152060   4.504   6.179   7.361
16873SOL    HW252061   4.462   6.041   7.315
16874SOL     OW52062   5.195   6.779   7.212
16874SOL    HW152063   5.186   6.793   7.306
16874SOL    HW252064   5.287   6.797   7.194
16875SOL     OW52065   4.092   7.325   7.161
16875SOL    HW152066   4.009   7.370   7.142
16875SOL    HW252067   4.065   7.241   7.199
16876SOL     OW52068   5.387   6.461   6.842
16876SOL    HW152069   5.380   6.373   6.805
16876SOL    HW252070   5.378   6.520   6.767
16877SOL     OW52071   4.963   5.920   6.033
16877SOL    HW152072   5.015   5.840   6.025
16877SOL    HW252073   4.992   5.960   6.115
16878SOL     OW52074   4.318   6.319   6.253
16878SOL    HW152075   4.351   6.407   6.234
16878SOL    HW252076   4.248   6.305   6.190
16879SOL     OW52077   5.465   5.952   7.237
16879SOL    HW152078   5.453   5.966   7.143
16879SOL    HW252079   5.396   5.889   7.260
16880SOL     OW52080   5.488   6.516   7.090
16880SOL    HW152081   5.458   6.606   7.103
16880SOL    HW252082   5.463   6.495   7.001
16881SOL     OW52083   4.612   6.935   5.641
16881SOL    HW152084   4.565   6.948   5.724
16881SOL    HW252085   4.606   7.019   5.596
16882SOL     OW52086   4.388   7.371   6.517
16882SOL    HW152087   4.374   7.464   6.500
16882SOL    HW252088   4.482   7.359   6.512
16883SOL     OW52089   4.595   6.560   6.439
16883SOL    HW152090   4.643   6.484   6.473
16883SOL    HW252091   4.551   6.597   6.516
16884SOL     OW52092   4.822   6.592   5.623
16884SOL    HW152093   4.883   6.663   5.644
16884SOL    HW252094   4.877   6.514   5.618
16885SOL     OW52095   5.568   7.138   6.426
16885SOL    HW152096   5.485   7.125   6.380
16885SOL    HW252097   5.578   7.061   6.482
16886SOL     OW52098   3.938   6.874   7.428
16886SOL    HW152099   3.904   6.797   7.384
16886SOL    HW252100   3.884   6.882   7.507
16887SOL     OW52101   3.824   6.820   6.252
16887SOL    HW152102   3.815   6.770   6.333
16887SOL    HW252103   3.887   6.770   6.200
16888SOL     OW52104   4.412   6.999   7.211
16888SOL    HW152105   4.338   6.952   7.249
16888SOL    HW252106   4.413   7.083   7.256
16889SOL     OW52107   5.553   5.780   6.828
16889SOL    HW152108   5.526   5.692   6.854
16889SOL    HW252109   5.559   5.776   6.732
16890SOL     OW52110   4.160   6.014   6.108
16890SOL    HW152111   4.194   5.942   6.055
16890SOL    HW252112   4.109   5.972   6.177
16891SOL     OW52113   5.408   7.077   6.685
16891SOL    HW152114   5.336   7.053   6.626
16891SOL    HW252115   5.411   7.006   6.749
16892SOL     OW52116   4.071   6.150   6.878
16892SOL    HW152117   4.117   6.088   6.935
16892SOL    HW252118   4.083   6.115   6.790
16893SOL     OW52119   4.558   7.166   6.257
16893SOL    HW152120   4.527   7.234   6.197
16893SOL    HW252121   4.484   7.106   6.264
16894SOL     OW52122   5.148   5.808   6.688
16894SOL    HW152123   5.146   5.713   6.699
16894SOL    HW252124   5.096   5.841   6.762
16895SOL     OW52125   4.726   5.626   6.720
16895SOL    HW152126   4.657   5.572   6.681
16895SOL    HW252127   4.803   5.571   6.720
16896SOL     OW52128   4.507   6.917   5.900
16896SOL    HW152129   4.479   6.827   5.916
16896SOL    HW252130   4.582   6.929   5.958
16897SOL     OW52131   4.342   7.149   6.870
16897SOL    HW152132   4.341   7.231   6.920
16897SOL    HW252133   4.432   7.141   6.838
16898SOL     OW52134   5.090   5.632   5.744
16898SOL    HW152135   5.131   5.555   5.705
16898SOL    HW252136   5.000   5.605   5.761
16899SOL     OW52137   5.038   6.058   6.266
16899SOL    HW152138   4.976   6.132   6.262
16899SOL    HW252139   5.019   6.015   6.350
16900SOL     OW52140   5.329   5.795   6.472
16900SOL    HW152141   5.261   5.798   6.539
16900SOL    HW252142   5.308   5.866   6.412
16901SOL     OW52143   3.768   6.646   5.893
16901SOL    HW152144   3.859   6.632   5.870
16901SOL    HW252145   3.735   6.559   5.917
16902SOL     OW52146   4.619   7.250   5.911
16902SOL    HW152147   4.541   7.231   5.859
16902SOL    HW252148   4.589   7.312   5.978
16903SOL     OW52149   3.948   6.221   7.567
16903SOL    HW152150   3.867   6.190   7.607
16903SOL    HW252151   3.944   6.189   7.477
16904SOL     OW52152   3.936   5.889   8.454
16904SOL    HW152153   3.976   5.840   8.526
16904SOL    HW252154   3.854   5.843   8.436
16905SOL     OW52155   3.724   5.972   8.085
16905SOL    HW152156   3.643   5.981   8.135
16905SOL    HW252157   3.708   5.897   8.027
16906SOL     OW52158   4.300   6.886   8.649
16906SOL    HW152159   4.217   6.879   8.602
16906SOL    HW252160   4.309   6.980   8.667
16907SOL     OW52161   5.305   7.108   8.158
16907SOL    HW152162   5.260   7.076   8.236
16907SOL    HW252163   5.239   7.109   8.090
16908SOL     OW52164   4.864   6.285   8.139
16908SOL    HW152165   4.905   6.371   8.132
16908SOL    HW252166   4.811   6.289   8.218
16909SOL     OW52167   5.501   6.186   7.676
16909SOL    HW152168   5.479   6.179   7.583
16909SOL    HW252169   5.463   6.107   7.715
16910SOL     OW52170   4.472   6.724   8.506
16910SOL    HW152171   4.410   6.762   8.567
16910SOL    HW252172   4.506   6.798   8.456
16911SOL     OW52173   4.616   6.343   9.280
16911SOL    HW152174   4.579   6.415   9.332
16911SOL    HW252175   4.632   6.381   9.194
16912SOL     OW52176   4.412   6.588   8.088
16912SOL    HW152177   4.476   6.575   8.158
16912SOL    HW252178   4.342   6.640   8.129
16913SOL     OW52179   4.438   6.733   9.274
16913SOL    HW152180   4.486   6.811   9.304
16913SOL    HW252181   4.360   6.769   9.232
16914SOL     OW52182   4.045   7.014   8.511
16914SOL    HW152183   3.976   6.967   8.465
16914SOL    HW252184   4.096   7.055   8.442
16915SOL     OW52185   5.179   7.086   8.815
16915SOL    HW152186   5.232   7.165   8.824
16915SOL    HW252187   5.108   7.098   8.879
16916SOL     OW52188   4.171   5.980   8.933
16916SOL    HW152189   4.249   5.925   8.933
16916SOL    HW252190   4.099   5.919   8.949
16917SOL     OW52191   5.321   6.033   8.194
16917SOL    HW152192   5.248   6.037   8.133
16917SOL    HW252193   5.301   6.099   8.260
16918SOL     OW52194   3.939   7.311   7.914
16918SOL    HW152195   3.968   7.383   7.969
16918SOL    HW252196   4.012   7.295   7.854
16919SOL     OW52197   4.861   6.928   9.148
16919SOL    HW152198   4.900   6.916   9.234
16919SOL    HW252199   4.810   6.848   9.133
16920SOL     OW52200   3.967   7.037   7.988
16920SOL    HW152201   3.933   7.127   7.991
16920SOL    HW252202   3.910   6.988   8.047
16921SOL     OW52203   4.003   6.671   8.355
16921SOL    HW152204   4.013   6.577   8.371
16921SOL    HW252205   3.928   6.696   8.409
16922SOL     OW52206   4.293   7.397   8.853
16922SOL    HW152207   4.228   7.367   8.917
16922SOL    HW252208   4.333   7.474   8.894
16923SOL     OW52209   4.293   6.572   7.594
16923SOL    HW152210   4.344   6.612   7.524
16923SOL    HW252211   4.335   6.602   7.675
16924SOL     OW52212   5.327   5.719   8.912
16924SOL    HW152213   5.309   5.795   8.856
16924SOL    HW252214   5.291   5.743   8.997
16925SOL     OW52215   3.842   6.239   8.005
16925SOL    HW152216   3.816   6.149   8.022
16925SOL    HW252217   3.836   6.283   8.090
16926SOL     OW52218   5.566   7.337   7.771
16926SOL    HW152219   5.638   7.315   7.831
16926SOL    HW252220   5.582   7.429   7.748
16927SOL     OW52221   3.776   7.174   7.563
16927SOL    HW152222   3.757   7.081   7.578
16927SOL    HW252223   3.743   7.218   7.642
16928SOL     OW52224   5.428   6.511   8.097
16928SOL    HW152225   5.490   6.450   8.059
16928SOL    HW252226   5.393   6.559   8.021
16929SOL     OW52227   5.374   6.686   7.877
16929SOL    HW152228   5.460   6.682   7.836
16929SOL    HW252229   5.383   6.754   7.944
16930SOL     OW52230   3.848   6.321   9.030
16930SOL    HW152231   3.939   6.351   9.031
16930SOL    HW252232   3.797   6.401   9.020
16931SOL     OW52233   4.336   6.981   8.184
16931SOL    HW152234   4.294   6.895   8.191
16931SOL    HW252235   4.324   7.007   8.093
16932SOL     OW52236   5.004   6.820   8.866
16932SOL    HW152237   5.030   6.751   8.806
16932SOL    HW252238   5.065   6.811   8.940
16933SOL     OW52239   4.554   5.604   7.974
16933SOL    HW152240   4.590   5.687   7.942
16933SOL    HW252241   4.459   5.619   7.976
16934SOL     OW52242   3.910   6.542   8.725
16934SOL    HW152243   3.998   6.505   8.714
16934SOL    HW252244   3.853   6.484   8.674
16935SOL     OW52245   5.256   6.589   7.646
16935SOL    HW152246   5.187   6.529   7.674
16935SOL    HW252247   5.297   6.618   7.728
16936SOL     OW52248   4.906   7.397   9.081
16936SOL    HW152249   4.908   7.459   9.008
16936SOL    HW252250   4.922   7.312   9.041
16937SOL     OW52251   4.058   5.836   9.304
16937SOL    HW152252   4.096   5.924   9.301
16937SOL    HW252253   3.965   5.851   9.321
16938SOL     OW52254   5.187   7.006   8.383
16938SOL    HW152255   5.124   7.019   8.454
16938SOL    HW252256   5.175   6.915   8.357
16939SOL     OW52257   5.371   7.352   8.020
16939SOL    HW152258   5.351   7.316   7.934
16939SOL    HW252259   5.360   7.279   8.081
16940SOL     OW52260   4.316   6.302   7.724
16940SOL    HW152261   4.308   6.385   7.677
16940SOL    HW252262   4.248   6.307   7.791
16941SOL     OW52263   5.000   5.964   8.385
16941SOL    HW152264   4.913   5.925   8.388
16941SOL    HW252265   5.054   5.906   8.439
16942SOL     OW52266   5.299   7.268   7.761
16942SOL    HW152267   5.392   7.284   7.751
16942SOL    HW252268   5.267   7.250   7.673
16943SOL     OW52269   4.509   6.199   8.898
16943SOL    HW152270   4.486   6.167   8.985
16943SOL    HW252271   4.482   6.129   8.839
16944SOL     OW52272   5.120   6.068   9.123
16944SOL    HW152273   5.126   6.106   9.211
16944SOL    HW252274   5.164   5.983   9.131
16945SOL     OW52275   4.676   6.466   9.038
16945SOL    HW152276   4.726   6.396   8.997
16945SOL    HW252277   4.621   6.501   8.968
16946SOL     OW52278   4.722   5.995   8.667
16946SOL    HW152279   4.632   5.999   8.699
16946SOL    HW252280   4.719   5.934   8.593
16947SOL     OW52281   4.778   6.290   7.870
16947SOL    HW152282   4.798   6.277   7.963
16947SOL    HW252283   4.695   6.244   7.856
16948SOL     OW52284   3.817   6.402   8.227
16948SOL    HW152285   3.897   6.391   8.278
16948SOL    HW252286   3.773   6.478   8.267
16949SOL     OW52287   3.835   7.449   9.027
16949SOL    HW152288   3.841   7.440   9.122
16949SOL    HW252289   3.764   7.390   9.001
16950SOL     OW52290   4.608   5.941   7.647
16950SOL    HW152291   4.659   5.982   7.577
16950SOL    HW252292   4.564   5.868   7.604
16951SOL     OW52293   5.443   6.162   9.280
16951SOL    HW152294   5.404   6.234   9.230
16951SOL    HW252295   5.454   6.091   9.216
16952SOL     OW52296   5.112   6.734   7.992
16952SOL    HW152297   5.186   6.712   7.935
16952SOL    HW252298   5.056   6.790   7.938
16953SOL     OW52299   4.232   5.774   8.330
16953SOL    HW152300   4.265   5.798   8.417
16953SOL    HW252301   4.246   5.852   8.277
16954SOL     OW52302   4.729   7.039   7.918
16954SOL    HW152303   4.697   7.110   7.862
16954SOL    HW252304   4.693   7.059   8.005
16955SOL     OW52305   4.088   7.409   8.326
16955SOL    HW152306   4.134   7.325   8.326
16955SOL    HW252307   4.157   7.474   8.336
16956SOL     OW52308   5.534   6.649   8.315
16956SOL    HW152309   5.488   6.614   8.238
16956SOL    HW252310   5.468   6.649   8.384
16957SOL     OW52311   4.944   7.128   8.965
16957SOL    HW152312   4.937   7.058   9.030
16957SOL    HW252313   4.886   7.100   8.894
16958SOL     OW52314   4.027   6.544   7.701
16958SOL    HW152315   4.110   6.561   7.657
16958SOL    HW252316   3.999   6.458   7.669
16959SOL     OW52317   5.202   6.355   8.174
16959SOL    HW152318   5.200   6.297   8.250
16959SOL    HW252319   5.290   6.391   8.173
16960SOL     OW52320   4.196   6.864   9.193
16960SOL    HW152321   4.169   6.870   9.102
16960SOL    HW252322   4.115   6.847   9.242
16961SOL     OW52323   4.854   7.363   7.673
16961SOL    HW152324   4.775   7.328   7.715
16961SOL    HW252325   4.877   7.297   7.607
16962SOL     OW52326   3.924   5.847   8.961
16962SOL    HW152327   3.840   5.877   8.927
16962SOL    HW252328   3.907   5.757   8.991
16963SOL     OW52329   5.358   6.975   7.548
16963SOL    HW152330   5.313   7.057   7.528
16963SOL    HW252331   5.294   6.907   7.525
16964SOL     OW52332   4.182   7.328   7.761
16964SOL    HW152333   4.234   7.371   7.829
16964SOL    HW252334   4.246   7.282   7.707
16965SOL     OW52335   5.122   5.697   7.879
16965SOL    HW152336   5.108   5.667   7.789
16965SOL    HW252337   5.208   5.663   7.902
16966SOL     OW52338   3.985   7.360   8.656
16966SOL    HW152339   4.021   7.292   8.714
16966SOL    HW252340   4.014   7.334   8.568
16967SOL     OW52341   4.666   7.283   8.339
16967SOL    HW152342   4.750   7.240   8.350
16967SOL    HW252343   4.623   7.234   8.269
16968SOL     OW52344   4.119   6.277   7.922
16968SOL    HW152345   4.140   6.184   7.934
16968SOL    HW252346   4.025   6.282   7.936
16969SOL     OW52347   5.233   5.810   9.169
16969SOL    HW152348   5.240   5.827   9.263
16969SOL    HW252349   5.170   5.738   9.163
16970SOL     OW52350   4.374   5.693   7.548
16970SOL    HW152351   4.417   5.611   7.572
16970SOL    HW252352   4.316   5.670   7.475
16971SOL     OW52353   4.494   5.865   9.220
16971SOL    HW152354   4.574   5.814   9.208
16971SOL    HW252355   4.439   5.810   9.275
16972SOL     OW52356   4.596   7.115   8.646
16972SOL    HW152357   4.581   7.074   8.561
16972SOL    HW252358   4.666   7.063   8.685
16973SOL     OW52359   5.057   6.177   8.880
16973SOL    HW152360   5.089   6.143   8.963
16973SOL    HW252361   5.097   6.263   8.871
16974SOL     OW52362   4.539   6.976   8.398
16974SOL    HW152363   4.625   6.964   8.358
16974SOL    HW252364   4.478   6.982   8.324
16975SOL     OW52365   4.650   6.100   8.340
16975SOL    HW152366   4.629   6.087   8.247
16975SOL    HW252367   4.676   6.013   8.370
16976SOL     OW52368   4.289   5.662   7.957
16976SOL    HW152369   4.202   5.652   7.997
16976SOL    HW252370   4.275   5.727   7.887
16977SOL     OW52371   5.160   6.792   7.487
16977SOL    HW152372   5.189   6.714   7.534
16977SOL    HW252373   5.070   6.807   7.518
16978SOL     OW52374   4.010   5.636   7.635
16978SOL    HW152375   4.064   5.686   7.574
16978SOL    HW252376   4.071   5.575   7.676
16979SOL     OW52377   4.674   5.849   7.902
16979SOL    HW152378   4.649   5.875   7.814
16979SOL    HW252379   4.770   5.858   7.903
16980SOL     OW52380   4.796   6.268   8.897
16980SOL    HW152381   4.731   6.198   8.901
16980SOL    HW252382   4.880   6.223   8.890
16981SOL     OW52383   4.928   7.171   8.251
16981SOL    HW152384   4.947   7.232   8.180
16981SOL    HW252385   5.009   7.165   8.301
16982SOL     OW52386   4.195   6.746   8.174
16982SOL    HW152387   4.133   6.719   8.242
16982SOL    HW252388   4.148   6.731   8.092
16983SOL     OW52389   4.983   7.378   8.066
16983SOL    HW152390   5.029   7.438   8.007
16983SOL    HW252391   4.911   7.430   8.102
16984SOL     OW52392   4.758   6.112   7.474
16984SOL    HW152393   4.715   6.197   7.460
16984SOL    HW252394   4.815   6.126   7.550
16985SOL     OW52395   3.817   6.136   8.832
16985SOL    HW152396   3.909   6.134   8.807
16985SOL    HW252397   3.813   6.201   8.903
16986SOL     OW52398   4.299   5.811   8.602
16986SOL    HW152399   4.345   5.728   8.588
16986SOL    HW252400   4.215   5.786   8.640
16987SOL     OW52401   4.594   6.053   8.078
16987SOL    HW152402   4.551   6.102   8.008
16987SOL    HW252403   4.619   5.970   8.038
16988SOL     OW52404   4.735   5.640   8.191
16988SOL    HW152405   4.676   5.628   8.117
16988SOL    HW252406   4.715   5.566   8.249
16989SOL     OW52407   5.158   6.745   8.297
16989SOL    HW152408   5.093   6.674   8.305
16989SOL    HW252409   5.175   6.751   8.203
16990SOL     OW52410   5.187   6.194   8.406
16990SOL    HW152411   5.124   6.122   8.409
16990SOL    HW252412   5.240   6.183   8.485
16991SOL     OW52413   5.566   6.395   7.838
16991SOL    HW152414   5.624   6.344   7.894
16991SOL    HW252415   5.535   6.333   7.772
16992SOL     OW52416   4.215   7.011   7.595
16992SOL    HW152417   4.140   6.977   7.645
16992SOL    HW252418   4.218   6.958   7.516
16993SOL     OW52419   5.412   6.862   8.075
16993SOL    HW152420   5.506   6.859   8.093
16993SOL    HW252421   5.384   6.949   8.102
16994SOL     OW52422   5.121   6.147   7.527
16994SOL    HW152423   5.050   6.135   7.590
16994SOL    HW252424   5.184   6.078   7.548
16995SOL     OW52425   4.258   5.849   7.756
16995SOL    HW152426   4.298   5.794   7.688
16995SOL    HW252427   4.226   5.926   7.708
16996SOL     OW52428   5.468   6.830   8.999
16996SOL    HW152429   5.554   6.790   8.991
16996SOL    HW252430   5.485   6.919   9.031
16997SOL     OW52431   4.777   6.965   8.803
16997SOL    HW152432   4.699   6.919   8.834
16997SOL    HW252433   4.850   6.907   8.826
16998SOL     OW52434   5.337   7.221   9.116
16998SOL    HW152435   5.323   7.252   9.027
16998SOL    HW252436   5.415   7.167   9.111
16999SOL     OW52437   4.866   6.815   8.549
16999SOL    HW152438   4.782   6.807   8.594
16999SOL    HW252439   4.843   6.842   8.460
17000SOL     OW52440   5.349   6.680   8.519
17000SOL    HW152441   5.338   6.742   8.591
17000SOL    HW252442   5.271   6.694   8.464
17001SOL     OW52443   4.626   5.708   8.829
17001SOL    HW152444   4.644   5.670   8.743
17001SOL    HW252445   4.712   5.722   8.869
17002SOL     OW52446   4.707   6.698   9.172
17002SOL    HW152447   4.615   6.712   9.195
17002SOL    HW252448   4.706   6.619   9.117
17003SOL     OW52449   4.437   6.654   7.818
17003SOL    HW152450   4.423   6.629   7.909
17003SOL    HW252451   4.514   6.603   7.791
17004SOL     OW52452   4.149   6.410   8.703
17004SOL    HW152453   4.217   6.416   8.771
17004SOL    HW252454   4.118   6.320   8.708
17005SOL     OW52455   4.986   5.952   8.733
17005SOL    HW152456   5.016   6.033   8.775
17005SOL    HW252457   4.897   5.972   8.704
17006SOL     OW52458   3.802   7.161   8.816
17006SOL    HW152459   3.771   7.195   8.732
17006SOL    HW252460   3.896   7.144   8.802
17007SOL     OW52461   4.048   6.710   7.940
17007SOL    HW152462   4.054   6.775   7.870
17007SOL    HW252463   4.047   6.625   7.894
17008SOL     OW52464   4.271   6.122   8.310
17008SOL    HW152465   4.283   6.181   8.236
17008SOL    HW252466   4.354   6.125   8.358
17009SOL     OW52467   4.973   6.938   7.841
17009SOL    HW152468   5.030   7.006   7.877
17009SOL    HW252469   4.886   6.960   7.873
17010SOL     OW52470   5.018   7.048   8.592
17010SOL    HW152471   5.067   7.046   8.674
17010SOL    HW252472   4.961   6.970   8.596
17011SOL     OW52473   5.298   6.206   7.935
17011SOL    HW152474   5.239   6.250   7.995
17011SOL    HW252475   5.310   6.268   7.863
17012SOL     OW52476   4.067   7.115   8.756
17012SOL    HW152477   4.055   7.071   8.672
17012SOL    HW252478   4.162   7.127   8.764
17013SOL     OW52479   4.133   6.331   9.051
17013SOL    HW152480   4.204   6.367   8.997
17013SOL    HW252481   4.152   6.238   9.056
17014SOL     OW52482   5.344   6.375   9.141
17014SOL    HW152483   5.256   6.410   9.131
17014SOL    HW252484   5.392   6.409   9.066
17015SOL     OW52485   4.724   5.721   9.204
17015SOL    HW152486   4.785   5.786   9.169
17015SOL    HW252487   4.762   5.637   9.180
17016SOL     OW52488   4.212   5.633   9.207
17016SOL    HW152489   4.172   5.575   9.143
17016SOL    HW252490   4.147   5.703   9.220
17017SOL     OW52491   4.313   6.460   8.481
17017SOL    HW152492   4.347   6.549   8.492
17017SOL    HW252493   4.254   6.446   8.555
17018SOL     OW52494   5.058   6.441   8.468
17018SOL    HW152495   4.972   6.421   8.431
17018SOL    HW252496   5.110   6.362   8.453
17019SOL     OW52497   4.919   6.118   7.707
17019SOL    HW152498   4.930   6.039   7.760
17019SOL    HW252499   4.872   6.179   7.765
17020SOL     OW52500   4.032   5.768   8.690
17020SOL    HW152501   3.996   5.788   8.776
17020SOL    HW252502   4.028   5.673   8.683
17021SOL     OW52503   3.781   6.895   8.715
17021SOL    HW152504   3.807   6.827   8.777
17021SOL    HW252505   3.772   6.974   8.768
17022SOL     OW52506   4.464   6.221   8.510
17022SOL    HW152507   4.527   6.197   8.442
17022SOL    HW252508   4.422   6.300   8.476
17023SOL     OW52509   5.469   6.554   9.312
17023SOL    HW152510   5.433   6.483   9.258
17023SOL    HW252511   5.404   6.567   9.381
17024SOL     OW52512   4.038   5.646   8.072
17024SOL    HW152513   4.014   5.736   8.095
17024SOL    HW252514   4.045   5.600   8.155
17025SOL     OW52515   5.362   5.968   7.806
17025SOL    HW152516   5.386   5.897   7.865
17025SOL    HW252517   5.333   6.038   7.864
17026SOL     OW52518   4.755   6.345   8.406
17026SOL    HW152519   4.740   6.360   8.499
17026SOL    HW252520   4.728   6.255   8.392
17027SOL     OW52521   4.704   7.150   9.176
17027SOL    HW152522   4.684   7.193   9.093
17027SOL    HW252523   4.747   7.069   9.151
17028SOL     OW52524   5.571   7.085   9.055
17028SOL    HW152525   5.594   7.113   8.967
17028SOL    HW252526   5.653   7.094   9.105
17029SOL     OW52527   4.076   6.513   9.250
17029SOL    HW152528   4.154   6.518   9.304
17029SOL    HW252529   4.096   6.445   9.185
17030SOL     OW52530   5.232   5.874   7.576
17030SOL    HW152531   5.178   5.798   7.598
17030SOL    HW252532   5.278   5.896   7.657
17031SOL     OW52533   5.017   6.407   7.483
17031SOL    HW152534   5.054   6.319   7.486
17031SOL    HW252535   5.046   6.442   7.398
17032SOL     OW52536   4.790   6.930   8.308
17032SOL    HW152537   4.794   6.857   8.246
17032SOL    HW252538   4.842   6.999   8.267
17033SOL     OW52539   4.039   6.396   8.391
17033SOL    HW152540   4.134   6.404   8.377
17033SOL    HW252541   4.027   6.307   8.424
17034SOL     OW52542   4.054   6.127   8.463
17034SOL    HW152543   4.014   6.040   8.454
17034SOL    HW252544   4.131   6.124   8.407
17035SOL     OW52545   4.859   5.965   9.124
17035SOL    HW152546   4.811   6.011   9.193
17035SOL    HW252547   4.944   6.009   9.122
17036SOL     OW52548   4.880   5.778   8.923
17036SOL    HW152549   4.868   5.847   8.988
17036SOL    HW252550   4.922   5.822   8.849
17037SOL     OW52551   3.742   6.899   7.637
17037SOL    HW152552   3.652   6.917   7.609
17037SOL    HW252553   3.737   6.811   7.675
17038SOL     OW52554   3.829   7.364   8.391
17038SOL    HW152555   3.797   7.286   8.346
17038SOL    HW252556   3.917   7.378   8.355
17039SOL     OW52557   4.216   7.165   8.351
17039SOL    HW152558   4.289   7.221   8.377
17039SOL    HW252559   4.255   7.101   8.292
17040SOL     OW52560   4.679   6.378   8.670
17040SOL    HW152561   4.731   6.348   8.745
17040SOL    HW252562   4.605   6.317   8.666
17041SOL     OW52563   3.757   6.153   8.559
17041SOL    HW152564   3.819   6.108   8.502
17041SOL    HW252565   3.792   6.141   8.647
17042SOL     OW52566   3.917   6.095   9.178
17042SOL    HW152567   3.940   6.029   9.112
17042SOL    HW252568   3.883   6.168   9.128
17043SOL     OW52569   5.108   6.516   9.107
17043SOL    HW152570   5.127   6.609   9.098
17043SOL    HW252571   5.101   6.484   9.016
17044SOL     OW52572   4.544   6.162   7.813
17044SOL    HW152573   4.553   6.084   7.758
17044SOL    HW252574   4.466   6.205   7.780
17045SOL     OW52575   5.358   6.192   8.628
17045SOL    HW152576   5.348   6.126   8.696
17045SOL    HW252577   5.446   6.177   8.593
17046SOL     OW52578   3.957   7.128   9.180
17046SOL    HW152579   3.934   7.171   9.262
17046SOL    HW252580   3.971   7.037   9.203
17047SOL     OW52581   4.444   6.025   8.702
17047SOL    HW152582   4.394   5.948   8.676
17047SOL    HW252583   4.435   6.086   8.629
17048SOL     OW52584   4.617   7.269   8.938
17048SOL    HW152585   4.615   7.216   8.858
17048SOL    HW252586   4.624   7.359   8.907
17049SOL     OW52587   4.178   6.077   7.624
17049SOL    HW152588   4.242   6.145   7.649
17049SOL    HW252589   4.096   6.125   7.612
17050SOL     OW52590   3.867   6.726   8.919
17050SOL    HW152591   3.869   6.682   9.004
17050SOL    HW252592   3.883   6.656   8.856
17051SOL     OW52593   5.042   6.632   8.661
17051SOL    HW152594   5.055   6.563   8.596
17051SOL    HW252595   4.982   6.694   8.620
17052SOL     OW52596   5.042   6.443   7.756
17052SOL    HW152597   4.971   6.403   7.805
17052SOL    HW252598   5.021   6.425   7.664
17053SOL     OW52599   5.518   7.314   8.620
17053SOL    HW152600   5.573   7.339   8.545
17053SOL    HW252601   5.477   7.232   8.593
17054SOL     OW52602   4.966   7.321   8.564
17054SOL    HW152603   5.048   7.346   8.520
17054SOL    HW252604   4.974   7.226   8.577
17055SOL     OW52605   3.785   6.891   8.440
17055SOL    HW152606   3.778   6.885   8.535
17055SOL    HW252607   3.740   6.813   8.408
17056SOL     OW52608   4.414   7.262   9.190
17056SOL    HW152609   4.356   7.337   9.172
17056SOL    HW252610   4.486   7.272   9.128
17057SOL     OW52611   5.466   5.753   7.958
17057SOL    HW152612   5.528   5.732   7.888
17057SOL    HW252613   5.438   5.667   7.991
17058SOL     OW52614   5.123   7.155   7.949
17058SOL    HW152615   5.174   7.188   7.876
17058SOL    HW252616   5.066   7.228   7.974
17059SOL     OW52617   3.853   7.403   9.291
17059SOL    HW152618   3.814   7.325   9.329
17059SOL    HW252619   3.906   7.440   9.361
17060SOL     OW52620   4.999   6.527   8.129
17060SOL    HW152621   5.071   6.464   8.141
17060SOL    HW252622   5.035   6.592   8.069
17061SOL     OW52623   4.522   6.866   8.855
17061SOL    HW152624   4.492   6.908   8.936
17061SOL    HW252625   4.446   6.871   8.797
17062SOL     OW52626   4.390   7.218   7.603
17062SOL    HW152627   4.406   7.231   7.510
17062SOL    HW252628   4.337   7.138   7.607
17063SOL     OW52629   5.339   7.313   8.847
17063SOL    HW152630   5.396   7.314   8.770
17063SOL    HW252631   5.323   7.406   8.866
17064SOL     OW52632   5.576   5.749   8.419
17064SOL    HW152633   5.599   5.659   8.398
17064SOL    HW252634   5.489   5.762   8.381
17065SOL     OW52635   3.982   5.902   8.164
17065SOL    HW152636   3.893   5.929   8.140
17065SOL    HW252637   3.980   5.894   8.260
17066SOL     OW52638   4.932   7.179   7.485
17066SOL    HW152639   4.921   7.088   7.512
17066SOL    HW252640   4.865   7.192   7.417
17067SOL     OW52641   4.545   6.588   8.831
17067SOL    HW152642   4.587   6.560   8.750
17067SOL    HW252643   4.547   6.683   8.828
17068SOL     OW52644   4.654   6.514   7.741
17068SOL    HW152645   4.716   6.543   7.674
17068SOL    HW252646   4.695   6.438   7.781
17069SOL     OW52647   5.206   7.232   7.499
17069SOL    HW152648   5.115   7.209   7.482
17069SOL    HW252649   5.248   7.233   7.412
17070SOL     OW52650   4.083   6.900   8.951
17070SOL    HW152651   4.078   6.965   8.881
17070SOL    HW252652   4.014   6.837   8.930
17071SOL     OW52653   5.332   6.872   8.729
17071SOL    HW152654   5.382   6.847   8.807
17071SOL    HW252655   5.268   6.936   8.762
17072SOL     OW52656   4.787   6.702   8.168
17072SOL    HW152657   4.713   6.650   8.199
17072SOL    HW252658   4.853   6.637   8.143
17073SOL     OW52659   4.751   5.827   8.410
17073SOL    HW152660   4.742   5.782   8.326
17073SOL    HW252661   4.740   5.759   8.476
17074SOL     OW52662   4.332   7.074   7.928
17074SOL    HW152663   4.389   7.024   7.869
17074SOL    HW252664   4.248   7.079   7.882
17075SOL     OW52665   5.456   5.987   8.828
17075SOL    HW152666   5.532   6.045   8.824
17075SOL    HW252667   5.481   5.911   8.776
17076SOL     OW52668   4.000   6.926   7.747
17076SOL    HW152669   3.911   6.919   7.714
17076SOL    HW252670   3.991   6.968   7.832
17077SOL     OW52671   3.841   6.640   9.184
17077SOL    HW152672   3.764   6.606   9.229
17077SOL    HW252673   3.913   6.586   9.215
17078SOL     OW52674   4.394   5.806   8.949
17078SOL    HW152675   4.470   5.778   8.898
17078SOL    HW252676   4.429   5.821   9.037
17079SOL     OW52677   3.796   5.918   7.497
17079SOL    HW152678   3.733   5.865   7.447
17079SOL    HW252679   3.820   5.988   7.438
17080SOL     OW52680   5.148   6.447   8.846
17080SOL    HW152681   5.095   6.503   8.789
17080SOL    HW252682   5.234   6.445   8.804
17081SOL     OW52683   3.787   5.749   7.738
17081SOL    HW152684   3.776   5.817   7.671
17081SOL    HW252685   3.870   5.708   7.717
17082SOL     OW52686   4.904   6.912   7.569
17082SOL    HW152687   4.826   6.856   7.568
17082SOL    HW252688   4.931   6.915   7.660
17083SOL     OW52689   4.343   6.414   8.892
17083SOL    HW152690   4.404   6.486   8.876
17083SOL    HW252691   4.398   6.335   8.894
17084SOL     OW52692   5.206   7.384   8.444
17084SOL    HW152693   5.231   7.441   8.371
17084SOL    HW252694   5.282   7.326   8.455
17085SOL     OW52695   4.451   6.133   9.154
17085SOL    HW152696   4.501   6.182   9.219
17085SOL    HW252697   4.461   6.041   9.179
17086SOL     OW52698   5.197   6.778   9.074
17086SOL    HW152699   5.189   6.794   9.168
17086SOL    HW252700   5.288   6.797   9.054
17087SOL     OW52701   4.085   7.326   9.023
17087SOL    HW152702   3.999   7.367   9.011
17087SOL    HW252703   4.066   7.241   9.062
17088SOL     OW52704   5.386   6.461   8.704
17088SOL    HW152705   5.380   6.374   8.666
17088SOL    HW252706   5.377   6.520   8.629
17089SOL     OW52707   4.952   5.917   7.900
17089SOL    HW152708   5.008   5.839   7.890
17089SOL    HW252709   4.985   5.960   7.979
17090SOL     OW52710   4.301   6.328   8.128
17090SOL    HW152711   4.346   6.408   8.101
17090SOL    HW252712   4.240   6.309   8.056
17091SOL     OW52713   5.466   5.952   9.104
17091SOL    HW152714   5.459   5.966   9.010
17091SOL    HW252715   5.395   5.890   9.125
17092SOL     OW52716   5.489   6.514   8.953
17092SOL    HW152717   5.462   6.605   8.965
17092SOL    HW252718   5.463   6.494   8.863
17093SOL     OW52719   4.575   6.955   7.493
17093SOL    HW152720   4.549   6.980   7.581
17093SOL    HW252721   4.603   7.036   7.451
17094SOL     OW52722   4.394   7.371   8.389
17094SOL    HW152723   4.383   7.462   8.362
17094SOL    HW252724   4.488   7.354   8.378
17095SOL     OW52725   4.593   6.559   8.303
17095SOL    HW152726   4.641   6.482   8.334
17095SOL    HW252727   4.551   6.594   8.381
17096SOL     OW52728   4.823   6.599   7.540
17096SOL    HW152729   4.787   6.629   7.456
17096SOL    HW252730   4.884   6.530   7.516
17097SOL     OW52731   5.569   7.139   8.289
17097SOL    HW152732   5.488   7.126   8.240
17097SOL    HW252733   5.582   7.058   8.337
17098SOL     OW52734   3.937   6.873   9.290
17098SOL    HW152735   3.904   6.795   9.246
17098SOL    HW252736   3.880   6.883   9.367
17099SOL     OW52737   3.823   6.823   8.110
17099SOL    HW152738   3.818   6.767   8.187
17099SOL    HW252739   3.883   6.777   8.051
17100SOL     OW52740   4.410   6.997   9.072
17100SOL    HW152741   4.336   6.952   9.113
17100SOL    HW252742   4.413   7.083   9.116
17101SOL     OW52743   5.552   5.775   8.690
17101SOL    HW152744   5.529   5.685   8.713
17101SOL    HW252745   5.559   5.775   8.595
17102SOL     OW52746   4.159   6.017   7.972
17102SOL    HW152747   4.192   5.949   7.913
17102SOL    HW252748   4.107   5.969   8.037
17103SOL     OW52749   5.402   7.080   8.549
17103SOL    HW152750   5.333   7.056   8.486
17103SOL    HW252751   5.405   7.007   8.610
17104SOL     OW52752   4.072   6.150   8.742
17104SOL    HW152753   4.120   6.087   8.796
17104SOL    HW252754   4.082   6.118   8.653
17105SOL     OW52755   4.555   7.173   8.118
17105SOL    HW152756   4.536   7.245   8.057
17105SOL    HW252757   4.480   7.114   8.108
17106SOL     OW52758   5.148   5.807   8.551
17106SOL    HW152759   5.148   5.711   8.558
17106SOL    HW252760   5.096   5.836   8.625
17107SOL     OW52761   4.730   5.612   8.585
17107SOL    HW152762   4.668   5.552   8.543
17107SOL    HW252763   4.812   5.562   8.590
17108SOL     OW52764   4.503   6.922   7.777
17108SOL    HW152765   4.473   6.831   7.778
17108SOL    HW252766   4.588   6.920   7.820
17109SOL     OW52767   4.338   7.152   8.730
17109SOL    HW152768   4.337   7.238   8.771
17109SOL    HW252769   4.428   7.141   8.700
17110SOL     OW52770   5.088   5.633   7.612
17110SOL    HW152771   5.126   5.559   7.565
17110SOL    HW252772   4.998   5.606   7.631
17111SOL     OW52773   5.036   6.059   8.128
17111SOL    HW152774   4.976   6.133   8.125
17111SOL    HW252775   5.019   6.018   8.213
17112SOL     OW52776   5.327   5.790   8.334
17112SOL    HW152777   5.260   5.802   8.401
17112SOL    HW252778   5.314   5.865   8.275
17113SOL     OW52779   3.769   6.649   7.760
17113SOL    HW152780   3.860   6.636   7.734
17113SOL    HW252781   3.738   6.561   7.782
17114SOL     OW52782   4.616   7.250   7.777
17114SOL    HW152783   4.540   7.232   7.723
17114SOL    HW252784   4.585   7.315   7.841
17115SOL     OW52785   3.949   6.218   9.430
17115SOL    HW152786   3.864   6.192   9.466
17115SOL    HW252787   3.947   6.188   9.340
17116SOL     OW52788   3.942   5.880  10.308
17116SOL    HW152789   3.975   5.838  10.387
17116SOL    HW252790   3.856   5.839  10.293
17117SOL     OW52791   3.724   5.971   9.948
17117SOL    HW152792   3.641   5.988   9.992
17117SOL    HW252793   3.706   5.895   9.891
17118SOL     OW52794   4.296   6.889  10.506
17118SOL    HW152795   4.213   6.890  10.458
17118SOL    HW252796   4.311   6.980  10.531
17119SOL     OW52797   5.305   7.106  10.019
17119SOL    HW152798   5.259   7.076  10.097
17119SOL    HW252799   5.238   7.109   9.951
17120SOL     OW52800   4.864   6.285  10.002
17120SOL    HW152801   4.907   6.370   9.991
17120SOL    HW252802   4.812   6.295  10.082
17121SOL     OW52803   5.492   6.186   9.542
17121SOL    HW152804   5.473   6.183   9.448
17121SOL    HW252805   5.458   6.104   9.577
17122SOL     OW52806   4.468   6.723  10.367
17122SOL    HW152807   4.404   6.763  10.426
17122SOL    HW252808   4.505   6.797  10.319
17123SOL     OW52809   4.608   6.340  11.137
17123SOL    HW152810   4.585   6.412  11.196
17123SOL    HW252811   4.627   6.383  11.053
17124SOL     OW52812   4.411   6.584   9.951
17124SOL    HW152813   4.476   6.576  10.021
17124SOL    HW252814   4.342   6.639   9.989
17125SOL     OW52815   4.439   6.736  11.138
17125SOL    HW152816   4.489   6.812  11.168
17125SOL    HW252817   4.362   6.773  11.095
17126SOL     OW52818   4.056   6.997  10.376
17126SOL    HW152819   3.982   6.956  10.331
17126SOL    HW252820   4.099   7.048  10.307
17127SOL     OW52821   5.180   7.086  10.678
17127SOL    HW152822   5.233   7.165  10.686
17127SOL    HW252823   5.108   7.099  10.740
17128SOL     OW52824   4.176   5.976  10.790
17128SOL    HW152825   4.251   5.917  10.793
17128SOL    HW252826   4.100   5.919  10.805
17129SOL     OW52827   5.322   6.023  10.055
17129SOL    HW152828   5.248   6.028   9.994
17129SOL    HW252829   5.324   6.108  10.098
17130SOL     OW52830   3.940   7.311   9.777
17130SOL    HW152831   3.967   7.384   9.833
17130SOL    HW252832   4.014   7.297   9.718
17131SOL     OW52833   4.862   6.928  11.007
17131SOL    HW152834   4.901   6.917  11.094
17131SOL    HW252835   4.811   6.848  10.995
17132SOL     OW52836   3.962   7.038   9.849
17132SOL    HW152837   3.933   7.129   9.854
17132SOL    HW252838   3.905   6.992   9.912
17133SOL     OW52839   4.002   6.677  10.208
17133SOL    HW152840   4.000   6.586  10.237
17133SOL    HW252841   3.937   6.721  10.262
17134SOL     OW52842   4.318   7.381  10.739
17134SOL    HW152843   4.237   7.362  10.787
17134SOL    HW252844   4.342   7.470  10.767
17135SOL     OW52845   4.294   6.572   9.456
17135SOL    HW152846   4.345   6.613   9.386
17135SOL    HW252847   4.336   6.603   9.537
17136SOL     OW52848   5.322   5.714  10.774
17136SOL    HW152849   5.340   5.792  10.722
17136SOL    HW252850   5.293   5.748  10.859
17137SOL     OW52851   3.844   6.240   9.870
17137SOL    HW152852   3.815   6.151   9.887
17137SOL    HW252853   3.835   6.285   9.954
17138SOL     OW52854   5.567   7.337   9.633
17138SOL    HW152855   5.638   7.316   9.694
17138SOL    HW252856   5.582   7.429   9.610
17139SOL     OW52857   3.778   7.176   9.421
17139SOL    HW152858   3.758   7.084   9.437
17139SOL    HW252859   3.746   7.221   9.499
17140SOL     OW52860   5.425   6.510   9.957
17140SOL    HW152861   5.490   6.451   9.918
17140SOL    HW252862   5.391   6.561   9.884
17141SOL     OW52863   5.374   6.686   9.741
17141SOL    HW152864   5.460   6.683   9.699
17141SOL    HW252865   5.383   6.753   9.809
17142SOL     OW52866   3.847   6.328  10.894
17142SOL    HW152867   3.936   6.362  10.892
17142SOL    HW252868   3.791   6.404  10.881
17143SOL     OW52869   4.338   6.980  10.048
17143SOL    HW152870   4.295   6.894  10.053
17143SOL    HW252871   4.325   7.008   9.957
17144SOL     OW52872   5.003   6.818  10.731
17144SOL    HW152873   5.029   6.750  10.669
17144SOL    HW252874   5.066   6.811  10.803
17145SOL     OW52875   4.552   5.604   9.841
17145SOL    HW152876   4.590   5.684   9.804
17145SOL    HW252877   4.457   5.618   9.837
17146SOL     OW52878   3.909   6.544  10.596
17146SOL    HW152879   3.996   6.507  10.582
17146SOL    HW252880   3.853   6.499  10.532
17147SOL     OW52881   5.256   6.589   9.509
17147SOL    HW152882   5.187   6.529   9.537
17147SOL    HW252883   5.297   6.618   9.591
17148SOL     OW52884   4.911   7.397  10.944
17148SOL    HW152885   4.909   7.459  10.871
17148SOL    HW252886   4.924   7.311  10.902
17149SOL     OW52887   4.067   5.832  11.165
17149SOL    HW152888   4.107   5.919  11.175
17149SOL    HW252889   3.973   5.847  11.174
17150SOL     OW52890   5.189   7.007  10.246
17150SOL    HW152891   5.125   7.021  10.316
17150SOL    HW252892   5.177   6.915  10.221
17151SOL     OW52893   5.374   7.350   9.883
17151SOL    HW152894   5.351   7.316   9.797
17151SOL    HW252895   5.361   7.276   9.942
17152SOL     OW52896   4.319   6.305   9.587
17152SOL    HW152897   4.313   6.387   9.539
17152SOL    HW252898   4.251   6.312   9.654
17153SOL     OW52899   5.002   5.967  10.248
17153SOL    HW152900   4.914   5.928  10.251
17153SOL    HW252901   5.055   5.909  10.303
17154SOL     OW52902   5.300   7.266   9.624
17154SOL    HW152903   5.393   7.283   9.613
17154SOL    HW252904   5.268   7.249   9.535
17155SOL     OW52905   4.513   6.201  10.757
17155SOL    HW152906   4.488   6.171  10.844
17155SOL    HW252907   4.485   6.130  10.698
17156SOL     OW52908   5.116   6.065  10.985
17156SOL    HW152909   5.121   6.106  11.072
17156SOL    HW252910   5.166   5.984  10.994
17157SOL     OW52911   4.673   6.468  10.899
17157SOL    HW152912   4.726   6.399  10.858
17157SOL    HW252913   4.622   6.505  10.828
17158SOL     OW52914   4.723   5.992  10.531
17158SOL    HW152915   4.631   6.001  10.557
17158SOL    HW252916   4.719   5.946  10.447
17159SOL     OW52917   4.779   6.287   9.732
17159SOL    HW152918   4.797   6.276   9.826
17159SOL    HW252919   4.696   6.242   9.719
17160SOL     OW52920   3.813   6.400  10.093
17160SOL    HW152921   3.894   6.395  10.144
17160SOL    HW252922   3.769   6.478  10.126
17161SOL     OW52923   3.849   7.463  10.893
17161SOL    HW152924   3.849   7.442  10.987
17161SOL    HW252925   3.771   7.418  10.859
17162SOL     OW52926   4.612   5.943   9.509
17162SOL    HW152927   4.663   5.991   9.444
17162SOL    HW252928   4.570   5.872   9.459
17163SOL     OW52929   5.429   6.159  11.144
17163SOL    HW152930   5.396   6.232  11.093
17163SOL    HW252931   5.451   6.092  11.079
17164SOL     OW52932   5.110   6.732   9.852
17164SOL    HW152933   5.185   6.713   9.795
17164SOL    HW252934   5.055   6.790   9.800
17165SOL     OW52935   4.273   5.752  10.204
17165SOL    HW152936   4.277   5.797  10.289
17165SOL    HW252937   4.270   5.823  10.140
17166SOL     OW52938   4.727   7.039   9.780
17166SOL    HW152939   4.697   7.109   9.723
17166SOL    HW252940   4.692   7.061   9.866
17167SOL     OW52941   4.079   7.404  10.184
17167SOL    HW152942   4.123   7.319  10.190
17167SOL    HW252943   4.148   7.468  10.203
17168SOL     OW52944   5.533   6.642  10.180
17168SOL    HW152945   5.486   6.613  10.102
17168SOL    HW252946   5.466   6.644  10.248
17169SOL     OW52947   4.945   7.127  10.825
17169SOL    HW152948   4.936   7.055  10.889
17169SOL    HW252949   4.884   7.104  10.755
17170SOL     OW52950   4.028   6.544   9.564
17170SOL    HW152951   4.111   6.562   9.520
17170SOL    HW252952   4.000   6.460   9.529
17171SOL     OW52953   5.204   6.352  10.035
17171SOL    HW152954   5.203   6.303  10.117
17171SOL    HW252955   5.289   6.396  10.034
17172SOL     OW52956   4.194   6.863  11.054
17172SOL    HW152957   4.169   6.868  10.962
17172SOL    HW252958   4.112   6.851  11.102
17173SOL     OW52959   4.853   7.363   9.535
17173SOL    HW152960   4.775   7.327   9.576
17173SOL    HW252961   4.877   7.298   9.468
17174SOL     OW52962   3.928   5.850  10.815
17174SOL    HW152963   3.845   5.896  10.803
17174SOL    HW252964   3.904   5.763  10.846
17175SOL     OW52965   5.358   6.976   9.412
17175SOL    HW152966   5.315   7.058   9.390
17175SOL    HW252967   5.294   6.908   9.388
17176SOL     OW52968   4.182   7.327   9.624
17176SOL    HW152969   4.233   7.372   9.691
17176SOL    HW252970   4.247   7.282   9.570
17177SOL     OW52971   5.118   5.689   9.749
17177SOL    HW152972   5.105   5.663   9.658
17177SOL    HW252973   5.211   5.673   9.765
17178SOL     OW52974   3.985   7.375  10.530
17178SOL    HW152975   4.030   7.297  10.564
17178SOL    HW252976   3.965   7.353  10.439
17179SOL     OW52977   4.668   7.284  10.200
17179SOL    HW152978   4.753   7.241  10.210
17179SOL    HW252979   4.624   7.235  10.131
17180SOL     OW52980   4.121   6.277   9.785
17180SOL    HW152981   4.141   6.183   9.796
17180SOL    HW252982   4.026   6.283   9.798
17181SOL     OW52983   5.240   5.812  11.031
17181SOL    HW152984   5.248   5.830  11.125
17181SOL    HW252985   5.176   5.741  11.026
17182SOL     OW52986   4.376   5.690   9.411
17182SOL    HW152987   4.426   5.609   9.425
17182SOL    HW252988   4.315   5.668   9.340
17183SOL     OW52989   4.491   5.865  11.072
17183SOL    HW152990   4.572   5.814  11.065
17183SOL    HW252991   4.441   5.820  11.140
17184SOL     OW52992   4.598   7.114  10.508
17184SOL    HW152993   4.582   7.075  10.422
17184SOL    HW252994   4.668   7.061  10.545
17185SOL     OW52995   5.057   6.176  10.741
17185SOL    HW152996   5.089   6.145  10.826
17185SOL    HW252997   5.096   6.263  10.731
17186SOL     OW52998   4.541   6.974  10.261
17186SOL    HW152999   4.627   6.963  10.219
17186SOL    HW253000   4.480   6.982  10.187
17187SOL     OW53001   4.651   6.098  10.202
17187SOL    HW153002   4.628   6.089  10.110
17187SOL    HW253003   4.679   6.010  10.229
17188SOL     OW53004   4.286   5.654   9.808
17188SOL    HW153005   4.201   5.647   9.851
17188SOL    HW253006   4.275   5.725   9.744
17189SOL     OW53007   5.161   6.793   9.349
17189SOL    HW153008   5.189   6.715   9.397
17189SOL    HW253009   5.071   6.809   9.380
17190SOL     OW53010   4.009   5.636   9.500
17190SOL    HW153011   4.060   5.690   9.439
17190SOL    HW253012   4.072   5.572   9.534
17191SOL     OW53013   4.673   5.845   9.763
17191SOL    HW153014   4.647   5.873   9.675
17191SOL    HW253015   4.768   5.857   9.764
17192SOL     OW53016   4.799   6.271  10.761
17192SOL    HW153017   4.734   6.201  10.762
17192SOL    HW253018   4.883   6.226  10.753
17193SOL     OW53019   4.929   7.171  10.113
17193SOL    HW153020   4.946   7.232  10.041
17193SOL    HW253021   5.010   7.170  10.164
17194SOL     OW53022   4.198   6.744  10.031
17194SOL    HW153023   4.134   6.720  10.099
17194SOL    HW253024   4.151   6.732   9.949
17195SOL     OW53025   4.982   7.378   9.928
17195SOL    HW153026   5.030   7.436   9.869
17195SOL    HW253027   4.912   7.431   9.964
17196SOL     OW53028   4.756   6.114   9.339
17196SOL    HW153029   4.713   6.197   9.321
17196SOL    HW253030   4.817   6.133   9.409
17197SOL     OW53031   3.818   6.133  10.703
17197SOL    HW153032   3.910   6.136  10.675
17197SOL    HW253033   3.811   6.203  10.769
17198SOL     OW53034   4.285   5.818  10.479
17198SOL    HW153035   4.323   5.732  10.499
17198SOL    HW253036   4.193   5.811  10.507
17199SOL     OW53037   4.593   6.048   9.941
17199SOL    HW153038   4.551   6.100   9.872
17199SOL    HW253039   4.618   5.967   9.897
17200SOL     OW53040   4.731   5.649  10.058
17200SOL    HW153041   4.674   5.641   9.982
17200SOL    HW253042   4.714   5.569  10.109
17201SOL     OW53043   5.162   6.745  10.161
17201SOL    HW153044   5.093   6.679  10.163
17201SOL    HW253045   5.185   6.752  10.068
17202SOL     OW53046   5.186   6.203  10.272
17202SOL    HW153047   5.128   6.126  10.269
17202SOL    HW253048   5.242   6.188  10.349
17203SOL     OW53049   5.564   6.395   9.702
17203SOL    HW153050   5.624   6.344   9.756
17203SOL    HW253051   5.533   6.334   9.635
17204SOL     OW53052   4.214   7.011   9.458
17204SOL    HW153053   4.140   6.977   9.508
17204SOL    HW253054   4.217   6.957   9.379
17205SOL     OW53055   5.409   6.856   9.945
17205SOL    HW153056   5.504   6.855   9.959
17205SOL    HW253057   5.383   6.946   9.966
17206SOL     OW53058   5.121   6.152   9.386
17206SOL    HW153059   5.053   6.135   9.451
17206SOL    HW253060   5.191   6.089   9.408
17207SOL     OW53061   4.259   5.847   9.617
17207SOL    HW153062   4.300   5.796   9.548
17207SOL    HW253063   4.227   5.926   9.573
17208SOL     OW53064   5.468   6.830  10.861
17208SOL    HW153065   5.556   6.792  10.850
17208SOL    HW253066   5.484   6.918  10.893
17209SOL     OW53067   4.776   6.956  10.657
17209SOL    HW153068   4.699   6.915  10.696
17209SOL    HW253069   4.849   6.903  10.688
17210SOL     OW53070   5.336   7.220  10.978
17210SOL    HW153071   5.323   7.252  10.888
17210SOL    HW253072   5.415   7.166  10.972
17211SOL     OW53073   4.868   6.814  10.412
17211SOL    HW153074   4.790   6.828  10.465
17211SOL    HW253075   4.843   6.841  10.324
17212SOL     OW53076   5.345   6.678  10.381
17212SOL    HW153077   5.335   6.741  10.452
17212SOL    HW253078   5.271   6.694  10.323
17213SOL     OW53079   4.637   5.678  10.696
17213SOL    HW153080   4.658   5.655  10.605
17213SOL    HW253081   4.719   5.713  10.731
17214SOL     OW53082   4.708   6.699  11.034
17214SOL    HW153083   4.616   6.714  11.058
17214SOL    HW253084   4.706   6.620  10.980
17215SOL     OW53085   4.437   6.652   9.681
17215SOL    HW153086   4.422   6.627   9.772
17215SOL    HW253087   4.514   6.601   9.654
17216SOL     OW53088   4.147   6.411  10.566
17216SOL    HW153089   4.216   6.418  10.632
17216SOL    HW253090   4.115   6.321  10.574
17217SOL     OW53091   4.986   5.952  10.598
17217SOL    HW153092   5.017   6.033  10.639
17217SOL    HW253093   4.896   5.972  10.570
17218SOL     OW53094   3.801   7.159  10.672
17218SOL    HW153095   3.769   7.224  10.610
17218SOL    HW253096   3.896   7.157  10.658
17219SOL     OW53097   4.050   6.711   9.799
17219SOL    HW153098   4.053   6.779   9.732
17219SOL    HW253099   4.049   6.629   9.749
17220SOL     OW53100   4.267   6.123  10.177
17220SOL    HW153101   4.279   6.179  10.101
17220SOL    HW253102   4.345   6.139  10.231
17221SOL     OW53103   4.972   6.937   9.705
17221SOL    HW153104   5.029   7.007   9.739
17221SOL    HW253105   4.885   6.960   9.736
17222SOL     OW53106   5.020   7.048  10.454
17222SOL    HW153107   5.069   7.048  10.536
17222SOL    HW253108   4.965   6.970  10.459
17223SOL     OW53109   5.302   6.200   9.802
17223SOL    HW153110   5.242   6.252   9.856
17223SOL    HW253111   5.326   6.258   9.730
17224SOL     OW53112   4.070   7.119  10.613
17224SOL    HW153113   4.059   7.070  10.532
17224SOL    HW253114   4.164   7.130  10.622
17225SOL     OW53115   4.139   6.334  10.914
17225SOL    HW153116   4.206   6.373  10.858
17225SOL    HW253117   4.165   6.242  10.922
17226SOL     OW53118   5.343   6.373  11.002
17226SOL    HW153119   5.255   6.411  10.992
17226SOL    HW253120   5.393   6.410  10.929
17227SOL     OW53121   4.723   5.722  11.068
17227SOL    HW153122   4.781   5.794  11.043
17227SOL    HW253123   4.769   5.643  11.040
17228SOL     OW53124   4.216   5.621  11.071
17228SOL    HW153125   4.170   5.568  11.005
17228SOL    HW253126   4.160   5.696  11.086
17229SOL     OW53127   4.320   6.458  10.349
17229SOL    HW153128   4.347   6.550  10.350
17229SOL    HW253129   4.254   6.452  10.418
17230SOL     OW53130   5.058   6.444  10.330
17230SOL    HW153131   4.973   6.427  10.288
17230SOL    HW253132   5.108   6.364  10.315
17231SOL     OW53133   4.923   6.116   9.571
17231SOL    HW153134   4.931   6.035   9.623
17231SOL    HW253135   4.877   6.177   9.628
17232SOL     OW53136   4.024   5.781  10.556
17232SOL    HW153137   3.986   5.805  10.640
17232SOL    HW253138   4.009   5.686  10.549
17233SOL     OW53139   3.767   6.897  10.581
17233SOL    HW153140   3.800   6.840  10.650
17233SOL    HW253141   3.774   6.985  10.618
17234SOL     OW53142   4.456   6.216  10.368
17234SOL    HW153143   4.524   6.201  10.303
17234SOL    HW253144   4.420   6.302  10.346
17235SOL     OW53145   5.470   6.550  11.175
17235SOL    HW153146   5.431   6.481  11.121
17235SOL    HW253147   5.405   6.566  11.243
17236SOL     OW53148   4.040   5.645   9.933
17236SOL    HW153149   4.013   5.735   9.954
17236SOL    HW253150   4.046   5.601  10.017
17237SOL     OW53151   5.356   5.964   9.669
17237SOL    HW153152   5.386   5.895   9.728
17237SOL    HW253153   5.329   6.035   9.727
17238SOL     OW53154   4.753   6.345  10.265
17238SOL    HW153155   4.740   6.360  10.359
17238SOL    HW253156   4.726   6.255  10.251
17239SOL     OW53157   4.705   7.150  11.037
17239SOL    HW153158   4.685   7.194  10.954
17239SOL    HW253159   4.749   7.069  11.011
17240SOL     OW53160   5.571   7.085  10.916
17240SOL    HW153161   5.594   7.112  10.827
17240SOL    HW253162   5.653   7.095  10.966
17241SOL     OW53163   4.075   6.505  11.119
17241SOL    HW153164   4.155   6.518  11.168
17241SOL    HW253165   4.098   6.442  11.051
17242SOL     OW53166   5.232   5.870   9.437
17242SOL    HW153167   5.177   5.795   9.461
17242SOL    HW253168   5.276   5.895   9.518
17243SOL     OW53169   5.016   6.408   9.343
17243SOL    HW153170   5.055   6.321   9.346
17243SOL    HW253171   5.045   6.444   9.259
17244SOL     OW53172   4.793   6.930  10.171
17244SOL    HW153173   4.797   6.857  10.109
17244SOL    HW253174   4.844   7.000  10.131
17245SOL     OW53175   4.036   6.397  10.256
17245SOL    HW153176   4.129   6.407  10.233
17245SOL    HW253177   4.028   6.308  10.288
17246SOL     OW53178   4.048   6.123  10.327
17246SOL    HW153179   4.010   6.036  10.314
17246SOL    HW253180   4.125   6.125  10.271
17247SOL     OW53181   4.859   5.957  10.997
17247SOL    HW153182   4.811   6.010  11.060
17247SOL    HW253183   4.944   6.000  10.988
17248SOL     OW53184   4.881   5.777  10.786
17248SOL    HW153185   4.869   5.842  10.855
17248SOL    HW253186   4.924   5.824  10.715
17249SOL     OW53187   3.743   6.899   9.496
17249SOL    HW153188   3.653   6.918   9.468
17249SOL    HW253189   3.737   6.812   9.535
17250SOL     OW53190   3.817   7.362  10.258
17250SOL    HW153191   3.784   7.285  10.211
17250SOL    HW253192   3.904   7.377  10.222
17251SOL     OW53193   4.214   7.163  10.215
17251SOL    HW153194   4.285   7.223  10.238
17251SOL    HW253195   4.255   7.100  10.156
17252SOL     OW53196   4.685   6.375  10.530
17252SOL    HW153197   4.740   6.353  10.605
17252SOL    HW253198   4.607   6.321  10.540
17253SOL     OW53199   3.758   6.146  10.427
17253SOL    HW153200   3.831   6.126  10.369
17253SOL    HW253201   3.795   6.138  10.515
17254SOL     OW53202   3.919   6.106  11.044
17254SOL    HW153203   3.957   6.051  10.976
17254SOL    HW253204   3.885   6.182  10.996
17255SOL     OW53205   5.109   6.515  10.966
17255SOL    HW153206   5.128   6.608  10.959
17255SOL    HW253207   5.101   6.485  10.876
17256SOL     OW53208   4.543   6.160   9.679
17256SOL    HW153209   4.552   6.084   9.621
17256SOL    HW253210   4.467   6.207   9.646
17257SOL     OW53211   5.360   6.189  10.489
17257SOL    HW153212   5.349   6.123  10.558
17257SOL    HW253213   5.448   6.173  10.455
17258SOL     OW53214   3.958   7.130  11.035
17258SOL    HW153215   3.935   7.184  11.111
17258SOL    HW253216   3.967   7.041  11.071
17259SOL     OW53217   4.447   6.026  10.561
17259SOL    HW153218   4.388   5.954  10.537
17259SOL    HW253219   4.437   6.089  10.490
17260SOL     OW53220   4.629   7.265  10.794
17260SOL    HW153221   4.617   7.216  10.713
17260SOL    HW253222   4.626   7.357  10.768
17261SOL     OW53223   4.180   6.080   9.498
17261SOL    HW153224   4.242   6.150   9.518
17261SOL    HW253225   4.097   6.125   9.481
17262SOL     OW53226   3.862   6.732  10.786
17262SOL    HW153227   3.867   6.688  10.871
17262SOL    HW253228   3.879   6.662  10.722
17263SOL     OW53229   5.040   6.630  10.526
17263SOL    HW153230   5.054   6.564  10.459
17263SOL    HW253231   4.980   6.693  10.485
17264SOL     OW53232   5.042   6.442   9.616
17264SOL    HW153233   4.969   6.403   9.664
17264SOL    HW253234   5.021   6.426   9.524
17265SOL     OW53235   5.518   7.315  10.481
17265SOL    HW153236   5.573   7.339  10.407
17265SOL    HW253237   5.478   7.232  10.455
17266SOL     OW53238   4.967   7.320  10.425
17266SOL    HW153239   5.048   7.346  10.381
17266SOL    HW253240   4.976   7.226  10.438
17267SOL     OW53241   3.805   6.861  10.312
17267SOL    HW153242   3.785   6.869  10.405
17267SOL    HW253243   3.744   6.795  10.279
17268SOL     OW53244   4.409   7.262  11.051
17268SOL    HW153245   4.346   7.332  11.035
17268SOL    HW253246   4.477   7.275  10.985
17269SOL     OW53247   5.466   5.752   9.818
17269SOL    HW153248   5.527   5.734   9.746
17269SOL    HW253249   5.440   5.666   9.850
17270SOL     OW53250   5.123   7.155   9.810
17270SOL    HW153251   5.175   7.188   9.737
17270SOL    HW253252   5.066   7.228   9.835
17271SOL     OW53253   3.857   7.391  11.153
17271SOL    HW153254   3.812   7.317  11.195
17271SOL    HW253255   3.906   7.433  11.224
17272SOL     OW53256   5.001   6.524   9.988
17272SOL    HW153257   5.073   6.462  10.000
17272SOL    HW253258   5.035   6.591   9.929
17273SOL     OW53259   4.520   6.866  10.724
17273SOL    HW153260   4.492   6.908  10.805
17273SOL    HW253261   4.447   6.878  10.664
17274SOL     OW53262   4.390   7.217   9.465
17274SOL    HW153263   4.407   7.230   9.371
17274SOL    HW253264   4.336   7.138   9.469
17275SOL     OW53265   5.340   7.312  10.708
17275SOL    HW153266   5.396   7.313  10.631
17275SOL    HW253267   5.323   7.404  10.728
17276SOL     OW53268   5.571   5.751  10.278
17276SOL    HW153269   5.598   5.662  10.255
17276SOL    HW253270   5.485   5.762  10.239
17277SOL     OW53271   3.980   5.896  10.025
17277SOL    HW153272   3.894   5.928   9.998
17277SOL    HW253273   3.976   5.894  10.121
17278SOL     OW53274   4.932   7.180   9.346
17278SOL    HW153275   4.921   7.088   9.372
17278SOL    HW253276   4.867   7.193   9.278
17279SOL     OW53277   4.546   6.592  10.692
17279SOL    HW153278   4.585   6.574  10.606
17279SOL    HW253279   4.543   6.687  10.697
17280SOL     OW53280   4.653   6.512   9.606
17280SOL    HW153281   4.713   6.541   9.537
17280SOL    HW253282   4.696   6.436   9.644
17281SOL     OW53283   5.207   7.232   9.361
17281SOL    HW153284   5.116   7.209   9.343
17281SOL    HW253285   5.249   7.232   9.274
17282SOL     OW53286   4.087   6.898  10.809
17282SOL    HW153287   4.080   6.969  10.745
17282SOL    HW253288   4.014   6.840  10.790
17283SOL     OW53289   5.329   6.871  10.589
17283SOL    HW153290   5.384   6.848  10.664
17283SOL    HW253291   5.267   6.936  10.622
17284SOL     OW53292   4.789   6.702  10.030
17284SOL    HW153293   4.714   6.651  10.061
17284SOL    HW253294   4.853   6.636  10.003
17285SOL     OW53295   4.750   5.830  10.277
17285SOL    HW153296   4.743   5.787  10.191
17285SOL    HW253297   4.744   5.758  10.340
17286SOL     OW53298   4.332   7.075   9.792
17286SOL    HW153299   4.387   7.024   9.732
17286SOL    HW253300   4.248   7.083   9.746
17287SOL     OW53301   5.460   5.975  10.694
17287SOL    HW153302   5.531   6.038  10.689
17287SOL    HW253303   5.486   5.904  10.636
17288SOL     OW53304   4.000   6.925   9.611
17288SOL    HW153305   3.911   6.919   9.575
17288SOL    HW253306   3.989   6.969   9.695
17289SOL     OW53307   3.844   6.638  11.048
17289SOL    HW153308   3.766   6.605  11.092
17289SOL    HW253309   3.915   6.584  11.081
17290SOL     OW53310   4.399   5.784  10.812
17290SOL    HW153311   4.480   5.760  10.767
17290SOL    HW253312   4.429   5.817  10.897
17291SOL     OW53313   3.793   5.918   9.356
17291SOL    HW153314   3.730   5.868   9.305
17291SOL    HW253315   3.819   5.990   9.299
17292SOL     OW53316   5.146   6.444  10.706
17292SOL    HW153317   5.094   6.502  10.650
17292SOL    HW253318   5.233   6.444  10.665
17293SOL     OW53319   3.783   5.748   9.600
17293SOL    HW153320   3.771   5.815   9.532
17293SOL    HW253321   3.868   5.709   9.579
17294SOL     OW53322   4.904   6.912   9.431
17294SOL    HW153323   4.823   6.862   9.430
17294SOL    HW253324   4.931   6.914   9.523
17295SOL     OW53325   4.346   6.415  10.751
17295SOL    HW153326   4.405   6.489  10.735
17295SOL    HW253327   4.403   6.339  10.753
17296SOL     OW53328   5.206   7.385  10.304
17296SOL    HW153329   5.229   7.446  10.234
17296SOL    HW253330   5.284   7.331  10.315
17297SOL     OW53331   4.446   6.136  11.010
17297SOL    HW153332   4.494   6.191  11.073
17297SOL    HW253333   4.461   6.047  11.041
17298SOL     OW53334   5.198   6.776  10.936
17298SOL    HW153335   5.189   6.794  11.029
17298SOL    HW253336   5.289   6.797  10.916
17299SOL     OW53337   4.091   7.328  10.884
17299SOL    HW153338   4.009   7.374  10.865
17299SOL    HW253339   4.063   7.244  10.921
17300SOL     OW53340   5.385   6.462  10.566
17300SOL    HW153341   5.380   6.375  10.525
17300SOL    HW253342   5.375   6.523  10.493
17301SOL     OW53343   4.947   5.910   9.766
17301SOL    HW153344   5.004   5.834   9.757
17301SOL    HW253345   4.981   5.957   9.842
17302SOL     OW53346   4.298   6.327   9.993
17302SOL    HW153347   4.345   6.407   9.968
17302SOL    HW253348   4.240   6.309   9.920
17303SOL     OW53349   5.472   5.950  10.969
17303SOL    HW153350   5.466   5.964  10.875
17303SOL    HW253351   5.398   5.893  10.990
17304SOL     OW53352   5.486   6.515  10.816
17304SOL    HW153353   5.464   6.607  10.828
17304SOL    HW253354   5.461   6.496  10.725
17305SOL     OW53355   4.578   6.954   9.355
17305SOL    HW153356   4.550   6.985   9.441
17305SOL    HW253357   4.605   7.033   9.309
17306SOL     OW53358   4.391   7.370  10.247
17306SOL    HW153359   4.375   7.462  10.226
17306SOL    HW253360   4.485   7.359  10.237
17307SOL     OW53361   4.593   6.561  10.165
17307SOL    HW153362   4.641   6.484  10.197
17307SOL    HW253363   4.551   6.597  10.243
17308SOL     OW53364   4.817   6.593   9.402
17308SOL    HW153365   4.784   6.628   9.319
17308SOL    HW253366   4.882   6.527   9.377
17309SOL     OW53367   5.568   7.141  10.150
17309SOL    HW153368   5.488   7.128  10.099
17309SOL    HW253369   5.577   7.060  10.201
17310SOL     OW53370   3.937   6.876  11.153
17310SOL    HW153371   3.903   6.798  11.109
17310SOL    HW253372   3.879   6.888  11.229
17311SOL     OW53373   3.822   6.819   9.972
17311SOL    HW153374   3.830   6.767  10.052
17311SOL    HW253375   3.883   6.777   9.911
17312SOL     OW53376   4.413   6.995  10.943
17312SOL    HW153377   4.334   6.954  10.978
17312SOL    HW253378   4.412   7.084  10.979
17313SOL     OW53379   5.542   5.763  10.549
17313SOL    HW153380   5.533   5.669  10.562
17313SOL    HW253381   5.552   5.774  10.455
17314SOL     OW53382   4.159   6.016   9.836
17314SOL    HW153383   4.190   5.951   9.773
17314SOL    HW253384   4.106   5.966   9.898
17315SOL     OW53385   5.405   7.079  10.410
17315SOL    HW153386   5.335   7.057  10.348
17315SOL    HW253387   5.407   7.005  10.471
17316SOL     OW53388   4.069   6.151  10.604
17316SOL    HW153389   4.121   6.088  10.655
17316SOL    HW253390   4.079   6.122  10.514
17317SOL     OW53391   4.557   7.174   9.978
17317SOL    HW153392   4.539   7.248   9.921
17317SOL    HW253393   4.480   7.117   9.968
17318SOL     OW53394   5.147   5.812  10.420
17318SOL    HW153395   5.146   5.718  10.439
17318SOL    HW253396   5.098   5.852  10.493
17319SOL     OW53397   4.731   5.599  10.440
17319SOL    HW153398   4.679   5.536  10.390
17319SOL    HW253399   4.817   5.559  10.447
17320SOL     OW53400   4.500   6.922   9.640
17320SOL    HW153401   4.472   6.831   9.641
17320SOL    HW253402   4.586   6.921   9.682
17321SOL     OW53403   4.343   7.147  10.599
17321SOL    HW153404   4.343   7.230  10.647
17321SOL    HW253405   4.431   7.141  10.563
17322SOL     OW53406   5.086   5.631   9.482
17322SOL    HW153407   5.124   5.562   9.428
17322SOL    HW253408   4.996   5.603   9.498
17323SOL     OW53409   5.033   6.056   9.989
17323SOL    HW153410   4.976   6.133   9.986
17323SOL    HW253411   5.019   6.020  10.076
17324SOL     OW53412   5.315   5.783  10.198
17324SOL    HW153413   5.256   5.806  10.269
17324SOL    HW253414   5.312   5.858  10.139
17325SOL     OW53415   3.768   6.649   9.622
17325SOL    HW153416   3.859   6.637   9.596
17325SOL    HW253417   3.737   6.561   9.644
17326SOL     OW53418   4.616   7.250   9.638
17326SOL    HW153419   4.539   7.231   9.584
17326SOL    HW253420   4.585   7.313   9.703
17327SOL     OW53421   3.944   6.214  11.303
17327SOL    HW153422   3.855   6.203  11.335
17327SOL    HW253423   3.939   6.190  11.210
17328SOL     OW53424   3.945   5.874  12.168
17328SOL    HW153425   3.977   5.835  12.249
17328SOL    HW253426   3.859   5.835  12.154
17329SOL     OW53427   3.721   5.972  11.811
17329SOL    HW153428   3.640   5.998  11.856
17329SOL    HW253429   3.696   5.896  11.758
17330SOL     OW53430   4.267   6.836  12.330
17330SOL    HW153431   4.189   6.871  12.287
17330SOL    HW253432   4.274   6.885  12.412
17331SOL     OW53433   5.306   7.105  11.885
17331SOL    HW153434   5.261   7.076  11.965
17331SOL    HW253435   5.237   7.107  11.819
17332SOL     OW53436   4.862   6.285  11.864
17332SOL    HW153437   4.905   6.370  11.855
17332SOL    HW253438   4.809   6.293  11.943
17333SOL     OW53439   5.501   6.183  11.401
17333SOL    HW153440   5.476   6.181  11.309
17333SOL    HW253441   5.464   6.103  11.438
17334SOL     OW53442   4.495   6.728  12.238
17334SOL    HW153443   4.410   6.754  12.273
17334SOL    HW253444   4.523   6.804  12.186
17335SOL     OW53445   4.410   6.580  11.816
17335SOL    HW153446   4.475   6.575  11.886
17335SOL    HW253447   4.341   6.636  11.851
17336SOL     OW53448   4.056   6.992  12.226
17336SOL    HW153449   3.976   6.958  12.187
17336SOL    HW253450   4.094   7.046  12.156
17337SOL     OW53451   5.323   6.024  11.918
17337SOL    HW153452   5.255   6.034  11.851
17337SOL    HW253453   5.312   6.101  11.974
17338SOL     OW53454   3.940   7.308  11.635
17338SOL    HW153455   3.966   7.381  11.691
17338SOL    HW253456   4.014   7.297  11.575
17339SOL     OW53457   3.961   7.037  11.714
17339SOL    HW153458   3.933   7.129  11.715
17339SOL    HW253459   3.902   6.994  11.776
17340SOL     OW53460   3.998   6.676  12.068
17340SOL    HW153461   4.000   6.585  12.097
17340SOL    HW253462   3.943   6.721  12.132
17341SOL     OW53463   4.297   6.572  11.317
17341SOL    HW153464   4.346   6.615  11.248
17341SOL    HW253465   4.337   6.603  11.398
17342SOL     OW53466   3.845   6.243  11.735
17342SOL    HW153467   3.814   6.155  11.755
17342SOL    HW253468   3.836   6.291  11.817
17343SOL     OW53469   5.567   7.337  11.497
17343SOL    HW153470   5.639   7.315  11.556
17343SOL    HW253471   5.583   7.428  11.473
17344SOL     OW53472   3.773   7.173  11.288
17344SOL    HW153473   3.754   7.081  11.306
17344SOL    HW253474   3.742   7.220  11.366
17345SOL     OW53475   5.422   6.510  11.822
17345SOL    HW153476   5.493   6.457  11.787
17345SOL    HW253477   5.392   6.562  11.746
17346SOL     OW53478   5.375   6.687  11.604
17346SOL    HW153479   5.461   6.685  11.562
17346SOL    HW253480   5.383   6.753  11.673
17347SOL     OW53481   3.896   6.335   0.223
17347SOL    HW153482   3.873   6.299   0.308
17347SOL    HW253483   3.817   6.379   0.193
17348SOL     OW53484   4.334   6.981  11.902
17348SOL    HW153485   4.290   6.896  11.909
17348SOL    HW253486   4.320   7.008  11.812
17349SOL     OW53487   4.550   5.598  11.694
17349SOL    HW153488   4.589   5.680  11.663
17349SOL    HW253489   4.456   5.615  11.693
17350SOL     OW53490   3.919   6.584  12.406
17350SOL    HW153491   3.998   6.530  12.407
17350SOL    HW253492   3.850   6.527  12.440
17351SOL     OW53493   5.256   6.589  11.372
17351SOL    HW153494   5.187   6.530  11.402
17351SOL    HW253495   5.298   6.620  11.453
17352SOL     OW53496   5.191   7.001  12.116
17352SOL    HW153497   5.125   7.014  12.184
17352SOL    HW253498   5.176   6.911  12.086
17353SOL     OW53499   5.373   7.350  11.745
17353SOL    HW153500   5.352   7.314  11.660
17353SOL    HW253501   5.363   7.277  11.806
17354SOL     OW53502   4.318   6.302  11.448
17354SOL    HW153503   4.315   6.385  11.401
17354SOL    HW253504   4.252   6.310  11.516
17355SOL     OW53505   5.002   5.962  12.107
17355SOL    HW153506   4.914   5.924  12.111
17355SOL    HW253507   5.055   5.907  12.164
17356SOL     OW53508   5.300   7.263  11.486
17356SOL    HW153509   5.393   7.282  11.476
17356SOL    HW253510   5.268   7.247  11.397
17357SOL     OW53511   4.712   5.941  12.379
17357SOL    HW153512   4.628   5.978  12.406
17357SOL    HW253513   4.698   5.912  12.289
17358SOL     OW53514   4.781   6.285  11.594
17358SOL    HW153515   4.799   6.277  11.687
17358SOL    HW253516   4.696   6.241  11.582
17359SOL     OW53517   3.812   6.410  11.953
17359SOL    HW153518   3.894   6.403  12.001
17359SOL    HW253519   3.768   6.486  11.992
17360SOL     OW53520   4.619   5.940  11.371
17360SOL    HW153521   4.666   5.998  11.310
17360SOL    HW253522   4.597   5.863  11.318
17361SOL     OW53523   5.109   6.730  11.711
17361SOL    HW153524   5.185   6.714  11.656
17361SOL    HW253525   5.054   6.790  11.660
17362SOL     OW53526   4.278   5.767  12.066
17362SOL    HW153527   4.280   5.827  12.141
17362SOL    HW253528   4.271   5.824  11.990
17363SOL     OW53529   4.725   7.038  11.643
17363SOL    HW153530   4.695   7.109  11.586
17363SOL    HW253531   4.690   7.060  11.729
17364SOL     OW53532   4.080   7.401  12.039
17364SOL    HW153533   4.124   7.317  12.049
17364SOL    HW253534   4.147   7.466  12.062
17365SOL     OW53535   5.527   6.644  12.049
17365SOL    HW153536   5.481   6.617  11.969
17365SOL    HW253537   5.459   6.647  12.116
17366SOL     OW53538   4.030   6.545  11.428
17366SOL    HW153539   4.113   6.565  11.384
17366SOL    HW253540   4.003   6.461  11.390
17367SOL     OW53541   5.206   6.347  11.889
17367SOL    HW153542   5.204   6.301  11.973
17367SOL    HW253543   5.288   6.396  11.890
17368SOL     OW53544   4.855   7.362  11.399
17368SOL    HW153545   4.775   7.327  11.438
17368SOL    HW253546   4.878   7.298  11.331
17369SOL     OW53547   5.357   6.975  11.274
17369SOL    HW153548   5.315   7.058  11.252
17369SOL    HW253549   5.292   6.909  11.249
17370SOL     OW53550   4.184   7.328  11.484
17370SOL    HW153551   4.234   7.374  11.552
17370SOL    HW253552   4.250   7.285  11.431
17371SOL     OW53553   5.120   5.690  11.617
17371SOL    HW153554   5.111   5.665  11.525
17371SOL    HW253555   5.215   5.686  11.633
17372SOL     OW53556   3.978   7.364  12.389
17372SOL    HW153557   3.972   7.290  12.450
17372SOL    HW253558   3.926   7.337  12.313
17373SOL     OW53559   4.670   7.283  12.068
17373SOL    HW153560   4.754   7.238  12.073
17373SOL    HW253561   4.620   7.236  12.001
17374SOL     OW53562   4.123   6.277  11.648
17374SOL    HW153563   4.139   6.184  11.660
17374SOL    HW253564   4.029   6.287  11.662
17375SOL     OW53565   4.380   5.696  11.273
17375SOL    HW153566   4.435   5.619  11.288
17375SOL    HW253567   4.319   5.669  11.204
17376SOL     OW53568   4.534   6.958  12.101
17376SOL    HW153569   4.622   6.961  12.062
17376SOL    HW253570   4.474   6.969  12.027
17377SOL     OW53571   4.656   6.098  12.062
17377SOL    HW153572   4.628   6.089  11.971
17377SOL    HW253573   4.683   6.010  12.088
17378SOL     OW53574   4.283   5.652  11.666
17378SOL    HW153575   4.200   5.648  11.714
17378SOL    HW253576   4.274   5.725  11.606
17379SOL     OW53577   5.158   6.793  11.211
17379SOL    HW153578   5.186   6.716  11.260
17379SOL    HW253579   5.070   6.811  11.242
17380SOL     OW53580   4.007   5.635  11.359
17380SOL    HW153581   4.058   5.697  11.306
17380SOL    HW253582   4.073   5.576  11.396
17381SOL     OW53583   4.671   5.839  11.624
17381SOL    HW153584   4.647   5.873  11.538
17381SOL    HW253585   4.766   5.854  11.629
17382SOL     OW53586   4.935   7.175  11.976
17382SOL    HW153587   4.947   7.234  11.902
17382SOL    HW253588   5.019   7.174  12.021
17383SOL     OW53589   4.197   6.741  11.893
17383SOL    HW153590   4.133   6.720  11.960
17383SOL    HW253591   4.150   6.730  11.810
17384SOL     OW53592   4.982   7.379  11.789
17384SOL    HW153593   5.031   7.437  11.730
17384SOL    HW253594   4.913   7.434  11.825
17385SOL     OW53595   4.752   6.114  11.201
17385SOL    HW153596   4.708   6.197  11.180
17385SOL    HW253597   4.817   6.138  11.267
17386SOL     OW53598   4.289   5.793  12.360
17386SOL    HW153599   4.304   5.709  12.316
17386SOL    HW253600   4.195   5.796  12.376
17387SOL     OW53601   4.591   6.044  11.803
17387SOL    HW153602   4.549   6.099  11.737
17387SOL    HW253603   4.616   5.965  11.755
17388SOL     OW53604   4.739   5.635  11.909
17388SOL    HW153605   4.679   5.630  11.835
17388SOL    HW253606   4.718   5.558  11.962
17389SOL     OW53607   5.158   6.742  12.021
17389SOL    HW153608   5.089   6.676  12.016
17389SOL    HW253609   5.188   6.753  11.931
17390SOL     OW53610   5.185   6.199  12.126
17390SOL    HW153611   5.127   6.123  12.131
17390SOL    HW253612   5.246   6.187  12.200
17391SOL     OW53613   5.561   6.394  11.564
17391SOL    HW153614   5.622   6.345  11.619
17391SOL    HW253615   5.536   6.332  11.495
17392SOL     OW53616   4.214   7.010  11.321
17392SOL    HW153617   4.140   6.977  11.372
17392SOL    HW253618   4.213   6.958  11.240
17393SOL     OW53619   5.408   6.853  11.812
17393SOL    HW153620   5.503   6.850  11.825
17393SOL    HW253621   5.384   6.944  11.832
17394SOL     OW53622   5.119   6.158  11.243
17394SOL    HW153623   5.056   6.135  11.312
17394SOL    HW253624   5.200   6.115  11.270
17395SOL     OW53625   4.255   5.846  11.478
17395SOL    HW153626   4.302   5.801  11.409
17395SOL    HW253627   4.224   5.927  11.437
17396SOL     OW53628   4.828   6.830  12.284
17396SOL    HW153629   4.742   6.834  12.326
17396SOL    HW253630   4.812   6.856  12.193
17397SOL     OW53631   5.326   6.679  12.240
17397SOL    HW153632   5.287   6.712  12.322
17397SOL    HW253633   5.260   6.698  12.173
17398SOL     OW53634   4.436   6.650  11.544
17398SOL    HW153635   4.420   6.625  11.635
17398SOL    HW253636   4.512   6.599  11.518
17399SOL     OW53637   4.154   6.414  12.443
17399SOL    HW153638   4.201   6.445  12.520
17399SOL    HW253639   4.124   6.326  12.466
17400SOL     OW53640   4.973   5.951  12.434
17400SOL    HW153641   4.999   6.038  12.466
17400SOL    HW253642   4.880   5.961  12.413
17401SOL     OW53643   4.051   6.711  11.660
17401SOL    HW153644   4.051   6.782  11.596
17401SOL    HW253645   4.051   6.631  11.606
17402SOL     OW53646   4.265   6.111  12.037
17402SOL    HW153647   4.279   6.169  11.963
17402SOL    HW253648   4.330   6.138  12.102
17403SOL     OW53649   4.970   6.936  11.568
17403SOL    HW153650   5.027   7.006  11.600
17403SOL    HW253651   4.883   6.960  11.598
17404SOL     OW53652   5.011   7.031  12.323
17404SOL    HW153653   5.060   7.008  12.403
17404SOL    HW253654   4.946   6.961  12.315
17405SOL     OW53655   5.299   6.199  11.661
17405SOL    HW153656   5.246   6.248  11.724
17405SOL    HW253657   5.332   6.264  11.601
17406SOL     OW53658   4.108   7.114  12.461
17406SOL    HW153659   4.074   7.062  12.389
17406SOL    HW253660   4.155   7.186  12.419
17407SOL     OW53661   4.304   6.457  12.215
17407SOL    HW153662   4.317   6.552  12.210
17407SOL    HW253663   4.250   6.444  12.293
17408SOL     OW53664   5.044   6.439  12.179
17408SOL    HW153665   4.959   6.415  12.143
17408SOL    HW253666   5.099   6.362  12.165
17409SOL     OW53667   4.925   6.112  11.433
17409SOL    HW153668   4.931   6.033  11.486
17409SOL    HW253669   4.880   6.176  11.489
17410SOL     OW53670   4.023   5.767  12.410
17410SOL    HW153671   3.999   5.790  12.500
17410SOL    HW253672   4.004   5.673  12.404
17411SOL     OW53673   3.784   6.915  12.430
17411SOL    HW153674   3.819   6.839  12.475
17411SOL    HW253675   3.785   6.985  12.495
17412SOL     OW53676   4.441   6.214  12.223
17412SOL    HW153677   4.516   6.206  12.164
17412SOL    HW253678   4.408   6.303  12.209
17413SOL     OW53679   4.040   5.647  11.793
17413SOL    HW153680   4.011   5.736  11.814
17413SOL    HW253681   4.045   5.603  11.878
17414SOL     OW53682   5.353   5.965  11.528
17414SOL    HW153683   5.383   5.898  11.589
17414SOL    HW253684   5.326   6.038  11.583
17415SOL     OW53685   4.755   6.341  12.137
17415SOL    HW153686   4.745   6.349  12.232
17415SOL    HW253687   4.726   6.252  12.118
17416SOL     OW53688   5.240   5.862  11.297
17416SOL    HW153689   5.182   5.792  11.326
17416SOL    HW253690   5.280   5.895  11.377
17417SOL     OW53691   5.013   6.410  11.201
17417SOL    HW153692   5.053   6.323  11.205
17417SOL    HW253693   5.044   6.446  11.118
17418SOL     OW53694   4.797   6.933  12.030
17418SOL    HW153695   4.802   6.859  11.969
17418SOL    HW253696   4.850   7.001  11.989
17419SOL     OW53697   4.038   6.401  12.111
17419SOL    HW153698   4.133   6.412  12.110
17419SOL    HW253699   4.025   6.310  12.138
17420SOL     OW53700   4.027   6.129  12.162
17420SOL    HW153701   4.000   6.038  12.165
17420SOL    HW253702   4.112   6.128  12.116
17421SOL     OW53703   4.891   5.807   0.154
17421SOL    HW153704   4.855   5.874   0.212
17421SOL    HW253705   4.918   5.855   0.076
17422SOL     OW53706   3.743   6.897  11.359
17422SOL    HW153707   3.654   6.916  11.330
17422SOL    HW253708   3.737   6.810  11.398
17423SOL     OW53709   3.818   7.365  12.116
17423SOL    HW153710   3.787   7.287  12.070
17423SOL    HW253711   3.907   7.379  12.083
17424SOL     OW53712   4.222   7.169  12.075
17424SOL    HW153713   4.296   7.221  12.107
17424SOL    HW253714   4.262   7.103  12.018
17425SOL     OW53715   4.698   6.369  12.408
17425SOL    HW153716   4.731   6.442  12.459
17425SOL    HW253717   4.603   6.370  12.422
17426SOL     OW53718   3.797   6.159  12.313
17426SOL    HW153719   3.868   6.160  12.249
17426SOL    HW253720   3.781   6.066  12.330
17427SOL     OW53721   4.543   6.159  11.542
17427SOL    HW153722   4.550   6.084  11.482
17427SOL    HW253723   4.467   6.208  11.510
17428SOL     OW53724   5.379   6.192  12.325
17428SOL    HW153725   5.372   6.134  12.401
17428SOL    HW253726   5.473   6.199  12.308
17429SOL     OW53727   4.457   6.018  12.417
17429SOL    HW153728   4.385   5.956  12.402
17429SOL    HW253729   4.438   6.091  12.359
17430SOL     OW53730   4.606   7.221   0.028
17430SOL    HW153731   4.626   7.289  -0.036
17430SOL    HW253732   4.633   7.258   0.112
17431SOL     OW53733   4.179   6.077  11.355
17431SOL    HW153734   4.240   6.147  11.378
17431SOL    HW253735   4.095   6.122  11.344
17432SOL     OW53736   5.010   6.633  12.367
17432SOL    HW153737   5.027   6.569  12.298
17432SOL    HW253738   4.953   6.699  12.326
17433SOL     OW53739   5.043   6.442  11.475
17433SOL    HW153740   4.969   6.406  11.524
17433SOL    HW253741   5.019   6.428  11.383
17434SOL     OW53742   5.486   7.337  12.308
17434SOL    HW153743   5.554   7.350  12.241
17434SOL    HW253744   5.466   7.243  12.304
17435SOL     OW53745   4.972   7.304  12.289
17435SOL    HW153746   5.048   7.341  12.245
17435SOL    HW253747   4.987   7.209  12.286
17436SOL     OW53748   3.804   6.874  12.163
17436SOL    HW153749   3.792   6.885  12.257
17436SOL    HW253750   3.748   6.800  12.140
17437SOL     OW53751   5.460   5.752  11.677
17437SOL    HW153752   5.523   5.734  11.608
17437SOL    HW253753   5.438   5.665  11.712
17438SOL     OW53754   5.122   7.154  11.674
17438SOL    HW153755   5.176   7.186  11.601
17438SOL    HW253756   5.066   7.228  11.697
17439SOL     OW53757   5.002   6.522  11.848
17439SOL    HW153758   5.074   6.460  11.856
17439SOL    HW253759   5.035   6.590  11.789
17440SOL     OW53760   4.391   7.215  11.326
17440SOL    HW153761   4.405   7.230  11.233
17440SOL    HW253762   4.336   7.137  11.330
17441SOL     OW53763   5.340   7.408   0.028
17441SOL    HW153764   5.386   7.380  -0.051
17441SOL    HW253765   5.408   7.444   0.084
17442SOL     OW53766   5.569   5.753  12.146
17442SOL    HW153767   5.597   5.665  12.120
17442SOL    HW253768   5.482   5.762  12.105
17443SOL     OW53769   3.978   5.896  11.884
17443SOL    HW153770   3.892   5.930  11.859
17443SOL    HW253771   3.977   5.897  11.980
17444SOL     OW53772   4.933   7.181  11.208
17444SOL    HW153773   4.922   7.089  11.233
17444SOL    HW253774   4.868   7.195  11.139
17445SOL     OW53775   4.514   6.604  12.487
17445SOL    HW153776   4.515   6.646  12.401
17445SOL    HW253777   4.590   6.640  12.532
17446SOL     OW53778   4.649   6.506  11.469
17446SOL    HW153779   4.707   6.536  11.399
17446SOL    HW253780   4.696   6.432  11.509
17447SOL     OW53781   5.209   7.229  11.223
17447SOL    HW153782   5.117   7.209  11.205
17447SOL    HW253783   5.250   7.231  11.136
17448SOL     OW53784   4.790   6.701  11.893
17448SOL    HW153785   4.715   6.651  11.924
17448SOL    HW253786   4.853   6.635  11.864
17449SOL     OW53787   4.750   5.819  12.125
17449SOL    HW153788   4.746   5.775  12.040
17449SOL    HW253789   4.748   5.749  12.189
17450SOL     OW53790   4.331   7.079  11.648
17450SOL    HW153791   4.385   7.027  11.589
17450SOL    HW253792   4.248   7.091  11.601
17451SOL     OW53793   5.483   6.016   0.020
17451SOL    HW153794   5.540   6.010   0.097
17451SOL    HW253795   5.475   5.926  -0.011
17452SOL     OW53796   4.000   6.924  11.476
17452SOL    HW153797   3.912   6.920  11.439
17452SOL    HW253798   3.989   6.969  11.559
17453SOL     OW53799   3.800   5.913  11.202
17453SOL    HW153800   3.723   5.888  11.151
17453SOL    HW253801   3.833   5.992  11.158
17454SOL     OW53802   3.778   5.741  11.462
17454SOL    HW153803   3.764   5.813  11.400
17454SOL    HW253804   3.864   5.706  11.439
17455SOL     OW53805   4.902   6.914  11.291
17455SOL    HW153806   4.812   6.882  11.289
17455SOL    HW253807   4.926   6.913  11.384
17456SOL     OW53808   5.210   7.380  12.167
17456SOL    HW153809   5.229   7.444  12.099
17456SOL    HW253810   5.295   7.347  12.195
17457SOL     OW53811   5.411   6.460  12.398
17457SOL    HW153812   5.382   6.376  12.364
17457SOL    HW253813   5.382   6.524  12.333
17458SOL     OW53814   4.943   5.907  11.629
17458SOL    HW153815   5.002   5.832  11.623
17458SOL    HW253816   4.975   5.957  11.704
17459SOL     OW53817   4.306   6.318  11.854
17459SOL    HW153818   4.348   6.402  11.835
17459SOL    HW253819   4.243   6.306  11.783
17460SOL     OW53820   5.538   6.480   0.132
17460SOL    HW153821   5.489   6.550   0.177
17460SOL    HW253822   5.491   6.468   0.049
17461SOL     OW53823   4.593   6.951  11.223
17461SOL    HW153824   4.552   6.983  11.303
17461SOL    HW253825   4.608   7.030  11.171
17462SOL     OW53826   4.396   7.388  12.136
17462SOL    HW153827   4.375   7.472  12.093
17462SOL    HW253828   4.485   7.369  12.107
17463SOL     OW53829   4.595   6.559  12.030
17463SOL    HW153830   4.641   6.483  12.065
17463SOL    HW253831   4.559   6.603  12.107
17464SOL     OW53832   4.808   6.582  11.264
17464SOL    HW153833   4.781   6.627  11.183
17464SOL    HW253834   4.878   6.522  11.236
17465SOL     OW53835   5.574   7.137  12.013
17465SOL    HW153836   5.490   7.125  11.968
17465SOL    HW253837   5.588   7.056  12.061
17466SOL     OW53838   3.821   6.816  11.836
17466SOL    HW153839   3.833   6.773  11.920
17466SOL    HW253840   3.884   6.773  11.778
17467SOL     OW53841   5.538   5.762  12.419
17467SOL    HW153842   5.568   5.673  12.437
17467SOL    HW253843   5.541   5.770  12.324
17468SOL     OW53844   4.156   6.015  11.698
17468SOL    HW153845   4.184   5.948  11.637
17468SOL    HW253846   4.101   5.969  11.761
17469SOL     OW53847   5.418   7.078  12.285
17469SOL    HW153848   5.347   7.038  12.234
17469SOL    HW253849   5.452   7.007  12.339
17470SOL     OW53850   4.551   7.179  11.845
17470SOL    HW153851   4.537   7.252  11.785
17470SOL    HW253852   4.476   7.121  11.831
17471SOL     OW53853   5.161   5.826  12.287
17471SOL    HW153854   5.210   5.766  12.342
17471SOL    HW253855   5.098   5.867  12.347
17472SOL     OW53856   4.735   5.577  12.291
17472SOL    HW153857   4.697   5.523  12.223
17472SOL    HW253858   4.824   5.544  12.302
17473SOL     OW53859   4.499   6.920  11.501
17473SOL    HW153860   4.470   6.829  11.504
17473SOL    HW253861   4.584   6.920  11.544
17474SOL     OW53862   5.087   5.632  11.350
17474SOL    HW153863   5.124   5.563  11.294
17474SOL    HW253864   4.997   5.604  11.366
17475SOL     OW53865   5.027   6.054  11.848
17475SOL    HW153866   4.973   6.133  11.847
17475SOL    HW253867   5.017   6.018  11.936
17476SOL     OW53868   5.313   5.780  12.059
17476SOL    HW153869   5.252   5.805  12.129
17476SOL    HW253870   5.311   5.854  11.998
17477SOL     OW53871   3.767   6.647  11.483
17477SOL    HW153872   3.859   6.636  11.461
17477SOL    HW253873   3.737   6.559  11.505
17478SOL     OW53874   4.616   7.249  11.500
17478SOL    HW153875   4.540   7.231  11.445
17478SOL    HW253876   4.585   7.313  11.564
17479SOL     OW53877   3.953   7.724   0.997
17479SOL    HW153878   3.980   7.691   1.083
17479SOL    HW253879   3.865   7.690   0.985
17480SOL     OW53880   3.703   7.824   0.649
17480SOL    HW153881   3.620   7.864   0.675
17480SOL    HW253882   3.677   7.743   0.605
17481SOL     OW53883   5.338   8.027   0.193
17481SOL    HW153884   5.380   7.962   0.138
17481SOL    HW253885   5.362   8.003   0.282
17482SOL     OW53886   4.149   7.854   1.546
17482SOL    HW153887   4.225   7.810   1.506
17482SOL    HW253888   4.075   7.796   1.527
17483SOL     OW53889   5.310   7.932   0.691
17483SOL    HW153890   5.218   7.916   0.671
17483SOL    HW253891   5.310   7.962   0.782
17484SOL     OW53892   5.314   7.579   1.462
17484SOL    HW153893   5.352   7.656   1.420
17484SOL    HW253894   5.285   7.609   1.548
17485SOL     OW53895   3.786   0.091   0.609
17485SOL    HW153896   3.774  -0.004   0.612
17485SOL    HW253897   3.812   0.114   0.698
17486SOL     OW53898   4.542   7.440   0.530
17486SOL    HW153899   4.585   7.520   0.500
17486SOL    HW253900   4.448   7.462   0.531
17487SOL     OW53901   4.068   7.693   1.835
17487SOL    HW153902   4.104   7.781   1.832
17487SOL    HW253903   3.975   7.706   1.854
17488SOL     OW53904   4.989   7.797   0.928
17488SOL    HW153905   4.901   7.762   0.941
17488SOL    HW253906   5.044   7.743   0.986
17489SOL     OW53907   5.126   7.942   1.705
17489SOL    HW153908   5.104   7.959   1.796
17489SOL    HW253909   5.182   7.864   1.708
17490SOL     OW53910   4.655   0.406   1.499
17490SOL    HW153911   4.711   0.330   1.480
17490SOL    HW253912   4.567   0.376   1.480
17491SOL     OW53913   4.722   7.818   1.244
17491SOL    HW153914   4.637   7.845   1.278
17491SOL    HW253915   4.702   7.753   1.177
17492SOL     OW53916   4.672   7.781   0.205
17492SOL    HW153917   4.660   7.850   0.139
17492SOL    HW253918   4.642   7.701   0.161
17493SOL     OW53919   5.470   0.020   1.818
17493SOL    HW153920   5.416   0.084   1.771
17493SOL    HW253921   5.486  -0.049   1.754
17494SOL     OW53922   4.281   7.631   0.907
17494SOL    HW153923   4.281   7.649   1.002
17494SOL    HW253924   4.273   7.717   0.867
17495SOL     OW53925   3.912   7.715   1.510
17495SOL    HW153926   3.854   7.764   1.569
17495SOL    HW253927   3.895   7.623   1.532
17496SOL     OW53928   5.133   7.541   0.454
17496SOL    HW153929   5.124   7.515   0.363
17496SOL    HW253930   5.227   7.534   0.472
17497SOL     OW53931   5.237   7.675   1.723
17497SOL    HW153932   5.246   7.692   1.817
17497SOL    HW253933   5.165   7.612   1.717
17498SOL     OW53934   4.354   7.587   0.118
17498SOL    HW153935   4.443   7.552   0.117
17498SOL    HW253936   4.336   7.611   0.027
17499SOL     OW53937   4.495   7.721   1.750
17499SOL    HW153938   4.576   7.670   1.748
17499SOL    HW253939   4.448   7.688   1.826
17500SOL     OW53940   5.068   0.012   1.437
17500SOL    HW153941   5.099  -0.009   1.525
17500SOL    HW253942   5.003   0.082   1.450
17501SOL     OW53943   4.279   7.505   0.500
17501SOL    HW153944   4.199   7.508   0.554
17501SOL    HW253945   4.275   7.586   0.449
17502SOL     OW53946   4.033   7.526   0.210
17502SOL    HW153947   4.112   7.563   0.170
17502SOL    HW253948   4.062   7.442   0.246
17503SOL     OW53949   4.682   7.661   0.455
17503SOL    HW153950   4.662   7.710   0.375
17503SOL    HW253951   4.767   7.694   0.483
17504SOL     OW53952   3.814  -0.008   1.384
17504SOL    HW153953   3.872  -0.051   1.448
17504SOL    HW253954   3.793   0.076   1.424
17505SOL     OW53955   4.279   7.668   1.181
17505SOL    HW153956   4.319   7.603   1.239
17505SOL    HW253957   4.187   7.669   1.205
17506SOL     OW53958   4.751   7.491   0.735
17506SOL    HW153959   4.685   7.491   0.666
17506SOL    HW253960   4.724   7.421   0.794
17507SOL     OW53961   5.230   7.942   0.955
17507SOL    HW153962   5.138   7.919   0.965
17507SOL    HW253963   5.255   7.979   1.039
17508SOL     OW53964   4.268   7.724   0.337
17508SOL    HW153965   4.298   7.678   0.259
17508SOL    HW253966   4.308   7.811   0.330
17509SOL     OW53967   4.644   7.534   1.392
17509SOL    HW153968   4.667   7.513   1.302
17509SOL    HW253969   4.723   7.573   1.429
17510SOL     OW53970   4.991   7.803   1.282
17510SOL    HW153971   5.021   7.881   1.329
17510SOL    HW253972   4.898   7.818   1.269
17511SOL     OW53973   4.266   7.923   0.867
17511SOL    HW153974   4.233   7.983   0.800
17511SOL    HW253975   4.338   7.970   0.909
17512SOL     OW53976   4.732   7.589   1.754
17512SOL    HW153977   4.792   7.661   1.732
17512SOL    HW253978   4.781   7.510   1.734
17513SOL     OW53979   4.218   7.480   1.751
17513SOL    HW153980   4.168   7.427   1.689
17513SOL    HW253981   4.161   7.554   1.770
17514SOL     OW53982   4.017   7.643   1.254
17514SOL    HW153983   3.971   7.673   1.332
17514SOL    HW253984   4.000   7.549   1.252
17515SOL     OW53985   4.476   0.063   1.013
17515SOL    HW153986   4.519   0.092   0.933
17515SOL    HW253987   4.410   0.130   1.031
17516SOL     OW53988   4.036   7.513   0.630
17516SOL    HW153989   4.007   7.601   0.654
17516SOL    HW253990   4.045   7.468   0.714
17517SOL     OW53991   5.348   7.824   0.401
17517SOL    HW153992   5.386   7.744   0.436
17517SOL    HW253993   5.319   7.872   0.478
17518SOL     OW53994   5.210   7.732   0.169
17518SOL    HW153995   5.237   7.642   0.154
17518SOL    HW253996   5.282   7.770   0.221
17519SOL     OW53997   4.025   7.981   1.032
17519SOL    HW153998   4.015   7.887   1.017
17519SOL    HW253999   4.104   8.005   0.983
17520SOL     OW54000   4.876   7.822   1.677
17520SOL    HW154001   4.821   7.898   1.698
17520SOL    HW254002   4.965   7.855   1.681
17521SOL     OW54003   4.888   7.634   1.476
17521SOL    HW154004   4.877   7.701   1.543
17521SOL    HW254005   4.934   7.678   1.404
17522SOL     OW54006   3.756   7.957   1.119
17522SOL    HW154007   3.840   7.949   1.074
17522SOL    HW254008   3.778   7.962   1.212
17523SOL     OW54009   3.913   7.970   1.674
17523SOL    HW154010   4.003   7.946   1.651
17523SOL    HW254011   3.923   8.046   1.731
17524SOL     OW54012   4.521   8.018   0.279
17524SOL    HW154013   4.582   7.951   0.312
17524SOL    HW254014   4.457   8.028   0.348
17525SOL     OW54015   5.353   8.022   1.196
17525SOL    HW154016   5.339   7.981   1.282
17525SOL    HW254017   5.428   7.975   1.159
17526SOL     OW54018   4.453   7.882   1.230
17526SOL    HW154019   4.386   7.815   1.216
17526SOL    HW254020   4.443   7.941   1.155
17527SOL     OW54021   4.631   7.533   0.088
17527SOL    HW154022   4.665   7.522  -0.001
17527SOL    HW254023   4.695   7.487   0.143
17528SOL     OW54024   5.458   7.598   0.509
17528SOL    HW154025   5.528   7.577   0.447
17528SOL    HW254026   5.436   7.514   0.549
17529SOL     OW54027   5.571   7.618   0.958
17529SOL    HW154028   5.594   7.528   0.938
17529SOL    HW254029   5.482   7.628   0.924
17530SOL     OW54030   3.963   7.760   0.719
17530SOL    HW154031   3.871   7.784   0.708
17530SOL    HW254032   3.975   7.754   0.814
17531SOL     OW54033   4.754   7.665   0.961
17531SOL    HW154034   4.748   7.620   0.877
17531SOL    HW254035   4.744   7.596   1.026
17532SOL     OW54036   5.461   7.816   1.388
17532SOL    HW154037   5.526   7.885   1.386
17532SOL    HW254038   5.495   7.749   1.327
17533SOL     OW54039   4.403   7.634   1.495
17533SOL    HW154040   4.488   7.611   1.457
17533SOL    HW254041   4.423   7.669   1.581
17534SOL     OW54042   3.785   7.594   0.307
17534SOL    HW154043   3.775   7.685   0.280
17534SOL    HW254044   3.874   7.570   0.278
17535SOL     OW54045   4.507   8.001   1.723
17535SOL    HW154046   4.414   8.021   1.721
17535SOL    HW254047   4.512   7.906   1.726
17536SOL     OW54048   4.967   7.757   0.442
17536SOL    HW154049   5.021   7.680   0.461
17536SOL    HW254050   4.983   7.816   0.515
17537SOL     OW54051   4.369   0.229   0.635
17537SOL    HW154052   4.351   0.323   0.631
17537SOL    HW254053   4.289   0.191   0.672
17538SOL     OW54054   5.482   7.790   1.661
17538SOL    HW154055   5.473   7.807   1.567
17538SOL    HW254056   5.401   7.744   1.685
17539SOL     OW54057   5.541   7.614   1.230
17539SOL    HW154058   5.539   7.518   1.235
17539SOL    HW254059   5.553   7.633   1.137
17540SOL     OW54060   4.075   7.862   0.489
17540SOL    HW154061   4.126   7.796   0.443
17540SOL    HW254062   4.039   7.815   0.565
17541SOL     OW54063   5.148   7.664   1.112
17541SOL    HW154064   5.160   7.578   1.154
17541SOL    HW254065   5.101   7.715   1.178
17542SOL     OW54066   4.730   7.455   1.139
17542SOL    HW154067   4.672   7.389   1.102
17542SOL    HW254068   4.817   7.415   1.136
17543SOL     OW54069   5.049   7.499   0.190
17543SOL    HW154070   5.083   7.450   0.115
17543SOL    HW254071   4.964   7.458   0.209
17544SOL     OW54072   5.034   7.895   0.674
17544SOL    HW154073   4.992   7.981   0.676
17544SOL    HW254074   5.017   7.858   0.761
17545SOL     OW54075   5.307   7.650   0.890
17545SOL    HW154076   5.256   7.661   0.970
17545SOL    HW254077   5.294   7.731   0.841
17546SOL     OW54078   3.954   7.721   2.857
17546SOL    HW154079   3.980   7.689   2.944
17546SOL    HW254080   3.864   7.689   2.846
17547SOL     OW54081   3.705   7.817   2.519
17547SOL    HW154082   3.622   7.859   2.543
17547SOL    HW254083   3.679   7.737   2.473
17548SOL     OW54084   5.354   0.008   2.070
17548SOL    HW154085   5.398   0.033   1.989
17548SOL    HW254086   5.421  -0.037   2.121
17549SOL     OW54087   4.143   7.856   3.402
17549SOL    HW154088   4.219   7.815   3.361
17549SOL    HW254089   4.071   7.795   3.385
17550SOL     OW54090   5.319   7.919   2.565
17550SOL    HW154091   5.228   7.913   2.535
17550SOL    HW254092   5.313   7.952   2.655
17551SOL     OW54093   5.313   7.580   3.324
17551SOL    HW154094   5.352   7.657   3.283
17551SOL    HW254095   5.285   7.609   3.410
17552SOL     OW54096   3.783   0.085   2.474
17552SOL    HW154097   3.773  -0.010   2.489
17552SOL    HW254098   3.831   0.116   2.551
17553SOL     OW54099   4.543   7.431   2.381
17553SOL    HW154100   4.588   7.512   2.354
17553SOL    HW254101   4.451   7.455   2.384
17554SOL     OW54102   4.078   7.701   3.688
17554SOL    HW154103   4.120   7.782   3.659
17554SOL    HW254104   3.984   7.720   3.683
17555SOL     OW54105   4.990   7.799   2.794
17555SOL    HW154106   4.901   7.766   2.805
17555SOL    HW254107   5.044   7.743   2.851
17556SOL     OW54108   5.129   7.942   3.564
17556SOL    HW154109   5.113   7.962   3.656
17556SOL    HW254110   5.185   7.865   3.566
17557SOL     OW54111   4.646   0.376   3.399
17557SOL    HW154112   4.709   0.318   3.354
17557SOL    HW254113   4.564   0.363   3.352
17558SOL     OW54114   4.724   7.821   3.107
17558SOL    HW154115   4.641   7.848   3.146
17558SOL    HW254116   4.699   7.760   3.037
17559SOL     OW54117   4.619   7.789   2.052
17559SOL    HW154118   4.659   7.805   1.966
17559SOL    HW254119   4.641   7.698   2.071
17560SOL     OW54120   5.454   0.003   3.686
17560SOL    HW154121   5.424   0.081   3.639
17560SOL    HW254122   5.478  -0.059   3.617
17561SOL     OW54123   4.282   7.631   2.767
17561SOL    HW154124   4.281   7.648   2.861
17561SOL    HW254125   4.274   7.717   2.727
17562SOL     OW54126   3.912   7.708   3.369
17562SOL    HW154127   3.839   7.757   3.408
17562SOL    HW254128   3.896   7.617   3.392
17563SOL     OW54129   5.127   7.543   2.307
17563SOL    HW154130   5.114   7.526   2.214
17563SOL    HW254131   5.208   7.594   2.312
17564SOL     OW54132   5.242   7.675   3.593
17564SOL    HW154133   5.247   7.699   3.685
17564SOL    HW254134   5.179   7.602   3.591
17565SOL     OW54135   4.371   7.569   1.959
17565SOL    HW154136   4.416   7.491   1.992
17565SOL    HW254137   4.316   7.536   1.887
17566SOL     OW54138   4.484   7.715   3.609
17566SOL    HW154139   4.569   7.671   3.610
17566SOL    HW254140   4.442   7.687   3.691
17567SOL     OW54141   5.066   0.011   3.298
17567SOL    HW154142   5.098  -0.008   3.386
17567SOL    HW254143   5.002   0.082   3.311
17568SOL     OW54144   4.282   7.506   2.358
17568SOL    HW154145   4.204   7.509   2.413
17568SOL    HW254146   4.277   7.586   2.305
17569SOL     OW54147   4.012   7.499   2.048
17569SOL    HW154148   4.070   7.561   2.003
17569SOL    HW254149   4.071   7.437   2.091
17570SOL     OW54150   4.673   7.663   2.318
17570SOL    HW154151   4.630   7.745   2.294
17570SOL    HW254152   4.765   7.686   2.327
17571SOL     OW54153   3.815  -0.007   3.243
17571SOL    HW154154   3.893  -0.030   3.294
17571SOL    HW254155   3.789   0.078   3.277
17572SOL     OW54156   4.279   7.667   3.039
17572SOL    HW154157   4.319   7.605   3.101
17572SOL    HW254158   4.186   7.668   3.063
17573SOL     OW54159   4.756   7.494   2.599
17573SOL    HW154160   4.692   7.500   2.528
17573SOL    HW254161   4.723   7.422   2.654
17574SOL     OW54162   5.230   7.943   2.821
17574SOL    HW154163   5.138   7.920   2.830
17574SOL    HW254164   5.252   7.985   2.904
17575SOL     OW54165   4.271   7.718   2.182
17575SOL    HW154166   4.308   7.679   2.102
17575SOL    HW254167   4.305   7.807   2.183
17576SOL     OW54168   4.641   7.544   3.246
17576SOL    HW154169   4.667   7.522   3.157
17576SOL    HW254170   4.719   7.585   3.285
17577SOL     OW54171   4.992   7.802   3.145
17577SOL    HW154172   5.022   7.880   3.192
17577SOL    HW254173   4.899   7.818   3.130
17578SOL     OW54174   4.267   7.923   2.731
17578SOL    HW154175   4.232   7.981   2.664
17578SOL    HW254176   4.338   7.973   2.772
17579SOL     OW54177   4.730   7.601   3.624
17579SOL    HW154178   4.790   7.672   3.598
17579SOL    HW254179   4.783   7.522   3.618
17580SOL     OW54180   4.214   7.472   3.624
17580SOL    HW154181   4.165   7.421   3.559
17580SOL    HW254182   4.164   7.554   3.633
17581SOL     OW54183   4.019   7.642   3.115
17581SOL    HW154184   3.971   7.671   3.193
17581SOL    HW254185   4.003   7.548   3.110
17582SOL     OW54186   4.478   0.064   2.879
17582SOL    HW154187   4.517   0.094   2.797
17582SOL    HW254188   4.415   0.132   2.902
17583SOL     OW54189   4.040   7.512   2.488
17583SOL    HW154190   4.008   7.599   2.512
17583SOL    HW254191   4.047   7.466   2.572
17584SOL     OW54192   5.313   7.774   2.249
17584SOL    HW154193   5.376   7.726   2.303
17584SOL    HW254194   5.301   7.857   2.295
17585SOL     OW54195   5.233   7.719   1.989
17585SOL    HW154196   5.172   7.650   2.014
17585SOL    HW254197   5.269   7.751   2.071
17586SOL     OW54198   5.044   0.253   1.913
17586SOL    HW154199   5.021   0.162   1.934
17586SOL    HW254200   4.971   0.285   1.861
17587SOL     OW54201   4.026   7.976   2.899
17587SOL    HW154202   4.014   7.883   2.881
17587SOL    HW254203   4.104   8.001   2.847
17588SOL     OW54204   4.876   7.826   3.542
17588SOL    HW154205   4.822   7.903   3.561
17588SOL    HW254206   4.966   7.858   3.546
17589SOL     OW54207   4.885   7.640   3.340
17589SOL    HW154208   4.875   7.708   3.407
17589SOL    HW254209   4.933   7.682   3.269
17590SOL     OW54210   3.756   7.950   2.980
17590SOL    HW154211   3.841   7.946   2.935
17590SOL    HW254212   3.778   7.959   3.072
17591SOL     OW54213   3.919   7.948   3.583
17591SOL    HW154214   3.994   7.958   3.524
17591SOL    HW254215   3.890   8.038   3.601
17592SOL     OW54216   4.523   0.040   2.104
17592SOL    HW154217   4.564  -0.046   2.096
17592SOL    HW254218   4.471   0.034   2.184
17593SOL     OW54219   5.354   8.026   3.060
17593SOL    HW154220   5.340   7.985   3.146
17593SOL    HW254221   5.425   7.976   3.021
17594SOL     OW54222   4.452   7.878   3.090
17594SOL    HW154223   4.385   7.812   3.072
17594SOL    HW254224   4.444   7.941   3.018
17595SOL     OW54225   5.474   7.593   2.375
17595SOL    HW154226   5.538   7.578   2.305
17595SOL    HW254227   5.449   7.505   2.404
17596SOL     OW54228   5.569   7.617   2.820
17596SOL    HW154229   5.593   7.527   2.798
17596SOL    HW254230   5.480   7.628   2.786
17597SOL     OW54231   3.965   7.757   2.580
17597SOL    HW154232   3.872   7.780   2.569
17597SOL    HW254233   3.976   7.751   2.675
17598SOL     OW54234   4.754   7.667   2.825
17598SOL    HW154235   4.751   7.623   2.740
17598SOL    HW254236   4.745   7.597   2.889
17599SOL     OW54237   5.458   7.816   3.246
17599SOL    HW154238   5.524   7.886   3.246
17599SOL    HW254239   5.493   7.750   3.187
17600SOL     OW54240   4.397   7.630   3.355
17600SOL    HW154241   4.483   7.615   3.315
17600SOL    HW254242   4.417   7.665   3.442
17601SOL     OW54243   3.809   7.774   1.888
17601SOL    HW154244   3.732   7.749   1.836
17601SOL    HW254245   3.819   7.868   1.872
17602SOL     OW54246   3.782   7.597   2.156
17602SOL    HW154247   3.769   7.677   2.104
17602SOL    HW254248   3.867   7.564   2.129
17603SOL     OW54249   4.512   7.992   3.581
17603SOL    HW154250   4.420   8.019   3.578
17603SOL    HW254251   4.508   7.896   3.586
17604SOL     OW54252   4.935   7.746   2.335
17604SOL    HW154253   5.000   7.676   2.328
17604SOL    HW254254   4.971   7.806   2.400
17605SOL     OW54255   4.366   0.223   2.476
17605SOL    HW154256   4.363   0.317   2.492
17605SOL    HW254257   4.293   0.188   2.527
17606SOL     OW54258   5.485   7.787   3.517
17606SOL    HW154259   5.472   7.805   3.424
17606SOL    HW254260   5.406   7.740   3.544
17607SOL     OW54261   5.540   7.614   3.092
17607SOL    HW154262   5.540   7.519   3.097
17607SOL    HW254263   5.552   7.633   2.998
17608SOL     OW54264   4.090   7.860   2.359
17608SOL    HW154265   4.126   7.787   2.308
17608SOL    HW254266   4.048   7.819   2.434
17609SOL     OW54267   5.150   7.663   2.978
17609SOL    HW154268   5.173   7.584   3.026
17609SOL    HW254269   5.101   7.716   3.041
17610SOL     OW54270   4.733   7.453   2.999
17610SOL    HW154271   4.675   7.389   2.957
17610SOL    HW254272   4.819   7.412   2.998
17611SOL     OW54273   5.088   7.489   2.038
17611SOL    HW154274   5.114   7.428   1.970
17611SOL    HW254275   4.999   7.463   2.061
17612SOL     OW54276   5.041   7.900   2.542
17612SOL    HW154277   4.995   7.984   2.543
17612SOL    HW254278   5.024   7.862   2.628
17613SOL     OW54279   5.305   7.647   2.751
17613SOL    HW154280   5.255   7.664   2.831
17613SOL    HW254281   5.295   7.727   2.700
17614SOL     OW54282   3.955   7.715   4.720
17614SOL    HW154283   3.980   7.685   4.807
17614SOL    HW254284   3.864   7.685   4.709
17615SOL     OW54285   3.709   7.808   4.371
17615SOL    HW154286   3.628   7.853   4.397
17615SOL    HW254287   3.680   7.728   4.329
17616SOL     OW54288   5.437   8.030   3.960
17616SOL    HW154289   5.441   8.023   3.865
17616SOL    HW254290   5.413   7.943   3.990
17617SOL     OW54291   4.149   7.853   5.269
17617SOL    HW154292   4.225   7.810   5.230
17617SOL    HW254293   4.075   7.795   5.250
17618SOL     OW54294   5.318   7.925   4.425
17618SOL    HW154295   5.227   7.914   4.397
17618SOL    HW254296   5.312   7.958   4.514
17619SOL     OW54297   5.313   7.579   5.184
17619SOL    HW154298   5.351   7.657   5.144
17619SOL    HW254299   5.286   7.607   5.272
17620SOL     OW54300   3.776   0.094   4.336
17620SOL    HW154301   3.785   0.000   4.350
17620SOL    HW254302   3.857   0.132   4.371
17621SOL     OW54303   4.542   7.439   4.236
17621SOL    HW154304   4.586   7.520   4.209
17621SOL    HW254305   4.449   7.463   4.241
17622SOL     OW54306   4.068   7.692   5.561
17622SOL    HW154307   4.103   7.780   5.548
17622SOL    HW254308   3.975   7.706   5.579
17623SOL     OW54309   4.987   7.801   4.657
17623SOL    HW154310   4.899   7.765   4.666
17623SOL    HW254311   5.042   7.746   4.712
17624SOL     OW54312   5.127   7.940   5.427
17624SOL    HW154313   5.109   7.959   5.519
17624SOL    HW254314   5.181   7.861   5.430
17625SOL     OW54315   4.648   0.380   5.253
17625SOL    HW154316   4.705   0.318   5.207
17625SOL    HW254317   4.562   0.368   5.212
17626SOL     OW54318   4.720   7.816   4.976
17626SOL    HW154319   4.636   7.846   5.010
17626SOL    HW254320   4.697   7.748   4.913
17627SOL     OW54321   4.616   7.788   3.907
17627SOL    HW154322   4.670   7.783   3.828
17627SOL    HW254323   4.642   7.712   3.959
17628SOL     OW54324   5.455   0.010   5.556
17628SOL    HW154325   5.407   0.078   5.509
17628SOL    HW254326   5.475  -0.056   5.490
17629SOL     OW54327   4.282   7.633   4.630
17629SOL    HW154328   4.281   7.647   4.724
17629SOL    HW254329   4.274   7.721   4.593
17630SOL     OW54330   3.913   7.713   5.234
17630SOL    HW154331   3.854   7.762   5.290
17630SOL    HW254332   3.896   7.621   5.256
17631SOL     OW54333   5.126   7.550   4.168
17631SOL    HW154334   5.123   7.523   4.076
17631SOL    HW254335   5.218   7.540   4.193
17632SOL     OW54336   5.239   7.674   5.453
17632SOL    HW154337   5.244   7.696   5.546
17632SOL    HW254338   5.179   7.600   5.449
17633SOL     OW54339   4.372   7.568   3.825
17633SOL    HW154340   4.421   7.494   3.861
17633SOL    HW254341   4.317   7.529   3.756
17634SOL     OW54342   4.492   7.718   5.475
17634SOL    HW154343   4.574   7.669   5.472
17634SOL    HW254344   4.445   7.684   5.551
17635SOL     OW54345   5.066   0.011   5.160
17635SOL    HW154346   5.099  -0.010   5.247
17635SOL    HW254347   5.003   0.082   5.175
17636SOL     OW54348   4.279   7.519   4.213
17636SOL    HW154349   4.203   7.521   4.272
17636SOL    HW254350   4.271   7.599   4.162
17637SOL     OW54351   4.012   7.542   3.915
17637SOL    HW154352   4.068   7.563   3.840
17637SOL    HW254353   4.058   7.473   3.961
17638SOL     OW54354   4.670   7.674   4.172
17638SOL    HW154355   4.630   7.760   4.184
17638SOL    HW254356   4.764   7.689   4.182
17639SOL     OW54357   3.819  -0.006   5.107
17639SOL    HW154358   3.873  -0.043   5.177
17639SOL    HW254359   3.797   0.082   5.137
17640SOL     OW54360   4.278   7.665   4.903
17640SOL    HW154361   4.319   7.601   4.961
17640SOL    HW254362   4.186   7.666   4.929
17641SOL     OW54363   4.749   7.492   4.459
17641SOL    HW154364   4.686   7.488   4.388
17641SOL    HW254365   4.724   7.421   4.518
17642SOL     OW54366   5.228   7.945   4.681
17642SOL    HW154367   5.137   7.919   4.694
17642SOL    HW254368   5.254   7.982   4.766
17643SOL     OW54369   4.273   7.731   4.031
17643SOL    HW154370   4.316   7.687   3.958
17643SOL    HW254371   4.314   7.817   4.035
17644SOL     OW54372   4.644   7.533   5.116
17644SOL    HW154373   4.669   7.511   5.026
17644SOL    HW254374   4.723   7.572   5.154
17645SOL     OW54375   4.989   7.805   5.004
17645SOL    HW154376   5.019   7.881   5.053
17645SOL    HW254377   4.895   7.817   4.996
17646SOL     OW54378   4.272   7.929   4.598
17646SOL    HW154379   4.258   7.988   4.524
17646SOL    HW254380   4.344   7.968   4.647
17647SOL     OW54381   4.730   7.590   5.478
17647SOL    HW154382   4.791   7.661   5.457
17647SOL    HW254383   4.778   7.511   5.455
17648SOL     OW54384   4.219   7.479   5.476
17648SOL    HW154385   4.169   7.426   5.414
17648SOL    HW254386   4.161   7.554   5.494
17649SOL     OW54387   4.017   7.642   4.978
17649SOL    HW154388   3.971   7.673   5.057
17649SOL    HW254389   4.001   7.548   4.976
17650SOL     OW54390   4.466   0.061   4.746
17650SOL    HW154391   4.518   0.106   4.679
17650SOL    HW254392   4.416   0.131   4.788
17651SOL     OW54393   4.042   7.520   4.356
17651SOL    HW154394   4.014   7.608   4.381
17651SOL    HW254395   4.048   7.473   4.440
17652SOL     OW54396   5.337   7.807   4.096
17652SOL    HW154397   5.380   7.735   4.143
17652SOL    HW254398   5.310   7.867   4.165
17653SOL     OW54399   5.215   7.740   3.859
17653SOL    HW154400   5.167   7.660   3.878
17653SOL    HW254401   5.264   7.758   3.939
17654SOL     OW54402   5.018   0.254   3.796
17654SOL    HW154403   5.002   0.160   3.789
17654SOL    HW254404   4.962   0.292   3.729
17655SOL     OW54405   4.030   7.970   4.745
17655SOL    HW154406   4.012   7.876   4.738
17655SOL    HW254407   4.117   7.981   4.707
17656SOL     OW54408   4.873   7.825   5.401
17656SOL    HW154409   4.820   7.901   5.422
17656SOL    HW254410   4.964   7.857   5.405
17657SOL     OW54411   4.888   7.635   5.200
17657SOL    HW154412   4.877   7.702   5.267
17657SOL    HW254413   4.935   7.679   5.129
17658SOL     OW54414   3.762   7.953   4.841
17658SOL    HW154415   3.846   7.953   4.796
17658SOL    HW254416   3.784   7.960   4.934
17659SOL     OW54417   3.916   7.970   5.399
17659SOL    HW154418   4.005   7.946   5.373
17659SOL    HW254419   3.927   8.049   5.453
17660SOL     OW54420   4.512   8.026   3.979
17660SOL    HW154421   4.552   7.943   3.954
17660SOL    HW254422   4.519   8.029   4.074
17661SOL     OW54423   5.353   8.023   4.921
17661SOL    HW154424   5.341   7.983   5.007
17661SOL    HW254425   5.427   7.975   4.882
17662SOL     OW54426   4.451   7.878   4.955
17662SOL    HW154427   4.384   7.811   4.940
17662SOL    HW254428   4.440   7.938   4.881
17663SOL     OW54429   5.459   7.602   4.230
17663SOL    HW154430   5.530   7.584   4.168
17663SOL    HW254431   5.437   7.516   4.267
17664SOL     OW54432   5.570   7.616   4.683
17664SOL    HW154433   5.593   7.526   4.661
17664SOL    HW254434   5.481   7.627   4.647
17665SOL     OW54435   3.967   7.777   4.451
17665SOL    HW154436   3.874   7.787   4.436
17665SOL    HW254437   3.975   7.757   4.544
17666SOL     OW54438   4.753   7.666   4.683
17666SOL    HW154439   4.750   7.619   4.600
17666SOL    HW254440   4.744   7.597   4.750
17667SOL     OW54441   5.459   7.816   5.111
17667SOL    HW154442   5.525   7.886   5.109
17667SOL    HW254443   5.493   7.749   5.052
17668SOL     OW54444   4.403   7.634   5.218
17668SOL    HW154445   4.488   7.611   5.181
17668SOL    HW254446   4.423   7.668   5.305
17669SOL     OW54447   3.816   7.786   3.780
17669SOL    HW154448   3.728   7.757   3.757
17669SOL    HW254449   3.834   7.858   3.718
17670SOL     OW54450   4.510   7.996   5.446
17670SOL    HW154451   4.417   8.020   5.442
17670SOL    HW254452   4.509   7.900   5.449
17671SOL     OW54453   4.934   7.748   4.196
17671SOL    HW154454   5.001   7.680   4.184
17671SOL    HW254455   4.970   7.806   4.262
17672SOL     OW54456   4.368   0.215   4.360
17672SOL    HW154457   4.401   0.305   4.347
17672SOL    HW254458   4.319   0.218   4.442
17673SOL     OW54459   5.480   7.793   5.385
17673SOL    HW154460   5.471   7.810   5.291
17673SOL    HW254461   5.403   7.742   5.408
17674SOL     OW54462   5.542   7.615   4.954
17674SOL    HW154463   5.539   7.520   4.961
17674SOL    HW254464   5.553   7.632   4.861
17675SOL     OW54465   4.032   7.792   4.184
17675SOL    HW154466   4.125   7.813   4.177
17675SOL    HW254467   4.013   7.798   4.278
17676SOL     OW54468   5.148   7.665   4.836
17676SOL    HW154469   5.162   7.579   4.876
17676SOL    HW254470   5.100   7.715   4.902
17677SOL     OW54471   4.730   7.456   4.863
17677SOL    HW154472   4.672   7.389   4.827
17677SOL    HW254473   4.817   7.417   4.860
17678SOL     OW54474   5.092   7.495   3.893
17678SOL    HW154475   5.134   7.417   3.858
17678SOL    HW254476   5.002   7.469   3.909
17679SOL     OW54477   5.041   7.899   4.404
17679SOL    HW154478   5.003   7.987   4.409
17679SOL    HW254479   5.023   7.861   4.490
17680SOL     OW54480   5.307   7.650   4.613
17680SOL    HW154481   5.256   7.663   4.692
17680SOL    HW254482   5.297   7.731   4.563
17681SOL     OW54483   3.949   7.734   6.585
17681SOL    HW154484   3.980   7.695   6.667
17681SOL    HW254485   3.863   7.695   6.571
17682SOL     OW54486   3.710   7.813   6.240
17682SOL    HW154487   3.628   7.855   6.266
17682SOL    HW254488   3.682   7.734   6.193
17683SOL     OW54489   5.469   0.027   5.835
17683SOL    HW154490   5.463   0.030   5.739
17683SOL    HW254491   5.430  -0.056   5.860
17684SOL     OW54492   4.145   7.849   7.134
17684SOL    HW154493   4.224   7.810   7.095
17684SOL    HW254494   4.075   7.787   7.111
17685SOL     OW54495   5.320   7.919   6.293
17685SOL    HW154496   5.230   7.913   6.261
17685SOL    HW254497   5.312   7.955   6.381
17686SOL     OW54498   5.315   7.578   7.049
17686SOL    HW154499   5.350   7.657   7.006
17686SOL    HW254500   5.287   7.609   7.135
17687SOL     OW54501   3.763   0.095   6.217
17687SOL    HW154502   3.776   0.000   6.217
17687SOL    HW254503   3.847   0.131   6.242
17688SOL     OW54504   4.543   7.433   6.103
17688SOL    HW154505   4.588   7.514   6.078
17688SOL    HW254506   4.451   7.458   6.107
17689SOL     OW54507   4.059   7.694   7.427
17689SOL    HW154508   4.081   7.777   7.384
17689SOL    HW254509   3.967   7.701   7.449
17690SOL     OW54510   4.988   7.804   6.520
17690SOL    HW154511   4.900   7.768   6.530
17690SOL    HW254512   5.043   7.749   6.574
17691SOL     OW54513   5.127   7.935   7.287
17691SOL    HW154514   5.113   7.956   7.379
17691SOL    HW254515   5.179   7.855   7.289
17692SOL     OW54516   4.653   0.389   7.102
17692SOL    HW154517   4.693   0.313   7.061
17692SOL    HW254518   4.564   0.390   7.069
17693SOL     OW54519   4.723   7.819   6.825
17693SOL    HW154520   4.636   7.842   6.857
17693SOL    HW254521   4.707   7.755   6.756
17694SOL     OW54522   4.623   7.784   5.779
17694SOL    HW154523   4.653   7.808   5.691
17694SOL    HW254524   4.647   7.692   5.788
17695SOL     OW54525   5.462   0.023   7.417
17695SOL    HW154526   5.403   0.083   7.372
17695SOL    HW254527   5.472  -0.050   7.355
17696SOL     OW54528   4.279   7.631   6.490
17696SOL    HW154529   4.282   7.650   6.584
17696SOL    HW254530   4.272   7.718   6.449
17697SOL     OW54531   3.915   7.708   7.087
17697SOL    HW154532   3.834   7.753   7.109
17697SOL    HW254533   3.901   7.617   7.115
17698SOL     OW54534   5.126   7.547   6.029
17698SOL    HW154535   5.118   7.522   5.937
17698SOL    HW254536   5.218   7.534   6.050
17699SOL     OW54537   5.239   7.672   7.314
17699SOL    HW154538   5.241   7.693   7.407
17699SOL    HW254539   5.181   7.596   7.307
17700SOL     OW54540   4.370   7.566   5.685
17700SOL    HW154541   4.418   7.489   5.716
17700SOL    HW254542   4.316   7.533   5.613
17701SOL     OW54543   4.498   7.724   7.342
17701SOL    HW154544   4.578   7.673   7.337
17701SOL    HW254545   4.447   7.682   7.412
17702SOL     OW54546   5.083   0.017   7.021
17702SOL    HW154547   5.105  -0.011   7.110
17702SOL    HW254548   5.016   0.083   7.032
17703SOL     OW54549   4.282   7.508   6.082
17703SOL    HW154550   4.203   7.510   6.137
17703SOL    HW254551   4.276   7.586   6.029
17704SOL     OW54552   4.011   7.499   5.772
17704SOL    HW154553   4.068   7.560   5.724
17704SOL    HW254554   4.071   7.438   5.814
17705SOL     OW54555   4.674   7.664   6.044
17705SOL    HW154556   4.636   7.741   6.001
17705SOL    HW254557   4.767   7.687   6.054
17706SOL     OW54558   3.821  -0.009   6.971
17706SOL    HW154559   3.909  -0.030   7.002
17706SOL    HW254560   3.803   0.078   7.007
17707SOL     OW54561   4.284   7.669   6.764
17707SOL    HW154562   4.322   7.594   6.811
17707SOL    HW254563   4.192   7.668   6.788
17708SOL     OW54564   4.752   7.497   6.326
17708SOL    HW154565   4.692   7.501   6.253
17708SOL    HW254566   4.722   7.423   6.379
17709SOL     OW54567   5.224   7.952   6.546
17709SOL    HW154568   5.133   7.920   6.550
17709SOL    HW254569   5.235   8.002   6.627
17710SOL     OW54570   4.269   7.718   5.905
17710SOL    HW154571   4.303   7.674   5.827
17710SOL    HW254572   4.312   7.804   5.905
17711SOL     OW54573   4.640   7.536   6.977
17711SOL    HW154574   4.663   7.511   6.887
17711SOL    HW254575   4.721   7.573   7.013
17712SOL     OW54576   4.993   7.802   6.873
17712SOL    HW154577   5.024   7.882   6.915
17712SOL    HW254578   4.900   7.818   6.856
17713SOL     OW54579   4.266   7.920   6.454
17713SOL    HW154580   4.235   7.981   6.387
17713SOL    HW254581   4.340   7.965   6.495
17714SOL     OW54582   4.732   7.589   7.345
17714SOL    HW154583   4.793   7.658   7.320
17714SOL    HW254584   4.776   7.508   7.320
17715SOL     OW54585   4.217   7.485   7.341
17715SOL    HW154586   4.170   7.430   7.279
17715SOL    HW254587   4.157   7.558   7.358
17716SOL     OW54588   4.022   7.641   6.835
17716SOL    HW154589   3.977   7.668   6.916
17716SOL    HW254590   4.007   7.546   6.830
17717SOL     OW54591   4.480   0.059   6.589
17717SOL    HW154592   4.536   0.066   6.512
17717SOL    HW254593   4.417   0.130   6.579
17718SOL     OW54594   4.040   7.513   6.214
17718SOL    HW154595   4.010   7.600   6.239
17718SOL    HW254596   4.048   7.466   6.297
17719SOL     OW54597   5.336   7.807   5.956
17719SOL    HW154598   5.380   7.737   6.003
17719SOL    HW254599   5.298   7.862   6.024
17720SOL     OW54600   5.213   7.738   5.719
17720SOL    HW154601   5.166   7.657   5.739
17720SOL    HW254602   5.263   7.756   5.798
17721SOL     OW54603   5.042   0.251   5.644
17721SOL    HW154604   5.016   0.160   5.658
17721SOL    HW254605   4.974   0.287   5.586
17722SOL     OW54606   4.033   7.986   6.632
17722SOL    HW154607   4.018   7.894   6.612
17722SOL    HW254608   4.107   8.011   6.576
17723SOL     OW54609   4.872   7.827   7.264
17723SOL    HW154610   4.821   7.904   7.287
17723SOL    HW254611   4.963   7.857   7.265
17724SOL     OW54612   4.884   7.634   7.064
17724SOL    HW154613   4.873   7.703   7.130
17724SOL    HW254614   4.931   7.677   6.993
17725SOL     OW54615   3.749   7.943   6.708
17725SOL    HW154616   3.829   7.925   6.659
17725SOL    HW254617   3.779   7.957   6.798
17726SOL     OW54618   3.929   7.948   7.310
17726SOL    HW154619   3.987   7.932   7.236
17726SOL    HW254620   3.922   8.043   7.315
17727SOL     OW54621   4.524   0.036   5.826
17727SOL    HW154622   4.566  -0.050   5.823
17727SOL    HW254623   4.473   0.034   5.907
17728SOL     OW54624   5.353   8.027   6.793
17728SOL    HW154625   5.335   7.966   6.865
17728SOL    HW254626   5.419   7.983   6.740
17729SOL     OW54627   4.452   7.887   6.815
17729SOL    HW154628   4.388   7.817   6.800
17729SOL    HW254629   4.443   7.944   6.739
17730SOL     OW54630   5.462   7.603   6.093
17730SOL    HW154631   5.530   7.586   6.028
17730SOL    HW254632   5.440   7.517   6.128
17731SOL     OW54633   5.572   7.616   6.549
17731SOL    HW154634   5.595   7.526   6.526
17731SOL    HW254635   5.485   7.629   6.512
17732SOL     OW54636   3.968   7.760   6.305
17732SOL    HW154637   3.875   7.779   6.291
17732SOL    HW254638   3.977   7.756   6.401
17733SOL     OW54639   4.755   7.665   6.554
17733SOL    HW154640   4.751   7.624   6.468
17733SOL    HW254641   4.745   7.593   6.616
17734SOL     OW54642   5.461   7.816   6.977
17734SOL    HW154643   5.525   7.887   6.971
17734SOL    HW254644   5.493   7.750   6.915
17735SOL     OW54645   4.402   7.638   7.086
17735SOL    HW154646   4.485   7.613   7.044
17735SOL    HW254647   4.429   7.672   7.172
17736SOL     OW54648   3.808   7.774   5.611
17736SOL    HW154649   3.736   7.750   5.552
17736SOL    HW254650   3.821   7.868   5.597
17737SOL     OW54651   3.781   7.599   5.878
17737SOL    HW154652   3.769   7.675   5.822
17737SOL    HW254653   3.867   7.564   5.853
17738SOL     OW54654   4.507   8.005   7.316
17738SOL    HW154655   4.414   8.022   7.300
17738SOL    HW254656   4.514   7.909   7.317
17739SOL     OW54657   4.938   7.747   6.058
17739SOL    HW154658   5.003   7.678   6.046
17739SOL    HW254659   4.975   7.805   6.124
17740SOL     OW54660   4.371   0.234   6.215
17740SOL    HW154661   4.343   0.326   6.211
17740SOL    HW254662   4.295   0.188   6.251
17741SOL     OW54663   5.477   7.804   7.252
17741SOL    HW154664   5.467   7.819   7.158
17741SOL    HW254665   5.404   7.746   7.275
17742SOL     OW54666   5.547   7.616   6.821
17742SOL    HW154667   5.539   7.521   6.828
17742SOL    HW254668   5.556   7.632   6.727
17743SOL     OW54669   4.094   7.864   6.085
17743SOL    HW154670   4.130   7.794   6.030
17743SOL    HW254671   4.052   7.818   6.157
17744SOL     OW54672   5.147   7.665   6.695
17744SOL    HW154673   5.152   7.573   6.723
17744SOL    HW254674   5.101   7.709   6.766
17745SOL     OW54675   4.728   7.452   6.726
17745SOL    HW154676   4.671   7.385   6.687
17745SOL    HW254677   4.815   7.412   6.725
17746SOL     OW54678   5.091   7.494   5.756
17746SOL    HW154679   5.130   7.418   5.714
17746SOL    HW254680   5.000   7.469   5.774
17747SOL     OW54681   5.044   7.900   6.265
17747SOL    HW154682   5.000   7.984   6.263
17747SOL    HW254683   5.023   7.864   6.351
17748SOL     OW54684   5.312   7.652   6.473
17748SOL    HW154685   5.259   7.668   6.551
17748SOL    HW254686   5.298   7.730   6.419
17749SOL     OW54687   3.948   7.746   8.436
17749SOL    HW154688   3.978   7.715   8.521
17749SOL    HW254689   3.857   7.717   8.430
17750SOL     OW54690   3.709   7.798   8.107
17750SOL    HW154691   3.629   7.844   8.133
17750SOL    HW254692   3.678   7.724   8.055
17751SOL     OW54693   5.426   0.030   7.699
17751SOL    HW154694   5.449   0.041   7.606
17751SOL    HW254695   5.419  -0.065   7.710
17752SOL     OW54696   4.150   7.855   8.991
17752SOL    HW154697   4.230   7.821   8.950
17752SOL    HW254698   4.084   7.788   8.974
17753SOL     OW54699   5.322   7.930   8.150
17753SOL    HW154700   5.231   7.918   8.121
17753SOL    HW254701   5.314   7.962   8.240
17754SOL     OW54702   5.314   7.578   8.911
17754SOL    HW154703   5.351   7.654   8.866
17754SOL    HW254704   5.287   7.611   8.997
17755SOL     OW54705   3.776   0.081   8.111
17755SOL    HW154706   3.787  -0.006   8.073
17755SOL    HW254707   3.834   0.137   8.059
17756SOL     OW54708   4.545   7.437   7.972
17756SOL    HW154709   4.589   7.516   7.942
17756SOL    HW254710   4.452   7.460   7.973
17757SOL     OW54711   4.066   7.694   9.284
17757SOL    HW154712   4.101   7.781   9.263
17757SOL    HW254713   3.974   7.709   9.304
17758SOL     OW54714   4.984   7.809   8.385
17758SOL    HW154715   4.897   7.770   8.394
17758SOL    HW254716   5.041   7.752   8.437
17759SOL     OW54717   5.128   7.940   9.149
17759SOL    HW154718   5.111   7.958   9.242
17759SOL    HW254719   5.180   7.859   9.149
17760SOL     OW54720   4.645   0.372   8.989
17760SOL    HW154721   4.696   0.309   8.938
17760SOL    HW254722   4.567   0.388   8.936
17761SOL     OW54723   4.719   7.816   8.689
17761SOL    HW154724   4.633   7.841   8.720
17761SOL    HW254725   4.702   7.757   8.615
17762SOL     OW54726   4.625   7.775   7.643
17762SOL    HW154727   4.644   7.819   7.560
17762SOL    HW254728   4.637   7.682   7.624
17763SOL     OW54729   5.464   0.028   9.269
17763SOL    HW154730   5.410   0.088   9.220
17763SOL    HW254731   5.474  -0.048   9.212
17764SOL     OW54732   4.272   7.628   8.347
17764SOL    HW154733   4.280   7.649   8.440
17764SOL    HW254734   4.271   7.713   8.302
17765SOL     OW54735   3.918   7.703   8.958
17765SOL    HW154736   3.865   7.764   9.009
17765SOL    HW254737   3.891   7.617   8.988
17766SOL     OW54738   5.123   7.543   7.888
17766SOL    HW154739   5.112   7.520   7.796
17766SOL    HW254740   5.216   7.531   7.906
17767SOL     OW54741   5.239   7.675   9.176
17767SOL    HW154742   5.241   7.696   9.270
17767SOL    HW254743   5.182   7.598   9.170
17768SOL     OW54744   4.376   7.557   7.546
17768SOL    HW154745   4.425   7.478   7.569
17768SOL    HW254746   4.319   7.530   7.475
17769SOL     OW54747   4.491   7.717   9.202
17769SOL    HW154748   4.574   7.669   9.198
17769SOL    HW254749   4.445   7.678   9.276
17770SOL     OW54750   5.077   0.015   8.882
17770SOL    HW154751   5.103  -0.009   8.971
17770SOL    HW254752   5.010   0.082   8.894
17771SOL     OW54753   4.284   7.507   7.946
17771SOL    HW154754   4.202   7.509   7.996
17771SOL    HW254755   4.278   7.582   7.888
17772SOL     OW54756   4.010   7.501   7.635
17772SOL    HW154757   4.064   7.559   7.581
17772SOL    HW254758   4.072   7.439   7.673
17773SOL     OW54759   4.674   7.666   7.902
17773SOL    HW154760   4.647   7.722   7.829
17773SOL    HW254761   4.765   7.691   7.919
17774SOL     OW54762   3.827   0.006   8.845
17774SOL    HW154763   3.904  -0.022   8.895
17774SOL    HW254764   3.811   0.096   8.873
17775SOL     OW54765   4.277   7.667   8.621
17775SOL    HW154766   4.316   7.593   8.667
17775SOL    HW254767   4.186   7.668   8.650
17776SOL     OW54768   4.745   7.502   8.192
17776SOL    HW154769   4.687   7.502   8.115
17776SOL    HW254770   4.718   7.425   8.242
17777SOL     OW54771   5.223   7.954   8.406
17777SOL    HW154772   5.133   7.922   8.409
17777SOL    HW254773   5.232   8.007   8.485
17778SOL     OW54774   4.274   7.709   7.759
17778SOL    HW154775   4.303   7.657   7.684
17778SOL    HW254776   4.323   7.790   7.753
17779SOL     OW54777   4.639   7.533   8.838
17779SOL    HW154778   4.662   7.509   8.748
17779SOL    HW254779   4.719   7.572   8.873
17780SOL     OW54780   4.990   7.799   8.736
17780SOL    HW154781   5.021   7.880   8.777
17780SOL    HW254782   4.897   7.814   8.719
17781SOL     OW54783   4.269   7.910   8.306
17781SOL    HW154784   4.232   7.972   8.243
17781SOL    HW254785   4.335   7.960   8.353
17782SOL     OW54786   4.730   7.590   9.208
17782SOL    HW154787   4.791   7.659   9.182
17782SOL    HW254788   4.774   7.509   9.181
17783SOL     OW54789   4.220   7.482   9.201
17783SOL    HW154790   4.170   7.426   9.141
17783SOL    HW254791   4.162   7.557   9.217
17784SOL     OW54792   3.984   7.633   8.698
17784SOL    HW154793   3.969   7.671   8.785
17784SOL    HW254794   4.023   7.547   8.716
17785SOL     OW54795   4.477   0.055   8.460
17785SOL    HW154796   4.526   0.072   8.379
17785SOL    HW254797   4.417   0.130   8.467
17786SOL     OW54798   4.040   7.512   8.075
17786SOL    HW154799   4.012   7.601   8.096
17786SOL    HW254800   4.051   7.470   8.160
17787SOL     OW54801   5.331   7.791   7.816
17787SOL    HW154802   5.379   7.727   7.867
17787SOL    HW254803   5.294   7.851   7.881
17788SOL     OW54804   5.208   7.736   7.579
17788SOL    HW154805   5.161   7.654   7.596
17788SOL    HW254806   5.259   7.751   7.658
17789SOL     OW54807   5.040   0.253   7.510
17789SOL    HW154808   5.016   0.161   7.524
17789SOL    HW254809   4.972   0.286   7.451
17790SOL     OW54810   4.030   8.007   8.495
17790SOL    HW154811   4.020   7.919   8.459
17790SOL    HW254812   4.101   8.046   8.443
17791SOL     OW54813   4.871   7.828   9.128
17791SOL    HW154814   4.819   7.905   9.151
17791SOL    HW254815   4.962   7.859   9.128
17792SOL     OW54816   4.881   7.634   8.928
17792SOL    HW154817   4.872   7.704   8.993
17792SOL    HW254818   4.929   7.675   8.856
17793SOL     OW54819   3.737   7.915   8.598
17793SOL    HW154820   3.783   7.948   8.521
17793SOL    HW254821   3.786   7.951   8.672
17794SOL     OW54822   3.925   7.960   9.144
17794SOL    HW154823   4.009   7.942   9.102
17794SOL    HW254824   3.934   8.049   9.178
17795SOL     OW54825   4.513   0.026   7.693
17795SOL    HW154826   4.562  -0.056   7.699
17795SOL    HW254827   4.467   0.032   7.776
17796SOL     OW54828   5.353   8.028   8.659
17796SOL    HW154829   5.332   7.964   8.726
17796SOL    HW254830   5.418   7.985   8.603
17797SOL     OW54831   4.446   7.885   8.678
17797SOL    HW154832   4.383   7.816   8.655
17797SOL    HW254833   4.444   7.945   8.603
17798SOL     OW54834   5.468   7.603   7.958
17798SOL    HW154835   5.533   7.586   7.890
17798SOL    HW254836   5.444   7.515   7.990
17799SOL     OW54837   5.572   7.616   8.413
17799SOL    HW154838   5.595   7.526   8.388
17799SOL    HW254839   5.486   7.630   8.373
17800SOL     OW54840   3.973   7.764   8.156
17800SOL    HW154841   3.880   7.779   8.143
17800SOL    HW254842   3.984   7.766   8.251
17801SOL     OW54843   4.752   7.667   8.421
17801SOL    HW154844   4.746   7.628   8.334
17801SOL    HW254845   4.745   7.593   8.481
17802SOL     OW54846   5.464   7.815   8.840
17802SOL    HW154847   5.525   7.887   8.832
17802SOL    HW254848   5.494   7.750   8.777
17803SOL     OW54849   4.400   7.636   8.946
17803SOL    HW154850   4.483   7.613   8.904
17803SOL    HW254851   4.425   7.668   9.033
17804SOL     OW54852   3.795   7.772   7.487
17804SOL    HW154853   3.730   7.752   7.420
17804SOL    HW254854   3.835   7.855   7.459
17805SOL     OW54855   3.779   7.603   7.735
17805SOL    HW154856   3.764   7.673   7.671
17805SOL    HW254857   3.866   7.569   7.713
17806SOL     OW54858   4.513   7.994   9.175
17806SOL    HW154859   4.422   8.021   9.160
17806SOL    HW254860   4.510   7.899   9.176
17807SOL     OW54861   4.937   7.746   7.924
17807SOL    HW154862   5.001   7.676   7.908
17807SOL    HW254863   4.979   7.802   7.990
17808SOL     OW54864   4.357   0.247   8.156
17808SOL    HW154865   4.356   0.332   8.112
17808SOL    HW254866   4.295   0.194   8.105
17809SOL     OW54867   5.479   7.802   9.115
17809SOL    HW154868   5.470   7.817   9.021
17809SOL    HW254869   5.404   7.746   9.137
17810SOL     OW54870   5.547   7.614   8.684
17810SOL    HW154871   5.539   7.519   8.690
17810SOL    HW254872   5.555   7.631   8.590
17811SOL     OW54873   4.104   7.862   7.932
17811SOL    HW154874   4.142   7.792   7.878
17811SOL    HW254875   4.063   7.816   8.005
17812SOL     OW54876   5.146   7.666   8.554
17812SOL    HW154877   5.152   7.573   8.577
17812SOL    HW254878   5.100   7.705   8.628
17813SOL     OW54879   4.727   7.448   8.587
17813SOL    HW154880   4.675   7.382   8.540
17813SOL    HW254881   4.816   7.411   8.589
17814SOL     OW54882   5.088   7.491   7.617
17814SOL    HW154883   5.128   7.417   7.572
17814SOL    HW254884   4.998   7.464   7.634
17815SOL     OW54885   5.048   7.899   8.129
17815SOL    HW154886   5.002   7.983   8.121
17815SOL    HW254887   5.022   7.866   8.215
17816SOL     OW54888   5.314   7.656   8.334
17816SOL    HW154889   5.260   7.671   8.411
17816SOL    HW254890   5.298   7.731   8.277
17817SOL     OW54891   3.950   7.738  10.308
17817SOL    HW154892   3.982   7.698  10.389
17817SOL    HW254893   3.863   7.699  10.295
17818SOL     OW54894   3.711   7.809   9.962
17818SOL    HW154895   3.630   7.851   9.990
17818SOL    HW254896   3.683   7.731   9.915
17819SOL     OW54897   5.409   0.029   9.547
17819SOL    HW154898   5.435   0.047   9.457
17819SOL    HW254899   5.424  -0.064   9.559
17820SOL     OW54900   4.161   7.840  10.856
17820SOL    HW154901   4.237   7.796  10.818
17820SOL    HW254902   4.087   7.784  10.833
17821SOL     OW54903   5.321   7.896  10.034
17821SOL    HW154904   5.235   7.901   9.992
17821SOL    HW254905   5.311   7.945  10.115
17822SOL     OW54906   5.313   7.575  10.774
17822SOL    HW154907   5.352   7.650  10.729
17822SOL    HW254908   5.284   7.611  10.858
17823SOL     OW54909   3.760   0.090   9.949
17823SOL    HW154910   3.777  -0.003   9.937
17823SOL    HW254911   3.847   0.131   9.943
17824SOL     OW54912   4.543   7.434   9.833
17824SOL    HW154913   4.588   7.513   9.805
17824SOL    HW254914   4.451   7.458   9.835
17825SOL     OW54915   4.058   7.695  11.149
17825SOL    HW154916   4.077   7.780  11.108
17825SOL    HW254917   3.966   7.701  11.174
17826SOL     OW54918   4.985   7.810  10.247
17826SOL    HW154919   4.898   7.772  10.257
17826SOL    HW254920   5.043   7.753  10.298
17827SOL     OW54921   5.136   7.945  11.011
17827SOL    HW154922   5.108   7.959  11.102
17827SOL    HW254923   5.185   7.863  11.014
17828SOL     OW54924   4.692   0.366  10.866
17828SOL    HW154925   4.668   0.302  10.799
17828SOL    HW254926   4.613   0.420  10.876
17829SOL     OW54927   4.724   7.817  10.541
17829SOL    HW154928   4.634   7.836  10.569
17829SOL    HW254929   4.713   7.759  10.465
17830SOL     OW54930   4.627   7.776   9.504
17830SOL    HW154931   4.648   7.820   9.422
17830SOL    HW254932   4.647   7.684   9.489
17831SOL     OW54933   5.460   0.040  11.089
17831SOL    HW154934   5.442   0.083  11.006
17831SOL    HW254935   5.481  -0.050  11.066
17832SOL     OW54936   4.276   7.628  10.214
17832SOL    HW154937   4.281   7.650  10.307
17832SOL    HW254938   4.272   7.712  10.169
17833SOL     OW54939   3.920   7.713  10.810
17833SOL    HW154940   3.833   7.753  10.806
17833SOL    HW254941   3.904   7.625  10.844
17834SOL     OW54942   5.121   7.542   9.751
17834SOL    HW154943   5.112   7.519   9.658
17834SOL    HW254944   5.215   7.545   9.765
17835SOL     OW54945   5.235   7.675  11.038
17835SOL    HW154946   5.236   7.696  11.132
17835SOL    HW254947   5.177   7.599  11.031
17836SOL     OW54948   4.371   7.558   9.412
17836SOL    HW154949   4.422   7.481   9.436
17836SOL    HW254950   4.317   7.529   9.338
17837SOL     OW54951   4.503   7.731  11.068
17837SOL    HW154952   4.581   7.676  11.062
17837SOL    HW254953   4.449   7.688  11.135
17838SOL     OW54954   5.093   0.008  10.742
17838SOL    HW154955   5.120  -0.016  10.831
17838SOL    HW254956   5.030   0.079  10.754
17839SOL     OW54957   4.282   7.507   9.807
17839SOL    HW154958   4.202   7.509   9.859
17839SOL    HW254959   4.276   7.585   9.751
17840SOL     OW54960   4.012   7.501   9.495
17840SOL    HW154961   4.069   7.558   9.444
17840SOL    HW254962   4.073   7.438   9.535
17841SOL     OW54963   4.672   7.664   9.765
17841SOL    HW154964   4.644   7.723   9.695
17841SOL    HW254965   4.763   7.688   9.782
17842SOL     OW54966   3.824  -0.009  10.704
17842SOL    HW154967   3.918  -0.012  10.719
17842SOL    HW254968   3.798   0.079  10.731
17843SOL     OW54969   4.285   7.672  10.487
17843SOL    HW154970   4.323   7.595  10.529
17843SOL    HW254971   4.193   7.671  10.512
17844SOL     OW54972   4.746   7.505  10.056
17844SOL    HW154973   4.688   7.508   9.979
17844SOL    HW254974   4.718   7.427  10.104
17845SOL     OW54975   5.216   7.964  10.281
17845SOL    HW154976   5.131   7.922  10.275
17845SOL    HW254977   5.204   8.035  10.344
17846SOL     OW54978   4.270   7.714   9.624
17846SOL    HW154979   4.300   7.663   9.549
17846SOL    HW254980   4.322   7.794   9.621
17847SOL     OW54981   4.640   7.533  10.701
17847SOL    HW154982   4.661   7.509  10.611
17847SOL    HW254983   4.721   7.570  10.736
17848SOL     OW54984   4.992   7.795  10.599
17848SOL    HW154985   5.025   7.876  10.638
17848SOL    HW254986   4.900   7.814  10.578
17849SOL     OW54987   4.265   7.912  10.168
17849SOL    HW154988   4.230   7.970  10.101
17849SOL    HW254989   4.329   7.965  10.215
17850SOL     OW54990   4.733   7.588  11.069
17850SOL    HW154991   4.795   7.656  11.044
17850SOL    HW254992   4.775   7.506  11.043
17851SOL     OW54993   4.216   7.486  11.067
17851SOL    HW154994   4.169   7.431  11.003
17851SOL    HW254995   4.157   7.560  11.082
17852SOL     OW54996   4.024   7.640  10.559
17852SOL    HW154997   3.982   7.668  10.640
17852SOL    HW254998   4.007   7.546  10.554
17853SOL     OW54999   4.485   0.056  10.323
17853SOL    HW155000   4.537   0.059  10.243
17853SOL    HW255001   4.416   0.122  10.309
17854SOL     OW55002   4.039   7.513   9.937
17854SOL    HW155003   4.010   7.601   9.961
17854SOL    HW255004   4.048   7.467  10.021
17855SOL     OW55005   5.330   7.788   9.682
17855SOL    HW155006   5.379   7.727   9.738
17855SOL    HW255007   5.314   7.863   9.739
17856SOL     OW55008   5.212   7.736   9.443
17856SOL    HW155009   5.162   7.656   9.459
17856SOL    HW255010   5.260   7.752   9.524
17857SOL     OW55011   5.027   0.256   9.384
17857SOL    HW155012   5.012   0.162   9.386
17857SOL    HW255013   4.968   0.289   9.316
17858SOL     OW55014   4.031   7.993  10.358
17858SOL    HW155015   4.021   7.901  10.333
17858SOL    HW255016   4.103   8.025  10.303
17859SOL     OW55017   4.877   7.828  10.986
17859SOL    HW155018   4.825   7.904  11.012
17859SOL    HW255019   4.966   7.863  10.977
17860SOL     OW55020   4.882   7.632  10.791
17860SOL    HW155021   4.873   7.702  10.855
17860SOL    HW255022   4.930   7.672  10.717
17861SOL     OW55023   3.747   7.932  10.444
17861SOL    HW155024   3.824   7.921  10.388
17861SOL    HW255025   3.782   7.952  10.530
17862SOL     OW55026   3.932   7.942  11.040
17862SOL    HW155027   3.952   7.914  10.951
17862SOL    HW255028   3.889   8.027  11.029
17863SOL     OW55029   4.520   0.028   9.553
17863SOL    HW155030   4.566  -0.055   9.557
17863SOL    HW255031   4.471   0.033   9.635
17864SOL     OW55032   5.361   8.031  10.542
17864SOL    HW155033   5.320   7.956  10.584
17864SOL    HW255034   5.413   7.995  10.471
17865SOL     OW55035   4.455   7.888  10.542
17865SOL    HW155036   4.390   7.819  10.526
17865SOL    HW255037   4.450   7.945  10.466
17866SOL     OW55038   5.471   7.601   9.823
17866SOL    HW155039   5.534   7.585   9.753
17866SOL    HW255040   5.446   7.513   9.853
17867SOL     OW55041   5.573   7.616  10.275
17867SOL    HW155042   5.597   7.526  10.251
17867SOL    HW255043   5.487   7.630  10.236
17868SOL     OW55044   3.970   7.761  10.027
17868SOL    HW155045   3.878   7.779  10.012
17868SOL    HW255046   3.979   7.759  10.122
17869SOL     OW55047   4.753   7.667  10.287
17869SOL    HW155048   4.747   7.630  10.199
17869SOL    HW255049   4.745   7.592  10.346
17870SOL     OW55050   5.471   7.811  10.711
17870SOL    HW155051   5.530   7.886  10.697
17870SOL    HW255052   5.497   7.747  10.645
17871SOL     OW55053   4.403   7.638  10.812
17871SOL    HW155054   4.485   7.613  10.768
17871SOL    HW255055   4.432   7.675  10.895
17872SOL     OW55056   3.805   7.776   9.335
17872SOL    HW155057   3.733   7.751   9.277
17872SOL    HW255058   3.831   7.863   9.305
17873SOL     OW55059   3.782   7.600   9.600
17873SOL    HW155060   3.767   7.674   9.542
17873SOL    HW255061   3.868   7.566   9.576
17874SOL     OW55062   4.499   8.011  11.038
17874SOL    HW155063   4.405   8.022  11.024
17874SOL    HW255064   4.512   7.916  11.040
17875SOL     OW55065   4.935   7.743   9.789
17875SOL    HW155066   4.999   7.675   9.771
17875SOL    HW255067   4.978   7.801   9.851
17876SOL     OW55068   4.358   0.254   9.994
17876SOL    HW155069   4.335   0.338   9.952
17876SOL    HW255070   4.289   0.194   9.965
17877SOL     OW55071   5.481   7.788  10.984
17877SOL    HW155072   5.476   7.803  10.889
17877SOL    HW255073   5.402   7.737  11.004
17878SOL     OW55074   5.541   7.613  10.546
17878SOL    HW155075   5.537   7.517  10.551
17878SOL    HW255076   5.551   7.632  10.453
17879SOL     OW55077   4.102   7.864   9.805
17879SOL    HW155078   4.138   7.795   9.749
17879SOL    HW255079   4.060   7.817   9.877
17880SOL     OW55080   5.147   7.666  10.415
17880SOL    HW155081   5.154   7.573  10.436
17880SOL    HW255082   5.100   7.704  10.489
17881SOL     OW55083   4.728   7.446  10.449
17881SOL    HW155084   4.675   7.382  10.402
17881SOL    HW255085   4.816   7.409  10.451
17882SOL     OW55086   5.088   7.492   9.479
17882SOL    HW155087   5.128   7.418   9.433
17882SOL    HW255088   4.998   7.465   9.496
17883SOL     OW55089   5.047   7.900   9.990
17883SOL    HW155090   5.003   7.985   9.982
17883SOL    HW255091   5.021   7.868  10.076
17884SOL     OW55092   5.317   7.653  10.193
17884SOL    HW155093   5.261   7.676  10.267
17884SOL    HW255094   5.309   7.727  10.133
17885SOL     OW55095   3.958   7.717  12.162
17885SOL    HW155096   3.984   7.683  12.248
17885SOL    HW255097   3.866   7.691  12.153
17886SOL     OW55098   3.707   7.814  11.831
17886SOL    HW155099   3.624   7.854  11.857
17886SOL    HW255100   3.682   7.736  11.782
17887SOL     OW55101   5.339   0.033  11.343
17887SOL    HW155102   5.394   0.032  11.265
17887SOL    HW255103   5.390  -0.016  11.408
17888SOL     OW55104   5.316   7.909  11.875
17888SOL    HW155105   5.225   7.908  11.846
17888SOL    HW255106   5.313   7.950  11.961
17889SOL     OW55107   3.776   0.083  11.802
17889SOL    HW155108   3.771  -0.013  11.805
17889SOL    HW255109   3.824   0.107  11.881
17890SOL     OW55110   4.544   7.434  11.696
17890SOL    HW155111   4.590   7.512  11.667
17890SOL    HW255112   4.451   7.459  11.696
17891SOL     OW55113   4.983   7.803  12.115
17891SOL    HW155114   4.896   7.763  12.124
17891SOL    HW255115   5.040   7.748  12.169
17892SOL     OW55116   4.701   7.802  12.397
17892SOL    HW155117   4.624   7.856  12.415
17892SOL    HW255118   4.686   7.766  12.310
17893SOL     OW55119   4.625   7.777  11.366
17893SOL    HW155120   4.632   7.813  11.278
17893SOL    HW255121   4.643   7.684  11.355
17894SOL     OW55122   4.281   7.634  12.064
17894SOL    HW155123   4.274   7.683  12.145
17894SOL    HW255124   4.276   7.700  11.995
17895SOL     OW55125   5.124   7.544  11.615
17895SOL    HW155126   5.114   7.522  11.523
17895SOL    HW255127   5.218   7.542  11.631
17896SOL     OW55128   4.377   7.564  11.268
17896SOL    HW155129   4.426   7.485  11.291
17896SOL    HW255130   4.318   7.537  11.198
17897SOL     OW55131   4.283   7.507  11.670
17897SOL    HW155132   4.201   7.508  11.718
17897SOL    HW255133   4.278   7.583  11.613
17898SOL     OW55134   4.010   7.500  11.357
17898SOL    HW155135   4.064   7.561  11.305
17898SOL    HW255136   4.073   7.440  11.396
17899SOL     OW55137   4.676   7.662  11.629
17899SOL    HW155138   4.641   7.725  11.566
17899SOL    HW255139   4.767   7.689  11.642
17900SOL     OW55140   3.836  -0.001   0.060
17900SOL    HW155141   3.920  -0.013   0.104
17900SOL    HW255142   3.792   0.068   0.109
17901SOL     OW55143   4.290   7.649  12.354
17901SOL    HW155144   4.303   7.565  12.309
17901SOL    HW255145   4.196   7.651  12.373
17902SOL     OW55146   4.744   7.507  11.923
17902SOL    HW155147   4.690   7.514  11.844
17902SOL    HW255148   4.715   7.425  11.964
17903SOL     OW55149   5.223   7.949  12.131
17903SOL    HW155150   5.130   7.924  12.135
17903SOL    HW255151   5.236   8.002  12.209
17904SOL     OW55152   4.271   7.711  11.488
17904SOL    HW155153   4.303   7.667  11.409
17904SOL    HW255154   4.310   7.798  11.484
17905SOL     OW55155   4.960   7.792  12.473
17905SOL    HW155156   4.985   7.884  12.466
17905SOL    HW255157   4.869   7.790  12.443
17906SOL     OW55158   4.260   7.928  12.030
17906SOL    HW155159   4.226   7.984  11.960
17906SOL    HW255160   4.330   7.979  12.070
17907SOL     OW55161   4.026   7.627  12.414
17907SOL    HW155162   3.966   7.657  12.483
17907SOL    HW255163   4.010   7.532  12.409
17908SOL     OW55164   4.462   0.055  12.189
17908SOL    HW155165   4.550   0.071  12.158
17908SOL    HW255166   4.411   0.130  12.158
17909SOL     OW55167   4.039   7.509  11.794
17909SOL    HW155168   4.006   7.596  11.817
17909SOL    HW255169   4.046   7.463  11.877
17910SOL     OW55170   5.330   7.811  11.553
17910SOL    HW155171   5.378   7.737  11.590
17910SOL    HW255172   5.312   7.868  11.628
17911SOL     OW55173   5.212   7.740  11.302
17911SOL    HW155174   5.164   7.660  11.326
17911SOL    HW255175   5.257   7.766  11.382
17912SOL     OW55176   4.030   7.975  12.197
17912SOL    HW155177   4.018   7.882  12.178
17912SOL    HW255178   4.107   8.000  12.146
17913SOL     OW55179   3.773   7.962  12.290
17913SOL    HW155180   3.860   7.963  12.250
17913SOL    HW255181   3.791   7.970  12.384
17914SOL     OW55182   4.515   0.030  11.409
17914SOL    HW155183   4.566  -0.051  11.416
17914SOL    HW255184   4.463   0.032  11.489
17915SOL     OW55185   5.366   8.025  12.369
17915SOL    HW155186   5.370   7.955  12.434
17915SOL    HW255187   5.437   8.005  12.308
17916SOL     OW55188   4.414   7.902  12.411
17916SOL    HW155189   4.369   7.822  12.383
17916SOL    HW255190   4.426   7.952  12.330
17917SOL     OW55191   5.464   7.603  11.677
17917SOL    HW155192   5.530   7.587  11.610
17917SOL    HW255193   5.442   7.516  11.711
17918SOL     OW55194   5.570   7.620  12.137
17918SOL    HW155195   5.595   7.532  12.111
17918SOL    HW255196   5.483   7.633  12.099
17919SOL     OW55197   3.966   7.754  11.887
17919SOL    HW155198   3.875   7.778  11.873
17919SOL    HW255199   3.976   7.748  11.982
17920SOL     OW55200   4.748   7.660  12.156
17920SOL    HW155201   4.743   7.622  12.068
17920SOL    HW255202   4.743   7.586  12.215
17921SOL     OW55203   5.473   7.835   0.051
17921SOL    HW155204   5.557   7.880   0.055
17921SOL    HW255205   5.492   7.753   0.005
17922SOL     OW55206   3.794   7.771  11.218
17922SOL    HW155207   3.732   7.758  11.146
17922SOL    HW255208   3.837   7.854  11.197
17923SOL     OW55209   3.779   7.601  11.461
17923SOL    HW155210   3.763   7.672  11.398
17923SOL    HW255211   3.866   7.568  11.438
17924SOL     OW55212   4.937   7.747  11.649
17924SOL    HW155213   5.004   7.680  11.634
17924SOL    HW255214   4.976   7.805  11.715
17925SOL     OW55215   4.365   0.247  11.801
17925SOL    HW155216   4.324   0.332  11.783
17925SOL    HW255217   4.294   0.192  11.833
17926SOL     OW55218   5.543   7.608  12.411
17926SOL    HW155219   5.542   7.513  12.399
17926SOL    HW255220   5.553   7.644  12.323
17927SOL     OW55221   4.104   7.861  11.673
17927SOL    HW155222   4.132   7.789  11.617
17927SOL    HW255223   4.057   7.819  11.745
17928SOL     OW55224   5.148   7.675  12.295
17928SOL    HW155225   5.201   7.604  12.331
17928SOL    HW255226   5.096   7.707  12.369
17929SOL     OW55227   4.726   7.421  12.325
17929SOL    HW155228   4.683   7.376  12.252
17929SOL    HW255229   4.817   7.392  12.320
17930SOL     OW55230   5.089   7.494  11.345
17930SOL    HW155231   5.128   7.421  11.297
17930SOL    HW255232   4.999   7.466  11.361
17931SOL     OW55233   5.037   7.902  11.859
17931SOL    HW155234   4.983   7.981  11.854
17931SOL    HW255235   5.017   7.865  11.945
17932SOL     OW55236   5.309   7.656  12.058
17932SOL    HW155237   5.255   7.685  12.131
17932SOL    HW255238   5.303   7.726  11.993
17933SOL     OW55239   5.852   0.596   0.021
17933SOL    HW155240   5.815   0.648   0.092
17933SOL    HW255241   5.782   0.590  -0.043
17934SOL     OW55242   5.799   0.307   0.988
17934SOL    HW155243   5.837   0.262   1.063
17934SOL    HW255244   5.716   0.261   0.972
17935SOL     OW55245   5.590   0.399   0.635
17935SOL    HW155246   5.508   0.426   0.675
17935SOL    HW255247   5.576   0.308   0.610
17936SOL     OW55248   6.156   1.302   1.190
17936SOL    HW155249   6.071   1.309   1.146
17936SOL    HW255250   6.174   1.391   1.222
17937SOL     OW55251   7.161   1.520   0.714
17937SOL    HW155252   7.117   1.496   0.795
17937SOL    HW255253   7.091   1.522   0.648
17938SOL     OW55254   6.718   0.703   0.693
17938SOL    HW155255   6.766   0.785   0.681
17938SOL    HW255256   6.671   0.715   0.776
17939SOL     OW55257   7.300   0.633   0.277
17939SOL    HW155258   7.293   0.639   0.182
17939SOL    HW255259   7.284   0.541   0.296
17940SOL     OW55260   6.321   1.132   1.050
17940SOL    HW155261   6.258   1.172   1.110
17940SOL    HW255262   6.365   1.206   1.008
17941SOL     OW55263   6.463   0.750   1.823
17941SOL    HW155264   6.449   0.817   1.890
17941SOL    HW255265   6.485   0.799   1.744
17942SOL     OW55266   6.271   0.991   0.645
17942SOL    HW155267   6.339   0.987   0.712
17942SOL    HW255268   6.204   1.049   0.681
17943SOL     OW55269   6.301   1.149   1.823
17943SOL    HW155270   6.350   1.225   1.857
17943SOL    HW255271   6.223   1.187   1.783
17944SOL     OW55272   5.921   1.410   1.067
17944SOL    HW155273   5.845   1.370   1.025
17944SOL    HW255274   5.962   1.463   0.999
17945SOL     OW55275   7.044   1.506   1.366
17945SOL    HW155276   7.099   1.584   1.377
17945SOL    HW255277   6.974   1.517   1.430
17946SOL     OW55278   6.036   0.383   1.463
17946SOL    HW155279   6.115   0.330   1.476
17946SOL    HW255280   5.964   0.324   1.483
17947SOL     OW55281   7.207   0.463   0.732
17947SOL    HW155282   7.171   0.503   0.653
17947SOL    HW255283   7.185   0.525   0.802
17948SOL     OW55284   5.803   1.717   0.471
17948SOL    HW155285   5.821   1.791   0.528
17948SOL    HW255286   5.881   1.707   0.417
17949SOL     OW55287   6.722   1.343   1.694
17949SOL    HW155288   6.764   1.336   1.780
17949SOL    HW255289   6.670   1.263   1.687
17950SOL     OW55290   5.805   1.450   0.543
17950SOL    HW155291   5.793   1.545   0.542
17950SOL    HW255292   5.752   1.420   0.617
17951SOL     OW55293   5.859   1.091   0.888
17951SOL    HW155294   5.854   1.003   0.924
17951SOL    HW255295   5.802   1.144   0.945
17952SOL     OW55296   6.180   1.792   1.425
17952SOL    HW155297   6.100   1.775   1.475
17952SOL    HW255298   6.208   1.879   1.454
17953SOL     OW55299   6.162   0.966   0.153
17953SOL    HW155300   6.229   0.981   0.087
17953SOL    HW255301   6.194   1.011   0.231
17954SOL     OW55302   7.247   0.119   1.479
17954SOL    HW155303   7.205   0.141   1.395
17954SOL    HW255304   7.188   0.154   1.545
17955SOL     OW55305   5.709   0.651   0.565
17955SOL    HW155306   5.672   0.566   0.588
17955SOL    HW255307   5.701   0.703   0.646
17956SOL     OW55308   7.437   1.739   0.317
17956SOL    HW155309   7.498   1.712   0.386
17956SOL    HW255310   7.458   1.831   0.301
17957SOL     OW55311   5.616   1.528   0.103
17957SOL    HW155312   5.526   1.495   0.095
17957SOL    HW255313   5.610   1.598   0.168
17958SOL     OW55314   7.267   0.935   0.650
17958SOL    HW155315   7.335   0.888   0.600
17958SOL    HW255316   7.233   1.000   0.589
17959SOL     OW55317   7.228   1.120   0.436
17959SOL    HW155318   7.316   1.117   0.397
17959SOL    HW255319   7.237   1.182   0.508
17960SOL     OW55320   5.706   0.753   1.584
17960SOL    HW155321   5.794   0.790   1.593
17960SOL    HW255322   5.648   0.829   1.585
17961SOL     OW55323   6.205   1.394   0.734
17961SOL    HW155324   6.162   1.309   0.743
17961SOL    HW255325   6.189   1.418   0.642
17962SOL     OW55326   6.867   1.234   1.417
17962SOL    HW155327   6.898   1.165   1.358
17962SOL    HW255328   6.927   1.229   1.492
17963SOL     OW55329   6.427   0.034   0.576
17963SOL    HW155330   6.464   0.112   0.534
17963SOL    HW255331   6.332   0.047   0.573
17964SOL     OW55332   5.771   0.959   1.286
17964SOL    HW155333   5.858   0.923   1.269
17964SOL    HW255334   5.714   0.916   1.223
17965SOL     OW55335   7.082   1.015   0.228
17965SOL    HW155336   7.019   0.955   0.268
17965SOL    HW255337   7.135   1.046   0.301
17966SOL     OW55338   6.769   1.821   1.631
17966SOL    HW155339   6.773   1.884   1.558
17966SOL    HW255340   6.789   1.736   1.590
17967SOL     OW55341   5.893   0.229   1.775
17967SOL    HW155342   5.958   0.291   1.808
17967SOL    HW255343   5.814   0.248   1.825
17968SOL     OW55344   7.053   1.419   0.946
17968SOL    HW155345   6.988   1.436   1.014
17968SOL    HW255346   7.040   1.328   0.921
17969SOL     OW55347   7.234   1.764   0.585
17969SOL    HW155348   7.213   1.728   0.499
17969SOL    HW255349   7.220   1.692   0.646
17970SOL     OW55350   6.172   0.713   0.280
17970SOL    HW155351   6.179   0.800   0.241
17970SOL    HW255352   6.108   0.723   0.350
17971SOL     OW55353   6.883   0.379   0.935
17971SOL    HW155354   6.791   0.351   0.938
17971SOL    HW255355   6.928   0.321   0.997
17972SOL     OW55356   7.173   1.676   0.328
17972SOL    HW155357   7.268   1.687   0.322
17972SOL    HW255358   7.142   1.690   0.239
17973SOL     OW55359   6.356   0.644   1.439
17973SOL    HW155360   6.342   0.611   1.528
17973SOL    HW255361   6.344   0.567   1.383
17974SOL     OW55362   7.001   0.502   1.682
17974SOL    HW155363   6.994   0.539   1.770
17974SOL    HW255364   7.095   0.491   1.668
17975SOL     OW55365   6.533   0.881   1.587
17975SOL    HW155366   6.583   0.810   1.547
17975SOL    HW255367   6.485   0.921   1.514
17976SOL     OW55368   6.593   0.411   1.210
17976SOL    HW155369   6.506   0.432   1.243
17976SOL    HW255370   6.579   0.381   1.120
17977SOL     OW55371   6.642   0.703   0.425
17977SOL    HW155372   6.657   0.698   0.519
17977SOL    HW255373   6.558   0.660   0.412
17978SOL     OW55374   5.678   0.817   0.778
17978SOL    HW155375   5.758   0.815   0.831
17978SOL    HW255376   5.629   0.892   0.812
17979SOL     OW55377   5.707   1.874   1.586
17979SOL    HW155378   5.715   1.850   1.679
17979SOL    HW255379   5.615   1.855   1.565
17980SOL     OW55380   6.472   0.364   0.209
17980SOL    HW155381   6.519   0.436   0.167
17980SOL    HW255382   6.426   0.319   0.138
17981SOL     OW55383   7.272   0.567   1.837
17981SOL    HW155384   7.250   0.645   1.786
17981SOL    HW255385   7.309   0.506   1.774
17982SOL     OW55386   6.964   1.142   0.533
17982SOL    HW155387   7.046   1.139   0.484
17982SOL    HW255388   6.910   1.205   0.486
17983SOL     OW55389   6.089   0.214   0.929
17983SOL    HW155390   6.107   0.258   1.012
17983SOL    HW255391   6.132   0.268   0.863
17984SOL     OW55392   6.579   1.433   0.474
17984SOL    HW155393   6.541   1.511   0.433
17984SOL    HW255394   6.561   1.444   0.568
17985SOL     OW55395   5.938   1.816   0.878
17985SOL    HW155396   5.985   1.733   0.882
17985SOL    HW255397   6.005   1.882   0.897
17986SOL     OW55398   7.387   1.037   0.882
17986SOL    HW155399   7.336   1.023   0.803
17986SOL    HW255400   7.322   1.050   0.951
17987SOL     OW55401   6.811   1.544   1.515
17987SOL    HW155402   6.799   1.471   1.575
17987SOL    HW255403   6.734   1.543   1.458
17988SOL     OW55404   5.898   0.987   0.257
17988SOL    HW155405   5.982   0.992   0.211
17988SOL    HW255406   5.863   0.901   0.237
17989SOL     OW55407   7.063   0.765   0.725
17989SOL    HW155408   7.065   0.721   0.810
17989SOL    HW255409   7.142   0.819   0.724
17990SOL     OW55410   6.061   1.269   1.737
17990SOL    HW155411   6.034   1.273   1.645
17990SOL    HW255412   5.978   1.266   1.785
17991SOL     OW55413   6.649   1.780   0.223
17991SOL    HW155414   6.620   1.736   0.302
17991SOL    HW255415   6.719   1.725   0.188
17992SOL     OW55416   5.778   0.262   1.501
17992SOL    HW155417   5.712   0.331   1.492
17992SOL    HW255418   5.791   0.255   1.596
17993SOL     OW55419   7.242   1.411   0.072
17993SOL    HW155420   7.175   1.475   0.049
17993SOL    HW255421   7.194   1.328   0.078
17994SOL     OW55422   6.041   1.727   0.331
17994SOL    HW155423   6.087   1.787   0.390
17994SOL    HW255424   6.110   1.693   0.274
17995SOL     OW55425   6.981   0.104   0.425
17995SOL    HW155426   6.976   0.057   0.341
17995SOL    HW255427   7.074   0.120   0.438
17996SOL     OW55428   5.837   1.788   1.227
17996SOL    HW155429   5.889   1.719   1.269
17996SOL    HW255430   5.837   1.765   1.134
17997SOL     OW55431   6.527   1.702   0.896
17997SOL    HW155432   6.607   1.655   0.919
17997SOL    HW255433   6.488   1.650   0.826
17998SOL     OW55434   5.979   0.686   0.479
17998SOL    HW155435   5.999   0.593   0.490
17998SOL    HW255436   5.888   0.693   0.508
17999SOL     OW55437   7.112   0.191   1.703
17999SOL    HW155438   7.060   0.242   1.766
17999SOL    HW255439   7.068   0.106   1.699
18000SOL     OW55440   6.183   0.086   0.098
18000SOL    HW155441   6.256   0.076   0.159
18000SOL    HW255442   6.198   0.020   0.030
18001SOL     OW55443   6.327   0.288   1.762
18001SOL    HW155444   6.379   0.208   1.758
18001SOL    HW255445   6.269   0.276   1.837
18002SOL     OW55446   6.460   1.522   1.195
18002SOL    HW155447   6.441   1.483   1.110
18002SOL    HW255448   6.529   1.467   1.232
18003SOL     OW55449   6.922   0.597   1.432
18003SOL    HW155450   6.957   0.573   1.518
18003SOL    HW255451   6.957   0.685   1.416
18004SOL     OW55452   6.407   1.381   0.952
18004SOL    HW155453   6.493   1.374   0.910
18004SOL    HW255454   6.346   1.394   0.879
18005SOL     OW55455   6.510   0.521   0.889
18005SOL    HW155456   6.480   0.512   0.798
18005SOL    HW255457   6.549   0.436   0.909
18006SOL     OW55458   6.162   0.033   0.448
18006SOL    HW155459   6.094   0.020   0.514
18006SOL    HW255460   6.139   0.116   0.406
18007SOL     OW55461   7.046   1.220   0.051
18007SOL    HW155462   7.059   1.140   0.103
18007SOL    HW255463   6.955   1.244   0.067
18008SOL     OW55464   5.928   0.004   0.191
18008SOL    HW155465   6.013   0.037   0.162
18008SOL    HW255466   5.945  -0.035   0.277
18009SOL     OW55467   6.532   0.260   0.461
18009SOL    HW155468   6.503   0.285   0.373
18009SOL    HW255469   6.627   0.272   0.459
18010SOL     OW55470   6.660   0.671   1.462
18010SOL    HW155471   6.609   0.592   1.478
18010SOL    HW255472   6.750   0.641   1.453
18011SOL     OW55473   6.803   1.574   0.795
18011SOL    HW155474   6.814   1.639   0.726
18011SOL    HW255475   6.869   1.596   0.860
18012SOL     OW55476   6.065   1.156   0.725
18012SOL    HW155477   5.999   1.135   0.791
18012SOL    HW255478   6.018   1.148   0.642
18013SOL     OW55479   6.841   1.788   0.613
18013SOL    HW155480   6.892   1.852   0.564
18013SOL    HW255481   6.771   1.840   0.655
18014SOL     OW55482   6.601   0.574   0.100
18014SOL    HW155483   6.605   0.635   0.027
18014SOL    HW255484   6.687   0.580   0.141
18015SOL     OW55485   5.680   0.560   1.395
18015SOL    HW155486   5.771   0.562   1.367
18015SOL    HW255487   5.674   0.629   1.461
18016SOL     OW55488   6.159   0.233   1.203
18016SOL    HW155489   6.196   0.195   1.283
18016SOL    HW255490   6.064   0.226   1.215
18017SOL     OW55491   6.441   0.464   0.631
18017SOL    HW155492   6.414   0.520   0.558
18017SOL    HW255493   6.470   0.383   0.589
18018SOL     OW55494   6.556   0.036   0.812
18018SOL    HW155495   6.512   0.038   0.727
18018SOL    HW255496   6.590  -0.053   0.820
18019SOL     OW55497   7.030   1.159   0.859
18019SOL    HW155498   6.955   1.100   0.850
18019SOL    HW255499   7.064   1.169   0.770
18020SOL     OW55500   7.054   0.611   0.957
18020SOL    HW155501   6.996   0.535   0.960
18020SOL    HW255502   7.109   0.602   1.035
18021SOL     OW55503   7.420   0.821   0.437
18021SOL    HW155504   7.469   0.756   0.487
18021SOL    HW255505   7.372   0.770   0.372
18022SOL     OW55506   6.078   1.396   0.164
18022SOL    HW155507   6.014   1.357   0.223
18022SOL    HW255508   6.026   1.442   0.098
18023SOL     OW55509   7.256   1.264   0.659
18023SOL    HW155510   7.350   1.258   0.673
18023SOL    HW255511   7.235   1.356   0.675
18024SOL     OW55512   6.988   0.550   0.079
18024SOL    HW155513   6.936   0.547   0.159
18024SOL    HW255514   7.046   0.474   0.086
18025SOL     OW55515   6.096   0.257   0.309
18025SOL    HW155516   6.129   0.210   0.232
18025SOL    HW255517   6.075   0.344   0.276
18026SOL     OW55518   7.328   1.244   1.552
18026SOL    HW155519   7.415   1.208   1.538
18026SOL    HW255520   7.343   1.332   1.585
18027SOL     OW55521   6.636   1.348   1.325
18027SOL    HW155522   6.560   1.320   1.376
18027SOL    HW255523   6.711   1.310   1.370
18028SOL     OW55524   7.195   1.629   1.661
18028SOL    HW155525   7.186   1.665   1.573
18028SOL    HW255526   7.275   1.578   1.658
18029SOL     OW55527   6.720   1.210   1.099
18029SOL    HW155528   6.665   1.252   1.165
18029SOL    HW255529   6.695   1.251   1.016
18030SOL     OW55530   7.203   1.094   1.077
18030SOL    HW155531   7.194   1.159   1.147
18030SOL    HW255532   7.131   1.114   1.017
18031SOL     OW55533   6.513   0.135   1.405
18031SOL    HW155534   6.528   0.120   1.311
18031SOL    HW255535   6.599   0.125   1.445
18032SOL     OW55536   6.569   1.115   1.723
18032SOL    HW155537   6.478   1.132   1.748
18032SOL    HW255538   6.564   1.035   1.670
18033SOL     OW55539   6.297   1.062   0.375
18033SOL    HW155540   6.283   1.040   0.468
18033SOL    HW255541   6.375   1.012   0.350
18034SOL     OW55542   6.007   0.825   1.250
18034SOL    HW155543   6.071   0.841   1.320
18034SOL    HW255544   5.976   0.736   1.266
18035SOL     OW55545   6.851   0.376   1.288
18035SOL    HW155546   6.881   0.458   1.328
18035SOL    HW255547   6.763   0.395   1.257
18036SOL     OW55548   5.665   1.572   1.359
18036SOL    HW155549   5.641   1.651   1.310
18036SOL    HW255550   5.760   1.568   1.352
18037SOL     OW55551   5.917   1.129   0.496
18037SOL    HW155552   5.910   1.207   0.440
18037SOL    HW255553   5.922   1.056   0.434
18038SOL     OW55554   6.137   0.523   0.852
18038SOL    HW155555   6.147   0.585   0.780
18038SOL    HW255556   6.201   0.550   0.917
18039SOL     OW55557   6.829   1.350   0.396
18039SOL    HW155558   6.884   1.420   0.430
18039SOL    HW255559   6.741   1.370   0.429
18040SOL     OW55560   6.881   1.464   1.152
18040SOL    HW155561   6.937   1.473   1.229
18040SOL    HW255562   6.822   1.391   1.174
18041SOL     OW55563   7.136   0.605   0.508
18041SOL    HW155564   7.089   0.669   0.561
18041SOL    HW255565   7.169   0.655   0.434
18042SOL     OW55566   5.932   1.529   1.308
18042SOL    HW155567   5.923   1.482   1.225
18042SOL    HW255568   6.027   1.542   1.317
18043SOL     OW55569   6.020   0.735   1.618
18043SOL    HW155570   6.067   0.788   1.555
18043SOL    HW255571   6.080   0.664   1.641
18044SOL     OW55572   7.197   0.780   1.689
18044SOL    HW155573   7.113   0.823   1.683
18044SOL    HW255574   7.251   0.821   1.622
18045SOL     OW55575   6.638   0.068   1.749
18045SOL    HW155576   6.654   0.161   1.733
18045SOL    HW255577   6.543   0.058   1.738
18046SOL     OW55578   6.095   0.035   1.733
18046SOL    HW155579   6.071  -0.022   1.660
18046SOL    HW255580   6.024   0.099   1.738
18047SOL     OW55581   6.174   0.876   1.034
18047SOL    HW155582   6.211   0.964   1.037
18047SOL    HW255583   6.116   0.871   1.110
18048SOL     OW55584   6.921   0.854   1.017
18048SOL    HW155585   6.833   0.836   0.982
18048SOL    HW255586   6.969   0.772   1.002
18049SOL     OW55587   6.809   0.534   0.284
18049SOL    HW155588   6.815   0.456   0.339
18049SOL    HW255589   6.756   0.595   0.335
18050SOL     OW55590   5.888   0.200   1.235
18050SOL    HW155591   5.836   0.217   1.314
18050SOL    HW255592   5.864   0.111   1.209
18051SOL     OW55593   5.633   1.313   1.271
18051SOL    HW155594   5.663   1.257   1.342
18051SOL    HW255595   5.637   1.402   1.306
18052SOL     OW55596   6.299   0.627   1.046
18052SOL    HW155597   6.377   0.620   0.993
18052SOL    HW255598   6.269   0.717   1.035
18053SOL     OW55599   7.327   0.957   1.866
18053SOL    HW155600   7.282   0.892   1.813
18053SOL    HW255601   7.265   0.980   1.935
18054SOL     OW55602   5.987   0.075   0.661
18054SOL    HW155603   5.938   0.151   0.692
18054SOL    HW255604   5.942   0.000   0.698
18055SOL     OW55605   7.218   0.382   0.370
18055SOL    HW155606   7.225   0.301   0.422
18055SOL    HW255607   7.178   0.445   0.430
18056SOL     OW55608   6.618   0.761   0.960
18056SOL    HW155609   6.604   0.774   1.054
18056SOL    HW255610   6.585   0.673   0.943
18057SOL     OW55611   6.567   1.568   1.725
18057SOL    HW155612   6.551   1.610   1.641
18057SOL    HW255613   6.608   1.484   1.703
18058SOL     OW55614   7.433   1.498   1.603
18058SOL    HW155615   7.456   1.527   1.515
18058SOL    HW255616   7.513   1.511   1.654
18059SOL     OW55617   5.937   0.916   1.811
18059SOL    HW155618   6.015   0.940   1.862
18059SOL    HW255619   5.968   0.850   1.749
18060SOL     OW55620   7.093   0.270   0.153
18060SOL    HW155621   7.141   0.187   0.155
18060SOL    HW255622   7.134   0.323   0.221
18061SOL     OW55623   6.875   0.806   0.058
18061SOL    HW155624   6.927   0.727   0.047
18061SOL    HW255625   6.914   0.870  -0.002
18062SOL     OW55626   6.658   1.344   0.860
18062SOL    HW155627   6.665   1.273   0.797
18062SOL    HW255628   6.715   1.413   0.825
18063SOL     OW55629   5.899   0.813   0.944
18063SOL    HW155630   5.992   0.835   0.940
18063SOL    HW255631   5.897   0.724   0.980
18064SOL     OW55632   5.923   0.540   1.015
18064SOL    HW155633   5.879   0.456   1.000
18064SOL    HW255634   5.998   0.538   0.956
18065SOL     OW55635   6.765   0.358   1.727
18065SOL    HW155636   6.697   0.414   1.765
18065SOL    HW255637   6.834   0.418   1.700
18066SOL     OW55638   6.768   0.211   1.489
18066SOL    HW155639   6.763   0.266   1.567
18066SOL    HW255640   6.795   0.271   1.420
18067SOL     OW55641   5.673   1.777   0.941
18067SOL    HW155642   5.645   1.700   0.892
18067SOL    HW255643   5.763   1.792   0.912
18068SOL     OW55644   6.074   1.574   0.902
18068SOL    HW155645   6.143   1.636   0.925
18068SOL    HW255646   6.116   1.511   0.843
18069SOL     OW55647   6.551   0.776   1.226
18069SOL    HW155648   6.612   0.754   1.296
18069SOL    HW255649   6.465   0.754   1.262
18070SOL     OW55650   5.621   0.554   1.120
18070SOL    HW155651   5.701   0.541   1.069
18070SOL    HW255652   5.650   0.553   1.211
18071SOL     OW55653   5.773   0.530   1.731
18071SOL    HW155654   5.859   0.532   1.689
18071SOL    HW255655   5.725   0.601   1.689
18072SOL     OW55656   6.972   0.929   1.652
18072SOL    HW155657   6.992   1.023   1.649
18072SOL    HW255658   6.966   0.903   1.560
18073SOL     OW55659   6.399   0.578   0.379
18073SOL    HW155660   6.412   0.505   0.318
18073SOL    HW255661   6.325   0.626   0.344
18074SOL     OW55662   7.226   0.601   1.172
18074SOL    HW155663   7.219   0.550   1.252
18074SOL    HW255664   7.315   0.586   1.141
18075SOL     OW55665   5.821   1.546   1.719
18075SOL    HW155666   5.800   1.613   1.784
18075SOL    HW255667   5.830   1.465   1.770
18076SOL     OW55668   6.320   0.452   1.252
18076SOL    HW155669   6.258   0.381   1.236
18076SOL    HW255670   6.304   0.515   1.181
18077SOL     OW55671   6.514   1.673   1.469
18077SOL    HW155672   6.482   1.635   1.388
18077SOL    HW255673   6.508   1.768   1.455
18078SOL     OW55674   6.039   0.488   0.193
18078SOL    HW155675   6.092   0.565   0.214
18078SOL    HW255676   5.977   0.519   0.127
18079SOL     OW55677   5.721   1.146   1.476
18079SOL    HW155678   5.724   1.102   1.561
18079SOL    HW255679   5.740   1.077   1.413
18080SOL     OW55680   6.901   1.040   1.214
18080SOL    HW155681   6.919   0.977   1.145
18080SOL    HW255682   6.836   1.100   1.175
18081SOL     OW55683   6.889   0.845   0.330
18081SOL    HW155684   6.811   0.809   0.374
18081SOL    HW255685   6.878   0.820   0.238
18082SOL     OW55686   7.366   1.734   1.156
18082SOL    HW155687   7.430   1.759   1.089
18082SOL    HW255688   7.340   1.645   1.133
18083SOL     OW55689   6.824   1.730   1.092
18083SOL    HW155690   6.909   1.757   1.057
18083SOL    HW255691   6.837   1.639   1.119
18084SOL     OW55692   5.682   1.258   1.011
18084SOL    HW155693   5.661   1.277   1.103
18084SOL    HW255694   5.607   1.207   0.980
18085SOL     OW55695   6.264   1.676   1.745
18085SOL    HW155696   6.202   1.748   1.737
18085SOL    HW255697   6.336   1.700   1.687
18086SOL     OW55698   6.536   0.075   0.050
18086SOL    HW155699   6.611   0.124   0.082
18086SOL    HW255700   6.478   0.066   0.126
18087SOL     OW55701   7.246   0.139   0.506
18087SOL    HW155702   7.340   0.125   0.498
18087SOL    HW255703   7.222   0.096   0.588
18088SOL     OW55704   6.978   1.566   0.498
18088SOL    HW155705   7.039   1.600   0.433
18088SOL    HW255706   6.928   1.642   0.527
18089SOL     OW55707   5.736   1.791   1.841
18089SOL    HW155708   5.684   1.726   1.889
18089SOL    HW255709   5.779   1.842   1.910
18090SOL     OW55710   6.859   0.935   0.670
18090SOL    HW155711   6.934   0.877   0.686
18090SOL    HW255712   6.893   1.003   0.613
18091SOL     OW55713   6.383   1.282   1.421
18091SOL    HW155714   6.358   1.325   1.503
18091SOL    HW255715   6.310   1.299   1.361
18092SOL     OW55716   6.249   1.610   0.195
18092SOL    HW155717   6.311   1.619   0.123
18092SOL    HW255718   6.207   1.525   0.180
18093SOL     OW55719   7.204   1.730   1.393
18093SOL    HW155720   7.259   1.733   1.315
18093SOL    HW255721   7.189   1.822   1.416
18094SOL     OW55722   7.442   0.183   0.956
18094SOL    HW155723   7.439   0.091   0.983
18094SOL    HW255724   7.357   0.198   0.914
18095SOL     OW55725   5.835   0.295   0.714
18095SOL    HW155726   5.759   0.349   0.692
18095SOL    HW255727   5.844   0.304   0.809
18096SOL     OW55728   6.789   1.603   0.071
18096SOL    HW155729   6.784   1.509   0.089
18096SOL    HW255730   6.744   1.614  -0.013
18097SOL     OW55731   6.411   1.014   1.377
18097SOL    HW155732   6.451   1.009   1.290
18097SOL    HW255733   6.405   1.107   1.396
18098SOL     OW55734   6.514   0.924   0.296
18098SOL    HW155735   6.571   0.948   0.223
18098SOL    HW255736   6.559   0.852   0.339
18099SOL     OW55737   7.049   1.581   0.003
18099SOL    HW155738   6.962   1.605   0.036
18099SOL    HW255739   7.100   1.662   0.010
18100SOL     OW55740   5.953   1.304   1.492
18100SOL    HW155741   5.940   1.381   1.437
18100SOL    HW255742   5.873   1.252   1.479
18101SOL     OW55743   7.188   1.287   1.277
18101SOL    HW155744   7.250   1.270   1.347
18101SOL    HW255745   7.129   1.354   1.312
18102SOL     OW55746   6.651   1.116   0.715
18102SOL    HW155747   6.578   1.066   0.751
18102SOL    HW255748   6.716   1.050   0.691
18103SOL     OW55749   6.620   0.271   0.952
18103SOL    HW155750   6.603   0.213   0.877
18103SOL    HW255751   6.623   0.212   1.027
18104SOL     OW55752   6.188   1.476   0.476
18104SOL    HW155753   6.233   1.432   0.404
18104SOL    HW255754   6.117   1.525   0.434
18105SOL     OW55755   7.311   0.427   1.395
18105SOL    HW155756   7.388   0.484   1.397
18105SOL    HW255757   7.335   0.356   1.336
18106SOL     OW55758   5.854   1.330   0.312
18106SOL    HW155759   5.769   1.336   0.268
18106SOL    HW255760   5.842   1.379   0.394
18107SOL     OW55761   5.701   1.034   1.726
18107SOL    HW155762   5.625   1.009   1.778
18107SOL    HW255763   5.775   0.992   1.769
18108SOL     OW55764   6.262   0.224   1.493
18108SOL    HW155765   6.341   0.177   1.465
18108SOL    HW255766   6.278   0.244   1.586
18109SOL     OW55767   7.007   0.858   1.390
18109SOL    HW155768   6.957   0.919   1.337
18109SOL    HW255769   7.096   0.862   1.355
18110SOL     OW55770   5.674   0.199   0.255
18110SOL    HW155771   5.652   0.273   0.312
18110SOL    HW255772   5.750   0.158   0.297
18111SOL     OW55773   6.778   1.331   0.119
18111SOL    HW155774   6.683   1.325   0.109
18111SOL    HW255775   6.793   1.324   0.214
18112SOL     OW55776   6.196   0.853   1.439
18112SOL    HW155777   6.254   0.927   1.426
18112SOL    HW255778   6.253   0.777   1.441
18113SOL     OW55779   7.072   1.791   0.985
18113SOL    HW155780   7.094   1.864   0.927
18113SOL    HW255781   7.156   1.763   1.021
18114SOL     OW55782   6.295   0.563   1.693
18114SOL    HW155783   6.343   0.622   1.750
18114SOL    HW255784   6.311   0.476   1.729
18115SOL     OW55785   7.058   1.190   1.625
18115SOL    HW155786   7.048   1.209   1.718
18115SOL    HW255787   7.149   1.213   1.606
18116SOL     OW55788   5.949   1.741   1.564
18116SOL    HW155789   5.867   1.789   1.552
18116SOL    HW255790   5.923   1.659   1.606
18117SOL     OW55791   7.246   0.879   1.253
18117SOL    HW155792   7.244   0.796   1.207
18117SOL    HW255793   7.236   0.945   1.185
18118SOL     OW55794   6.804   0.311   0.443
18118SOL    HW155795   6.865   0.238   0.441
18118SOL    HW255796   6.826   0.358   0.524
18119SOL     OW55797   6.169   0.731   0.676
18119SOL    HW155798   6.211   0.817   0.664
18119SOL    HW255799   6.105   0.726   0.605
18120SOL     OW55800   7.326   0.364   1.663
18120SOL    HW155801   7.325   0.383   1.569
18120SOL    HW255802   7.258   0.297   1.674
18121SOL     OW55803   7.333   0.930   1.510
18121SOL    HW155804   7.323   1.025   1.524
18121SOL    HW255805   7.314   0.917   1.417
18122SOL     OW55806   6.506   1.370   0.062
18122SOL    HW155807   6.449   1.351   0.136
18122SOL    HW255808   6.488   1.462   0.041
18123SOL     OW55809   6.250   1.777   0.931
18123SOL    HW155810   6.231   1.870   0.918
18123SOL    HW255811   6.345   1.771   0.928
18124SOL     OW55812   6.457   0.974   0.854
18124SOL    HW155813   6.509   0.903   0.892
18124SOL    HW255814   6.415   1.016   0.929
18125SOL     OW55815   6.669   0.987   0.072
18125SOL    HW155816   6.710   1.062   0.031
18125SOL    HW255817   6.739   0.922   0.080
18126SOL     OW55818   7.428   1.554   0.843
18126SOL    HW155819   7.351   1.545   0.787
18126SOL    HW255820   7.407   1.504   0.922
18127SOL     OW55821   5.817   1.297   1.854
18127SOL    HW155822   5.754   1.234   1.820
18127SOL    HW255823   5.790   1.312   1.945
18128SOL     OW55824   5.675   1.222   0.672
18128SOL    HW155825   5.698   1.180   0.755
18128SOL    HW255826   5.742   1.192   0.610
18129SOL     OW55827   6.274   1.414   1.635
18129SOL    HW155828   6.196   1.371   1.669
18129SOL    HW255829   6.272   1.502   1.671
18130SOL     OW55830   7.403   0.237   1.231
18130SOL    HW155831   7.356   0.154   1.232
18130SOL    HW255832   7.432   0.247   1.140
18131SOL     OW55833   6.015   0.420   0.530
18131SOL    HW155834   6.034   0.356   0.462
18131SOL    HW255835   5.958   0.374   0.591
18132SOL     OW55836   7.286   1.481   1.083
18132SOL    HW155837   7.204   1.464   1.036
18132SOL    HW255838   7.288   1.416   1.153
18133SOL     OW55839   5.929   0.567   1.293
18133SOL    HW155840   5.978   0.504   1.346
18133SOL    HW255841   5.944   0.540   1.203
18134SOL     OW55842   6.420   1.573   0.681
18134SOL    HW155843   6.402   1.630   0.607
18134SOL    HW255844   6.343   1.516   0.687
18135SOL     OW55845   7.011   0.224   1.118
18135SOL    HW155846   7.073   0.166   1.164
18135SOL    HW255847   6.963   0.267   1.188
18136SOL     OW55848   6.603   0.078   1.141
18136SOL    HW155849   6.525   0.032   1.111
18136SOL    HW255850   6.667   0.010   1.158
18137SOL     OW55851   6.377   1.321   0.306
18137SOL    HW155852   6.342   1.235   0.327
18137SOL    HW255853   6.447   1.335   0.369
18138SOL     OW55854   6.206   1.558   1.289
18138SOL    HW155855   6.204   1.640   1.337
18138SOL    HW255856   6.294   1.553   1.253
18139SOL     OW55857   6.918  -0.008   0.138
18139SOL    HW155858   7.004   0.032   0.126
18139SOL    HW255859   6.858   0.066   0.146
18140SOL     OW55860   6.855   0.456   0.668
18140SOL    HW155861   6.813   0.541   0.674
18140SOL    HW255862   6.875   0.432   0.758
18141SOL     OW55863   7.194   0.220   0.857
18141SOL    HW155864   7.117   0.217   0.913
18141SOL    HW255865   7.187   0.303   0.810
18142SOL     OW55866   5.626   1.077   0.336
18142SOL    HW155867   5.718   1.078   0.312
18142SOL    HW255868   5.612   0.991   0.377
18143SOL     OW55869   6.454   1.654   0.380
18143SOL    HW155870   6.378   1.640   0.324
18143SOL    HW255871   6.436   1.737   0.423
18144SOL     OW55872   5.795   0.626   1.997
18144SOL    HW155873   5.710   0.617   2.039
18144SOL    HW255874   5.780   0.603   1.906
18145SOL     OW55875   5.811   0.297   2.850
18145SOL    HW155876   5.840   0.257   2.932
18145SOL    HW255877   5.728   0.253   2.830
18146SOL     OW55878   5.597   0.405   2.492
18146SOL    HW155879   5.509   0.421   2.528
18146SOL    HW255880   5.584   0.334   2.429
18147SOL     OW55881   6.158   1.301   3.052
18147SOL    HW155882   6.072   1.306   3.009
18147SOL    HW255883   6.174   1.389   3.086
18148SOL     OW55884   7.161   1.516   2.571
18148SOL    HW155885   7.116   1.494   2.653
18148SOL    HW255886   7.092   1.522   2.506
18149SOL     OW55887   6.725   0.697   2.553
18149SOL    HW155888   6.770   0.780   2.542
18149SOL    HW255889   6.673   0.708   2.633
18150SOL     OW55890   7.386   0.599   2.078
18150SOL    HW155891   7.346   0.593   1.992
18150SOL    HW255892   7.353   0.522   2.125
18151SOL     OW55893   6.329   1.134   2.917
18151SOL    HW155894   6.262   1.174   2.974
18151SOL    HW255895   6.370   1.209   2.874
18152SOL     OW55896   6.464   0.755   3.692
18152SOL    HW155897   6.446   0.814   3.765
18152SOL    HW255898   6.485   0.812   3.619
18153SOL     OW55899   6.272   0.990   2.506
18153SOL    HW155900   6.338   0.988   2.575
18153SOL    HW255901   6.204   1.048   2.540
18154SOL     OW55902   6.304   1.149   3.681
18154SOL    HW155903   6.350   1.225   3.717
18154SOL    HW255904   6.224   1.185   3.644
18155SOL     OW55905   5.924   1.406   2.928
18155SOL    HW155906   5.846   1.367   2.888
18155SOL    HW255907   5.961   1.462   2.860
18156SOL     OW55908   7.043   1.505   3.230
18156SOL    HW155909   7.096   1.584   3.241
18156SOL    HW255910   6.970   1.517   3.290
18157SOL     OW55911   6.037   0.384   3.325
18157SOL    HW155912   6.114   0.329   3.338
18157SOL    HW255913   5.963   0.329   3.348
18158SOL     OW55914   7.185   0.453   2.581
18158SOL    HW155915   7.100   0.468   2.540
18158SOL    HW255916   7.205   0.535   2.626
18159SOL     OW55917   5.806   1.716   2.330
18159SOL    HW155918   5.826   1.791   2.387
18159SOL    HW255919   5.881   1.710   2.271
18160SOL     OW55920   6.723   1.343   3.557
18160SOL    HW155921   6.759   1.340   3.645
18160SOL    HW255922   6.670   1.264   3.550
18161SOL     OW55923   5.821   1.446   2.399
18161SOL    HW155924   5.801   1.540   2.400
18161SOL    HW255925   5.764   1.409   2.466
18162SOL     OW55926   5.865   1.092   2.754
18162SOL    HW155927   5.854   1.003   2.788
18162SOL    HW255928   5.805   1.145   2.806
18163SOL     OW55929   6.186   1.785   3.298
18163SOL    HW155930   6.102   1.770   3.342
18163SOL    HW255931   6.210   1.875   3.321
18164SOL     OW55932   6.159   0.988   2.006
18164SOL    HW155933   6.210   1.031   1.937
18164SOL    HW255934   6.198   1.020   2.087
18165SOL     OW55935   7.230   0.131   3.339
18165SOL    HW155936   7.157   0.095   3.289
18165SOL    HW255937   7.191   0.158   3.422
18166SOL     OW55938   5.714   0.659   2.425
18166SOL    HW155939   5.678   0.573   2.447
18166SOL    HW255940   5.702   0.711   2.504
18167SOL     OW55941   7.431   1.749   2.189
18167SOL    HW155942   7.499   1.726   2.252
18167SOL    HW255943   7.446   1.841   2.170
18168SOL     OW55944   5.630   1.584   1.977
18168SOL    HW155945   5.610   1.493   1.999
18168SOL    HW255946   5.603   1.634   2.054
18169SOL     OW55947   7.274   0.921   2.508
18169SOL    HW155948   7.357   0.880   2.485
18169SOL    HW255949   7.252   0.975   2.431
18170SOL     OW55950   7.237   1.104   2.293
18170SOL    HW155951   7.323   1.104   2.251
18170SOL    HW255952   7.245   1.168   2.364
18171SOL     OW55953   5.700   0.754   3.446
18171SOL    HW155954   5.784   0.797   3.459
18171SOL    HW255955   5.637   0.826   3.440
18172SOL     OW55956   6.207   1.393   2.597
18172SOL    HW155957   6.163   1.309   2.605
18172SOL    HW255958   6.190   1.421   2.507
18173SOL     OW55959   6.867   1.232   3.282
18173SOL    HW155960   6.902   1.166   3.221
18173SOL    HW255961   6.928   1.231   3.355
18174SOL     OW55962   6.428   0.033   2.417
18174SOL    HW155963   6.472   0.109   2.379
18174SOL    HW255964   6.338   0.062   2.430
18175SOL     OW55965   5.772   0.958   3.152
18175SOL    HW155966   5.857   0.920   3.130
18175SOL    HW255967   5.711   0.919   3.090
18176SOL     OW55968   7.118   1.002   2.063
18176SOL    HW155969   7.049   0.944   2.096
18176SOL    HW255970   7.159   1.037   2.142
18177SOL     OW55971   6.780   1.827   3.494
18177SOL    HW155972   6.776   1.889   3.422
18177SOL    HW255973   6.795   1.742   3.452
18178SOL     OW55974   5.891   0.231   3.637
18178SOL    HW155975   5.958   0.283   3.680
18178SOL    HW255976   5.811   0.251   3.685
18179SOL     OW55977   7.056   1.417   2.809
18179SOL    HW155978   6.988   1.435   2.875
18179SOL    HW255979   7.041   1.327   2.782
18180SOL     OW55980   7.239   1.763   2.437
18180SOL    HW155981   7.217   1.729   2.350
18180SOL    HW255982   7.220   1.691   2.496
18181SOL     OW55983   6.180   0.718   2.137
18181SOL    HW155984   6.181   0.805   2.097
18181SOL    HW255985   6.115   0.725   2.207
18182SOL     OW55986   6.886   0.376   2.802
18182SOL    HW155987   6.796   0.343   2.803
18182SOL    HW255988   6.933   0.319   2.863
18183SOL     OW55989   7.164   1.674   2.175
18183SOL    HW155990   7.256   1.696   2.166
18183SOL    HW255991   7.134   1.658   2.086
18184SOL     OW55992   6.381   0.649   3.306
18184SOL    HW155993   6.357   0.617   3.394
18184SOL    HW255994   6.357   0.578   3.248
18185SOL     OW55995   6.996   0.487   3.548
18185SOL    HW155996   6.994   0.515   3.639
18185SOL    HW255997   7.040   0.402   3.549
18186SOL     OW55998   6.547   0.884   3.445
18186SOL    HW155999   6.596   0.810   3.409
18186SOL    HW256000   6.500   0.920   3.370
18187SOL     OW56001   6.589   0.412   3.064
18187SOL    HW156002   6.512   0.426   3.119
18187SOL    HW256003   6.553   0.382   2.980
18188SOL     OW56004   6.645   0.700   2.284
18188SOL    HW156005   6.664   0.695   2.377
18188SOL    HW256006   6.559   0.658   2.275
18189SOL     OW56007   5.674   0.826   2.637
18189SOL    HW156008   5.753   0.819   2.691
18189SOL    HW256009   5.625   0.899   2.675
18190SOL     OW56010   5.704   1.876   3.445
18190SOL    HW156011   5.712   1.855   3.538
18190SOL    HW256012   5.615   1.851   3.422
18191SOL     OW56013   6.470   0.354   2.073
18191SOL    HW156014   6.511   0.400   1.999
18191SOL    HW256015   6.445   0.269   2.037
18192SOL     OW56016   7.293   0.585   3.684
18192SOL    HW156017   7.249   0.647   3.627
18192SOL    HW256018   7.321   0.514   3.626
18193SOL     OW56019   6.968   1.142   2.398
18193SOL    HW156020   7.048   1.137   2.347
18193SOL    HW256021   6.914   1.206   2.353
18194SOL     OW56022   6.147   0.247   2.790
18194SOL    HW156023   6.124   0.263   2.882
18194SOL    HW256024   6.141   0.333   2.749
18195SOL     OW56025   6.580   1.447   2.327
18195SOL    HW156026   6.554   1.523   2.274
18195SOL    HW256027   6.552   1.469   2.416
18196SOL     OW56028   5.937   1.817   2.734
18196SOL    HW156029   5.984   1.733   2.742
18196SOL    HW256030   6.003   1.883   2.757
18197SOL     OW56031   7.383   1.046   2.740
18197SOL    HW156032   7.330   1.033   2.661
18197SOL    HW256033   7.320   1.055   2.811
18198SOL     OW56034   6.810   1.545   3.373
18198SOL    HW156035   6.794   1.472   3.433
18198SOL    HW256036   6.724   1.562   3.333
18199SOL     OW56037   5.895   0.963   2.121
18199SOL    HW156038   5.977   0.981   2.076
18199SOL    HW256039   5.866   0.879   2.085
18200SOL     OW56040   7.073   0.748   2.575
18200SOL    HW156041   7.066   0.715   2.665
18200SOL    HW256042   7.147   0.808   2.577
18201SOL     OW56043   6.062   1.268   3.596
18201SOL    HW156044   6.034   1.274   3.504
18201SOL    HW256045   5.980   1.263   3.645
18202SOL     OW56046   6.716   1.778   2.089
18202SOL    HW156047   6.637   1.743   2.130
18202SOL    HW256048   6.738   1.713   2.022
18203SOL     OW56049   5.780   0.268   3.366
18203SOL    HW156050   5.708   0.331   3.365
18203SOL    HW256051   5.796   0.252   3.459
18204SOL     OW56052   7.218   1.381   1.957
18204SOL    HW156053   7.178   1.467   1.943
18204SOL    HW256054   7.149   1.319   1.933
18205SOL     OW56055   6.047   1.735   2.181
18205SOL    HW156056   6.092   1.792   2.244
18205SOL    HW256057   6.117   1.701   2.126
18206SOL     OW56058   6.996   0.118   2.277
18206SOL    HW156059   6.959   0.032   2.296
18206SOL    HW256060   7.082   0.117   2.318
18207SOL     OW56061   5.842   1.789   3.084
18207SOL    HW156062   5.888   1.713   3.119
18207SOL    HW256063   5.821   1.764   2.993
18208SOL     OW56064   6.527   1.703   2.756
18208SOL    HW156065   6.603   1.653   2.785
18208SOL    HW256066   6.489   1.650   2.685
18209SOL     OW56067   5.987   0.686   2.336
18209SOL    HW156068   6.003   0.593   2.355
18209SOL    HW256069   5.893   0.697   2.353
18210SOL     OW56070   7.131   0.217   3.586
18210SOL    HW156071   7.150   0.250   3.673
18210SOL    HW256072   7.044   0.178   3.594
18211SOL     OW56073   6.194   0.153   1.960
18211SOL    HW156074   6.260   0.103   2.007
18211SOL    HW256075   6.159   0.092   1.896
18212SOL     OW56076   6.337   0.284   3.621
18212SOL    HW156077   6.377   0.197   3.616
18212SOL    HW256078   6.278   0.279   3.697
18213SOL     OW56079   6.461   1.522   3.055
18213SOL    HW156080   6.440   1.483   2.970
18213SOL    HW256081   6.528   1.465   3.091
18214SOL     OW56082   6.409   1.382   2.812
18214SOL    HW156083   6.494   1.374   2.769
18214SOL    HW256084   6.347   1.394   2.740
18215SOL     OW56085   6.518   0.518   2.751
18215SOL    HW156086   6.485   0.511   2.662
18215SOL    HW256087   6.556   0.432   2.770
18216SOL     OW56088   6.158   0.021   2.270
18216SOL    HW156089   6.093  -0.018   2.329
18216SOL    HW256090   6.144   0.115   2.278
18217SOL     OW56091   7.013   1.204   1.899
18217SOL    HW156092   7.041   1.130   1.953
18217SOL    HW256093   6.928   1.230   1.935
18218SOL     OW56094   5.890   0.045   2.073
18218SOL    HW156095   5.951   0.118   2.081
18218SOL    HW256096   5.911  -0.012   2.146
18219SOL     OW56097   6.545   0.262   2.323
18219SOL    HW156098   6.511   0.294   2.239
18219SOL    HW256099   6.638   0.284   2.321
18220SOL     OW56100   6.656   0.635   3.330
18220SOL    HW156101   6.560   0.640   3.330
18220SOL    HW256102   6.675   0.542   3.339
18221SOL     OW56103   6.809   1.573   2.656
18221SOL    HW156104   6.817   1.638   2.586
18221SOL    HW256105   6.869   1.604   2.724
18222SOL     OW56106   6.064   1.155   2.582
18222SOL    HW156107   6.001   1.135   2.651
18222SOL    HW256108   6.015   1.147   2.500
18223SOL     OW56109   6.845   1.790   2.477
18223SOL    HW156110   6.893   1.854   2.424
18223SOL    HW256111   6.774   1.840   2.517
18224SOL     OW56112   6.608   0.521   1.891
18224SOL    HW156113   6.563   0.602   1.867
18224SOL    HW256114   6.667   0.547   1.962
18225SOL     OW56115   5.678   0.563   3.254
18225SOL    HW156116   5.770   0.564   3.228
18225SOL    HW256117   5.672   0.631   3.322
18226SOL     OW56118   6.149   0.239   3.070
18226SOL    HW156119   6.188   0.199   3.148
18226SOL    HW256120   6.055   0.229   3.083
18227SOL     OW56121   6.446   0.468   2.494
18227SOL    HW156122   6.415   0.522   2.422
18227SOL    HW256123   6.464   0.383   2.455
18228SOL     OW56124   6.569   0.035   2.649
18228SOL    HW156125   6.522   0.034   2.565
18228SOL    HW256126   6.577  -0.057   2.673
18229SOL     OW56127   7.029   1.157   2.719
18229SOL    HW156128   6.949   1.104   2.717
18229SOL    HW256129   7.054   1.166   2.627
18230SOL     OW56130   7.046   0.614   2.821
18230SOL    HW156131   6.997   0.531   2.818
18230SOL    HW256132   7.107   0.603   2.894
18231SOL     OW56133   7.417   0.804   2.256
18231SOL    HW156134   7.479   0.757   2.312
18231SOL    HW256135   7.405   0.746   2.181
18232SOL     OW56136   6.076   1.422   2.014
18232SOL    HW156137   6.000   1.396   2.066
18232SOL    HW256138   6.070   1.371   1.934
18233SOL     OW56139   7.266   1.263   2.506
18233SOL    HW156140   7.360   1.261   2.524
18233SOL    HW256141   7.239   1.353   2.527
18234SOL     OW56142   6.979   0.588   1.938
18234SOL    HW156143   6.916   0.566   2.007
18234SOL    HW256144   7.062   0.602   1.984
18235SOL     OW56145   6.072   0.276   2.166
18235SOL    HW156146   6.128   0.234   2.101
18235SOL    HW256147   6.053   0.362   2.130
18236SOL     OW56148   7.330   1.242   3.412
18236SOL    HW156149   7.418   1.206   3.396
18236SOL    HW256150   7.346   1.329   3.448
18237SOL     OW56151   6.634   1.341   3.181
18237SOL    HW156152   6.557   1.317   3.233
18237SOL    HW256153   6.708   1.309   3.232
18238SOL     OW56154   7.201   1.625   3.523
18238SOL    HW156155   7.191   1.661   3.435
18238SOL    HW256156   7.282   1.573   3.518
18239SOL     OW56157   6.721   1.203   2.959
18239SOL    HW156158   6.667   1.246   3.026
18239SOL    HW256159   6.696   1.247   2.877
18240SOL     OW56160   7.202   1.095   2.940
18240SOL    HW156161   7.193   1.161   3.008
18240SOL    HW256162   7.131   1.113   2.879
18241SOL     OW56163   6.517   0.124   3.268
18241SOL    HW156164   6.528   0.107   3.175
18241SOL    HW256165   6.604   0.114   3.305
18242SOL     OW56166   6.571   1.114   3.586
18242SOL    HW156167   6.481   1.132   3.613
18242SOL    HW256168   6.565   1.036   3.532
18243SOL     OW56169   6.297   1.063   2.235
18243SOL    HW156170   6.281   1.041   2.327
18243SOL    HW256171   6.371   1.009   2.209
18244SOL     OW56172   6.009   0.823   3.110
18244SOL    HW156173   6.071   0.839   3.181
18244SOL    HW256174   5.975   0.735   3.126
18245SOL     OW56175   6.840   0.410   3.151
18245SOL    HW156176   6.882   0.473   3.092
18245SOL    HW256177   6.749   0.408   3.123
18246SOL     OW56178   5.660   1.575   3.222
18246SOL    HW156179   5.629   1.649   3.169
18246SOL    HW256180   5.756   1.577   3.212
18247SOL     OW56181   5.915   1.127   2.351
18247SOL    HW156182   5.911   1.203   2.293
18247SOL    HW256183   5.913   1.051   2.293
18248SOL     OW56184   6.140   0.516   2.716
18248SOL    HW156185   6.147   0.576   2.642
18248SOL    HW256186   6.201   0.549   2.781
18249SOL     OW56187   6.830   1.352   2.257
18249SOL    HW156188   6.886   1.423   2.289
18249SOL    HW256189   6.743   1.374   2.288
18250SOL     OW56190   6.880   1.464   3.014
18250SOL    HW156191   6.936   1.473   3.092
18250SOL    HW256192   6.814   1.399   3.039
18251SOL     OW56193   7.164   0.641   2.328
18251SOL    HW156194   7.114   0.676   2.402
18251SOL    HW256195   7.222   0.712   2.303
18252SOL     OW56196   5.931   1.534   3.165
18252SOL    HW156197   5.921   1.483   3.085
18252SOL    HW256198   6.025   1.544   3.176
18253SOL     OW56199   6.017   0.737   3.480
18253SOL    HW156200   6.067   0.788   3.416
18253SOL    HW256201   6.073   0.662   3.499
18254SOL     OW56202   7.177   0.771   3.513
18254SOL    HW156203   7.118   0.843   3.537
18254SOL    HW256204   7.249   0.813   3.466
18255SOL     OW56205   6.629   0.077   3.592
18255SOL    HW156206   6.632   0.171   3.576
18255SOL    HW256207   6.536   0.056   3.592
18256SOL     OW56208   6.094   0.038   3.590
18256SOL    HW156209   6.068  -0.021   3.519
18256SOL    HW256210   6.021   0.099   3.599
18257SOL     OW56211   6.175   0.873   2.896
18257SOL    HW156212   6.205   0.964   2.897
18257SOL    HW256213   6.114   0.867   2.970
18258SOL     OW56214   6.917   0.852   2.879
18258SOL    HW156215   6.829   0.836   2.844
18258SOL    HW256216   6.964   0.770   2.861
18259SOL     OW56217   6.785   0.530   2.120
18259SOL    HW156218   6.792   0.454   2.178
18259SOL    HW256219   6.743   0.597   2.174
18260SOL     OW56220   5.880   0.201   3.103
18260SOL    HW156221   5.834   0.224   3.183
18260SOL    HW256222   5.856   0.109   3.087
18261SOL     OW56223   5.649   1.314   3.133
18261SOL    HW156224   5.671   1.258   3.207
18261SOL    HW256225   5.642   1.402   3.170
18262SOL     OW56226   6.300   0.627   2.906
18262SOL    HW156227   6.379   0.622   2.853
18262SOL    HW256228   6.269   0.717   2.895
18263SOL     OW56229   7.325   0.970   3.720
18263SOL    HW156230   7.302   0.881   3.694
18263SOL    HW256231   7.267   0.990   3.794
18264SOL     OW56232   5.995   0.082   2.538
18264SOL    HW156233   5.939   0.159   2.551
18264SOL    HW256234   5.943   0.022   2.485
18265SOL     OW56235   7.198   0.394   2.225
18265SOL    HW156236   7.248   0.349   2.294
18265SOL    HW256237   7.179   0.480   2.262
18266SOL     OW56238   6.621   0.760   2.820
18266SOL    HW156239   6.610   0.772   2.915
18266SOL    HW256240   6.589   0.671   2.803
18267SOL     OW56241   6.574   1.574   3.586
18267SOL    HW156242   6.555   1.613   3.501
18267SOL    HW256243   6.606   1.486   3.566
18268SOL     OW56244   7.445   1.492   3.476
18268SOL    HW156245   7.466   1.523   3.388
18268SOL    HW256246   7.524   1.509   3.527
18269SOL     OW56247   5.939   0.919   3.673
18269SOL    HW156248   6.016   0.938   3.726
18269SOL    HW256249   5.968   0.851   3.612
18270SOL     OW56250   6.864   0.831   1.882
18270SOL    HW156251   6.906   0.745   1.888
18270SOL    HW256252   6.898   0.869   1.801
18271SOL     OW56253   6.662   1.344   2.722
18271SOL    HW156254   6.669   1.273   2.658
18271SOL    HW256255   6.718   1.414   2.686
18272SOL     OW56256   5.894   0.811   2.804
18272SOL    HW156257   5.987   0.832   2.799
18272SOL    HW256258   5.892   0.722   2.840
18273SOL     OW56259   5.920   0.538   2.875
18273SOL    HW156260   5.878   0.453   2.862
18273SOL    HW256261   5.995   0.537   2.816
18274SOL     OW56262   6.731   0.373   3.551
18274SOL    HW156263   6.674   0.427   3.606
18274SOL    HW256264   6.819   0.408   3.567
18275SOL     OW56265   6.777   0.215   3.335
18275SOL    HW156266   6.753   0.265   3.413
18275SOL    HW256267   6.797   0.282   3.269
18276SOL     OW56268   5.596   1.311   2.051
18276SOL    HW156269   5.508   1.328   2.017
18276SOL    HW256270   5.590   1.222   2.088
18277SOL     OW56271   5.676   1.773   2.809
18277SOL    HW156272   5.645   1.698   2.758
18277SOL    HW256273   5.763   1.792   2.773
18278SOL     OW56274   6.074   1.574   2.764
18278SOL    HW156275   6.143   1.637   2.785
18278SOL    HW256276   6.117   1.511   2.706
18279SOL     OW56277   6.568   0.765   3.087
18279SOL    HW156278   6.624   0.726   3.154
18279SOL    HW256279   6.480   0.761   3.124
18280SOL     OW56280   5.622   0.552   2.981
18280SOL    HW156281   5.705   0.550   2.933
18280SOL    HW256282   5.648   0.553   3.073
18281SOL     OW56283   5.766   0.531   3.595
18281SOL    HW156284   5.853   0.530   3.554
18281SOL    HW256285   5.720   0.603   3.552
18282SOL     OW56286   6.961   0.936   3.513
18282SOL    HW156287   6.986   1.025   3.535
18282SOL    HW256288   6.936   0.939   3.421
18283SOL     OW56289   6.404   0.577   2.235
18283SOL    HW156290   6.409   0.501   2.177
18283SOL    HW256291   6.329   0.627   2.204
18284SOL     OW56292   7.225   0.604   3.028
18284SOL    HW156293   7.226   0.546   3.105
18284SOL    HW256294   7.313   0.597   2.992
18285SOL     OW56295   5.822   1.547   3.585
18285SOL    HW156296   5.796   1.609   3.653
18285SOL    HW256297   5.830   1.463   3.630
18286SOL     OW56298   6.312   0.462   3.121
18286SOL    HW156299   6.250   0.391   3.107
18286SOL    HW256300   6.299   0.519   3.045
18287SOL     OW56301   6.532   1.669   3.323
18287SOL    HW156302   6.490   1.631   3.246
18287SOL    HW256303   6.519   1.763   3.314
18288SOL     OW56304   6.038   0.506   2.030
18288SOL    HW156305   6.097   0.576   2.059
18288SOL    HW256306   5.952   0.548   2.024
18289SOL     OW56307   5.725   1.146   3.342
18289SOL    HW156308   5.725   1.102   3.427
18289SOL    HW256309   5.742   1.076   3.279
18290SOL     OW56310   6.898   1.034   3.079
18290SOL    HW156311   6.917   0.973   3.008
18290SOL    HW256312   6.834   1.095   3.043
18291SOL     OW56313   6.907   0.852   2.158
18291SOL    HW156314   6.833   0.830   2.215
18291SOL    HW256315   6.871   0.849   2.069
18292SOL     OW56316   7.370   1.730   3.025
18292SOL    HW156317   7.432   1.757   2.957
18292SOL    HW256318   7.341   1.643   2.997
18293SOL     OW56319   6.824   1.729   2.953
18293SOL    HW156320   6.908   1.756   2.917
18293SOL    HW256321   6.837   1.639   2.981
18294SOL     OW56322   5.685   1.256   2.874
18294SOL    HW156323   5.670   1.277   2.966
18294SOL    HW256324   5.603   1.216   2.844
18295SOL     OW56325   6.261   1.676   3.606
18295SOL    HW156326   6.195   1.746   3.604
18295SOL    HW256327   6.327   1.704   3.542
18296SOL     OW56328   7.254   0.123   2.356
18296SOL    HW156329   7.347   0.132   2.335
18296SOL    HW256330   7.252   0.095   2.447
18297SOL     OW56331   6.980   1.569   2.357
18297SOL    HW156332   7.036   1.604   2.288
18297SOL    HW256333   6.928   1.643   2.386
18298SOL     OW56334   5.733   1.802   3.703
18298SOL    HW156335   5.683   1.734   3.749
18298SOL    HW256336   5.778   1.850   3.773
18299SOL     OW56337   6.866   0.927   2.527
18299SOL    HW156338   6.941   0.869   2.537
18299SOL    HW256339   6.900   1.001   2.475
18300SOL     OW56340   6.381   1.280   3.285
18300SOL    HW156341   6.357   1.324   3.366
18300SOL    HW256342   6.309   1.297   3.225
18301SOL     OW56343   6.253   1.629   2.019
18301SOL    HW156344   6.265   1.644   1.925
18301SOL    HW256345   6.198   1.551   2.024
18302SOL     OW56346   7.206   1.728   3.258
18302SOL    HW156347   7.259   1.733   3.178
18302SOL    HW256348   7.191   1.819   3.282
18303SOL     OW56349   7.437   0.188   2.824
18303SOL    HW156350   7.441   0.094   2.844
18303SOL    HW256351   7.357   0.198   2.773
18304SOL     OW56352   5.843   0.307   2.576
18304SOL    HW156353   5.760   0.346   2.548
18304SOL    HW256354   5.842   0.312   2.671
18305SOL     OW56355   6.796   1.597   1.896
18305SOL    HW156356   6.783   1.506   1.923
18305SOL    HW256357   6.728   1.612   1.830
18306SOL     OW56358   6.417   1.013   3.235
18306SOL    HW156359   6.437   1.018   3.142
18306SOL    HW256360   6.406   1.104   3.262
18307SOL     OW56361   6.501   0.908   2.154
18307SOL    HW156362   6.559   0.944   2.087
18307SOL    HW256363   6.554   0.844   2.200
18308SOL     OW56364   7.075   1.629   1.911
18308SOL    HW156365   6.981   1.618   1.896
18308SOL    HW256366   7.113   1.635   1.823
18309SOL     OW56367   5.955   1.305   3.350
18309SOL    HW156368   5.938   1.384   3.298
18309SOL    HW256369   5.876   1.252   3.341
18310SOL     OW56370   7.188   1.288   3.139
18310SOL    HW156371   7.247   1.271   3.212
18310SOL    HW256372   7.128   1.355   3.172
18311SOL     OW56373   6.657   1.113   2.579
18311SOL    HW156374   6.582   1.066   2.615
18311SOL    HW256375   6.717   1.044   2.551
18312SOL     OW56376   6.629   0.261   2.802
18312SOL    HW156377   6.611   0.201   2.730
18312SOL    HW256378   6.628   0.206   2.880
18313SOL     OW56379   6.192   1.487   2.342
18313SOL    HW156380   6.240   1.439   2.274
18313SOL    HW256381   6.114   1.520   2.297
18314SOL     OW56382   7.296   0.441   3.241
18314SOL    HW156383   7.379   0.488   3.249
18314SOL    HW256384   7.317   0.361   3.193
18315SOL     OW56385   5.849   1.342   2.156
18315SOL    HW156386   5.757   1.336   2.131
18315SOL    HW256387   5.848   1.386   2.242
18316SOL     OW56388   5.703   1.040   3.593
18316SOL    HW156389   5.625   1.013   3.643
18316SOL    HW256390   5.776   0.995   3.635
18317SOL     OW56391   6.260   0.217   3.354
18317SOL    HW156392   6.334   0.163   3.329
18317SOL    HW256393   6.271   0.231   3.448
18318SOL     OW56394   5.664   0.326   1.891
18318SOL    HW156395   5.568   0.324   1.895
18318SOL    HW256396   5.684   0.403   1.838
18319SOL     OW56397   7.003   0.841   3.246
18319SOL    HW156398   6.949   0.901   3.194
18319SOL    HW256399   7.092   0.853   3.210
18320SOL     OW56400   5.658   0.198   2.149
18320SOL    HW156401   5.663   0.259   2.076
18320SOL    HW256402   5.731   0.138   2.134
18321SOL     OW56403   6.763   1.330   1.981
18321SOL    HW156404   6.671   1.306   1.981
18321SOL    HW256405   6.787   1.333   2.074
18322SOL     OW56406   6.199   0.848   3.300
18322SOL    HW156407   6.254   0.926   3.288
18322SOL    HW256408   6.262   0.775   3.304
18323SOL     OW56409   7.069   1.790   2.843
18323SOL    HW156410   7.087   1.864   2.784
18323SOL    HW256411   7.155   1.767   2.878
18324SOL     OW56412   6.311   0.561   3.552
18324SOL    HW156413   6.351   0.619   3.617
18324SOL    HW256414   6.322   0.473   3.588
18325SOL     OW56415   7.060   1.192   3.493
18325SOL    HW156416   7.049   1.217   3.584
18325SOL    HW256417   7.151   1.216   3.473
18326SOL     OW56418   5.948   1.743   3.430
18326SOL    HW156419   5.867   1.791   3.412
18326SOL    HW256420   5.920   1.662   3.472
18327SOL     OW56421   7.244   0.881   3.119
18327SOL    HW156422   7.250   0.799   3.071
18327SOL    HW256423   7.235   0.948   3.051
18328SOL     OW56424   6.814   0.329   2.310
18328SOL    HW156425   6.874   0.254   2.307
18328SOL    HW256426   6.839   0.376   2.389
18329SOL     OW56427   6.171   0.727   2.540
18329SOL    HW156428   6.211   0.813   2.528
18329SOL    HW256429   6.107   0.721   2.469
18330SOL     OW56430   7.339   0.383   3.505
18330SOL    HW156431   7.318   0.396   3.413
18330SOL    HW256432   7.281   0.312   3.533
18331SOL     OW56433   7.342   0.934   3.374
18331SOL    HW156434   7.327   1.027   3.391
18331SOL    HW256435   7.321   0.924   3.281
18332SOL     OW56436   6.457   1.361   1.915
18332SOL    HW156437   6.417   1.380   1.999
18332SOL    HW256438   6.464   1.446   1.871
18333SOL     OW56439   6.250   1.778   2.789
18333SOL    HW156440   6.228   1.871   2.779
18333SOL    HW256441   6.346   1.776   2.789
18334SOL     OW56442   6.458   0.976   2.717
18334SOL    HW156443   6.508   0.904   2.755
18334SOL    HW256444   6.416   1.018   2.791
18335SOL     OW56445   6.659   0.991   1.953
18335SOL    HW156446   6.635   1.045   1.878
18335SOL    HW256447   6.731   0.937   1.922
18336SOL     OW56448   7.424   1.556   2.706
18336SOL    HW156449   7.349   1.547   2.647
18336SOL    HW256450   7.398   1.509   2.785
18337SOL     OW56451   5.816   1.295   3.712
18337SOL    HW156452   5.759   1.228   3.675
18337SOL    HW256453   5.780   1.312   3.799
18338SOL     OW56454   5.681   1.226   2.529
18338SOL    HW156455   5.689   1.184   2.615
18338SOL    HW256456   5.750   1.186   2.476
18339SOL     OW56457   6.277   1.415   3.499
18339SOL    HW156458   6.198   1.370   3.531
18339SOL    HW256459   6.270   1.503   3.535
18340SOL     OW56460   7.410   0.245   3.098
18340SOL    HW156461   7.381   0.158   3.126
18340SOL    HW256462   7.425   0.236   3.004
18341SOL     OW56463   6.024   0.425   2.400
18341SOL    HW156464   6.035   0.361   2.329
18341SOL    HW256465   5.961   0.384   2.459
18342SOL     OW56466   7.287   1.480   2.944
18342SOL    HW156467   7.205   1.465   2.897
18342SOL    HW256468   7.287   1.415   3.014
18343SOL     OW56469   5.929   0.566   3.154
18343SOL    HW156470   5.977   0.503   3.208
18343SOL    HW256471   5.943   0.536   3.065
18344SOL     OW56472   6.423   1.580   2.533
18344SOL    HW156473   6.397   1.653   2.477
18344SOL    HW256474   6.346   1.523   2.537
18345SOL     OW56475   7.021   0.232   2.991
18345SOL    HW156476   7.084   0.165   3.018
18345SOL    HW256477   6.975   0.255   3.071
18346SOL     OW56478   6.588   0.074   2.998
18346SOL    HW156479   6.501   0.059   2.961
18346SOL    HW256480   6.617  -0.013   3.026
18347SOL     OW56481   6.363   1.333   2.181
18347SOL    HW156482   6.337   1.242   2.195
18347SOL    HW256483   6.441   1.345   2.236
18348SOL     OW56484   6.207   1.555   3.152
18348SOL    HW156485   6.205   1.636   3.204
18348SOL    HW256486   6.294   1.553   3.114
18349SOL     OW56487   6.930   7.980   1.971
18349SOL    HW156488   6.995   7.913   1.993
18349SOL    HW256489   6.853   7.957   2.024
18350SOL     OW56490   6.887   0.465   2.537
18350SOL    HW156491   6.834   0.545   2.538
18350SOL    HW256492   6.884   0.433   2.628
18351SOL     OW56493   7.199   0.209   2.701
18351SOL    HW156494   7.123   0.193   2.757
18351SOL    HW256495   7.183   0.296   2.664
18352SOL     OW56496   5.627   1.059   2.169
18352SOL    HW156497   5.721   1.051   2.153
18352SOL    HW256498   5.599   0.971   2.192
18353SOL     OW56499   6.478   1.667   2.193
18353SOL    HW156500   6.400   1.651   2.139
18353SOL    HW256501   6.451   1.736   2.254
18354SOL     OW56502   5.796   0.629   3.859
18354SOL    HW156503   5.712   0.619   3.904
18354SOL    HW256504   5.778   0.604   3.769
18355SOL     OW56505   5.811   0.298   4.711
18355SOL    HW156506   5.840   0.258   4.793
18355SOL    HW256507   5.727   0.255   4.692
18356SOL     OW56508   5.597   0.406   4.354
18356SOL    HW156509   5.509   0.420   4.390
18356SOL    HW256510   5.586   0.335   4.291
18357SOL     OW56511   6.158   1.302   4.914
18357SOL    HW156512   6.072   1.307   4.872
18357SOL    HW256513   6.174   1.390   4.948
18358SOL     OW56514   7.160   1.517   4.437
18358SOL    HW156515   7.117   1.493   4.519
18358SOL    HW256516   7.089   1.522   4.373
18359SOL     OW56517   6.723   0.695   4.414
18359SOL    HW156518   6.767   0.780   4.405
18359SOL    HW256519   6.673   0.703   4.495
18360SOL     OW56520   7.384   0.601   3.940
18360SOL    HW156521   7.348   0.594   3.851
18360SOL    HW256522   7.342   0.530   3.989
18361SOL     OW56523   6.325   1.135   4.774
18361SOL    HW156524   6.261   1.173   4.833
18361SOL    HW256525   6.368   1.210   4.733
18362SOL     OW56526   6.466   0.750   5.548
18362SOL    HW156527   6.451   0.816   5.616
18362SOL    HW256528   6.487   0.800   5.470
18363SOL     OW56529   6.273   0.991   4.367
18363SOL    HW156530   6.339   0.988   4.436
18363SOL    HW256531   6.204   1.048   4.402
18364SOL     OW56532   6.303   1.151   5.546
18364SOL    HW156533   6.350   1.227   5.580
18364SOL    HW256534   6.223   1.187   5.507
18365SOL     OW56535   5.924   1.406   4.791
18365SOL    HW156536   5.846   1.367   4.752
18365SOL    HW256537   5.960   1.462   4.723
18366SOL     OW56538   7.043   1.506   5.089
18366SOL    HW156539   7.097   1.584   5.103
18366SOL    HW256540   6.971   1.515   5.150
18367SOL     OW56541   6.035   0.382   5.185
18367SOL    HW156542   6.114   0.330   5.199
18367SOL    HW256543   5.963   0.324   5.208
18368SOL     OW56544   7.189   0.457   4.451
18368SOL    HW156545   7.111   0.469   4.397
18368SOL    HW256546   7.182   0.526   4.518
18369SOL     OW56547   5.804   1.718   4.192
18369SOL    HW156548   5.824   1.792   4.249
18369SOL    HW256549   5.879   1.713   4.133
18370SOL     OW56550   6.722   1.342   5.416
18370SOL    HW156551   6.762   1.337   5.503
18370SOL    HW256552   6.670   1.262   5.409
18371SOL     OW56553   5.823   1.447   4.263
18371SOL    HW156554   5.799   1.540   4.266
18371SOL    HW256555   5.766   1.406   4.328
18372SOL     OW56556   5.867   1.092   4.615
18372SOL    HW156557   5.856   1.003   4.649
18372SOL    HW256558   5.806   1.145   4.667
18373SOL     OW56559   6.191   1.784   5.161
18373SOL    HW156560   6.106   1.769   5.202
18373SOL    HW256561   6.213   1.875   5.183
18374SOL     OW56562   6.160   0.987   3.866
18374SOL    HW156563   6.211   1.031   3.798
18374SOL    HW256564   6.197   1.020   3.948
18375SOL     OW56565   7.244   0.119   5.208
18375SOL    HW156566   7.169   0.122   5.149
18375SOL    HW256567   7.207   0.141   5.294
18376SOL     OW56568   5.714   0.660   4.286
18376SOL    HW156569   5.679   0.573   4.308
18376SOL    HW256570   5.702   0.712   4.366
18377SOL     OW56571   7.435   1.749   4.045
18377SOL    HW156572   7.498   1.726   4.113
18377SOL    HW256573   7.448   1.843   4.031
18378SOL     OW56574   5.639   1.584   3.834
18378SOL    HW156575   5.613   1.494   3.854
18378SOL    HW256576   5.608   1.635   3.910
18379SOL     OW56577   7.275   0.922   4.371
18379SOL    HW156578   7.358   0.878   4.354
18379SOL    HW256579   7.257   0.973   4.292
18380SOL     OW56580   7.245   1.101   4.149
18380SOL    HW156581   7.333   1.098   4.112
18380SOL    HW256582   7.249   1.168   4.217
18381SOL     OW56583   5.700   0.754   5.308
18381SOL    HW156584   5.785   0.797   5.318
18381SOL    HW256585   5.637   0.826   5.301
18382SOL     OW56586   6.211   1.394   4.458
18382SOL    HW156587   6.165   1.310   4.467
18382SOL    HW256588   6.192   1.421   4.368
18383SOL     OW56589   6.869   1.235   5.138
18383SOL    HW156590   6.900   1.165   5.081
18383SOL    HW256591   6.925   1.229   5.216
18384SOL     OW56592   6.430   0.029   4.277
18384SOL    HW156593   6.474   0.106   4.242
18384SOL    HW256594   6.339   0.055   4.287
18385SOL     OW56595   5.772   0.957   5.017
18385SOL    HW156596   5.857   0.920   4.994
18385SOL    HW256597   5.712   0.922   4.950
18386SOL     OW56598   7.121   1.001   3.924
18386SOL    HW156599   7.050   0.945   3.957
18386SOL    HW256600   7.163   1.034   4.003
18387SOL     OW56601   6.779   1.825   5.356
18387SOL    HW156602   6.776   1.887   5.283
18387SOL    HW256603   6.794   1.740   5.315
18388SOL     OW56604   5.891   0.230   5.497
18388SOL    HW156605   5.958   0.289   5.533
18388SOL    HW256606   5.812   0.250   5.547
18389SOL     OW56607   7.059   1.413   4.672
18389SOL    HW156608   6.991   1.432   4.737
18389SOL    HW256609   7.041   1.324   4.644
18390SOL     OW56610   7.243   1.760   4.296
18390SOL    HW156611   7.214   1.723   4.213
18390SOL    HW256612   7.224   1.691   4.361
18391SOL     OW56613   6.178   0.716   3.998
18391SOL    HW156614   6.179   0.804   3.961
18391SOL    HW256615   6.114   0.721   4.069
18392SOL     OW56616   6.881   0.375   4.655
18392SOL    HW156617   6.790   0.347   4.660
18392SOL    HW256618   6.927   0.320   4.718
18393SOL     OW56619   7.165   1.676   4.036
18393SOL    HW156620   7.256   1.703   4.026
18393SOL    HW256621   7.133   1.662   3.947
18394SOL     OW56622   6.355   0.645   5.161
18394SOL    HW156623   6.345   0.612   5.251
18394SOL    HW256624   6.346   0.567   5.106
18395SOL     OW56625   6.996   0.488   5.405
18395SOL    HW156626   6.993   0.533   5.490
18395SOL    HW256627   7.069   0.427   5.412
18396SOL     OW56628   6.534   0.881   5.310
18396SOL    HW156629   6.583   0.809   5.270
18396SOL    HW256630   6.486   0.920   5.238
18397SOL     OW56631   6.596   0.412   4.931
18397SOL    HW156632   6.512   0.434   4.971
18397SOL    HW256633   6.573   0.371   4.848
18398SOL     OW56634   6.642   0.701   4.147
18398SOL    HW156635   6.663   0.694   4.240
18398SOL    HW256636   6.557   0.657   4.138
18399SOL     OW56637   5.674   0.826   4.499
18399SOL    HW156638   5.753   0.820   4.553
18399SOL    HW256639   5.625   0.899   4.536
18400SOL     OW56640   5.706   1.867   5.304
18400SOL    HW156641   5.711   1.842   5.397
18400SOL    HW256642   5.612   1.865   5.285
18401SOL     OW56643   6.467   0.347   3.938
18401SOL    HW156644   6.505   0.382   3.857
18401SOL    HW256645   6.441   0.258   3.915
18402SOL     OW56646   7.304   0.573   5.551
18402SOL    HW156647   7.265   0.647   5.506
18402SOL    HW256648   7.324   0.510   5.482
18403SOL     OW56649   6.971   1.147   4.270
18403SOL    HW156650   7.050   1.141   4.216
18403SOL    HW256651   6.914   1.208   4.224
18404SOL     OW56652   6.148   0.246   4.652
18404SOL    HW156653   6.125   0.262   4.743
18404SOL    HW256654   6.142   0.332   4.611
18405SOL     OW56655   6.579   1.447   4.188
18405SOL    HW156656   6.554   1.524   4.137
18405SOL    HW256657   6.552   1.467   4.277
18406SOL     OW56658   5.936   1.814   4.592
18406SOL    HW156659   5.981   1.730   4.601
18406SOL    HW256660   5.999   1.879   4.621
18407SOL     OW56661   7.383   1.057   4.592
18407SOL    HW156662   7.327   1.032   4.519
18407SOL    HW256663   7.324   1.064   4.667
18408SOL     OW56664   6.810   1.546   5.235
18408SOL    HW156665   6.796   1.471   5.294
18408SOL    HW256666   6.725   1.559   5.194
18409SOL     OW56667   5.894   0.962   3.984
18409SOL    HW156668   5.975   0.979   3.936
18409SOL    HW256669   5.865   0.876   3.953
18410SOL     OW56670   7.066   0.756   4.442
18410SOL    HW156671   7.061   0.716   4.529
18410SOL    HW256672   7.143   0.812   4.445
18411SOL     OW56673   6.060   1.270   5.459
18411SOL    HW156674   6.033   1.275   5.368
18411SOL    HW256675   5.978   1.265   5.508
18412SOL     OW56676   6.716   1.779   3.951
18412SOL    HW156677   6.637   1.746   3.993
18412SOL    HW256678   6.738   1.713   3.885
18413SOL     OW56679   5.777   0.262   5.228
18413SOL    HW156680   5.708   0.329   5.222
18413SOL    HW256681   5.794   0.252   5.321
18414SOL     OW56682   7.221   1.387   3.813
18414SOL    HW156683   7.175   1.471   3.804
18414SOL    HW256684   7.153   1.321   3.798
18415SOL     OW56685   6.043   1.742   4.038
18415SOL    HW156686   6.088   1.794   4.105
18415SOL    HW256687   6.113   1.702   3.987
18416SOL     OW56688   7.007   0.135   4.122
18416SOL    HW156689   7.036   0.101   4.037
18416SOL    HW256690   7.088   0.148   4.171
18417SOL     OW56691   5.844   1.791   4.946
18417SOL    HW156692   5.889   1.714   4.983
18417SOL    HW256693   5.816   1.763   4.859
18418SOL     OW56694   6.525   1.704   4.618
18418SOL    HW156695   6.592   1.648   4.659
18418SOL    HW256696   6.490   1.650   4.547
18419SOL     OW56697   5.986   0.685   4.196
18419SOL    HW156698   6.003   0.593   4.216
18419SOL    HW256699   5.893   0.697   4.215
18420SOL     OW56700   7.145   0.203   5.451
18420SOL    HW156701   7.158   0.245   5.536
18420SOL    HW256702   7.055   0.171   5.454
18421SOL     OW56703   6.197   0.162   3.819
18421SOL    HW156704   6.261   0.111   3.869
18421SOL    HW256705   6.148   0.096   3.770
18422SOL     OW56706   6.325   0.290   5.483
18422SOL    HW156707   6.380   0.211   5.480
18422SOL    HW256708   6.267   0.277   5.558
18423SOL     OW56709   6.464   1.525   4.914
18423SOL    HW156710   6.440   1.482   4.832
18423SOL    HW256711   6.528   1.467   4.954
18424SOL     OW56712   6.924   0.595   5.161
18424SOL    HW156713   6.960   0.567   5.244
18424SOL    HW256714   6.959   0.683   5.148
18425SOL     OW56715   6.409   1.384   4.674
18425SOL    HW156716   6.494   1.374   4.630
18425SOL    HW256717   6.346   1.393   4.603
18426SOL     OW56718   6.517   0.523   4.614
18426SOL    HW156719   6.485   0.513   4.524
18426SOL    HW256720   6.552   0.437   4.637
18427SOL     OW56721   6.163   0.019   4.133
18427SOL    HW156722   6.094  -0.022   4.184
18427SOL    HW256723   6.145   0.113   4.140
18428SOL     OW56724   7.014   1.205   3.766
18428SOL    HW156725   7.040   1.132   3.822
18428SOL    HW256726   6.929   1.232   3.800
18429SOL     OW56727   5.923   0.028   3.907
18429SOL    HW156728   5.917   0.118   3.936
18429SOL    HW256729   5.919  -0.024   3.987
18430SOL     OW56730   6.546   0.262   4.190
18430SOL    HW156731   6.512   0.293   4.106
18430SOL    HW256732   6.640   0.281   4.186
18431SOL     OW56733   6.660   0.669   5.185
18431SOL    HW156734   6.606   0.591   5.201
18431SOL    HW256735   6.749   0.636   5.180
18432SOL     OW56736   6.816   1.566   4.513
18432SOL    HW156737   6.822   1.636   4.447
18432SOL    HW256738   6.865   1.600   4.588
18433SOL     OW56739   6.066   1.157   4.444
18433SOL    HW156740   6.002   1.136   4.512
18433SOL    HW256741   6.016   1.148   4.362
18434SOL     OW56742   6.846   1.789   4.338
18434SOL    HW156743   6.892   1.855   4.287
18434SOL    HW256744   6.773   1.836   4.379
18435SOL     OW56745   6.614   0.525   3.745
18435SOL    HW156746   6.566   0.607   3.734
18435SOL    HW256747   6.667   0.538   3.824
18436SOL     OW56748   5.679   0.561   5.118
18436SOL    HW156749   5.771   0.562   5.091
18436SOL    HW256750   5.673   0.630   5.185
18437SOL     OW56751   6.148   0.236   4.931
18437SOL    HW156752   6.187   0.196   5.009
18437SOL    HW256753   6.054   0.227   4.944
18438SOL     OW56754   6.447   0.468   4.358
18438SOL    HW156755   6.413   0.521   4.285
18438SOL    HW256756   6.466   0.383   4.319
18439SOL     OW56757   6.552   0.038   4.520
18439SOL    HW156758   6.512   0.037   4.433
18439SOL    HW256759   6.576  -0.053   4.536
18440SOL     OW56760   7.020   1.155   4.580
18440SOL    HW156761   6.949   1.093   4.598
18440SOL    HW256762   7.022   1.161   4.485
18441SOL     OW56763   7.050   0.612   4.679
18441SOL    HW156764   6.993   0.535   4.684
18441SOL    HW256765   7.106   0.605   4.756
18442SOL     OW56766   7.426   0.805   4.114
18442SOL    HW156767   7.481   0.757   4.175
18442SOL    HW256768   7.406   0.742   4.045
18443SOL     OW56769   6.075   1.422   3.877
18443SOL    HW156770   6.000   1.396   3.930
18443SOL    HW256771   6.065   1.373   3.796
18444SOL     OW56772   7.274   1.277   4.345
18444SOL    HW156773   7.365   1.275   4.374
18444SOL    HW256774   7.240   1.359   4.381
18445SOL     OW56775   6.982   0.578   3.801
18445SOL    HW156776   6.912   0.557   3.862
18445SOL    HW256777   7.062   0.548   3.844
18446SOL     OW56778   6.076   0.280   4.031
18446SOL    HW156779   6.125   0.234   3.962
18446SOL    HW256780   6.053   0.364   3.991
18447SOL     OW56781   7.327   1.243   5.270
18447SOL    HW156782   7.415   1.206   5.260
18447SOL    HW256783   7.342   1.331   5.306
18448SOL     OW56784   6.633   1.342   5.042
18448SOL    HW156785   6.557   1.318   5.095
18448SOL    HW256786   6.708   1.310   5.092
18449SOL     OW56787   7.196   1.630   5.387
18449SOL    HW156788   7.187   1.665   5.298
18449SOL    HW256789   7.276   1.577   5.384
18450SOL     OW56790   6.723   1.208   4.819
18450SOL    HW156791   6.669   1.247   4.887
18450SOL    HW256792   6.695   1.250   4.738
18451SOL     OW56793   7.210   1.101   4.799
18451SOL    HW156794   7.203   1.162   4.872
18451SOL    HW256795   7.132   1.118   4.746
18452SOL     OW56796   6.509   0.125   5.128
18452SOL    HW156797   6.522   0.112   5.034
18452SOL    HW256798   6.597   0.122   5.165
18453SOL     OW56799   6.570   1.114   5.447
18453SOL    HW156800   6.479   1.131   5.474
18453SOL    HW256801   6.564   1.034   5.394
18454SOL     OW56802   6.298   1.063   4.095
18454SOL    HW156803   6.282   1.041   4.187
18454SOL    HW256804   6.370   1.006   4.070
18455SOL     OW56805   6.008   0.823   4.971
18455SOL    HW156806   6.070   0.840   5.042
18455SOL    HW256807   5.976   0.734   4.988
18456SOL     OW56808   6.854   0.380   5.007
18456SOL    HW156809   6.882   0.460   5.051
18456SOL    HW256810   6.766   0.400   4.976
18457SOL     OW56811   5.659   1.574   5.083
18457SOL    HW156812   5.627   1.652   5.038
18457SOL    HW256813   5.754   1.579   5.075
18458SOL     OW56814   5.917   1.127   4.213
18458SOL    HW156815   5.909   1.203   4.154
18458SOL    HW256816   5.914   1.051   4.154
18459SOL     OW56817   6.139   0.516   4.577
18459SOL    HW156818   6.148   0.576   4.503
18459SOL    HW256819   6.201   0.549   4.642
18460SOL     OW56820   6.831   1.353   4.117
18460SOL    HW156821   6.886   1.424   4.151
18460SOL    HW256822   6.743   1.373   4.149
18461SOL     OW56823   6.881   1.463   4.874
18461SOL    HW156824   6.936   1.472   4.952
18461SOL    HW256825   6.819   1.394   4.896
18462SOL     OW56826   7.151   0.640   4.203
18462SOL    HW156827   7.105   0.672   4.280
18462SOL    HW256828   7.196   0.717   4.168
18463SOL     OW56829   5.931   1.534   5.028
18463SOL    HW156830   5.921   1.483   4.948
18463SOL    HW256831   6.026   1.545   5.038
18464SOL     OW56832   6.021   0.734   5.345
18464SOL    HW156833   6.067   0.787   5.280
18464SOL    HW256834   6.083   0.664   5.367
18465SOL     OW56835   7.201   0.783   5.416
18465SOL    HW156836   7.114   0.822   5.410
18465SOL    HW256837   7.251   0.824   5.346
18466SOL     OW56838   6.634   0.072   5.463
18466SOL    HW156839   6.645   0.165   5.446
18466SOL    HW256840   6.539   0.058   5.456
18467SOL     OW56841   6.096   0.037   5.454
18467SOL    HW156842   6.069  -0.022   5.383
18467SOL    HW256843   6.023   0.098   5.462
18468SOL     OW56844   6.174   0.874   4.757
18468SOL    HW156845   6.207   0.964   4.761
18468SOL    HW256846   6.115   0.867   4.832
18469SOL     OW56847   6.916   0.857   4.731
18469SOL    HW156848   6.825   0.835   4.710
18469SOL    HW256849   6.964   0.774   4.721
18470SOL     OW56850   6.775   0.531   3.975
18470SOL    HW156851   6.789   0.454   4.030
18470SOL    HW256852   6.735   0.595   4.033
18471SOL     OW56853   5.880   0.199   4.962
18471SOL    HW156854   5.831   0.219   5.042
18471SOL    HW256855   5.857   0.108   4.942
18472SOL     OW56856   5.650   1.314   4.995
18472SOL    HW156857   5.671   1.259   5.070
18472SOL    HW256858   5.643   1.402   5.030
18473SOL     OW56859   6.298   0.625   4.769
18473SOL    HW156860   6.379   0.621   4.718
18473SOL    HW256861   6.268   0.716   4.759
18474SOL     OW56862   7.327   0.962   5.589
18474SOL    HW156863   7.285   0.892   5.539
18474SOL    HW256864   7.265   0.983   5.658
18475SOL     OW56865   5.997   0.083   4.403
18475SOL    HW156866   5.940   0.159   4.413
18475SOL    HW256867   5.948   0.024   4.344
18476SOL     OW56868   7.225   0.412   4.075
18476SOL    HW156869   7.236   0.338   4.135
18476SOL    HW256870   7.192   0.483   4.130
18477SOL     OW56871   6.624   0.762   4.688
18477SOL    HW156872   6.607   0.776   4.781
18477SOL    HW256873   6.591   0.674   4.670
18478SOL     OW56874   6.573   1.571   5.449
18478SOL    HW156875   6.553   1.612   5.365
18478SOL    HW256876   6.607   1.485   5.427
18479SOL     OW56877   7.433   1.496   5.329
18479SOL    HW156878   7.456   1.527   5.241
18479SOL    HW256879   7.513   1.509   5.380
18480SOL     OW56880   5.939   0.914   5.538
18480SOL    HW156881   6.017   0.937   5.587
18480SOL    HW256882   5.968   0.848   5.475
18481SOL     OW56883   7.207   0.289   3.835
18481SOL    HW156884   7.202   0.199   3.867
18481SOL    HW256885   7.207   0.342   3.915
18482SOL     OW56886   6.863   0.823   3.747
18482SOL    HW156887   6.911   0.742   3.762
18482SOL    HW256888   6.904   0.861   3.669
18483SOL     OW56889   6.660   1.344   4.579
18483SOL    HW156890   6.667   1.271   4.517
18483SOL    HW256891   6.718   1.411   4.544
18484SOL     OW56892   5.895   0.812   4.666
18484SOL    HW156893   5.988   0.834   4.664
18484SOL    HW256894   5.892   0.723   4.702
18485SOL     OW56895   5.920   0.539   4.736
18485SOL    HW156896   5.878   0.454   4.723
18485SOL    HW256897   5.995   0.538   4.677
18486SOL     OW56898   6.749   0.360   5.433
18486SOL    HW156899   6.686   0.417   5.477
18486SOL    HW256900   6.826   0.416   5.419
18487SOL     OW56901   6.762   0.213   5.202
18487SOL    HW156902   6.758   0.267   5.281
18487SOL    HW256903   6.792   0.273   5.134
18488SOL     OW56904   5.600   1.310   3.908
18488SOL    HW156905   5.511   1.329   3.875
18488SOL    HW256906   5.592   1.223   3.947
18489SOL     OW56907   5.675   1.772   4.671
18489SOL    HW156908   5.643   1.697   4.621
18489SOL    HW256909   5.762   1.790   4.634
18490SOL     OW56910   6.074   1.574   4.625
18490SOL    HW156911   6.142   1.638   4.646
18490SOL    HW256912   6.118   1.510   4.568
18491SOL     OW56913   6.551   0.777   4.951
18491SOL    HW156914   6.611   0.752   5.022
18491SOL    HW256915   6.464   0.757   4.986
18492SOL     OW56916   5.622   0.552   4.844
18492SOL    HW156917   5.704   0.549   4.795
18492SOL    HW256918   5.649   0.552   4.936
18493SOL     OW56919   5.771   0.532   5.456
18493SOL    HW156920   5.857   0.534   5.415
18493SOL    HW256921   5.723   0.603   5.414
18494SOL     OW56922   6.972   0.926   5.378
18494SOL    HW156923   6.990   1.020   5.375
18494SOL    HW256924   6.965   0.900   5.286
18495SOL     OW56925   6.405   0.576   4.095
18495SOL    HW156926   6.408   0.498   4.040
18495SOL    HW256927   6.328   0.624   4.064
18496SOL     OW56928   7.225   0.610   4.890
18496SOL    HW156929   7.216   0.555   4.968
18496SOL    HW256930   7.314   0.593   4.859
18497SOL     OW56931   5.827   1.546   5.444
18497SOL    HW156932   5.803   1.616   5.505
18497SOL    HW256933   5.830   1.467   5.497
18498SOL     OW56934   6.320   0.450   4.975
18498SOL    HW156935   6.256   0.380   4.962
18498SOL    HW256936   6.303   0.512   4.904
18499SOL     OW56937   6.530   1.670   5.187
18499SOL    HW156938   6.487   1.632   5.111
18499SOL    HW256939   6.517   1.764   5.178
18500SOL     OW56940   6.039   0.507   3.883
18500SOL    HW156941   6.098   0.575   3.917
18500SOL    HW256942   5.953   0.547   3.882
18501SOL     OW56943   5.724   1.146   5.205
18501SOL    HW156944   5.725   1.102   5.290
18501SOL    HW256945   5.742   1.076   5.142
18502SOL     OW56946   6.906   1.040   4.934
18502SOL    HW156947   6.920   0.975   4.864
18502SOL    HW256948   6.840   1.100   4.898
18503SOL     OW56949   6.908   0.861   4.026
18503SOL    HW156950   6.845   0.832   4.093
18503SOL    HW256951   6.862   0.847   3.943
18504SOL     OW56952   7.364   1.735   4.880
18504SOL    HW156953   7.428   1.759   4.812
18504SOL    HW256954   7.339   1.645   4.858
18505SOL     OW56955   6.823   1.728   4.811
18505SOL    HW156956   6.909   1.755   4.779
18505SOL    HW256957   6.837   1.638   4.842
18506SOL     OW56958   5.687   1.255   4.736
18506SOL    HW156959   5.671   1.276   4.828
18506SOL    HW256960   5.603   1.220   4.705
18507SOL     OW56961   6.259   1.678   5.469
18507SOL    HW156962   6.192   1.746   5.467
18507SOL    HW256963   6.322   1.705   5.402
18508SOL     OW56964   7.262   0.165   4.215
18508SOL    HW156965   7.348   0.155   4.175
18508SOL    HW256966   7.273   0.129   4.303
18509SOL     OW56967   6.979   1.569   4.218
18509SOL    HW156968   7.035   1.607   4.149
18509SOL    HW256969   6.926   1.642   4.249
18510SOL     OW56970   5.737   1.787   5.562
18510SOL    HW156971   5.685   1.723   5.611
18510SOL    HW256972   5.777   1.842   5.630
18511SOL     OW56973   6.861   0.927   4.385
18511SOL    HW156974   6.935   0.870   4.403
18511SOL    HW256975   6.899   1.002   4.338
18512SOL     OW56976   6.381   1.284   5.145
18512SOL    HW156977   6.356   1.327   5.227
18512SOL    HW256978   6.305   1.298   5.087
18513SOL     OW56979   6.253   1.629   3.881
18513SOL    HW156980   6.264   1.643   3.787
18513SOL    HW256981   6.198   1.550   3.887
18514SOL     OW56982   7.204   1.730   5.118
18514SOL    HW156983   7.258   1.733   5.039
18514SOL    HW256984   7.191   1.821   5.142
18515SOL     OW56985   7.443   0.181   4.686
18515SOL    HW156986   7.441   0.086   4.701
18515SOL    HW256987   7.360   0.200   4.642
18516SOL     OW56988   5.841   0.305   4.437
18516SOL    HW156989   5.760   0.347   4.410
18516SOL    HW256990   5.841   0.311   4.532
18517SOL     OW56991   6.799   1.597   3.758
18517SOL    HW156992   6.784   1.507   3.789
18517SOL    HW256993   6.730   1.612   3.694
18518SOL     OW56994   6.410   1.015   5.102
18518SOL    HW156995   6.447   1.012   5.013
18518SOL    HW256996   6.403   1.108   5.122
18519SOL     OW56997   6.498   0.904   4.007
18519SOL    HW156998   6.562   0.944   3.948
18519SOL    HW256999   6.550   0.842   4.059
18520SOL     OW57000   7.077   1.626   3.771
18520SOL    HW157001   6.982   1.618   3.759
18520SOL    HW257002   7.112   1.634   3.683
18521SOL     OW57003   5.955   1.305   5.212
18521SOL    HW157004   5.938   1.385   5.162
18521SOL    HW257005   5.876   1.253   5.203
18522SOL     OW57006   7.196   1.289   5.007
18522SOL    HW157007   7.246   1.267   5.085
18522SOL    HW257008   7.133   1.355   5.036
18523SOL     OW57009   6.655   1.112   4.437
18523SOL    HW157010   6.581   1.066   4.476
18523SOL    HW257011   6.716   1.042   4.413
18524SOL     OW57012   6.623   0.265   4.670
18524SOL    HW157013   6.602   0.209   4.595
18524SOL    HW257014   6.626   0.205   4.744
18525SOL     OW57015   6.191   1.485   4.201
18525SOL    HW157016   6.235   1.438   4.131
18525SOL    HW257017   6.106   1.509   4.164
18526SOL     OW57018   7.305   0.433   5.097
18526SOL    HW157019   7.385   0.485   5.105
18526SOL    HW257020   7.333   0.355   5.049
18527SOL     OW57021   5.851   1.342   4.021
18527SOL    HW157022   5.759   1.336   3.993
18527SOL    HW257023   5.846   1.386   4.106
18528SOL     OW57024   5.704   1.040   5.457
18528SOL    HW157025   5.627   1.012   5.506
18528SOL    HW257026   5.777   0.993   5.498
18529SOL     OW57027   6.262   0.224   5.215
18529SOL    HW157028   6.338   0.171   5.190
18529SOL    HW257029   6.275   0.242   5.308
18530SOL     OW57030   5.658   0.322   3.750
18530SOL    HW157031   5.563   0.326   3.761
18530SOL    HW257032   5.680   0.400   3.700
18531SOL     OW57033   7.008   0.858   5.115
18531SOL    HW157034   6.958   0.919   5.061
18531SOL    HW257035   7.097   0.862   5.080
18532SOL     OW57036   5.717   0.225   4.011
18532SOL    HW157037   5.691   0.267   3.929
18532SOL    HW257038   5.666   0.144   4.013
18533SOL     OW57039   6.762   1.331   3.843
18533SOL    HW157040   6.669   1.308   3.842
18533SOL    HW257041   6.786   1.333   3.936
18534SOL     OW57042   6.194   0.854   5.163
18534SOL    HW157043   6.253   0.928   5.151
18534SOL    HW257044   6.251   0.777   5.164
18535SOL     OW57045   7.073   1.791   4.711
18535SOL    HW157046   7.094   1.864   4.652
18535SOL    HW257047   7.157   1.766   4.749
18536SOL     OW57048   6.293   0.566   5.417
18536SOL    HW157049   6.344   0.622   5.476
18536SOL    HW257050   6.310   0.477   5.448
18537SOL     OW57051   7.056   1.188   5.349
18537SOL    HW157052   7.044   1.207   5.442
18537SOL    HW257053   7.148   1.212   5.332
18538SOL     OW57054   5.952   1.741   5.287
18538SOL    HW157055   5.870   1.788   5.271
18538SOL    HW257056   5.924   1.660   5.330
18539SOL     OW57057   7.248   0.881   4.977
18539SOL    HW157058   7.242   0.796   4.933
18539SOL    HW257059   7.238   0.945   4.907
18540SOL     OW57060   6.813   0.329   4.165
18540SOL    HW157061   6.876   0.259   4.153
18540SOL    HW257062   6.843   0.374   4.245
18541SOL     OW57063   6.172   0.727   4.399
18541SOL    HW157064   6.211   0.814   4.388
18541SOL    HW257065   6.107   0.721   4.329
18542SOL     OW57066   7.342   0.379   5.361
18542SOL    HW157067   7.319   0.398   5.270
18542SOL    HW257068   7.285   0.307   5.386
18543SOL     OW57069   7.337   0.930   5.232
18543SOL    HW157070   7.321   1.024   5.247
18543SOL    HW257071   7.315   0.917   5.140
18544SOL     OW57072   6.462   1.359   3.779
18544SOL    HW157073   6.421   1.368   3.865
18544SOL    HW257074   6.459   1.448   3.742
18545SOL     OW57075   6.248   1.780   4.646
18545SOL    HW157076   6.227   1.873   4.639
18545SOL    HW257077   6.344   1.778   4.649
18546SOL     OW57078   6.459   0.976   4.579
18546SOL    HW157079   6.509   0.905   4.618
18546SOL    HW257080   6.414   1.018   4.652
18547SOL     OW57081   6.666   0.997   3.818
18547SOL    HW157082   6.642   1.047   3.741
18547SOL    HW257083   6.734   0.937   3.787
18548SOL     OW57084   7.422   1.553   4.567
18548SOL    HW157085   7.343   1.545   4.514
18548SOL    HW257086   7.401   1.507   4.649
18549SOL     OW57087   5.811   1.295   5.574
18549SOL    HW157088   5.760   1.226   5.532
18549SOL    HW257089   5.765   1.312   5.656
18550SOL     OW57090   5.683   1.228   4.391
18550SOL    HW157091   5.685   1.187   4.478
18550SOL    HW257092   5.751   1.183   4.342
18551SOL     OW57093   6.275   1.415   5.361
18551SOL    HW157094   6.197   1.371   5.393
18551SOL    HW257095   6.269   1.504   5.398
18552SOL     OW57096   7.409   0.226   4.961
18552SOL    HW157097   7.340   0.159   4.963
18552SOL    HW257098   7.435   0.230   4.869
18553SOL     OW57099   6.023   0.425   4.261
18553SOL    HW157100   6.035   0.363   4.190
18553SOL    HW257101   5.959   0.384   4.319
18554SOL     OW57102   7.289   1.480   4.809
18554SOL    HW157103   7.207   1.462   4.763
18554SOL    HW257104   7.291   1.417   4.881
18555SOL     OW57105   5.929   0.566   5.016
18555SOL    HW157106   5.977   0.503   5.070
18555SOL    HW257107   5.944   0.537   4.926
18556SOL     OW57108   6.424   1.576   4.396
18556SOL    HW157109   6.391   1.647   4.341
18556SOL    HW257110   6.349   1.517   4.407
18557SOL     OW57111   7.016   0.229   4.840
18557SOL    HW157112   7.074   0.169   4.888
18557SOL    HW257113   6.965   0.272   4.909
18558SOL     OW57114   6.590   0.074   4.860
18558SOL    HW157115   6.504   0.055   4.824
18558SOL    HW257116   6.623  -0.011   4.889
18559SOL     OW57117   6.367   1.330   4.038
18559SOL    HW157118   6.339   1.240   4.057
18559SOL    HW257119   6.440   1.345   4.098
18560SOL     OW57120   6.208   1.556   5.013
18560SOL    HW157121   6.206   1.636   5.066
18560SOL    HW257122   6.296   1.554   4.975
18561SOL     OW57123   6.935   7.991   3.836
18561SOL    HW157124   7.021   7.958   3.863
18561SOL    HW257125   6.875   7.960   3.904
18562SOL     OW57126   6.890   0.466   4.394
18562SOL    HW157127   6.834   0.544   4.397
18562SOL    HW257128   6.887   0.432   4.483
18563SOL     OW57129   7.197   0.221   4.586
18563SOL    HW157130   7.121   0.217   4.643
18563SOL    HW257131   7.186   0.302   4.536
18564SOL     OW57132   5.628   1.061   4.030
18564SOL    HW157133   5.722   1.051   4.014
18564SOL    HW257134   5.599   0.973   4.053
18565SOL     OW57135   6.479   1.667   4.054
18565SOL    HW157136   6.400   1.651   4.002
18565SOL    HW257137   6.452   1.735   4.116
18566SOL     OW57138   5.795   0.628   5.722
18566SOL    HW157139   5.709   0.618   5.763
18566SOL    HW257140   5.781   0.605   5.630
18567SOL     OW57141   5.808   0.302   6.570
18567SOL    HW157142   5.841   0.261   6.650
18567SOL    HW257143   5.726   0.256   6.551
18568SOL     OW57144   5.596   0.402   6.212
18568SOL    HW157145   5.507   0.414   6.245
18568SOL    HW257146   5.588   0.334   6.145
18569SOL     OW57147   6.156   1.301   6.777
18569SOL    HW157148   6.073   1.308   6.731
18569SOL    HW257149   6.173   1.390   6.809
18570SOL     OW57150   7.162   1.519   6.295
18570SOL    HW157151   7.118   1.494   6.376
18570SOL    HW257152   7.093   1.524   6.230
18571SOL     OW57153   6.726   0.696   6.279
18571SOL    HW157154   6.770   0.781   6.267
18571SOL    HW257155   6.674   0.707   6.358
18572SOL     OW57156   7.384   0.596   5.807
18572SOL    HW157157   7.351   0.591   5.717
18572SOL    HW257158   7.339   0.525   5.853
18573SOL     OW57159   6.327   1.135   6.640
18573SOL    HW157160   6.262   1.175   6.698
18573SOL    HW257161   6.368   1.210   6.596
18574SOL     OW57162   6.465   0.753   7.405
18574SOL    HW157163   6.442   0.825   7.464
18574SOL    HW257164   6.488   0.796   7.322
18575SOL     OW57165   6.273   0.991   6.229
18575SOL    HW157166   6.339   0.989   6.298
18575SOL    HW257167   6.204   1.049   6.263
18576SOL     OW57168   6.303   1.155   7.413
18576SOL    HW157169   6.352   1.232   7.443
18576SOL    HW257170   6.225   1.191   7.370
18577SOL     OW57171   5.923   1.406   6.653
18577SOL    HW157172   5.846   1.367   6.611
18577SOL    HW257173   5.961   1.462   6.585
18578SOL     OW57174   7.044   1.504   6.953
18578SOL    HW157175   7.097   1.582   6.963
18578SOL    HW257176   6.971   1.515   7.014
18579SOL     OW57177   6.030   0.383   7.060
18579SOL    HW157178   6.111   0.332   7.066
18579SOL    HW257179   5.960   0.318   7.071
18580SOL     OW57180   7.197   0.453   6.309
18580SOL    HW157181   7.122   0.465   6.250
18580SOL    HW257182   7.195   0.531   6.365
18581SOL     OW57183   5.807   1.716   6.054
18581SOL    HW157184   5.826   1.791   6.109
18581SOL    HW257185   5.879   1.713   5.991
18582SOL     OW57186   6.723   1.340   7.277
18582SOL    HW157187   6.764   1.333   7.363
18582SOL    HW257188   6.671   1.259   7.269
18583SOL     OW57189   5.822   1.450   6.129
18583SOL    HW157190   5.804   1.544   6.123
18583SOL    HW257191   5.761   1.418   6.195
18584SOL     OW57192   5.866   1.092   6.477
18584SOL    HW157193   5.855   1.003   6.510
18584SOL    HW257194   5.805   1.144   6.529
18585SOL     OW57195   6.192   1.784   7.026
18585SOL    HW157196   6.106   1.771   7.065
18585SOL    HW257197   6.214   1.875   7.045
18586SOL     OW57198   6.161   0.988   5.729
18586SOL    HW157199   6.211   1.032   5.660
18586SOL    HW257200   6.199   1.020   5.810
18587SOL     OW57201   7.252   0.117   7.080
18587SOL    HW157202   7.189   0.115   7.008
18587SOL    HW257203   7.201   0.147   7.156
18588SOL     OW57204   5.716   0.656   6.150
18588SOL    HW157205   5.680   0.570   6.170
18588SOL    HW257206   5.702   0.707   6.230
18589SOL     OW57207   7.433   1.747   5.910
18589SOL    HW157208   7.500   1.725   5.975
18589SOL    HW257209   7.447   1.840   5.893
18590SOL     OW57210   5.634   1.582   5.702
18590SOL    HW157211   5.608   1.493   5.724
18590SOL    HW257212   5.605   1.635   5.777
18591SOL     OW57213   7.278   0.924   6.230
18591SOL    HW157214   7.351   0.874   6.194
18591SOL    HW257215   7.249   0.980   6.158
18592SOL     OW57216   7.235   1.105   6.016
18592SOL    HW157217   7.322   1.103   5.975
18592SOL    HW257218   7.243   1.171   6.085
18593SOL     OW57219   5.699   0.753   7.168
18593SOL    HW157220   5.783   0.798   7.170
18593SOL    HW257221   5.635   0.823   7.154
18594SOL     OW57222   6.206   1.394   6.321
18594SOL    HW157223   6.161   1.309   6.328
18594SOL    HW257224   6.189   1.422   6.231
18595SOL     OW57225   6.866   1.232   7.005
18595SOL    HW157226   6.896   1.164   6.944
18595SOL    HW257227   6.928   1.226   7.078
18596SOL     OW57228   6.430   0.033   6.147
18596SOL    HW157229   6.467   0.113   6.110
18596SOL    HW257230   6.336   0.043   6.134
18597SOL     OW57231   5.770   0.955   6.882
18597SOL    HW157232   5.856   0.919   6.859
18597SOL    HW257233   5.715   0.933   6.807
18598SOL     OW57234   7.118   1.004   5.786
18598SOL    HW157235   7.049   0.946   5.818
18598SOL    HW257236   7.159   1.039   5.866
18599SOL     OW57237   6.773   1.821   7.219
18599SOL    HW157238   6.772   1.886   7.149
18599SOL    HW257239   6.789   1.738   7.175
18600SOL     OW57240   5.898   0.244   7.365
18600SOL    HW157241   5.957   0.311   7.400
18600SOL    HW257242   5.818   0.254   7.417
18601SOL     OW57243   7.058   1.417   6.530
18601SOL    HW157244   6.991   1.435   6.595
18601SOL    HW257245   7.041   1.326   6.503
18602SOL     OW57246   7.240   1.764   6.159
18602SOL    HW157247   7.215   1.729   6.073
18602SOL    HW257248   7.221   1.693   6.220
18603SOL     OW57249   6.179   0.719   5.860
18603SOL    HW157250   6.179   0.805   5.819
18603SOL    HW257251   6.115   0.726   5.930
18604SOL     OW57252   6.885   0.374   6.521
18604SOL    HW157253   6.793   0.348   6.522
18604SOL    HW257254   6.927   0.317   6.585
18605SOL     OW57255   7.164   1.675   5.899
18605SOL    HW157256   7.257   1.696   5.889
18605SOL    HW257257   7.132   1.659   5.810
18606SOL     OW57258   6.359   0.643   7.032
18606SOL    HW157259   6.345   0.607   7.119
18606SOL    HW257260   6.345   0.570   6.972
18607SOL     OW57261   6.993   0.489   7.263
18607SOL    HW157262   6.995   0.534   7.347
18607SOL    HW257263   7.067   0.428   7.266
18608SOL     OW57264   6.535   0.883   7.170
18608SOL    HW157265   6.584   0.812   7.130
18608SOL    HW257266   6.487   0.923   7.097
18609SOL     OW57267   6.593   0.410   6.794
18609SOL    HW157268   6.506   0.431   6.827
18609SOL    HW257269   6.578   0.373   6.707
18610SOL     OW57270   6.644   0.699   6.009
18610SOL    HW157271   6.664   0.691   6.103
18610SOL    HW257272   6.558   0.657   5.999
18611SOL     OW57273   5.674   0.817   6.366
18611SOL    HW157274   5.753   0.816   6.419
18611SOL    HW257275   5.624   0.892   6.399
18612SOL     OW57276   5.706   1.869   7.167
18612SOL    HW157277   5.711   1.844   7.260
18612SOL    HW257278   5.614   1.857   7.144
18613SOL     OW57279   6.470   0.355   5.798
18613SOL    HW157280   6.512   0.399   5.723
18613SOL    HW257281   6.444   0.269   5.763
18614SOL     OW57282   7.297   0.575   7.418
18614SOL    HW157283   7.262   0.650   7.370
18614SOL    HW257284   7.321   0.512   7.350
18615SOL     OW57285   6.969   1.145   6.127
18615SOL    HW157286   7.047   1.136   6.072
18615SOL    HW257287   6.913   1.207   6.080
18616SOL     OW57288   6.148   0.226   6.524
18616SOL    HW157289   6.131   0.265   6.610
18616SOL    HW257290   6.148   0.300   6.463
18617SOL     OW57291   6.581   1.449   6.052
18617SOL    HW157292   6.554   1.524   5.998
18617SOL    HW257293   6.551   1.471   6.140
18618SOL     OW57294   5.938   1.818   6.460
18618SOL    HW157295   5.986   1.735   6.467
18618SOL    HW257296   6.004   1.884   6.480
18619SOL     OW57297   7.387   1.048   6.457
18619SOL    HW157298   7.334   1.027   6.380
18619SOL    HW257299   7.324   1.057   6.528
18620SOL     OW57300   6.811   1.544   7.099
18620SOL    HW157301   6.797   1.468   7.155
18620SOL    HW257302   6.732   1.547   7.044
18621SOL     OW57303   5.894   0.961   5.845
18621SOL    HW157304   5.975   0.982   5.799
18621SOL    HW257305   5.865   0.878   5.807
18622SOL     OW57306   7.070   0.756   6.305
18622SOL    HW157307   7.065   0.718   6.392
18622SOL    HW257308   7.147   0.813   6.308
18623SOL     OW57309   6.054   1.270   7.326
18623SOL    HW157310   6.030   1.276   7.234
18623SOL    HW257311   5.971   1.265   7.373
18624SOL     OW57312   6.719   1.776   5.816
18624SOL    HW157313   6.638   1.744   5.855
18624SOL    HW257314   6.740   1.712   5.748
18625SOL     OW57315   5.773   0.250   7.095
18625SOL    HW157316   5.710   0.320   7.081
18625SOL    HW257317   5.794   0.254   7.188
18626SOL     OW57318   7.218   1.382   5.678
18626SOL    HW157319   7.177   1.468   5.666
18626SOL    HW257320   7.150   1.319   5.656
18627SOL     OW57321   6.047   1.739   5.903
18627SOL    HW157322   6.091   1.795   5.966
18627SOL    HW257323   6.117   1.703   5.849
18628SOL     OW57324   7.009   0.131   5.980
18628SOL    HW157325   7.041   0.105   5.894
18628SOL    HW257326   7.088   0.143   6.033
18629SOL     OW57327   5.839   1.788   6.807
18629SOL    HW157328   5.887   1.711   6.837
18629SOL    HW257329   5.817   1.769   6.716
18630SOL     OW57330   6.528   1.702   6.479
18630SOL    HW157331   6.607   1.652   6.503
18630SOL    HW257332   6.488   1.651   6.409
18631SOL     OW57333   5.989   0.684   6.061
18631SOL    HW157334   6.007   0.592   6.079
18631SOL    HW257335   5.895   0.694   6.078
18632SOL     OW57336   7.133   0.211   7.309
18632SOL    HW157337   7.146   0.247   7.397
18632SOL    HW257338   7.044   0.176   7.310
18633SOL     OW57339   6.198   0.157   5.682
18633SOL    HW157340   6.263   0.105   5.730
18633SOL    HW257341   6.152   0.093   5.628
18634SOL     OW57342   6.333   0.283   7.363
18634SOL    HW157343   6.368   0.195   7.352
18634SOL    HW257344   6.267   0.274   7.432
18635SOL     OW57345   6.460   1.522   6.780
18635SOL    HW157346   6.441   1.485   6.694
18635SOL    HW257347   6.529   1.466   6.816
18636SOL     OW57348   6.923   0.595   7.018
18636SOL    HW157349   6.959   0.568   7.102
18636SOL    HW257350   6.958   0.684   7.004
18637SOL     OW57351   6.407   1.383   6.535
18637SOL    HW157352   6.492   1.375   6.492
18637SOL    HW257353   6.345   1.395   6.464
18638SOL     OW57354   6.515   0.522   6.478
18638SOL    HW157355   6.486   0.515   6.387
18638SOL    HW257356   6.551   0.436   6.498
18639SOL     OW57357   6.173   0.028   6.010
18639SOL    HW157358   6.102  -0.018   6.053
18639SOL    HW257359   6.140   0.117   5.997
18640SOL     OW57360   7.013   1.205   5.623
18640SOL    HW157361   7.040   1.130   5.676
18640SOL    HW257362   6.927   1.229   5.658
18641SOL     OW57363   5.921   0.027   5.768
18641SOL    HW157364   5.918   0.120   5.791
18641SOL    HW257365   5.902  -0.018   5.851
18642SOL     OW57366   6.542   0.263   6.049
18642SOL    HW157367   6.509   0.295   5.965
18642SOL    HW257368   6.636   0.281   6.047
18643SOL     OW57369   6.661   0.672   7.048
18643SOL    HW157370   6.607   0.594   7.060
18643SOL    HW257371   6.750   0.638   7.038
18644SOL     OW57372   6.806   1.575   6.382
18644SOL    HW157373   6.815   1.639   6.311
18644SOL    HW257374   6.870   1.604   6.448
18645SOL     OW57375   6.065   1.155   6.305
18645SOL    HW157376   6.000   1.135   6.373
18645SOL    HW257377   6.016   1.148   6.223
18646SOL     OW57378   6.844   1.790   6.201
18646SOL    HW157379   6.891   1.854   6.148
18646SOL    HW257380   6.772   1.840   6.240
18647SOL     OW57381   6.610   0.519   5.612
18647SOL    HW157382   6.565   0.601   5.592
18647SOL    HW257383   6.668   0.540   5.685
18648SOL     OW57384   5.686   0.554   6.984
18648SOL    HW157385   5.777   0.560   6.954
18648SOL    HW257386   5.677   0.624   7.048
18649SOL     OW57387   6.148   0.250   6.803
18649SOL    HW157388   6.186   0.198   6.874
18649SOL    HW257389   6.053   0.235   6.811
18650SOL     OW57390   6.454   0.475   6.219
18650SOL    HW157391   6.417   0.525   6.146
18650SOL    HW257392   6.464   0.386   6.184
18651SOL     OW57393   6.544   0.036   6.390
18651SOL    HW157394   6.504   0.041   6.303
18651SOL    HW257395   6.575  -0.055   6.396
18652SOL     OW57396   7.025   1.156   6.441
18652SOL    HW157397   6.949   1.099   6.447
18652SOL    HW257398   7.042   1.165   6.347
18653SOL     OW57399   7.049   0.614   6.544
18653SOL    HW157400   6.994   0.536   6.545
18653SOL    HW257401   7.106   0.605   6.620
18654SOL     OW57402   7.424   0.805   5.980
18654SOL    HW157403   7.485   0.757   6.036
18654SOL    HW257404   7.404   0.744   5.909
18655SOL     OW57405   6.075   1.422   5.739
18655SOL    HW157406   6.001   1.395   5.793
18655SOL    HW257407   6.063   1.376   5.656
18656SOL     OW57408   7.267   1.269   6.223
18656SOL    HW157409   7.361   1.268   6.243
18656SOL    HW257410   7.239   1.357   6.247
18657SOL     OW57411   6.983   0.580   5.661
18657SOL    HW157412   6.917   0.557   5.726
18657SOL    HW257413   7.066   0.551   5.700
18658SOL     OW57414   6.076   0.273   5.893
18658SOL    HW157415   6.125   0.229   5.824
18658SOL    HW257416   6.054   0.358   5.856
18659SOL     OW57417   7.328   1.244   7.137
18659SOL    HW157418   7.415   1.208   7.122
18659SOL    HW257419   7.344   1.332   7.170
18660SOL     OW57420   6.634   1.347   6.911
18660SOL    HW157421   6.558   1.320   6.963
18660SOL    HW257422   6.709   1.309   6.957
18661SOL     OW57423   7.197   1.628   7.250
18661SOL    HW157424   7.186   1.664   7.162
18661SOL    HW257425   7.278   1.577   7.244
18662SOL     OW57426   6.728   1.216   6.685
18662SOL    HW157427   6.667   1.252   6.749
18662SOL    HW257428   6.699   1.253   6.601
18663SOL     OW57429   7.206   1.096   6.659
18663SOL    HW157430   7.197   1.160   6.730
18663SOL    HW257431   7.132   1.113   6.601
18664SOL     OW57432   6.512   0.127   6.993
18664SOL    HW157433   6.520   0.111   6.899
18664SOL    HW257434   6.602   0.121   7.026
18665SOL     OW57435   6.570   1.110   7.315
18665SOL    HW157436   6.478   1.129   7.336
18665SOL    HW257437   6.566   1.034   7.257
18666SOL     OW57438   6.298   1.064   5.958
18666SOL    HW157439   6.282   1.041   6.049
18666SOL    HW257440   6.373   1.009   5.932
18667SOL     OW57441   6.009   0.826   6.836
18667SOL    HW157442   6.073   0.841   6.905
18667SOL    HW257443   5.978   0.737   6.850
18668SOL     OW57444   6.851   0.378   6.869
18668SOL    HW157445   6.881   0.459   6.910
18668SOL    HW257446   6.763   0.397   6.838
18669SOL     OW57447   5.659   1.572   6.944
18669SOL    HW157448   5.625   1.643   6.890
18669SOL    HW257449   5.754   1.579   6.935
18670SOL     OW57450   5.916   1.128   6.073
18670SOL    HW157451   5.911   1.202   6.014
18670SOL    HW257452   5.914   1.051   6.016
18671SOL     OW57453   6.139   0.518   6.444
18671SOL    HW157454   6.147   0.577   6.370
18671SOL    HW257455   6.204   0.549   6.507
18672SOL     OW57456   6.830   1.352   5.981
18672SOL    HW157457   6.886   1.423   6.013
18672SOL    HW257458   6.742   1.374   6.012
18673SOL     OW57459   6.883   1.463   6.734
18673SOL    HW157460   6.934   1.469   6.814
18673SOL    HW257461   6.825   1.387   6.748
18674SOL     OW57462   7.154   0.633   6.068
18674SOL    HW157463   7.106   0.673   6.141
18674SOL    HW257464   7.188   0.708   6.019
18675SOL     OW57465   5.932   1.532   6.890
18675SOL    HW157466   5.922   1.483   6.809
18675SOL    HW257467   6.026   1.544   6.899
18676SOL     OW57468   6.014   0.743   7.201
18676SOL    HW157469   6.066   0.794   7.139
18676SOL    HW257470   6.064   0.662   7.214
18677SOL     OW57471   7.201   0.786   7.279
18677SOL    HW157472   7.114   0.825   7.271
18677SOL    HW257473   7.251   0.825   7.208
18678SOL     OW57474   6.632   0.073   7.331
18678SOL    HW157475   6.648   0.165   7.310
18678SOL    HW257476   6.538   0.061   7.320
18679SOL     OW57477   6.090   0.036   7.311
18679SOL    HW157478   6.064  -0.030   7.247
18679SOL    HW257479   6.013   0.092   7.321
18680SOL     OW57480   6.178   0.874   6.621
18680SOL    HW157481   6.208   0.965   6.621
18680SOL    HW257482   6.115   0.869   6.694
18681SOL     OW57483   6.918   0.856   6.601
18681SOL    HW157484   6.829   0.838   6.570
18681SOL    HW257485   6.965   0.774   6.586
18682SOL     OW57486   6.780   0.529   5.840
18682SOL    HW157487   6.791   0.451   5.894
18682SOL    HW257488   6.739   0.593   5.898
18683SOL     OW57489   5.883   0.198   6.819
18683SOL    HW157490   5.817   0.207   6.888
18683SOL    HW257491   5.866   0.112   6.781
18684SOL     OW57492   5.637   1.312   6.860
18684SOL    HW157493   5.667   1.259   6.934
18684SOL    HW257494   5.638   1.402   6.892
18685SOL     OW57495   6.303   0.627   6.636
18685SOL    HW157496   6.380   0.620   6.579
18685SOL    HW257497   6.272   0.716   6.622
18686SOL     OW57498   7.331   0.959   7.454
18686SOL    HW157499   7.288   0.893   7.400
18686SOL    HW257500   7.266   0.982   7.521
18687SOL     OW57501   5.992   0.089   6.258
18687SOL    HW157502   5.934   0.165   6.268
18687SOL    HW257503   5.945   0.031   6.198
18688SOL     OW57504   7.225   0.405   5.940
18688SOL    HW157505   7.232   0.331   6.001
18688SOL    HW257506   7.193   0.477   5.994
18689SOL     OW57507   6.621   0.763   6.547
18689SOL    HW157508   6.606   0.776   6.641
18689SOL    HW257509   6.589   0.674   6.530
18690SOL     OW57510   6.569   1.565   7.310
18690SOL    HW157511   6.549   1.610   7.228
18690SOL    HW257512   6.612   1.483   7.283
18691SOL     OW57513   7.435   1.497   7.190
18691SOL    HW157514   7.455   1.526   7.101
18691SOL    HW257515   7.515   1.511   7.239
18692SOL     OW57516   5.938   0.912   7.404
18692SOL    HW157517   6.021   0.936   7.445
18692SOL    HW257518   5.962   0.849   7.336
18693SOL     OW57519   7.169   0.316   5.690
18693SOL    HW157520   7.076   0.298   5.695
18693SOL    HW257521   7.195   0.337   5.780
18694SOL     OW57522   6.872   0.827   5.613
18694SOL    HW157523   6.914   0.742   5.620
18694SOL    HW257524   6.905   0.863   5.530
18695SOL     OW57525   6.661   1.345   6.446
18695SOL    HW157526   6.667   1.273   6.382
18695SOL    HW257527   6.716   1.414   6.409
18696SOL     OW57528   5.895   0.813   6.531
18696SOL    HW157529   5.988   0.832   6.518
18696SOL    HW257530   5.894   0.723   6.566
18697SOL     OW57531   5.921   0.540   6.602
18697SOL    HW157532   5.877   0.457   6.585
18697SOL    HW257533   5.997   0.539   6.544
18698SOL     OW57534   6.751   0.356   7.299
18698SOL    HW157535   6.682   0.414   7.332
18698SOL    HW257536   6.824   0.414   7.279
18699SOL     OW57537   6.768   0.209   7.065
18699SOL    HW157538   6.758   0.264   7.142
18699SOL    HW257539   6.792   0.269   6.995
18700SOL     OW57540   5.602   1.308   5.773
18700SOL    HW157541   5.514   1.327   5.740
18700SOL    HW257542   5.595   1.221   5.812
18701SOL     OW57543   5.680   1.771   6.538
18701SOL    HW157544   5.648   1.698   6.486
18701SOL    HW257545   5.765   1.792   6.500
18702SOL     OW57546   6.076   1.574   6.491
18702SOL    HW157547   6.144   1.638   6.512
18702SOL    HW257548   6.118   1.513   6.431
18703SOL     OW57549   6.554   0.778   6.812
18703SOL    HW157550   6.612   0.755   6.885
18703SOL    HW257551   6.466   0.753   6.842
18704SOL     OW57552   5.621   0.546   6.708
18704SOL    HW157553   5.699   0.547   6.653
18704SOL    HW257554   5.654   0.547   6.798
18705SOL     OW57555   5.773   0.534   7.318
18705SOL    HW157556   5.851   0.520   7.265
18705SOL    HW257557   5.727   0.607   7.276
18706SOL     OW57558   6.970   0.928   7.241
18706SOL    HW157559   6.990   1.022   7.236
18706SOL    HW257560   6.963   0.901   7.150
18707SOL     OW57561   6.403   0.578   5.959
18707SOL    HW157562   6.409   0.501   5.902
18707SOL    HW257563   6.328   0.627   5.926
18708SOL     OW57564   7.225   0.605   6.755
18708SOL    HW157565   7.217   0.552   6.834
18708SOL    HW257566   7.313   0.587   6.723
18709SOL     OW57567   5.825   1.546   7.306
18709SOL    HW157568   5.802   1.616   7.367
18709SOL    HW257569   5.826   1.467   7.360
18710SOL     OW57570   6.322   0.455   6.843
18710SOL    HW157571   6.258   0.385   6.830
18710SOL    HW257572   6.307   0.515   6.771
18711SOL     OW57573   6.519   1.672   7.054
18711SOL    HW157574   6.484   1.633   6.973
18711SOL    HW257575   6.510   1.766   7.041
18712SOL     OW57576   6.037   0.504   5.757
18712SOL    HW157577   6.097   0.574   5.784
18712SOL    HW257578   5.952   0.546   5.751
18713SOL     OW57579   5.724   1.147   7.068
18713SOL    HW157580   5.726   1.104   7.153
18713SOL    HW257581   5.740   1.076   7.005
18714SOL     OW57582   6.902   1.040   6.800
18714SOL    HW157583   6.918   0.976   6.731
18714SOL    HW257584   6.840   1.102   6.762
18715SOL     OW57585   6.908   0.856   5.888
18715SOL    HW157586   6.835   0.827   5.943
18715SOL    HW257587   6.876   0.845   5.798
18716SOL     OW57588   7.370   1.732   6.747
18716SOL    HW157589   7.432   1.758   6.678
18716SOL    HW257590   7.341   1.644   6.721
18717SOL     OW57591   6.825   1.730   6.683
18717SOL    HW157592   6.909   1.756   6.644
18717SOL    HW257593   6.838   1.638   6.707
18718SOL     OW57594   5.686   1.252   6.601
18718SOL    HW157595   5.663   1.274   6.692
18718SOL    HW257596   5.605   1.214   6.566
18719SOL     OW57597   6.261   1.678   7.328
18719SOL    HW157598   6.193   1.746   7.327
18719SOL    HW257599   6.319   1.702   7.257
18720SOL     OW57600   7.265   0.166   6.079
18720SOL    HW157601   7.322   0.147   6.004
18720SOL    HW257602   7.313   0.134   6.155
18721SOL     OW57603   6.981   1.569   6.083
18721SOL    HW157604   7.035   1.605   6.013
18721SOL    HW257605   6.926   1.643   6.111
18722SOL     OW57606   5.734   1.787   7.425
18722SOL    HW157607   5.682   1.722   7.474
18722SOL    HW257608   5.775   1.841   7.493
18723SOL     OW57609   6.863   0.930   6.253
18723SOL    HW157610   6.938   0.871   6.265
18723SOL    HW257611   6.898   1.002   6.201
18724SOL     OW57612   6.382   1.283   7.011
18724SOL    HW157613   6.355   1.326   7.093
18724SOL    HW257614   6.311   1.303   6.950
18725SOL     OW57615   6.254   1.628   5.743
18725SOL    HW157616   6.264   1.643   5.649
18725SOL    HW257617   6.198   1.550   5.748
18726SOL     OW57618   7.204   1.728   6.981
18726SOL    HW157619   7.259   1.731   6.903
18726SOL    HW257620   7.190   1.820   7.005
18727SOL     OW57621   7.452   0.171   6.537
18727SOL    HW157622   7.440   0.084   6.573
18727SOL    HW257623   7.365   0.195   6.504
18728SOL     OW57624   5.843   0.314   6.297
18728SOL    HW157625   5.759   0.348   6.267
18728SOL    HW257626   5.840   0.320   6.392
18729SOL     OW57627   6.797   1.596   5.620
18729SOL    HW157628   6.784   1.506   5.649
18729SOL    HW257629   6.728   1.611   5.556
18730SOL     OW57630   6.410   1.016   6.962
18730SOL    HW157631   6.441   1.012   6.872
18730SOL    HW257632   6.402   1.109   6.981
18731SOL     OW57633   6.504   0.910   5.878
18731SOL    HW157634   6.563   0.944   5.811
18731SOL    HW257635   6.555   0.843   5.924
18732SOL     OW57636   7.074   1.630   5.636
18732SOL    HW157637   6.980   1.618   5.621
18732SOL    HW257638   7.112   1.636   5.548
18733SOL     OW57639   5.955   1.307   7.079
18733SOL    HW157640   5.942   1.384   7.023
18733SOL    HW257641   5.876   1.254   7.065
18734SOL     OW57642   7.191   1.289   6.862
18734SOL    HW157643   7.249   1.270   6.936
18734SOL    HW257644   7.130   1.354   6.895
18735SOL     OW57645   6.656   1.114   6.303
18735SOL    HW157646   6.580   1.067   6.338
18735SOL    HW257647   6.716   1.045   6.276
18736SOL     OW57648   6.626   0.266   6.535
18736SOL    HW157649   6.600   0.212   6.460
18736SOL    HW257650   6.629   0.205   6.609
18737SOL     OW57651   6.193   1.489   6.066
18737SOL    HW157652   6.239   1.440   5.997
18737SOL    HW257653   6.113   1.520   6.024
18738SOL     OW57654   7.310   0.430   6.966
18738SOL    HW157655   7.389   0.484   6.969
18738SOL    HW257656   7.335   0.353   6.914
18739SOL     OW57657   5.855   1.339   5.889
18739SOL    HW157658   5.765   1.335   5.857
18739SOL    HW257659   5.848   1.385   5.973
18740SOL     OW57660   5.707   1.046   7.325
18740SOL    HW157661   5.628   1.016   7.370
18740SOL    HW257662   5.778   0.994   7.363
18741SOL     OW57663   6.263   0.226   7.081
18741SOL    HW157664   6.339   0.174   7.052
18741SOL    HW257665   6.281   0.244   7.173
18742SOL     OW57666   5.661   0.325   5.614
18742SOL    HW157667   5.565   0.323   5.616
18742SOL    HW257668   5.683   0.402   5.562
18743SOL     OW57669   7.007   0.858   6.979
18743SOL    HW157670   6.956   0.918   6.925
18743SOL    HW257671   7.095   0.862   6.941
18744SOL     OW57672   5.712   0.225   5.876
18744SOL    HW157673   5.692   0.271   5.795
18744SOL    HW257674   5.657   0.146   5.873
18745SOL     OW57675   6.761   1.331   5.704
18745SOL    HW157676   6.668   1.309   5.702
18745SOL    HW257677   6.784   1.331   5.797
18746SOL     OW57678   6.197   0.853   7.027
18746SOL    HW157679   6.256   0.926   7.010
18746SOL    HW257680   6.255   0.776   7.030
18747SOL     OW57681   7.069   1.791   6.569
18747SOL    HW157682   7.087   1.863   6.509
18747SOL    HW257683   7.155   1.766   6.603
18748SOL     OW57684   6.302   0.555   7.283
18748SOL    HW157685   6.350   0.615   7.339
18748SOL    HW257686   6.323   0.468   7.318
18749SOL     OW57687   7.060   1.187   7.211
18749SOL    HW157688   7.049   1.209   7.303
18749SOL    HW257689   7.150   1.212   7.190
18750SOL     OW57690   5.952   1.741   7.150
18750SOL    HW157691   5.871   1.789   7.132
18750SOL    HW257692   5.923   1.659   7.191
18751SOL     OW57693   7.246   0.880   6.839
18751SOL    HW157694   7.241   0.795   6.794
18751SOL    HW257695   7.235   0.945   6.770
18752SOL     OW57696   6.811   0.324   6.031
18752SOL    HW157697   6.876   0.254   6.017
18752SOL    HW257698   6.842   0.369   6.109
18753SOL     OW57699   6.168   0.731   6.267
18753SOL    HW157700   6.211   0.816   6.252
18753SOL    HW257701   6.106   0.722   6.195
18754SOL     OW57702   7.340   0.381   7.232
18754SOL    HW157703   7.324   0.399   7.139
18754SOL    HW257704   7.280   0.308   7.252
18755SOL     OW57705   7.340   0.929   7.094
18755SOL    HW157706   7.324   1.023   7.108
18755SOL    HW257707   7.317   0.915   7.002
18756SOL     OW57708   6.462   1.362   5.642
18756SOL    HW157709   6.418   1.376   5.726
18756SOL    HW257710   6.461   1.448   5.600
18757SOL     OW57711   6.251   1.778   6.517
18757SOL    HW157712   6.228   1.870   6.504
18757SOL    HW257713   6.347   1.777   6.513
18758SOL     OW57714   6.458   0.977   6.441
18758SOL    HW157715   6.508   0.904   6.479
18758SOL    HW257716   6.415   1.018   6.516
18759SOL     OW57717   6.663   0.990   5.677
18759SOL    HW157718   6.641   1.042   5.600
18759SOL    HW257719   6.736   0.935   5.648
18760SOL     OW57720   7.424   1.556   6.430
18760SOL    HW157721   7.348   1.547   6.372
18760SOL    HW257722   7.398   1.509   6.509
18761SOL     OW57723   5.801   1.291   7.434
18761SOL    HW157724   5.762   1.217   7.388
18761SOL    HW257725   5.742   1.308   7.507
18762SOL     OW57726   5.679   1.225   6.251
18762SOL    HW157727   5.692   1.180   6.334
18762SOL    HW257728   5.747   1.191   6.194
18763SOL     OW57729   6.277   1.410   7.232
18763SOL    HW157730   6.193   1.373   7.257
18763SOL    HW257731   6.272   1.501   7.261
18764SOL     OW57732   7.412   0.227   6.821
18764SOL    HW157733   7.344   0.160   6.818
18764SOL    HW257734   7.438   0.238   6.730
18765SOL     OW57735   6.029   0.422   6.124
18765SOL    HW157736   6.032   0.362   6.049
18765SOL    HW257737   5.961   0.387   6.181
18766SOL     OW57738   7.287   1.481   6.668
18766SOL    HW157739   7.206   1.464   6.620
18766SOL    HW257740   7.287   1.416   6.739
18767SOL     OW57741   5.934   0.567   6.880
18767SOL    HW157742   5.981   0.501   6.931
18767SOL    HW257743   5.947   0.539   6.789
18768SOL     OW57744   6.423   1.583   6.256
18768SOL    HW157745   6.398   1.656   6.200
18768SOL    HW257746   6.345   1.526   6.257
18769SOL     OW57747   7.011   0.217   6.709
18769SOL    HW157748   7.075   0.169   6.761
18769SOL    HW257749   6.959   0.265   6.773
18770SOL     OW57750   6.588   0.075   6.726
18770SOL    HW157751   6.502   0.065   6.685
18770SOL    HW257752   6.614  -0.014   6.751
18771SOL     OW57753   6.364   1.333   5.904
18771SOL    HW157754   6.336   1.242   5.918
18771SOL    HW257755   6.441   1.343   5.960
18772SOL     OW57756   6.208   1.554   6.879
18772SOL    HW157757   6.207   1.636   6.930
18772SOL    HW257758   6.294   1.553   6.839
18773SOL     OW57759   6.927   7.973   5.699
18773SOL    HW157760   6.993   7.907   5.720
18773SOL    HW257761   6.863   7.966   5.771
18774SOL     OW57762   6.889   0.464   6.257
18774SOL    HW157763   6.835   0.543   6.259
18774SOL    HW257764   6.888   0.433   6.348
18775SOL     OW57765   7.202   0.229   6.463
18775SOL    HW157766   7.117   0.225   6.507
18775SOL    HW257767   7.194   0.303   6.403
18776SOL     OW57768   5.627   1.060   5.898
18776SOL    HW157769   5.720   1.051   5.879
18776SOL    HW257770   5.598   0.971   5.920
18777SOL     OW57771   6.478   1.668   5.917
18777SOL    HW157772   6.401   1.651   5.862
18777SOL    HW257773   6.450   1.737   5.977
18778SOL     OW57774   5.795   0.626   7.584
18778SOL    HW157775   5.708   0.617   7.622
18778SOL    HW257776   5.783   0.604   7.491
18779SOL     OW57777   5.811   0.299   8.431
18779SOL    HW157778   5.843   0.258   8.511
18779SOL    HW257779   5.729   0.253   8.412
18780SOL     OW57780   5.598   0.391   8.068
18780SOL    HW157781   5.509   0.404   8.101
18780SOL    HW257782   5.587   0.339   7.989
18781SOL     OW57783   6.156   1.300   8.635
18781SOL    HW157784   6.072   1.307   8.590
18781SOL    HW257785   6.172   1.387   8.670
18782SOL     OW57786   7.161   1.515   8.155
18782SOL    HW157787   7.114   1.498   8.237
18782SOL    HW257788   7.093   1.523   8.089
18783SOL     OW57789   7.371   0.600   7.674
18783SOL    HW157790   7.342   0.596   7.582
18783SOL    HW257791   7.330   0.523   7.714
18784SOL     OW57792   6.324   1.145   8.485
18784SOL    HW157793   6.258   1.177   8.547
18784SOL    HW257794   6.364   1.224   8.449
18785SOL     OW57795   6.465   0.754   9.270
18785SOL    HW157796   6.448   0.823   9.334
18785SOL    HW257797   6.486   0.800   9.189
18786SOL     OW57798   6.285   1.001   8.102
18786SOL    HW157799   6.326   0.982   8.186
18786SOL    HW257800   6.208   1.053   8.123
18787SOL     OW57801   6.303   1.154   9.274
18787SOL    HW157802   6.351   1.230   9.306
18787SOL    HW257803   6.225   1.190   9.233
18788SOL     OW57804   5.924   1.405   8.514
18788SOL    HW157805   5.846   1.367   8.473
18788SOL    HW257806   5.961   1.462   8.447
18789SOL     OW57807   7.045   1.506   8.815
18789SOL    HW157808   7.099   1.584   8.826
18789SOL    HW257809   6.972   1.518   8.876
18790SOL     OW57810   6.028   0.384   8.929
18790SOL    HW157811   6.111   0.335   8.931
18790SOL    HW257812   5.960   0.317   8.932
18791SOL     OW57813   7.201   0.459   8.168
18791SOL    HW157814   7.128   0.469   8.106
18791SOL    HW257815   7.211   0.545   8.207
18792SOL     OW57816   5.808   1.714   7.914
18792SOL    HW157817   5.828   1.790   7.969
18792SOL    HW257818   5.880   1.712   7.851
18793SOL     OW57819   6.722   1.341   9.139
18793SOL    HW157820   6.763   1.335   9.225
18793SOL    HW257821   6.670   1.261   9.131
18794SOL     OW57822   5.820   1.451   7.995
18794SOL    HW157823   5.804   1.545   7.984
18794SOL    HW257824   5.756   1.423   8.060
18795SOL     OW57825   5.871   1.091   8.343
18795SOL    HW157826   5.853   1.002   8.373
18795SOL    HW257827   5.809   1.146   8.391
18796SOL     OW57828   6.194   1.781   8.891
18796SOL    HW157829   6.107   1.770   8.928
18796SOL    HW257830   6.216   1.873   8.907
18797SOL     OW57831   6.165   0.989   7.590
18797SOL    HW157832   6.211   1.036   7.521
18797SOL    HW257833   6.201   1.023   7.672
18798SOL     OW57834   7.245   0.119   8.937
18798SOL    HW157835   7.174   0.093   8.878
18798SOL    HW257836   7.201   0.157   9.013
18799SOL     OW57837   5.718   0.654   8.012
18799SOL    HW157838   5.682   0.567   8.030
18799SOL    HW257839   5.702   0.704   8.093
18800SOL     OW57840   7.430   1.749   7.776
18800SOL    HW157841   7.499   1.728   7.838
18800SOL    HW257842   7.445   1.842   7.754
18801SOL     OW57843   5.632   1.583   7.568
18801SOL    HW157844   5.608   1.494   7.591
18801SOL    HW257845   5.603   1.636   7.643
18802SOL     OW57846   7.271   0.914   8.089
18802SOL    HW157847   7.348   0.868   8.056
18802SOL    HW257848   7.246   0.972   8.017
18803SOL     OW57849   7.231   1.103   7.885
18803SOL    HW157850   7.317   1.104   7.842
18803SOL    HW257851   7.239   1.167   7.956
18804SOL     OW57852   5.698   0.753   9.031
18804SOL    HW157853   5.783   0.798   9.033
18804SOL    HW257854   5.634   0.822   9.016
18805SOL     OW57855   6.204   1.389   8.186
18805SOL    HW157856   6.156   1.306   8.190
18805SOL    HW257857   6.187   1.421   8.098
18806SOL     OW57858   6.869   1.233   8.869
18806SOL    HW157859   6.900   1.167   8.807
18806SOL    HW257860   6.929   1.227   8.943
18807SOL     OW57861   6.427   0.044   8.015
18807SOL    HW157862   6.459   0.125   7.976
18807SOL    HW257863   6.335   0.038   7.986
18808SOL     OW57864   5.772   0.953   8.744
18808SOL    HW157865   5.857   0.917   8.719
18808SOL    HW257866   5.715   0.935   8.670
18809SOL     OW57867   7.120   1.007   7.648
18809SOL    HW157868   7.051   0.948   7.679
18809SOL    HW257869   7.160   1.041   7.728
18810SOL     OW57870   6.773   1.823   9.082
18810SOL    HW157871   6.772   1.888   9.013
18810SOL    HW257872   6.793   1.741   9.038
18811SOL     OW57873   5.901   0.242   9.234
18811SOL    HW157874   5.959   0.312   9.266
18811SOL    HW257875   5.819   0.255   9.282
18812SOL     OW57876   7.051   1.423   8.397
18812SOL    HW157877   6.984   1.437   8.464
18812SOL    HW257878   7.040   1.332   8.371
18813SOL     OW57879   7.242   1.762   8.023
18813SOL    HW157880   7.219   1.730   7.935
18813SOL    HW257881   7.221   1.688   8.080
18814SOL     OW57882   6.169   0.729   7.716
18814SOL    HW157883   6.164   0.814   7.671
18814SOL    HW257884   6.105   0.736   7.787
18815SOL     OW57885   6.887   0.366   8.385
18815SOL    HW157886   6.796   0.338   8.388
18815SOL    HW257887   6.931   0.313   8.451
18816SOL     OW57888   7.164   1.671   7.762
18816SOL    HW157889   7.256   1.695   7.751
18816SOL    HW257890   7.132   1.658   7.673
18817SOL     OW57891   6.358   0.647   8.893
18817SOL    HW157892   6.345   0.611   8.981
18817SOL    HW257893   6.345   0.572   8.835
18818SOL     OW57894   6.995   0.490   9.127
18818SOL    HW157895   6.995   0.531   9.213
18818SOL    HW257896   7.064   0.424   9.132
18819SOL     OW57897   6.534   0.883   9.033
18819SOL    HW157898   6.583   0.811   8.992
18819SOL    HW257899   6.485   0.922   8.961
18820SOL     OW57900   6.592   0.417   8.653
18820SOL    HW157901   6.507   0.437   8.691
18820SOL    HW257902   6.573   0.360   8.579
18821SOL     OW57903   6.623   0.672   7.879
18821SOL    HW157904   6.622   0.623   7.962
18821SOL    HW257905   6.541   0.649   7.836
18822SOL     OW57906   5.672   0.812   8.229
18822SOL    HW157907   5.750   0.812   8.285
18822SOL    HW257908   5.621   0.888   8.259
18823SOL     OW57909   5.706   1.875   9.029
18823SOL    HW157910   5.709   1.849   9.121
18823SOL    HW257911   5.615   1.857   9.002
18824SOL     OW57912   6.472   0.350   7.652
18824SOL    HW157913   6.515   0.399   7.582
18824SOL    HW257914   6.447   0.267   7.613
18825SOL     OW57915   7.314   0.569   9.272
18825SOL    HW157916   7.271   0.644   9.231
18825SOL    HW257917   7.334   0.511   9.199
18826SOL     OW57918   6.954   1.128   7.984
18826SOL    HW157919   7.037   1.119   7.937
18826SOL    HW257920   6.908   1.198   7.938
18827SOL     OW57921   6.154   0.203   8.382
18827SOL    HW157922   6.125   0.274   8.439
18827SOL    HW257923   6.171   0.246   8.297
18828SOL     OW57924   6.577   1.447   7.921
18828SOL    HW157925   6.554   1.516   7.858
18828SOL    HW257926   6.544   1.479   8.005
18829SOL     OW57927   5.938   1.819   8.322
18829SOL    HW157928   5.987   1.736   8.330
18829SOL    HW257929   6.003   1.887   8.341
18830SOL     OW57930   7.384   1.035   8.326
18830SOL    HW157931   7.332   1.028   8.246
18830SOL    HW257932   7.320   1.049   8.396
18831SOL     OW57933   6.810   1.546   8.959
18831SOL    HW157934   6.795   1.470   9.015
18831SOL    HW257935   6.725   1.562   8.918
18832SOL     OW57936   5.895   0.956   7.706
18832SOL    HW157937   5.970   0.982   7.654
18832SOL    HW257938   5.861   0.878   7.663
18833SOL     OW57939   7.069   0.746   8.172
18833SOL    HW157940   7.066   0.711   8.261
18833SOL    HW257941   7.144   0.805   8.172
18834SOL     OW57942   6.055   1.272   9.188
18834SOL    HW157943   6.030   1.277   9.096
18834SOL    HW257944   5.972   1.266   9.235
18835SOL     OW57945   6.720   1.769   7.684
18835SOL    HW157946   6.636   1.738   7.718
18835SOL    HW257947   6.740   1.710   7.612
18836SOL     OW57948   5.770   0.250   8.956
18836SOL    HW157949   5.711   0.324   8.938
18836SOL    HW257950   5.788   0.257   9.050
18837SOL     OW57951   7.220   1.382   7.548
18837SOL    HW157952   7.181   1.468   7.531
18837SOL    HW257953   7.152   1.320   7.521
18838SOL     OW57954   6.051   1.735   7.767
18838SOL    HW157955   6.095   1.795   7.827
18838SOL    HW257956   6.120   1.704   7.709
18839SOL     OW57957   7.006   0.125   7.844
18839SOL    HW157958   7.032   0.098   7.755
18839SOL    HW257959   7.089   0.137   7.890
18840SOL     OW57960   5.840   1.788   8.669
18840SOL    HW157961   5.888   1.709   8.695
18840SOL    HW257962   5.814   1.771   8.578
18841SOL     OW57963   6.529   1.703   8.340
18841SOL    HW157964   6.613   1.659   8.355
18841SOL    HW257965   6.487   1.652   8.271
18842SOL     OW57966   5.991   0.690   7.930
18842SOL    HW157967   6.008   0.596   7.942
18842SOL    HW257968   5.897   0.699   7.943
18843SOL     OW57969   7.146   0.225   9.170
18843SOL    HW157970   7.164   0.258   9.258
18843SOL    HW257971   7.055   0.198   9.172
18844SOL     OW57972   6.177   0.139   7.548
18844SOL    HW157973   6.251   0.091   7.586
18844SOL    HW257974   6.152   0.088   7.471
18845SOL     OW57975   6.334   0.281   9.228
18845SOL    HW157976   6.367   0.192   9.219
18845SOL    HW257977   6.267   0.275   9.296
18846SOL     OW57978   6.460   1.519   8.641
18846SOL    HW157979   6.440   1.487   8.554
18846SOL    HW257980   6.530   1.463   8.673
18847SOL     OW57981   6.923   0.598   8.884
18847SOL    HW157982   6.960   0.570   8.967
18847SOL    HW257983   6.959   0.686   8.870
18848SOL     OW57984   6.411   1.388   8.391
18848SOL    HW157985   6.495   1.385   8.346
18848SOL    HW257986   6.347   1.404   8.321
18849SOL     OW57987   6.526   0.526   8.332
18849SOL    HW157988   6.501   0.516   8.240
18849SOL    HW257989   6.552   0.439   8.360
18850SOL     OW57990   6.179   0.036   7.881
18850SOL    HW157991   6.110  -0.016   7.923
18850SOL    HW257992   6.138   0.121   7.864
18851SOL     OW57993   7.015   1.208   7.484
18851SOL    HW157994   7.041   1.133   7.536
18851SOL    HW257995   6.928   1.231   7.517
18852SOL     OW57996   5.867   0.051   7.656
18852SOL    HW157997   5.936   0.101   7.613
18852SOL    HW257998   5.913  -0.001   7.722
18853SOL     OW57999   6.542   0.273   7.909
18853SOL    HW158000   6.509   0.296   7.822
18853SOL    HW258001   6.637   0.278   7.902
18854SOL     OW58002   6.660   0.673   8.905
18854SOL    HW158003   6.607   0.594   8.918
18854SOL    HW258004   6.750   0.640   8.899
18855SOL     OW58005   6.802   1.580   8.249
18855SOL    HW158006   6.811   1.641   8.176
18855SOL    HW258007   6.869   1.608   8.311
18856SOL     OW58008   6.065   1.149   8.165
18856SOL    HW158009   6.000   1.132   8.232
18856SOL    HW258010   6.017   1.143   8.082
18857SOL     OW58011   6.843   1.790   8.065
18857SOL    HW158012   6.892   1.851   8.010
18857SOL    HW258013   6.773   1.843   8.102
18858SOL     OW58014   6.607   0.523   7.475
18858SOL    HW158015   6.564   0.606   7.451
18858SOL    HW258016   6.671   0.548   7.541
18859SOL     OW58017   5.688   0.551   8.848
18859SOL    HW158018   5.778   0.559   8.818
18859SOL    HW258019   5.678   0.623   8.911
18860SOL     OW58020   6.147   0.255   8.670
18860SOL    HW158021   6.184   0.187   8.726
18860SOL    HW258022   6.053   0.239   8.672
18861SOL     OW58023   6.487   0.497   8.064
18861SOL    HW158024   6.414   0.534   8.014
18861SOL    HW258025   6.499   0.409   8.028
18862SOL     OW58026   6.549   0.030   8.252
18862SOL    HW158027   6.505   0.039   8.168
18862SOL    HW258028   6.581  -0.060   8.254
18863SOL     OW58029   7.038   1.163   8.304
18863SOL    HW158030   6.964   1.105   8.286
18863SOL    HW258031   7.081   1.175   8.219
18864SOL     OW58032   7.044   0.613   8.415
18864SOL    HW158033   6.997   0.529   8.413
18864SOL    HW258034   7.107   0.603   8.487
18865SOL     OW58035   7.422   0.805   7.844
18865SOL    HW158036   7.486   0.757   7.898
18865SOL    HW258037   7.403   0.746   7.772
18866SOL     OW58038   6.075   1.419   7.598
18866SOL    HW158039   6.003   1.391   7.654
18866SOL    HW258040   6.059   1.376   7.514
18867SOL     OW58041   7.257   1.256   8.107
18867SOL    HW158042   7.352   1.253   8.118
18867SOL    HW258043   7.235   1.348   8.118
18868SOL     OW58044   6.987   0.580   7.519
18868SOL    HW158045   6.923   0.556   7.586
18868SOL    HW258046   7.070   0.548   7.553
18869SOL     OW58047   6.087   0.276   7.760
18869SOL    HW158048   6.125   0.226   7.688
18869SOL    HW258049   6.063   0.360   7.722
18870SOL     OW58050   7.328   1.244   9.006
18870SOL    HW158051   7.415   1.208   8.986
18870SOL    HW258052   7.345   1.333   9.036
18871SOL     OW58053   6.641   1.339   8.762
18871SOL    HW158054   6.563   1.319   8.814
18871SOL    HW258055   6.714   1.306   8.815
18872SOL     OW58056   7.197   1.627   9.111
18872SOL    HW158057   7.187   1.665   9.024
18872SOL    HW258058   7.279   1.577   9.106
18873SOL     OW58059   6.706   1.190   8.539
18873SOL    HW158060   6.667   1.239   8.611
18873SOL    HW258061   6.691   1.245   8.462
18874SOL     OW58062   7.203   1.094   8.524
18874SOL    HW158063   7.195   1.160   8.593
18874SOL    HW258064   7.133   1.116   8.462
18875SOL     OW58065   6.515   0.131   8.862
18875SOL    HW158066   6.519   0.110   8.769
18875SOL    HW258067   6.605   0.125   8.893
18876SOL     OW58068   6.570   1.112   9.174
18876SOL    HW158069   6.479   1.130   9.199
18876SOL    HW258070   6.565   1.034   9.118
18877SOL     OW58071   6.302   1.066   7.821
18877SOL    HW158072   6.280   1.044   7.912
18877SOL    HW258073   6.383   1.018   7.803
18878SOL     OW58074   6.011   0.823   8.693
18878SOL    HW158075   6.072   0.840   8.765
18878SOL    HW258076   5.979   0.735   8.710
18879SOL     OW58077   6.848   0.382   8.737
18879SOL    HW158078   6.877   0.463   8.777
18879SOL    HW258079   6.760   0.402   8.703
18880SOL     OW58080   5.658   1.573   8.805
18880SOL    HW158081   5.622   1.643   8.750
18880SOL    HW258082   5.753   1.581   8.795
18881SOL     OW58083   5.926   1.123   7.931
18881SOL    HW158084   5.916   1.199   7.874
18881SOL    HW258085   5.918   1.048   7.872
18882SOL     OW58086   6.132   0.536   8.310
18882SOL    HW158087   6.149   0.592   8.233
18882SOL    HW258088   6.203   0.558   8.371
18883SOL     OW58089   6.826   1.348   7.855
18883SOL    HW158090   6.885   1.420   7.877
18883SOL    HW258091   6.739   1.380   7.879
18884SOL     OW58092   6.876   1.462   8.606
18884SOL    HW158093   6.938   1.472   8.678
18884SOL    HW258094   6.804   1.411   8.643
18885SOL     OW58095   7.161   0.629   7.928
18885SOL    HW158096   7.114   0.682   7.992
18885SOL    HW258097   7.209   0.693   7.874
18886SOL     OW58098   5.932   1.531   8.751
18886SOL    HW158099   5.922   1.482   8.670
18886SOL    HW258100   6.027   1.543   8.760
18887SOL     OW58101   6.013   0.743   9.062
18887SOL    HW158102   6.065   0.794   9.001
18887SOL    HW258103   6.063   0.661   9.073
18888SOL     OW58104   7.202   0.781   9.145
18888SOL    HW158105   7.115   0.820   9.138
18888SOL    HW258106   7.251   0.819   9.072
18889SOL     OW58107   6.632   0.074   9.195
18889SOL    HW158108   6.647   0.166   9.173
18889SOL    HW258109   6.538   0.062   9.183
18890SOL     OW58110   6.090   0.035   9.174
18890SOL    HW158111   6.064  -0.030   9.110
18890SOL    HW258112   6.014   0.093   9.182
18891SOL     OW58113   6.185   0.872   8.485
18891SOL    HW158114   6.199   0.967   8.480
18891SOL    HW258115   6.119   0.862   8.554
18892SOL     OW58116   6.919   0.851   8.471
18892SOL    HW158117   6.829   0.819   8.465
18892SOL    HW258118   6.974   0.774   8.457
18893SOL     OW58119   6.786   0.530   7.703
18893SOL    HW158120   6.797   0.447   7.750
18893SOL    HW258121   6.738   0.586   7.764
18894SOL     OW58122   5.883   0.198   8.680
18894SOL    HW158123   5.812   0.203   8.745
18894SOL    HW258124   5.870   0.112   8.639
18895SOL     OW58125   5.638   1.312   8.722
18895SOL    HW158126   5.668   1.260   8.797
18895SOL    HW258127   5.639   1.402   8.754
18896SOL     OW58128   6.311   0.627   8.498
18896SOL    HW158129   6.386   0.622   8.439
18896SOL    HW258130   6.277   0.715   8.485
18897SOL     OW58131   7.332   0.952   9.321
18897SOL    HW158132   7.285   0.890   9.265
18897SOL    HW258133   7.268   0.978   9.387
18898SOL     OW58134   5.992   0.101   8.110
18898SOL    HW158135   5.941   0.179   8.132
18898SOL    HW258136   5.928   0.041   8.072
18899SOL     OW58137   7.226   0.396   7.804
18899SOL    HW158138   7.235   0.322   7.864
18899SOL    HW258139   7.195   0.468   7.859
18900SOL     OW58140   6.648   0.756   8.414
18900SOL    HW158141   6.624   0.767   8.506
18900SOL    HW258142   6.618   0.668   8.391
18901SOL     OW58143   6.569   1.566   9.173
18901SOL    HW158144   6.550   1.610   9.090
18901SOL    HW258145   6.610   1.483   9.148
18902SOL     OW58146   7.436   1.497   9.050
18902SOL    HW158147   7.456   1.526   8.962
18902SOL    HW258148   7.517   1.512   9.099
18903SOL     OW58149   5.937   0.911   9.266
18903SOL    HW158150   6.018   0.935   9.310
18903SOL    HW258151   5.962   0.848   9.199
18904SOL     OW58152   7.161   0.309   7.555
18904SOL    HW158153   7.067   0.296   7.562
18904SOL    HW258154   7.189   0.330   7.645
18905SOL     OW58155   6.875   0.828   7.477
18905SOL    HW158156   6.917   0.742   7.481
18905SOL    HW258157   6.904   0.866   7.394
18906SOL     OW58158   6.670   1.345   8.305
18906SOL    HW158159   6.692   1.281   8.237
18906SOL    HW258160   6.720   1.423   8.282
18907SOL     OW58161   5.891   0.811   8.395
18907SOL    HW158162   5.984   0.828   8.379
18907SOL    HW258163   5.889   0.722   8.430
18908SOL     OW58164   5.916   0.539   8.466
18908SOL    HW158165   5.875   0.455   8.448
18908SOL    HW258166   5.992   0.542   8.407
18909SOL     OW58167   6.748   0.359   9.162
18909SOL    HW158168   6.680   0.415   9.199
18909SOL    HW258169   6.819   0.419   9.140
18910SOL     OW58170   6.774   0.207   8.931
18910SOL    HW158171   6.757   0.263   9.006
18910SOL    HW258172   6.794   0.268   8.859
18911SOL     OW58173   5.605   1.308   7.634
18911SOL    HW158174   5.517   1.327   7.603
18911SOL    HW258175   5.598   1.222   7.676
18912SOL     OW58176   5.682   1.770   8.403
18912SOL    HW158177   5.649   1.698   8.349
18912SOL    HW258178   5.766   1.793   8.364
18913SOL     OW58179   6.076   1.574   8.354
18913SOL    HW158180   6.145   1.638   8.373
18913SOL    HW258181   6.118   1.513   8.293
18914SOL     OW58182   6.555   0.779   8.668
18914SOL    HW158183   6.611   0.756   8.742
18914SOL    HW258184   6.467   0.756   8.697
18915SOL     OW58185   5.620   0.545   8.571
18915SOL    HW158186   5.697   0.545   8.514
18915SOL    HW258187   5.656   0.546   8.660
18916SOL     OW58188   5.775   0.533   9.179
18916SOL    HW158189   5.853   0.520   9.125
18916SOL    HW258190   5.729   0.606   9.138
18917SOL     OW58191   6.973   0.926   9.104
18917SOL    HW158192   6.993   1.020   9.100
18917SOL    HW258193   6.966   0.900   9.012
18918SOL     OW58194   6.388   0.581   7.794
18918SOL    HW158195   6.391   0.501   7.741
18918SOL    HW258196   6.310   0.627   7.763
18919SOL     OW58197   7.229   0.612   8.615
18919SOL    HW158198   7.220   0.555   8.692
18919SOL    HW258199   7.318   0.595   8.583
18920SOL     OW58200   5.826   1.547   9.167
18920SOL    HW158201   5.802   1.616   9.228
18920SOL    HW258202   5.827   1.467   9.221
18921SOL     OW58203   6.322   0.456   8.708
18921SOL    HW158204   6.258   0.386   8.697
18921SOL    HW258205   6.307   0.514   8.633
18922SOL     OW58206   6.528   1.667   8.911
18922SOL    HW158207   6.487   1.631   8.833
18922SOL    HW258208   6.518   1.762   8.902
18923SOL     OW58209   6.036   0.504   7.626
18923SOL    HW158210   6.092   0.579   7.647
18923SOL    HW258211   5.949   0.542   7.615
18924SOL     OW58212   5.725   1.146   8.930
18924SOL    HW158213   5.727   1.104   9.016
18924SOL    HW258214   5.741   1.075   8.868
18925SOL     OW58215   6.902   1.043   8.664
18925SOL    HW158216   6.925   0.980   8.596
18925SOL    HW258217   6.833   1.097   8.625
18926SOL     OW58218   6.911   0.858   7.750
18926SOL    HW158219   6.834   0.832   7.800
18926SOL    HW258220   6.886   0.846   7.658
18927SOL     OW58221   7.369   1.732   8.609
18927SOL    HW158222   7.432   1.759   8.542
18927SOL    HW258223   7.341   1.644   8.582
18928SOL     OW58224   6.825   1.729   8.543
18928SOL    HW158225   6.909   1.757   8.505
18928SOL    HW258226   6.839   1.638   8.569
18929SOL     OW58227   5.687   1.251   8.464
18929SOL    HW158228   5.665   1.273   8.554
18929SOL    HW258229   5.606   1.217   8.426
18930SOL     OW58230   6.260   1.679   9.191
18930SOL    HW158231   6.191   1.745   9.191
18930SOL    HW258232   6.317   1.703   9.118
18931SOL     OW58233   7.265   0.158   7.940
18931SOL    HW158234   7.300   0.121   7.859
18931SOL    HW258235   7.323   0.125   8.008
18932SOL     OW58236   6.980   1.568   7.944
18932SOL    HW158237   7.036   1.602   7.874
18932SOL    HW258238   6.926   1.643   7.970
18933SOL     OW58239   5.733   1.787   9.287
18933SOL    HW158240   5.682   1.722   9.335
18933SOL    HW258241   5.774   1.840   9.355
18934SOL     OW58242   6.853   0.899   8.105
18934SOL    HW158243   6.930   0.843   8.116
18934SOL    HW258244   6.885   0.973   8.053
18935SOL     OW58245   6.387   1.287   8.871
18935SOL    HW158246   6.361   1.327   8.954
18935SOL    HW258247   6.316   1.308   8.811
18936SOL     OW58248   6.256   1.623   7.603
18936SOL    HW158249   6.266   1.641   7.509
18936SOL    HW258250   6.198   1.547   7.607
18937SOL     OW58251   7.206   1.728   8.843
18937SOL    HW158252   7.260   1.732   8.765
18937SOL    HW258253   7.191   1.820   8.867
18938SOL     OW58254   7.449   0.181   8.412
18938SOL    HW158255   7.456   0.095   8.371
18938SOL    HW258256   7.363   0.214   8.383
18939SOL     OW58257   5.850   0.331   8.160
18939SOL    HW158258   5.762   0.352   8.128
18939SOL    HW258259   5.840   0.326   8.255
18940SOL     OW58260   6.797   1.598   7.481
18940SOL    HW158261   6.783   1.507   7.504
18940SOL    HW258262   6.731   1.616   7.414
18941SOL     OW58263   6.410   1.018   8.825
18941SOL    HW158264   6.448   1.016   8.737
18941SOL    HW258265   6.403   1.111   8.846
18942SOL     OW58266   6.533   0.933   7.780
18942SOL    HW158267   6.575   0.955   7.697
18942SOL    HW258268   6.565   0.845   7.800
18943SOL     OW58269   7.076   1.627   7.498
18943SOL    HW158270   6.982   1.618   7.482
18943SOL    HW258271   7.114   1.634   7.410
18944SOL     OW58272   5.955   1.307   8.940
18944SOL    HW158273   5.942   1.384   8.885
18944SOL    HW258274   5.876   1.254   8.927
18945SOL     OW58275   7.189   1.290   8.720
18945SOL    HW158276   7.253   1.274   8.790
18945SOL    HW258277   7.129   1.355   8.757
18946SOL     OW58278   6.623   1.112   8.135
18946SOL    HW158279   6.531   1.134   8.151
18946SOL    HW258280   6.637   1.136   8.043
18947SOL     OW58281   6.626   0.263   8.393
18947SOL    HW158282   6.598   0.206   8.321
18947SOL    HW258283   6.632   0.204   8.469
18948SOL     OW58284   6.194   1.494   7.935
18948SOL    HW158285   6.238   1.445   7.865
18948SOL    HW258286   6.118   1.534   7.893
18949SOL     OW58287   7.313   0.432   8.812
18949SOL    HW158288   7.395   0.481   8.817
18949SOL    HW258289   7.336   0.353   8.764
18950SOL     OW58290   5.861   1.335   7.758
18950SOL    HW158291   5.774   1.334   7.718
18950SOL    HW258292   5.850   1.383   7.840
18951SOL     OW58293   5.707   1.047   9.188
18951SOL    HW158294   5.628   1.016   9.232
18951SOL    HW258295   5.778   0.994   9.225
18952SOL     OW58296   6.263   0.230   8.953
18952SOL    HW158297   6.337   0.177   8.923
18952SOL    HW258298   6.282   0.247   9.045
18953SOL     OW58299   5.662   0.329   7.481
18953SOL    HW158300   5.567   0.319   7.473
18953SOL    HW258301   5.682   0.406   7.427
18954SOL     OW58302   7.008   0.859   8.841
18954SOL    HW158303   6.957   0.921   8.789
18954SOL    HW258304   7.096   0.863   8.804
18955SOL     OW58305   5.676   0.236   7.758
18955SOL    HW158306   5.665   0.279   7.673
18955SOL    HW258307   5.731   0.160   7.739
18956SOL     OW58308   6.759   1.330   7.564
18956SOL    HW158309   6.664   1.320   7.556
18956SOL    HW258310   6.776   1.328   7.658
18957SOL     OW58311   6.196   0.855   8.888
18957SOL    HW158312   6.254   0.929   8.873
18957SOL    HW258313   6.254   0.779   8.891
18958SOL     OW58314   7.069   1.789   8.427
18958SOL    HW158315   7.082   1.863   8.368
18958SOL    HW258316   7.155   1.771   8.463
18959SOL     OW58317   6.307   0.554   9.143
18959SOL    HW158318   6.351   0.616   9.201
18959SOL    HW258319   6.325   0.468   9.182
18960SOL     OW58320   7.060   1.186   9.075
18960SOL    HW158321   7.049   1.209   9.167
18960SOL    HW258322   7.151   1.211   9.054
18961SOL     OW58323   5.951   1.744   9.013
18961SOL    HW158324   5.871   1.792   8.993
18961SOL    HW258325   5.921   1.662   9.052
18962SOL     OW58326   7.246   0.880   8.703
18962SOL    HW158327   7.243   0.797   8.657
18962SOL    HW258328   7.236   0.946   8.634
18963SOL     OW58329   6.814   0.316   7.888
18963SOL    HW158330   6.875   0.245   7.869
18963SOL    HW258331   6.848   0.356   7.969
18964SOL     OW58332   6.187   0.733   8.119
18964SOL    HW158333   6.219   0.821   8.100
18964SOL    HW258334   6.118   0.718   8.055
18965SOL     OW58335   7.370   0.387   9.069
18965SOL    HW158336   7.335   0.405   8.982
18965SOL    HW258337   7.315   0.316   9.103
18966SOL     OW58338   7.343   0.916   8.958
18966SOL    HW158339   7.336   1.010   8.974
18966SOL    HW258340   7.321   0.905   8.866
18967SOL     OW58341   6.474   1.369   7.507
18967SOL    HW158342   6.417   1.396   7.579
18967SOL    HW258343   6.475   1.445   7.449
18968SOL     OW58344   6.251   1.778   8.380
18968SOL    HW158345   6.226   1.870   8.366
18968SOL    HW258346   6.347   1.779   8.376
18969SOL     OW58347   6.452   0.958   8.333
18969SOL    HW158348   6.460   0.888   8.397
18969SOL    HW258349   6.409   1.029   8.381
18970SOL     OW58350   6.657   0.980   7.544
18970SOL    HW158351   6.634   1.036   7.470
18970SOL    HW258352   6.732   0.929   7.514
18971SOL     OW58353   7.426   1.554   8.292
18971SOL    HW158354   7.353   1.548   8.231
18971SOL    HW258355   7.395   1.513   8.372
18972SOL     OW58356   5.801   1.292   9.295
18972SOL    HW158357   5.762   1.217   9.250
18972SOL    HW258358   5.742   1.308   9.369
18973SOL     OW58359   5.673   1.227   8.115
18973SOL    HW158360   5.685   1.176   8.195
18973SOL    HW258361   5.741   1.195   8.056
18974SOL     OW58362   6.278   1.411   9.091
18974SOL    HW158363   6.195   1.372   9.118
18974SOL    HW258364   6.273   1.502   9.123
18975SOL     OW58365   7.414   0.213   8.688
18975SOL    HW158366   7.339   0.154   8.691
18975SOL    HW258367   7.440   0.215   8.596
18976SOL     OW58368   6.034   0.429   7.984
18976SOL    HW158369   6.035   0.367   7.911
18976SOL    HW258370   5.964   0.396   8.042
18977SOL     OW58371   7.287   1.481   8.526
18977SOL    HW158372   7.204   1.468   8.481
18977SOL    HW258373   7.287   1.417   8.597
18978SOL     OW58374   5.935   0.566   8.743
18978SOL    HW158375   5.982   0.500   8.794
18978SOL    HW258376   5.945   0.536   8.652
18979SOL     OW58377   6.422   1.590   8.112
18979SOL    HW158378   6.412   1.671   8.063
18979SOL    HW258379   6.340   1.542   8.097
18980SOL     OW58380   7.008   0.222   8.579
18980SOL    HW158381   7.073   0.171   8.628
18980SOL    HW258382   6.959   0.269   8.646
18981SOL     OW58383   6.595   0.082   8.596
18981SOL    HW158384   6.509   0.074   8.554
18981SOL    HW258385   6.620  -0.008   8.616
18982SOL     OW58386   6.354   1.338   7.771
18982SOL    HW158387   6.328   1.246   7.777
18982SOL    HW258388   6.437   1.343   7.819
18983SOL     OW58389   6.208   1.552   8.743
18983SOL    HW158390   6.207   1.632   8.794
18983SOL    HW258391   6.294   1.551   8.701
18984SOL     OW58392   6.932   7.974   7.564
18984SOL    HW158393   6.989   7.898   7.577
18984SOL    HW258394   6.861   7.961   7.627
18985SOL     OW58395   6.894   0.438   8.122
18985SOL    HW158396   6.835   0.513   8.129
18985SOL    HW258397   6.902   0.405   8.211
18986SOL     OW58398   7.205   0.238   8.327
18986SOL    HW158399   7.116   0.211   8.351
18986SOL    HW258400   7.192   0.312   8.267
18987SOL     OW58401   5.627   1.061   7.763
18987SOL    HW158402   5.720   1.051   7.741
18987SOL    HW258403   5.599   0.972   7.785
18988SOL     OW58404   6.476   1.662   7.778
18988SOL    HW158405   6.401   1.647   7.721
18988SOL    HW258406   6.448   1.733   7.837
18989SOL     OW58407   5.797   0.626   9.445
18989SOL    HW158408   5.709   0.618   9.482
18989SOL    HW258409   5.786   0.605   9.353
18990SOL     OW58410   5.809   0.306  10.293
18990SOL    HW158411   5.846   0.261  10.368
18990SOL    HW258412   5.725   0.262  10.277
18991SOL     OW58413   5.596   0.399   9.930
18991SOL    HW158414   5.507   0.408   9.964
18991SOL    HW258415   5.589   0.333   9.862
18992SOL     OW58416   6.152   1.301  10.502
18992SOL    HW158417   6.071   1.308  10.452
18992SOL    HW258418   6.174   1.392  10.526
18993SOL     OW58419   7.164   1.518  10.016
18993SOL    HW158420   7.118   1.494  10.096
18993SOL    HW258421   7.095   1.524   9.950
18994SOL     OW58422   6.727   0.696  10.004
18994SOL    HW158423   6.771   0.781   9.991
18994SOL    HW258424   6.674   0.708  10.082
18995SOL     OW58425   7.382   0.597   9.532
18995SOL    HW158426   7.346   0.594   9.443
18995SOL    HW258427   7.338   0.525   9.578
18996SOL     OW58428   6.326   1.136  10.365
18996SOL    HW158429   6.260   1.175  10.423
18996SOL    HW258430   6.364   1.210  10.317
18997SOL     OW58431   6.471   0.752  11.133
18997SOL    HW158432   6.477   0.821  11.199
18997SOL    HW258433   6.489   0.796  11.050
18998SOL     OW58434   6.273   0.992   9.953
18998SOL    HW158435   6.339   0.990  10.023
18998SOL    HW258436   6.205   1.050   9.987
18999SOL     OW58437   6.300   1.172  11.128
18999SOL    HW158438   6.356   1.230  11.178
18999SOL    HW258439   6.264   1.228  11.058
19000SOL     OW58440   5.917   1.413  10.381
19000SOL    HW158441   5.844   1.370  10.337
19000SOL    HW258442   5.959   1.466  10.313
19001SOL     OW58443   7.044   1.503  10.677
19001SOL    HW158444   7.098   1.581  10.685
19001SOL    HW258445   6.973   1.516  10.741
19002SOL     OW58446   6.025   0.382  10.793
19002SOL    HW158447   6.111   0.340  10.795
19002SOL    HW258448   5.963   0.309  10.784
19003SOL     OW58449   7.191   0.449  10.027
19003SOL    HW158450   7.108   0.457   9.980
19003SOL    HW258451   7.203   0.535  10.069
19004SOL     OW58452   5.808   1.716   9.775
19004SOL    HW158453   5.830   1.792   9.830
19004SOL    HW258454   5.879   1.712   9.711
19005SOL     OW58455   6.727   1.343  11.006
19005SOL    HW158456   6.770   1.333  11.091
19005SOL    HW258457   6.677   1.262  10.994
19006SOL     OW58458   5.820   1.453   9.854
19006SOL    HW158459   5.804   1.547   9.843
19006SOL    HW258460   5.756   1.426   9.920
19007SOL     OW58461   5.863   1.094  10.204
19007SOL    HW158462   5.856   1.003  10.234
19007SOL    HW258463   5.801   1.142  10.258
19008SOL     OW58464   6.184   1.794  10.737
19008SOL    HW158465   6.101   1.785  10.782
19008SOL    HW258466   6.215   1.882  10.760
19009SOL     OW58467   6.163   0.987   9.453
19009SOL    HW158468   6.211   1.033   9.384
19009SOL    HW258469   6.201   1.020   9.534
19010SOL     OW58470   7.253   0.114  10.804
19010SOL    HW158471   7.188   0.113  10.734
19010SOL    HW258472   7.205   0.143  10.881
19011SOL     OW58473   5.717   0.653   9.874
19011SOL    HW158474   5.678   0.567   9.890
19011SOL    HW258475   5.701   0.701   9.956
19012SOL     OW58476   7.430   1.751   9.638
19012SOL    HW158477   7.499   1.729   9.700
19012SOL    HW258478   7.445   1.843   9.616
19013SOL     OW58479   5.634   1.584   9.432
19013SOL    HW158480   5.608   1.494   9.453
19013SOL    HW258481   5.603   1.635   9.507
19014SOL     OW58482   7.277   0.923   9.954
19014SOL    HW158483   7.352   0.875   9.917
19014SOL    HW258484   7.249   0.981   9.883
19015SOL     OW58485   7.235   1.105   9.742
19015SOL    HW158486   7.321   1.105   9.700
19015SOL    HW258487   7.242   1.169   9.812
19016SOL     OW58488   5.702   0.751  10.891
19016SOL    HW158489   5.789   0.792  10.882
19016SOL    HW258490   5.641   0.820  10.868
19017SOL     OW58491   6.197   1.392  10.050
19017SOL    HW158492   6.154   1.307  10.051
19017SOL    HW258493   6.186   1.423   9.960
19018SOL     OW58494   6.867   1.230  10.732
19018SOL    HW158495   6.895   1.163  10.670
19018SOL    HW258496   6.930   1.224  10.804
19019SOL     OW58497   6.428   0.038   9.876
19019SOL    HW158498   6.464   0.118   9.837
19019SOL    HW258499   6.336   0.037   9.848
19020SOL     OW58500   5.768   0.961  10.604
19020SOL    HW158501   5.853   0.922  10.584
19020SOL    HW258502   5.713   0.938  10.529
19021SOL     OW58503   7.119   1.002   9.512
19021SOL    HW158504   7.049   0.945   9.544
19021SOL    HW258505   7.159   1.038   9.591
19022SOL     OW58506   6.760   1.814  10.940
19022SOL    HW158507   6.767   1.881  10.873
19022SOL    HW258508   6.783   1.733  10.896
19023SOL     OW58509   5.896   0.240  11.081
19023SOL    HW158510   5.962   0.300  11.115
19023SOL    HW258511   5.822   0.249  11.140
19024SOL     OW58512   7.055   1.420  10.251
19024SOL    HW158513   6.989   1.437  10.317
19024SOL    HW258514   7.040   1.328  10.225
19025SOL     OW58515   7.241   1.763   9.884
19025SOL    HW158516   7.219   1.731   9.797
19025SOL    HW258517   7.221   1.689   9.942
19026SOL     OW58518   6.180   0.722   9.584
19026SOL    HW158519   6.179   0.807   9.540
19026SOL    HW258520   6.115   0.730   9.653
19027SOL     OW58521   6.885   0.374  10.245
19027SOL    HW158522   6.793   0.347  10.247
19027SOL    HW258523   6.928   0.317  10.309
19028SOL     OW58524   7.164   1.672   9.624
19028SOL    HW158525   7.256   1.696   9.613
19028SOL    HW258526   7.132   1.658   9.535
19029SOL     OW58527   6.354   0.645  10.760
19029SOL    HW158528   6.343   0.608  10.847
19029SOL    HW258529   6.347   0.570  10.700
19030SOL     OW58530   6.995   0.490  10.990
19030SOL    HW158531   6.995   0.533  11.075
19030SOL    HW258532   7.069   0.429  10.994
19031SOL     OW58533   6.534   0.883  10.895
19031SOL    HW158534   6.584   0.810  10.856
19031SOL    HW258535   6.485   0.920  10.822
19032SOL     OW58536   6.594   0.411  10.518
19032SOL    HW158537   6.506   0.431  10.551
19032SOL    HW258538   6.580   0.373  10.432
19033SOL     OW58539   6.644   0.698   9.734
19033SOL    HW158540   6.663   0.690   9.827
19033SOL    HW258541   6.558   0.657   9.723
19034SOL     OW58542   5.672   0.808  10.096
19034SOL    HW158543   5.753   0.812  10.147
19034SOL    HW258544   5.623   0.886  10.123
19035SOL     OW58545   5.700   1.851  10.890
19035SOL    HW158546   5.699   1.834  10.984
19035SOL    HW258547   5.608   1.856  10.865
19036SOL     OW58548   6.471   0.356   9.518
19036SOL    HW158549   6.513   0.406   9.448
19036SOL    HW258550   6.444   0.274   9.477
19037SOL     OW58551   7.301   0.575  11.140
19037SOL    HW158552   7.263   0.650  11.093
19037SOL    HW258553   7.321   0.512  11.071
19038SOL     OW58554   6.967   1.143   9.847
19038SOL    HW158555   7.045   1.135   9.793
19038SOL    HW258556   6.912   1.206   9.801
19039SOL     OW58557   6.141   0.204  10.247
19039SOL    HW158558   6.121   0.285  10.295
19039SOL    HW258559   6.164   0.234  10.159
19040SOL     OW58560   6.583   1.450   9.777
19040SOL    HW158561   6.554   1.522   9.721
19040SOL    HW258562   6.552   1.473   9.864
19041SOL     OW58563   5.941   1.819  10.187
19041SOL    HW158564   5.989   1.737  10.192
19041SOL    HW258565   6.007   1.887  10.201
19042SOL     OW58566   7.388   1.042  10.187
19042SOL    HW158567   7.336   1.027  10.107
19042SOL    HW258568   7.322   1.052  10.256
19043SOL     OW58569   6.808   1.542  10.824
19043SOL    HW158570   6.799   1.469  10.884
19043SOL    HW258571   6.745   1.524  10.754
19044SOL     OW58572   5.895   0.959   9.569
19044SOL    HW158573   5.975   0.983   9.523
19044SOL    HW258574   5.864   0.880   9.523
19045SOL     OW58575   7.072   0.753  10.029
19045SOL    HW158576   7.066   0.717  10.117
19045SOL    HW258577   7.148   0.811  10.031
19046SOL     OW58578   5.958   1.247  11.092
19046SOL    HW158579   5.977   1.274  11.002
19046SOL    HW258580   5.977   1.153  11.093
19047SOL     OW58581   6.718   1.770   9.546
19047SOL    HW158582   6.635   1.737   9.581
19047SOL    HW258583   6.740   1.709   9.475
19048SOL     OW58584   5.765   0.240  10.820
19048SOL    HW158585   5.717   0.320  10.798
19048SOL    HW258586   5.797   0.255  10.909
19049SOL     OW58587   7.219   1.381   9.408
19049SOL    HW158588   7.180   1.467   9.393
19049SOL    HW258589   7.150   1.319   9.383
19050SOL     OW58590   6.050   1.736   9.628
19050SOL    HW158591   6.096   1.794   9.688
19050SOL    HW258592   6.119   1.703   9.570
19051SOL     OW58593   6.994   0.131   9.715
19051SOL    HW158594   7.003   0.094   9.627
19051SOL    HW258595   7.084   0.139   9.747
19052SOL     OW58596   5.837   1.781  10.529
19052SOL    HW158597   5.902   1.712  10.542
19052SOL    HW258598   5.810   1.772  10.438
19053SOL     OW58599   6.531   1.698  10.202
19053SOL    HW158600   6.617   1.655  10.209
19053SOL    HW258601   6.487   1.650  10.132
19054SOL     OW58602   5.989   0.685   9.787
19054SOL    HW158603   6.007   0.592   9.804
19054SOL    HW258604   5.895   0.694   9.800
19055SOL     OW58605   7.140   0.206  11.036
19055SOL    HW158606   7.150   0.246  11.123
19055SOL    HW258607   7.051   0.170  11.037
19056SOL     OW58608   6.174   0.137   9.412
19056SOL    HW158609   6.250   0.090   9.447
19056SOL    HW258610   6.151   0.089   9.333
19057SOL     OW58611   6.326   0.288  11.087
19057SOL    HW158612   6.373   0.205  11.081
19057SOL    HW258613   6.264   0.274  11.159
19058SOL     OW58614   6.456   1.516  10.507
19058SOL    HW158615   6.443   1.484  10.418
19058SOL    HW258616   6.532   1.467  10.539
19059SOL     OW58617   6.922   0.597  10.745
19059SOL    HW158618   6.960   0.569  10.829
19059SOL    HW258619   6.959   0.684  10.730
19060SOL     OW58620   6.403   1.382  10.257
19060SOL    HW158621   6.489   1.376  10.216
19060SOL    HW258622   6.342   1.396  10.185
19061SOL     OW58623   6.513   0.522  10.201
19061SOL    HW158624   6.486   0.515  10.109
19061SOL    HW258625   6.550   0.436  10.222
19062SOL     OW58626   6.180   0.037   9.742
19062SOL    HW158627   6.109  -0.014   9.780
19062SOL    HW258628   6.141   0.122   9.720
19063SOL     OW58629   7.014   1.206   9.348
19063SOL    HW158630   7.039   1.130   9.401
19063SOL    HW258631   6.928   1.230   9.381
19064SOL     OW58632   5.870   0.056   9.521
19064SOL    HW158633   5.931   0.098   9.461
19064SOL    HW258634   5.922  -0.013   9.563
19065SOL     OW58635   6.538   0.265   9.771
19065SOL    HW158636   6.508   0.296   9.685
19065SOL    HW258637   6.632   0.282   9.770
19066SOL     OW58638   6.659   0.671  10.773
19066SOL    HW158639   6.607   0.592  10.786
19066SOL    HW258640   6.749   0.639  10.764
19067SOL     OW58641   6.795   1.586  10.112
19067SOL    HW158642   6.808   1.645  10.038
19067SOL    HW258643   6.869   1.605  10.170
19068SOL     OW58644   6.062   1.153  10.029
19068SOL    HW158645   5.996   1.134  10.095
19068SOL    HW258646   6.016   1.145   9.946
19069SOL     OW58647   6.844   1.792   9.927
19069SOL    HW158648   6.894   1.852   9.871
19069SOL    HW258649   6.773   1.846   9.962
19070SOL     OW58650   6.605   0.524   9.338
19070SOL    HW158651   6.562   0.607   9.316
19070SOL    HW258652   6.667   0.548   9.407
19071SOL     OW58653   5.695   0.538  10.722
19071SOL    HW158654   5.783   0.549  10.684
19071SOL    HW258655   5.684   0.613  10.780
19072SOL     OW58656   6.152   0.253  10.536
19072SOL    HW158657   6.189   0.185  10.592
19072SOL    HW258658   6.058   0.234  10.535
19073SOL     OW58659   6.455   0.475   9.941
19073SOL    HW158660   6.418   0.527   9.870
19073SOL    HW258661   6.472   0.389   9.903
19074SOL     OW58662   6.542   0.035  10.117
19074SOL    HW158663   6.501   0.041  10.031
19074SOL    HW258664   6.576  -0.055  10.121
19075SOL     OW58665   7.029   1.158  10.164
19075SOL    HW158666   6.952   1.102  10.158
19075SOL    HW258667   7.058   1.169  10.074
19076SOL     OW58668   7.047   0.616  10.271
19076SOL    HW158669   6.994   0.536  10.269
19076SOL    HW258670   7.105   0.605  10.345
19077SOL     OW58671   7.426   0.805   9.704
19077SOL    HW158672   7.485   0.757   9.762
19077SOL    HW258673   7.404   0.743   9.635
19078SOL     OW58674   6.076   1.420   9.459
19078SOL    HW158675   6.003   1.391   9.514
19078SOL    HW258676   6.063   1.375   9.376
19079SOL     OW58677   7.263   1.262   9.958
19079SOL    HW158678   7.357   1.260   9.973
19079SOL    HW258679   7.238   1.353   9.974
19080SOL     OW58680   6.985   0.574   9.386
19080SOL    HW158681   6.914   0.556   9.449
19080SOL    HW258682   7.065   0.548   9.432
19081SOL     OW58683   6.090   0.277   9.625
19081SOL    HW158684   6.123   0.226   9.552
19081SOL    HW258685   6.066   0.362   9.587
19082SOL     OW58686   7.330   1.242  10.865
19082SOL    HW158687   7.418   1.208  10.849
19082SOL    HW258688   7.345   1.332  10.896
19083SOL     OW58689   6.640   1.356  10.647
19083SOL    HW158690   6.564   1.323  10.695
19083SOL    HW258691   6.715   1.310  10.685
19084SOL     OW58692   7.196   1.627  10.972
19084SOL    HW158693   7.186   1.664  10.884
19084SOL    HW258694   7.277   1.577  10.968
19085SOL     OW58695   6.730   1.223  10.412
19085SOL    HW158696   6.663   1.256  10.473
19085SOL    HW258697   6.702   1.255  10.326
19086SOL     OW58698   7.202   1.093  10.383
19086SOL    HW158699   7.192   1.158  10.452
19086SOL    HW258700   7.131   1.111  10.322
19087SOL     OW58701   6.507   0.126  10.718
19087SOL    HW158702   6.514   0.110  10.624
19087SOL    HW258703   6.597   0.124  10.750
19088SOL     OW58704   6.571   1.116  11.029
19088SOL    HW158705   6.479   1.133  11.053
19088SOL    HW258706   6.568   1.037  10.976
19089SOL     OW58707   6.298   1.063   9.682
19089SOL    HW158708   6.282   1.040   9.774
19089SOL    HW258709   6.374   1.010   9.657
19090SOL     OW58710   6.004   0.830  10.564
19090SOL    HW158711   6.072   0.842  10.630
19090SOL    HW258712   5.977   0.738  10.574
19091SOL     OW58713   6.851   0.378  10.596
19091SOL    HW158714   6.881   0.460  10.636
19091SOL    HW258715   6.764   0.398  10.563
19092SOL     OW58716   5.659   1.573  10.668
19092SOL    HW158717   5.612   1.636  10.614
19092SOL    HW258718   5.752   1.593  10.653
19093SOL     OW58719   5.917   1.126   9.797
19093SOL    HW158720   5.914   1.200   9.737
19093SOL    HW258721   5.915   1.049   9.740
19094SOL     OW58722   6.134   0.533  10.175
19094SOL    HW158723   6.144   0.591  10.099
19094SOL    HW258724   6.206   0.556  10.233
19095SOL     OW58725   6.831   1.350   9.706
19095SOL    HW158726   6.887   1.422   9.735
19095SOL    HW258727   6.743   1.375   9.735
19096SOL     OW58728   6.883   1.462  10.457
19096SOL    HW158729   6.935   1.466  10.537
19096SOL    HW258730   6.831   1.382  10.466
19097SOL     OW58731   7.157   0.637   9.789
19097SOL    HW158732   7.108   0.673   9.863
19097SOL    HW258733   7.188   0.713   9.741
19098SOL     OW58734   5.942   1.521  10.626
19098SOL    HW158735   5.924   1.479  10.542
19098SOL    HW258736   6.036   1.539  10.624
19099SOL     OW58737   6.009   0.752  10.923
19099SOL    HW158738   6.066   0.796  10.860
19099SOL    HW258739   6.054   0.670  10.942
19100SOL     OW58740   7.201   0.786  11.002
19100SOL    HW158741   7.114   0.825  10.995
19100SOL    HW258742   7.251   0.825  10.931
19101SOL     OW58743   6.633   0.074  11.056
19101SOL    HW158744   6.648   0.165  11.030
19101SOL    HW258745   6.539   0.061  11.043
19102SOL     OW58746   6.091   0.033  11.038
19102SOL    HW158747   6.066  -0.031  10.972
19102SOL    HW258748   6.016   0.094  11.043
19103SOL     OW58749   6.182   0.873  10.349
19103SOL    HW158750   6.212   0.964  10.346
19103SOL    HW258751   6.115   0.872  10.417
19104SOL     OW58752   6.919   0.856  10.328
19104SOL    HW158753   6.832   0.840  10.291
19104SOL    HW258754   6.967   0.774  10.313
19105SOL     OW58755   6.782   0.529   9.565
19105SOL    HW158756   6.790   0.451   9.620
19105SOL    HW258757   6.740   0.594   9.622
19106SOL     OW58758   5.886   0.195  10.541
19106SOL    HW158759   5.807   0.197  10.596
19106SOL    HW258760   5.879   0.113  10.492
19107SOL     OW58761   5.609   1.312  10.601
19107SOL    HW158762   5.669   1.262  10.657
19107SOL    HW258763   5.629   1.403  10.619
19108SOL     OW58764   6.311   0.629  10.366
19108SOL    HW158765   6.383   0.619  10.305
19108SOL    HW258766   6.278   0.717  10.350
19109SOL     OW58767   7.330   0.959  11.177
19109SOL    HW158768   7.287   0.892  11.124
19109SOL    HW258769   7.267   0.981  11.246
19110SOL     OW58770   5.993   0.085   9.979
19110SOL    HW158771   5.932   0.158   9.986
19110SOL    HW258772   5.952   0.025   9.916
19111SOL     OW58773   7.223   0.403   9.668
19111SOL    HW158774   7.231   0.330   9.730
19111SOL    HW258775   7.194   0.477   9.721
19112SOL     OW58776   6.619   0.764  10.271
19112SOL    HW158777   6.606   0.776  10.365
19112SOL    HW258778   6.587   0.675  10.254
19113SOL     OW58779   6.558   1.556  11.034
19113SOL    HW158780   6.544   1.605  10.953
19113SOL    HW258781   6.612   1.481  11.009
19114SOL     OW58782   7.436   1.498  10.913
19114SOL    HW158783   7.458   1.526  10.825
19114SOL    HW258784   7.516   1.512  10.963
19115SOL     OW58785   5.960   0.956  11.103
19115SOL    HW158786   6.028   0.946  11.169
19115SOL    HW258787   5.974   0.883  11.043
19116SOL     OW58788   7.175   0.301   9.423
19116SOL    HW158789   7.080   0.289   9.422
19116SOL    HW258790   7.194   0.332   9.512
19117SOL     OW58791   6.875   0.825   9.338
19117SOL    HW158792   6.918   0.740   9.343
19117SOL    HW258793   6.906   0.863   9.255
19118SOL     OW58794   6.659   1.346  10.173
19118SOL    HW158795   6.665   1.275  10.109
19118SOL    HW258796   6.712   1.416  10.135
19119SOL     OW58797   5.896   0.816  10.256
19119SOL    HW158798   5.988   0.829  10.233
19119SOL    HW258799   5.893   0.727  10.292
19120SOL     OW58800   5.919   0.544  10.330
19120SOL    HW158801   5.876   0.461  10.311
19120SOL    HW258802   5.995   0.546  10.273
19121SOL     OW58803   6.751   0.359  11.020
19121SOL    HW158804   6.686   0.416  11.061
19121SOL    HW258805   6.827   0.416  11.004
19122SOL     OW58806   6.761   0.211  10.790
19122SOL    HW158807   6.759   0.266  10.868
19122SOL    HW258808   6.790   0.269  10.719
19123SOL     OW58809   5.605   1.308   9.498
19123SOL    HW158810   5.517   1.328   9.467
19123SOL    HW258811   5.598   1.222   9.538
19124SOL     OW58812   5.686   1.770  10.269
19124SOL    HW158813   5.651   1.699  10.215
19124SOL    HW258814   5.769   1.792  10.228
19125SOL     OW58815   6.078   1.574  10.222
19125SOL    HW158816   6.148   1.637  10.241
19125SOL    HW258817   6.116   1.513  10.159
19126SOL     OW58818   6.553   0.781  10.537
19126SOL    HW158819   6.609   0.756  10.611
19126SOL    HW258820   6.466   0.746  10.561
19127SOL     OW58821   5.619   0.548  10.435
19127SOL    HW158822   5.687   0.540  10.368
19127SOL    HW258823   5.666   0.538  10.518
19128SOL     OW58824   5.779   0.538  11.049
19128SOL    HW158825   5.853   0.511  10.994
19128SOL    HW258826   5.738   0.610  11.001
19129SOL     OW58827   6.970   0.929  10.965
19129SOL    HW158828   6.991   1.022  10.960
19129SOL    HW258829   6.964   0.901  10.873
19130SOL     OW58830   6.402   0.578   9.683
19130SOL    HW158831   6.408   0.503   9.624
19130SOL    HW258832   6.328   0.629   9.650
19131SOL     OW58833   7.225   0.606  10.480
19131SOL    HW158834   7.217   0.551  10.558
19131SOL    HW258835   7.313   0.588  10.447
19132SOL     OW58836   5.824   1.527  11.079
19132SOL    HW158837   5.794   1.615  11.103
19132SOL    HW258838   5.912   1.521  11.116
19133SOL     OW58839   6.326   0.455  10.572
19133SOL    HW158840   6.262   0.384  10.560
19133SOL    HW258841   6.310   0.514  10.499
19134SOL     OW58842   6.495   1.675  10.787
19134SOL    HW158843   6.482   1.635  10.701
19134SOL    HW258844   6.497   1.769  10.770
19135SOL     OW58845   6.039   0.504   9.489
19135SOL    HW158846   6.097   0.577   9.511
19135SOL    HW258847   5.953   0.545   9.478
19136SOL     OW58848   5.737   1.149  10.795
19136SOL    HW158849   5.731   1.101  10.877
19136SOL    HW258850   5.748   1.082  10.728
19137SOL     OW58851   6.900   1.041  10.526
19137SOL    HW158852   6.917   0.977  10.457
19137SOL    HW258853   6.840   1.104  10.486
19138SOL     OW58854   6.908   0.854   9.613
19138SOL    HW158855   6.833   0.828   9.665
19138SOL    HW258856   6.879   0.845   9.522
19139SOL     OW58857   7.372   1.729  10.474
19139SOL    HW158858   7.433   1.757  10.405
19139SOL    HW258859   7.342   1.643  10.445
19140SOL     OW58860   6.828   1.732  10.415
19140SOL    HW158861   6.909   1.759  10.373
19140SOL    HW258862   6.839   1.639  10.433
19141SOL     OW58863   5.679   1.248  10.335
19141SOL    HW158864   5.641   1.269  10.421
19141SOL    HW258865   5.608   1.204  10.288
19142SOL     OW58866   6.257   1.661  11.043
19142SOL    HW158867   6.202   1.739  11.039
19142SOL    HW258868   6.329   1.679  10.982
19143SOL     OW58869   7.257   0.152   9.799
19143SOL    HW158870   7.324   0.129   9.734
19143SOL    HW258871   7.295   0.125   9.883
19144SOL     OW58872   6.982   1.569   9.807
19144SOL    HW158873   7.037   1.602   9.737
19144SOL    HW258874   6.927   1.643   9.832
19145SOL     OW58875   5.730   1.776  11.153
19145SOL    HW158876   5.673   1.719  11.206
19145SOL    HW258877   5.773   1.832  11.216
19146SOL     OW58878   6.866   0.930   9.979
19146SOL    HW158879   6.940   0.871   9.989
19146SOL    HW258880   6.899   1.002   9.925
19147SOL     OW58881   6.386   1.282  10.736
19147SOL    HW158882   6.348   1.313  10.818
19147SOL    HW258883   6.326   1.312  10.668
19148SOL     OW58884   6.256   1.624   9.465
19148SOL    HW158885   6.266   1.642   9.372
19148SOL    HW258886   6.198   1.548   9.469
19149SOL     OW58887   7.204   1.727  10.705
19149SOL    HW158888   7.260   1.731  10.627
19149SOL    HW258889   7.189   1.819  10.728
19150SOL     OW58890   7.454   0.168  10.258
19150SOL    HW158891   7.440   0.081  10.297
19150SOL    HW258892   7.367   0.194  10.227
19151SOL     OW58893   5.836   0.301  10.016
19151SOL    HW158894   5.754   0.341   9.987
19151SOL    HW258895   5.837   0.316  10.111
19152SOL     OW58896   6.797   1.599   9.344
19152SOL    HW158897   6.783   1.507   9.368
19152SOL    HW258898   6.731   1.616   9.277
19153SOL     OW58899   6.409   1.013  10.686
19153SOL    HW158900   6.447   1.002  10.599
19153SOL    HW258901   6.406   1.108  10.699
19154SOL     OW58902   6.508   0.913   9.609
19154SOL    HW158903   6.564   0.945   9.538
19154SOL    HW258904   6.559   0.844   9.650
19155SOL     OW58905   7.077   1.625   9.360
19155SOL    HW158906   6.983   1.617   9.344
19155SOL    HW258907   7.115   1.633   9.272
19156SOL     OW58908   5.956   1.331  10.830
19156SOL    HW158909   5.952   1.396  10.760
19156SOL    HW258910   5.895   1.263  10.803
19157SOL     OW58911   7.189   1.289  10.582
19157SOL    HW158912   7.254   1.273  10.650
19157SOL    HW258913   7.130   1.354  10.620
19158SOL     OW58914   6.656   1.115  10.032
19158SOL    HW158915   6.580   1.067  10.063
19158SOL    HW258916   6.716   1.048  10.000
19159SOL     OW58917   6.626   0.267  10.260
19159SOL    HW158918   6.598   0.214  10.185
19159SOL    HW258919   6.630   0.206  10.333
19160SOL     OW58920   6.197   1.493   9.797
19160SOL    HW158921   6.244   1.441   9.731
19160SOL    HW258922   6.121   1.528   9.750
19161SOL     OW58923   7.309   0.430  10.688
19161SOL    HW158924   7.389   0.483  10.692
19161SOL    HW258925   7.334   0.353  10.636
19162SOL     OW58926   5.861   1.335   9.618
19162SOL    HW158927   5.774   1.335   9.578
19162SOL    HW258928   5.850   1.384   9.700
19163SOL     OW58929   5.704   1.076  11.071
19163SOL    HW158930   5.626   1.033  11.106
19163SOL    HW258931   5.776   1.018  11.095
19164SOL     OW58932   6.263   0.230  10.815
19164SOL    HW158933   6.337   0.177  10.786
19164SOL    HW258934   6.284   0.252  10.906
19165SOL     OW58935   5.663   0.331   9.341
19165SOL    HW158936   5.569   0.319   9.328
19165SOL    HW258937   5.686   0.408   9.289
19166SOL     OW58938   7.008   0.858  10.703
19166SOL    HW158939   6.956   0.918  10.649
19166SOL    HW258940   7.095   0.861  10.665
19167SOL     OW58941   5.672   0.228   9.616
19167SOL    HW158942   5.661   0.276   9.533
19167SOL    HW258943   5.735   0.159   9.595
19168SOL     OW58944   6.760   1.331   9.425
19168SOL    HW158945   6.666   1.315   9.421
19168SOL    HW258946   6.781   1.330   9.519
19169SOL     OW58947   6.196   0.855  10.751
19169SOL    HW158948   6.257   0.926  10.732
19169SOL    HW258949   6.251   0.777  10.756
19170SOL     OW58950   7.067   1.792  10.291
19170SOL    HW158951   7.083   1.864  10.230
19170SOL    HW258952   7.154   1.766  10.321
19171SOL     OW58953   6.293   0.563  11.014
19171SOL    HW158954   6.347   0.620  11.069
19171SOL    HW258955   6.313   0.474  11.044
19172SOL     OW58956   7.061   1.188  10.935
19172SOL    HW158957   7.051   1.208  11.029
19172SOL    HW258958   7.151   1.211  10.915
19173SOL     OW58959   5.952   1.745  10.873
19173SOL    HW158960   5.868   1.790  10.861
19173SOL    HW258961   5.929   1.652  10.870
19174SOL     OW58962   7.246   0.879  10.564
19174SOL    HW158963   7.241   0.795  10.519
19174SOL    HW258964   7.234   0.944  10.494
19175SOL     OW58965   6.807   0.327   9.760
19175SOL    HW158966   6.870   0.256   9.747
19175SOL    HW258967   6.840   0.374   9.837
19176SOL     OW58968   6.166   0.737   9.992
19176SOL    HW158969   6.210   0.820   9.974
19176SOL    HW258970   6.106   0.725   9.919
19177SOL     OW58971   7.341   0.380  10.954
19177SOL    HW158972   7.323   0.398  10.861
19177SOL    HW258973   7.282   0.308  10.975
19178SOL     OW58974   7.341   0.929  10.818
19178SOL    HW158975   7.325   1.022  10.832
19178SOL    HW258976   7.318   0.915  10.726
19179SOL     OW58977   6.468   1.367   9.367
19179SOL    HW158978   6.417   1.393   9.444
19179SOL    HW258979   6.471   1.445   9.312
19180SOL     OW58980   6.253   1.778  10.251
19180SOL    HW158981   6.231   1.869  10.230
19180SOL    HW258982   6.348   1.774  10.238
19181SOL     OW58983   6.457   0.976  10.166
19181SOL    HW158984   6.507   0.903  10.202
19181SOL    HW258985   6.415   1.016  10.242
19182SOL     OW58986   6.664   0.986   9.402
19182SOL    HW158987   6.640   1.040   9.326
19182SOL    HW258988   6.737   0.933   9.371
19183SOL     OW58989   7.426   1.556  10.154
19183SOL    HW158990   7.353   1.548  10.092
19183SOL    HW258991   7.397   1.509  10.232
19184SOL     OW58992   5.676   1.226   9.975
19184SOL    HW158993   5.698   1.174  10.052
19184SOL    HW258994   5.741   1.200   9.909
19185SOL     OW58995   6.230   1.382  10.949
19185SOL    HW158996   6.147   1.389  10.902
19185SOL    HW258997   6.246   1.470  10.983
19186SOL     OW58998   7.409   0.227  10.544
19186SOL    HW158999   7.341   0.160  10.538
19186SOL    HW259000   7.440   0.237  10.453
19187SOL     OW59001   6.029   0.422   9.852
19187SOL    HW159002   6.038   0.366   9.775
19187SOL    HW259003   5.957   0.383   9.902
19188SOL     OW59004   7.285   1.481  10.390
19188SOL    HW159005   7.204   1.466  10.340
19188SOL    HW259006   7.283   1.415  10.459
19189SOL     OW59007   5.935   0.567  10.605
19189SOL    HW159008   5.985   0.502  10.653
19189SOL    HW259009   5.946   0.543  10.513
19190SOL     OW59010   6.419   1.592   9.975
19190SOL    HW159011   6.409   1.670   9.920
19190SOL    HW259012   6.342   1.539   9.956
19191SOL     OW59013   7.009   0.217  10.434
19191SOL    HW159014   7.074   0.170  10.486
19191SOL    HW259015   6.958   0.266  10.499
19192SOL     OW59016   6.592   0.076  10.452
19192SOL    HW159017   6.507   0.067  10.410
19192SOL    HW259018   6.618  -0.013  10.476
19193SOL     OW59019   6.358   1.334   9.638
19193SOL    HW159020   6.332   1.242   9.644
19193SOL    HW259021   6.442   1.338   9.683
19194SOL     OW59022   6.211   1.555  10.610
19194SOL    HW159023   6.210   1.641  10.652
19194SOL    HW259024   6.296   1.550  10.568
19195SOL     OW59025   6.930   7.978   9.457
19195SOL    HW159026   6.979   7.896   9.455
19195SOL    HW259027   6.851   7.957   9.507
19196SOL     OW59028   6.894   0.466   9.984
19196SOL    HW159029   6.839   0.545   9.984
19196SOL    HW259030   6.889   0.434  10.074
19197SOL     OW59031   7.204   0.231  10.188
19197SOL    HW159032   7.118   0.223  10.229
19197SOL    HW259033   7.195   0.305  10.128
19198SOL     OW59034   5.627   1.061   9.627
19198SOL    HW159035   5.719   1.052   9.604
19198SOL    HW259036   5.599   0.972   9.649
19199SOL     OW59037   6.474   1.665   9.643
19199SOL    HW159038   6.399   1.649   9.585
19199SOL    HW259039   6.446   1.737   9.699
19200SOL     OW59040   5.798   0.647  11.306
19200SOL    HW159041   5.711   0.629  11.344
19200SOL    HW259042   5.791   0.617  11.215
19201SOL     OW59043   5.793   0.311  12.164
19201SOL    HW159044   5.838   0.263  12.234
19201SOL    HW259045   5.714   0.259  12.146
19202SOL     OW59046   5.590   0.402  11.808
19202SOL    HW159047   5.502   0.424  11.838
19202SOL    HW259048   5.583   0.310  11.779
19203SOL     OW59049   6.122   1.252  12.336
19203SOL    HW159050   6.053   1.302  12.293
19203SOL    HW259051   6.135   1.296  12.420
19204SOL     OW59052   7.165   1.519  11.883
19204SOL    HW159053   7.123   1.496  11.966
19204SOL    HW259054   7.093   1.523  11.820
19205SOL     OW59055   6.723   0.699  11.864
19205SOL    HW159056   6.767   0.783  11.856
19205SOL    HW259057   6.671   0.707  11.944
19206SOL     OW59058   7.387   0.593  11.394
19206SOL    HW159059   7.352   0.590  11.305
19206SOL    HW259060   7.342   0.521  11.439
19207SOL     OW59061   6.335   1.127  12.230
19207SOL    HW159062   6.256   1.162  12.271
19207SOL    HW259063   6.371   1.201  12.181
19208SOL     OW59064   6.267   0.998  11.817
19208SOL    HW159065   6.336   0.990  11.883
19208SOL    HW259066   6.201   1.054  11.859
19209SOL     OW59067   5.928   1.424  12.215
19209SOL    HW159068   5.858   1.402  12.154
19209SOL    HW259069   5.987   1.480  12.165
19210SOL     OW59070   7.198   0.452  11.898
19210SOL    HW159071   7.128   0.467  11.834
19210SOL    HW259072   7.192   0.526  11.958
19211SOL     OW59073   5.811   1.713  11.637
19211SOL    HW159074   5.830   1.788  11.694
19211SOL    HW259075   5.885   1.709  11.576
19212SOL     OW59076   5.806   1.442  11.692
19212SOL    HW159077   5.800   1.538  11.690
19212SOL    HW259078   5.757   1.417  11.770
19213SOL     OW59079   5.839   1.080  12.090
19213SOL    HW159080   5.865   0.989  12.076
19213SOL    HW259081   5.823   1.085  12.185
19214SOL     OW59082   6.157   0.998  11.312
19214SOL    HW159083   6.206   1.044  11.244
19214SOL    HW259084   6.199   1.024  11.394
19215SOL     OW59085   5.709   0.654  11.732
19215SOL    HW159086   5.675   0.567  11.751
19215SOL    HW259087   5.701   0.702  11.814
19216SOL     OW59088   7.430   1.749  11.500
19216SOL    HW159089   7.499   1.727  11.562
19216SOL    HW259090   7.445   1.842  11.479
19217SOL     OW59091   5.606   1.577  11.294
19217SOL    HW159092   5.536   1.512  11.301
19217SOL    HW259093   5.595   1.633  11.371
19218SOL     OW59094   7.273   0.921  11.820
19218SOL    HW159095   7.356   0.878  11.800
19218SOL    HW259096   7.253   0.973  11.742
19219SOL     OW59097   7.236   1.103  11.605
19219SOL    HW159098   7.322   1.103  11.564
19219SOL    HW259099   7.242   1.167  11.675
19220SOL     OW59100   5.762   0.751   0.220
19220SOL    HW159101   5.740   0.722   0.308
19220SOL    HW259102   5.684   0.797   0.189
19221SOL     OW59103   6.197   1.395  11.900
19221SOL    HW159104   6.152   1.311  11.909
19221SOL    HW259105   6.181   1.422  11.810
19222SOL     OW59106   6.426   0.029  11.725
19222SOL    HW159107   6.462   0.111  11.694
19222SOL    HW259108   6.331   0.039  11.716
19223SOL     OW59109   5.765   1.004  12.368
19223SOL    HW159110   5.849   0.959  12.382
19223SOL    HW259111   5.704   0.958  12.426
19224SOL     OW59112   7.118   1.004  11.374
19224SOL    HW159113   7.048   0.947  11.406
19224SOL    HW259114   7.160   1.038  11.453
19225SOL     OW59115   7.060   1.414  12.118
19225SOL    HW159116   6.991   1.431  12.183
19225SOL    HW259117   7.043   1.324  12.089
19226SOL     OW59118   7.237   1.766  11.746
19226SOL    HW159119   7.217   1.728  11.660
19226SOL    HW259120   7.224   1.693  11.808
19227SOL     OW59121   6.181   0.717  11.446
19227SOL    HW159122   6.188   0.804  11.407
19227SOL    HW259123   6.117   0.727  11.516
19228SOL     OW59124   6.878   0.376  12.107
19228SOL    HW159125   6.788   0.344  12.109
19228SOL    HW259126   6.926   0.320  12.168
19229SOL     OW59127   7.164   1.672  11.486
19229SOL    HW159128   7.256   1.695  11.477
19229SOL    HW259129   7.134   1.657  11.396
19230SOL     OW59130   6.578   0.377  12.373
19230SOL    HW159131   6.497   0.412  12.409
19230SOL    HW259132   6.554   0.347  12.285
19231SOL     OW59133   6.643   0.700  11.596
19231SOL    HW159134   6.664   0.692  11.689
19231SOL    HW259135   6.559   0.655  11.586
19232SOL     OW59136   5.680   0.818  11.950
19232SOL    HW159137   5.765   0.811  11.993
19232SOL    HW259138   5.632   0.883  12.002
19233SOL     OW59139   6.472   0.354  11.381
19233SOL    HW159140   6.516   0.401  11.310
19233SOL    HW259141   6.457   0.266  11.346
19234SOL     OW59142   6.966   1.142  11.707
19234SOL    HW159143   7.047   1.132  11.656
19234SOL    HW259144   6.915   1.205  11.658
19235SOL     OW59145   6.084   0.221  12.094
19235SOL    HW159146   6.109   0.255  12.180
19235SOL    HW259147   6.129   0.278  12.031
19236SOL     OW59148   6.581   1.446  11.637
19236SOL    HW159149   6.553   1.523  11.587
19236SOL    HW259150   6.559   1.467  11.728
19237SOL     OW59151   5.943   1.818  12.045
19237SOL    HW159152   5.994   1.738  12.053
19237SOL    HW259153   6.005   1.889  12.063
19238SOL     OW59154   7.382   1.051  12.048
19238SOL    HW159155   7.328   1.030  11.972
19238SOL    HW259156   7.319   1.059  12.120
19239SOL     OW59157   5.892   0.960  11.432
19239SOL    HW159158   5.975   0.980  11.387
19239SOL    HW259159   5.871   0.871  11.403
19240SOL     OW59160   7.065   0.756  11.889
19240SOL    HW159161   7.063   0.715  11.976
19240SOL    HW259162   7.143   0.810  11.890
19241SOL     OW59163   6.714   1.776  11.401
19241SOL    HW159164   6.635   1.739  11.442
19241SOL    HW259165   6.738   1.713  11.334
19242SOL     OW59166   7.221   1.382  11.269
19242SOL    HW159167   7.181   1.468  11.254
19242SOL    HW259168   7.153   1.320  11.244
19243SOL     OW59169   6.053   1.732  11.490
19243SOL    HW159170   6.097   1.792  11.551
19243SOL    HW259171   6.123   1.705  11.430
19244SOL     OW59172   7.011   0.134  11.567
19244SOL    HW159173   7.043   0.108  11.481
19244SOL    HW259174   7.090   0.148  11.619
19245SOL     OW59175   5.826   1.786  12.398
19245SOL    HW159176   5.818   1.711  12.457
19245SOL    HW259177   5.786   1.756  12.316
19246SOL     OW59178   6.534   1.694  12.069
19246SOL    HW159179   6.617   1.647  12.077
19246SOL    HW259180   6.486   1.647  12.001
19247SOL     OW59181   5.985   0.688  11.646
19247SOL    HW159182   6.005   0.596  11.665
19247SOL    HW259183   5.891   0.695  11.662
19248SOL     OW59184   6.173   0.139  11.275
19248SOL    HW159185   6.248   0.094  11.314
19248SOL    HW259186   6.152   0.087  11.197
19249SOL     OW59187   6.397   1.354  12.099
19249SOL    HW159188   6.486   1.366  12.067
19249SOL    HW259189   6.341   1.378  12.025
19250SOL     OW59190   6.511   0.520  12.061
19250SOL    HW159191   6.483   0.514  11.970
19250SOL    HW259192   6.548   0.434  12.081
19251SOL     OW59193   6.168   0.036  11.598
19251SOL    HW159194   6.096  -0.004  11.646
19251SOL    HW259195   6.139   0.126  11.581
19252SOL     OW59196   7.017   1.205  11.209
19252SOL    HW159197   7.045   1.130  11.262
19252SOL    HW259198   6.932   1.230  11.245
19253SOL     OW59199   5.875   0.058  11.394
19253SOL    HW159200   5.955   0.097  11.357
19253SOL    HW259201   5.907  -0.011  11.452
19254SOL     OW59202   6.538   0.262  11.635
19254SOL    HW159203   6.509   0.295  11.550
19254SOL    HW259204   6.632   0.277  11.636
19255SOL     OW59205   6.801   1.583  11.971
19255SOL    HW159206   6.814   1.644  11.898
19255SOL    HW259207   6.875   1.600  12.029
19256SOL     OW59208   6.050   1.157  11.905
19256SOL    HW159209   5.987   1.136  11.974
19256SOL    HW259210   6.002   1.143  11.823
19257SOL     OW59211   6.845   1.791  11.785
19257SOL    HW159212   6.896   1.853  11.733
19257SOL    HW259213   6.775   1.844  11.824
19258SOL     OW59214   6.610   0.519  11.200
19258SOL    HW159215   6.568   0.602  11.178
19258SOL    HW259216   6.671   0.541  11.270
19259SOL     OW59217   6.152   0.251  12.362
19259SOL    HW159218   6.185   0.197  12.434
19259SOL    HW259219   6.057   0.251  12.373
19260SOL     OW59220   6.450   0.475  11.802
19260SOL    HW159221   6.418   0.523  11.725
19260SOL    HW259222   6.466   0.387  11.770
19261SOL     OW59223   6.577   0.035  11.951
19261SOL    HW159224   6.522   0.035  11.872
19261SOL    HW259225   6.587  -0.058  11.973
19262SOL     OW59226   7.023   1.156  12.025
19262SOL    HW159227   6.955   1.089  12.017
19262SOL    HW259228   7.054   1.169  11.935
19263SOL     OW59229   7.051   0.612  12.127
19263SOL    HW159230   6.996   0.534  12.131
19263SOL    HW259231   7.112   0.602  12.200
19264SOL     OW59232   7.432   0.803  11.562
19264SOL    HW159233   7.492   0.757  11.621
19264SOL    HW259234   7.410   0.739  11.494
19265SOL     OW59235   6.062   1.424  11.294
19265SOL    HW159236   5.996   1.399  11.359
19265SOL    HW259237   6.059   1.354  11.229
19266SOL     OW59238   7.259   1.265  11.817
19266SOL    HW159239   7.353   1.260  11.834
19266SOL    HW259240   7.235   1.355  11.837
19267SOL     OW59241   6.984   0.580  11.247
19267SOL    HW159242   6.919   0.555  11.312
19267SOL    HW259243   7.067   0.549  11.284
19268SOL     OW59244   6.092   0.282  11.488
19268SOL    HW159245   6.130   0.232  11.416
19268SOL    HW259246   6.066   0.366  11.448
19269SOL     OW59247   6.691   1.240  12.288
19269SOL    HW159248   6.610   1.264  12.334
19269SOL    HW259249   6.678   1.270  12.198
19270SOL     OW59250   7.191   1.097  12.244
19270SOL    HW159251   7.157   1.133  12.326
19270SOL    HW259252   7.124   1.118  12.179
19271SOL     OW59253   6.294   1.061  11.545
19271SOL    HW159254   6.280   1.041  11.637
19271SOL    HW259255   6.371   1.009  11.520
19272SOL     OW59256   6.008   0.846  12.437
19272SOL    HW159257   6.057   0.874  12.514
19272SOL    HW259258   5.987   0.754  12.455
19273SOL     OW59259   6.838   0.359  12.440
19273SOL    HW159260   6.870   0.445  12.468
19273SOL    HW259261   6.747   0.375  12.415
19274SOL     OW59262   5.906   1.126  11.668
19274SOL    HW159263   5.916   1.200  11.608
19274SOL    HW259264   5.908   1.049  11.612
19275SOL     OW59265   6.131   0.529  12.033
19275SOL    HW159266   6.147   0.590  11.960
19275SOL    HW259267   6.197   0.553  12.098
19276SOL     OW59268   6.831   1.352  11.564
19276SOL    HW159269   6.887   1.422  11.597
19276SOL    HW259270   6.744   1.374  11.596
19277SOL     OW59271   6.877   1.447  12.316
19277SOL    HW159272   6.933   1.447  12.394
19277SOL    HW259273   6.820   1.370  12.327
19278SOL     OW59274   7.153   0.631  11.656
19278SOL    HW159275   7.104   0.672  11.727
19278SOL    HW259276   7.190   0.704  11.607
19279SOL     OW59277   5.960   1.530  12.462
19279SOL    HW159278   5.936   1.487  12.380
19279SOL    HW259279   6.010   1.607  12.436
19280SOL     OW59280   6.169   0.880  12.209
19280SOL    HW159281   6.213   0.965  12.215
19280SOL    HW259282   6.116   0.875  12.288
19281SOL     OW59283   6.910   0.854  12.170
19281SOL    HW159284   6.824   0.826  12.140
19281SOL    HW259285   6.964   0.775  12.164
19282SOL     OW59286   6.780   0.529  11.427
19282SOL    HW159287   6.792   0.450  11.480
19282SOL    HW259288   6.740   0.592  11.486
19283SOL     OW59289   5.887   0.211  12.406
19283SOL    HW159290   5.833   0.239  12.480
19283SOL    HW259291   5.871   0.116  12.400
19284SOL     OW59292   5.668   1.308  12.434
19284SOL    HW159293   5.734   1.259  12.482
19284SOL    HW259294   5.657   1.389  12.483
19285SOL     OW59295   6.305   0.633  12.222
19285SOL    HW159296   6.379   0.619  12.164
19285SOL    HW259297   6.275   0.722  12.203
19286SOL     OW59298   6.002   0.087  11.837
19286SOL    HW159299   5.946   0.159  11.868
19286SOL    HW259300   5.943   0.011  11.832
19287SOL     OW59301   7.227   0.403  11.527
19287SOL    HW159302   7.239   0.329  11.587
19287SOL    HW259303   7.194   0.474  11.582
19288SOL     OW59304   6.618   0.758  12.137
19288SOL    HW159305   6.609   0.768  12.231
19288SOL    HW259306   6.586   0.670  12.118
19289SOL     OW59307   7.164   0.313  11.279
19289SOL    HW159308   7.070   0.297  11.286
19289SOL    HW259309   7.193   0.333  11.368
19290SOL     OW59310   6.872   0.827  11.199
19290SOL    HW159311   6.915   0.742  11.206
19290SOL    HW259312   6.904   0.864  11.117
19291SOL     OW59313   6.661   1.347  12.032
19291SOL    HW159314   6.668   1.274  11.970
19291SOL    HW259315   6.717   1.415  11.996
19292SOL     OW59316   5.916   0.818  12.092
19292SOL    HW159317   6.010   0.833  12.106
19292SOL    HW259318   5.902   0.728  12.123
19293SOL     OW59319   5.895   0.555  12.159
19293SOL    HW159320   5.862   0.465  12.163
19293SOL    HW259321   5.981   0.548  12.117
19294SOL     OW59322   6.754   0.206   0.150
19294SOL    HW159323   6.750   0.264   0.226
19294SOL    HW259324   6.789   0.261   0.080
19295SOL     OW59325   5.606   1.274  11.317
19295SOL    HW159326   5.516   1.305  11.309
19295SOL    HW259327   5.599   1.196  11.372
19296SOL     OW59328   5.684   1.769  12.127
19296SOL    HW159329   5.654   1.696  12.073
19296SOL    HW259330   5.770   1.791  12.091
19297SOL     OW59331   6.093   1.584  12.075
19297SOL    HW159332   6.162   1.647  12.097
19297SOL    HW259333   6.135   1.522  12.016
19298SOL     OW59334   6.563   0.785  12.407
19298SOL    HW159335   6.603   0.857  12.456
19298SOL    HW259336   6.470   0.790  12.430
19299SOL     OW59337   5.655   0.553  12.312
19299SOL    HW159338   5.727   0.568  12.250
19299SOL    HW259339   5.651   0.458  12.321
19300SOL     OW59340   6.404   0.574  11.544
19300SOL    HW159341   6.413   0.499  11.486
19300SOL    HW259342   6.329   0.622  11.509
19301SOL     OW59343   7.242   0.607  12.325
19301SOL    HW159344   7.230   0.562  12.409
19301SOL    HW259345   7.337   0.601  12.309
19302SOL     OW59346   6.323   0.454  12.429
19302SOL    HW159347   6.253   0.393  12.408
19302SOL    HW259348   6.311   0.527  12.368
19303SOL     OW59349   6.476   1.655   0.032
19303SOL    HW159350   6.488   1.714  -0.043
19303SOL    HW259351   6.522   1.699   0.104
19304SOL     OW59352   6.033   0.506  11.348
19304SOL    HW159353   6.097   0.573  11.370
19304SOL    HW259354   5.950   0.553  11.339
19305SOL     OW59355   6.869   1.035  12.369
19305SOL    HW159356   6.890   0.978  12.295
19305SOL    HW259357   6.816   1.105  12.330
19306SOL     OW59358   6.906   0.857  11.474
19306SOL    HW159359   6.833   0.823  11.526
19306SOL    HW259360   6.878   0.844  11.383
19307SOL     OW59361   7.335   1.749  12.299
19307SOL    HW159362   7.411   1.769  12.243
19307SOL    HW259363   7.326   1.654  12.293
19308SOL     OW59364   6.834   1.718  12.276
19308SOL    HW159365   6.914   1.754  12.236
19308SOL    HW259366   6.852   1.624  12.284
19309SOL     OW59367   7.265   0.169  11.673
19309SOL    HW159368   7.326   0.139  11.605
19309SOL    HW259369   7.288   0.118  11.750
19310SOL     OW59370   6.979   1.568  11.668
19310SOL    HW159371   7.037   1.601  11.600
19310SOL    HW259372   6.928   1.644  11.696
19311SOL     OW59373   6.862   0.934  11.844
19311SOL    HW159374   6.935   0.873  11.856
19311SOL    HW259375   6.897   1.003  11.787
19312SOL     OW59376   6.253   1.620  11.323
19312SOL    HW159377   6.269   1.639  11.230
19312SOL    HW259378   6.194   1.545  11.322
19313SOL     OW59379   7.210   1.794   0.040
19313SOL    HW159380   7.261   1.779  -0.040
19313SOL    HW259381   7.238   1.880   0.071
19314SOL     OW59382   7.456   0.159  12.087
19314SOL    HW159383   7.450   0.081  12.142
19314SOL    HW259384   7.366   0.183  12.069
19315SOL     OW59385   5.839   0.303  11.887
19315SOL    HW159386   5.759   0.351  11.866
19315SOL    HW259387   5.848   0.311  11.982
19316SOL     OW59388   6.796   1.599  11.207
19316SOL    HW159389   6.783   1.507  11.229
19316SOL    HW259390   6.734   1.616  11.136
19317SOL     OW59391   6.375   1.015  12.487
19317SOL    HW159392   6.379   1.059  12.403
19317SOL    HW259393   6.456   1.041  12.532
19318SOL     OW59394   6.504   0.912  11.469
19318SOL    HW159395   6.560   0.942  11.398
19318SOL    HW259396   6.555   0.844  11.513
19319SOL     OW59397   7.076   1.628  11.221
19319SOL    HW159398   6.982   1.618  11.205
19319SOL    HW259399   7.115   1.635  11.134
19320SOL     OW59400   6.653   1.116  11.890
19320SOL    HW159401   6.579   1.064  11.923
19320SOL    HW259402   6.718   1.051  11.864
19321SOL     OW59403   6.615   0.260  12.109
19321SOL    HW159404   6.599   0.207  12.030
19321SOL    HW259405   6.627   0.195  12.179
19322SOL     OW59406   6.188   1.493  11.648
19322SOL    HW159407   6.240   1.441  11.587
19322SOL    HW259408   6.123   1.537  11.594
19323SOL     OW59409   7.322   0.454   0.048
19323SOL    HW159410   7.399   0.451   0.105
19323SOL    HW259411   7.336   0.382  -0.014
19324SOL     OW59412   5.852   1.339  11.451
19324SOL    HW159413   5.764   1.328  11.416
19324SOL    HW259414   5.840   1.381  11.536
19325SOL     OW59415   5.661   0.334  11.201
19325SOL    HW159416   5.582   0.315  11.151
19325SOL    HW259417   5.697   0.413  11.159
19326SOL     OW59418   5.634   0.184  11.463
19326SOL    HW159419   5.634   0.250  11.394
19326SOL    HW259420   5.714   0.134  11.449
19327SOL     OW59421   6.766   1.329  11.290
19327SOL    HW159422   6.673   1.306  11.290
19327SOL    HW259423   6.791   1.332  11.383
19328SOL     OW59424   7.076   1.786  12.156
19328SOL    HW159425   7.095   1.860  12.099
19328SOL    HW259426   7.158   1.769  12.202
19329SOL     OW59427   7.253   0.875  12.405
19329SOL    HW159428   7.238   0.790  12.364
19329SOL    HW259429   7.234   0.939  12.337
19330SOL     OW59430   6.809   0.322  11.618
19330SOL    HW159431   6.874   0.254  11.604
19330SOL    HW259432   6.839   0.368  11.697
19331SOL     OW59433   6.167   0.736  11.852
19331SOL    HW159434   6.209   0.820  11.835
19331SOL    HW259435   6.105   0.725  11.780
19332SOL     OW59436   7.405   0.905   0.122
19332SOL    HW159437   7.371   0.980   0.171
19332SOL    HW259438   7.344   0.895   0.050
19333SOL     OW59439   6.466   1.367  11.230
19333SOL    HW159440   6.421   1.400  11.308
19333SOL    HW259441   6.480   1.444  11.176
19334SOL     OW59442   6.256   1.796  12.118
19334SOL    HW159443   6.236   1.885  12.089
19334SOL    HW259444   6.352   1.789  12.109
19335SOL     OW59445   6.457   0.969  12.024
19335SOL    HW159446   6.508   0.897  12.061
19335SOL    HW259447   6.420   1.013  12.101
19336SOL     OW59448   6.652   0.978  11.255
19336SOL    HW159449   6.638   1.036  11.180
19336SOL    HW259450   6.731   0.928  11.232
19337SOL     OW59451   7.434   1.558  12.019
19337SOL    HW159452   7.354   1.548  11.967
19337SOL    HW259453   7.420   1.501  12.095
19338SOL     OW59454   5.691   1.219  11.853
19338SOL    HW159455   5.724   1.172  11.930
19338SOL    HW259456   5.749   1.190  11.782
19339SOL     OW59457   7.438   0.270  12.376
19339SOL    HW159458   7.462   0.194  12.429
19339SOL    HW259459   7.427   0.234  12.288
19340SOL     OW59460   6.023   0.427  11.712
19340SOL    HW159461   6.039   0.366  11.640
19340SOL    HW259462   5.960   0.382  11.769
19341SOL     OW59463   7.297   1.484  12.268
19341SOL    HW159464   7.214   1.453  12.231
19341SOL    HW259465   7.309   1.431  12.347
19342SOL     OW59466   6.415   1.591  11.845
19342SOL    HW159467   6.399   1.662  11.783
19342SOL    HW259468   6.339   1.533  11.834
19343SOL     OW59469   7.025   0.228  12.285
19343SOL    HW159470   7.086   0.169  12.330
19343SOL    HW259471   6.970   0.263  12.355
19344SOL     OW59472   6.623   0.059  12.290
19344SOL    HW159473   6.587   0.072  12.378
19344SOL    HW259474   6.699   0.002  12.303
19345SOL     OW59475   6.356   1.333  11.501
19345SOL    HW159476   6.335   1.240  11.509
19345SOL    HW259477   6.440   1.343  11.546
19346SOL     OW59478   6.930   7.973  11.284
19346SOL    HW159479   6.989   7.899  11.301
19346SOL    HW259480   6.867   7.969  11.356
19347SOL     OW59481   6.884   0.464  11.844
19347SOL    HW159482   6.831   0.544  11.847
19347SOL    HW259483   6.884   0.432  11.934
19348SOL     OW59484   7.202   0.222  12.048
19348SOL    HW159485   7.125   0.218  12.104
19348SOL    HW259486   7.188   0.298  11.992
19349SOL     OW59487   5.628   1.057  11.486
19349SOL    HW159488   5.721   1.046  11.468
19349SOL    HW259489   5.597   0.969  11.507
19350SOL     OW59490   6.474   1.665  11.507
19350SOL    HW159491   6.398   1.651  11.450
19350SOL    HW259492   6.448   1.738  11.563
19351SOL     OW59493   5.806   2.427   0.026
19351SOL    HW159494   5.785   2.485   0.099
19351SOL    HW259495   5.852   2.482  -0.037
19352SOL     OW59496   5.810   2.146   0.993
19352SOL    HW159497   5.837   2.113   1.078
19352SOL    HW259498   5.721   2.113   0.981
19353SOL     OW59499   5.579   2.247   0.639
19353SOL    HW159500   5.504   2.277   0.689
19353SOL    HW259501   5.549   2.168   0.594
19354SOL     OW59502   6.158   3.164   1.190
19354SOL    HW159503   6.072   3.170   1.148
19354SOL    HW259504   6.175   3.253   1.222
19355SOL     OW59505   7.161   3.383   0.716
19355SOL    HW159506   7.118   3.357   0.797
19355SOL    HW259507   7.091   3.384   0.650
19356SOL     OW59508   6.718   2.564   0.692
19356SOL    HW159509   6.767   2.646   0.681
19356SOL    HW259510   6.672   2.574   0.775
19357SOL     OW59511   7.303   2.477   0.271
19357SOL    HW159512   7.317   2.477   0.176
19357SOL    HW259513   7.281   2.386   0.292
19358SOL     OW59514   6.322   2.994   1.049
19358SOL    HW159515   6.259   3.034   1.110
19358SOL    HW259516   6.366   3.069   1.008
19359SOL     OW59517   6.464   2.614   1.828
19359SOL    HW159518   6.449   2.680   1.895
19359SOL    HW259519   6.484   2.665   1.749
19360SOL     OW59520   6.270   2.853   0.644
19360SOL    HW159521   6.338   2.849   0.712
19360SOL    HW259522   6.203   2.911   0.681
19361SOL     OW59523   6.302   3.010   1.821
19361SOL    HW159524   6.348   3.086   1.856
19361SOL    HW259525   6.222   3.046   1.783
19362SOL     OW59526   5.921   3.272   1.065
19362SOL    HW159527   5.844   3.238   1.019
19362SOL    HW259528   5.965   3.327   1.000
19363SOL     OW59529   7.044   3.368   1.365
19363SOL    HW159530   7.098   3.446   1.377
19363SOL    HW259531   6.973   3.378   1.429
19364SOL     OW59532   6.041   2.244   1.461
19364SOL    HW159533   6.115   2.187   1.480
19364SOL    HW259534   5.965   2.196   1.492
19365SOL     OW59535   7.193   2.305   0.752
19365SOL    HW159536   7.153   2.339   0.672
19365SOL    HW259537   7.168   2.367   0.821
19366SOL     OW59538   5.803   3.580   0.473
19366SOL    HW159539   5.823   3.654   0.529
19366SOL    HW259540   5.881   3.569   0.418
19367SOL     OW59541   6.722   3.206   1.695
19367SOL    HW159542   6.763   3.200   1.782
19367SOL    HW259543   6.670   3.126   1.688
19368SOL     OW59544   5.810   3.313   0.543
19368SOL    HW159545   5.795   3.407   0.541
19368SOL    HW259546   5.754   3.281   0.614
19369SOL     OW59547   5.854   2.954   0.889
19369SOL    HW159548   5.856   2.865   0.924
19369SOL    HW259549   5.799   3.002   0.951
19370SOL     OW59550   6.177   3.656   1.423
19370SOL    HW159551   6.099   3.637   1.474
19370SOL    HW259552   6.206   3.742   1.454
19371SOL     OW59553   6.165   2.824   0.148
19371SOL    HW159554   6.234   2.841   0.083
19371SOL    HW259555   6.194   2.870   0.227
19372SOL     OW59556   7.180   1.992   1.461
19372SOL    HW159557   7.211   2.071   1.417
19372SOL    HW259558   7.155   2.021   1.549
19373SOL     OW59559   5.704   2.509   0.565
19373SOL    HW159560   5.673   2.422   0.588
19373SOL    HW259561   5.697   2.560   0.646
19374SOL     OW59562   7.435   3.605   0.315
19374SOL    HW159563   7.495   3.576   0.384
19374SOL    HW259564   7.458   3.696   0.300
19375SOL     OW59565   5.622   3.377   0.137
19375SOL    HW159566   5.534   3.343   0.124
19375SOL    HW259567   5.610   3.456   0.190
19376SOL     OW59568   7.268   2.797   0.649
19376SOL    HW159569   7.335   2.749   0.600
19376SOL    HW259570   7.234   2.861   0.587
19377SOL     OW59571   7.230   2.981   0.434
19377SOL    HW159572   7.318   2.978   0.396
19377SOL    HW259573   7.238   3.044   0.506
19378SOL     OW59574   5.714   2.611   1.580
19378SOL    HW159575   5.804   2.643   1.590
19378SOL    HW259576   5.660   2.689   1.592
19379SOL     OW59577   6.206   3.255   0.733
19379SOL    HW159578   6.162   3.171   0.743
19379SOL    HW259579   6.190   3.280   0.642
19380SOL     OW59580   6.868   3.096   1.416
19380SOL    HW159581   6.899   3.027   1.358
19380SOL    HW259582   6.925   3.091   1.492
19381SOL     OW59583   6.410   1.878   0.529
19381SOL    HW159584   6.448   1.962   0.501
19381SOL    HW259585   6.316   1.893   0.530
19382SOL     OW59586   5.773   2.826   1.271
19382SOL    HW159587   5.860   2.787   1.261
19382SOL    HW259588   5.713   2.762   1.233
19383SOL     OW59589   7.084   2.876   0.228
19383SOL    HW159590   7.022   2.815   0.267
19383SOL    HW259591   7.137   2.907   0.301
19384SOL     OW59592   6.772   3.683   1.629
19384SOL    HW159593   6.775   3.744   1.555
19384SOL    HW259594   6.791   3.598   1.591
19385SOL     OW59595   5.940   2.114   1.837
19385SOL    HW159596   5.977   2.196   1.872
19385SOL    HW259597   5.846   2.123   1.851
19386SOL     OW59598   7.054   3.280   0.946
19386SOL    HW159599   6.988   3.297   1.014
19386SOL    HW259600   7.040   3.189   0.921
19387SOL     OW59601   7.233   3.627   0.585
19387SOL    HW159602   7.211   3.588   0.500
19387SOL    HW259603   7.220   3.556   0.647
19388SOL     OW59604   6.162   2.569   0.274
19388SOL    HW159605   6.172   2.657   0.238
19388SOL    HW259606   6.100   2.580   0.346
19389SOL     OW59607   6.868   2.239   0.937
19389SOL    HW159608   6.779   2.205   0.944
19389SOL    HW259609   6.919   2.182   0.994
19390SOL     OW59610   7.174   3.534   0.330
19390SOL    HW159611   7.268   3.552   0.322
19390SOL    HW259612   7.144   3.524   0.239
19391SOL     OW59613   6.380   2.479   1.441
19391SOL    HW159614   6.354   2.453   1.529
19391SOL    HW259615   6.348   2.408   1.385
19392SOL     OW59616   6.978   2.337   1.678
19392SOL    HW159617   6.981   2.381   1.763
19392SOL    HW259618   7.033   2.259   1.689
19393SOL     OW59619   6.532   2.746   1.590
19393SOL    HW159620   6.589   2.681   1.549
19393SOL    HW259621   6.484   2.785   1.517
19394SOL     OW59622   6.585   2.265   1.226
19394SOL    HW159623   6.495   2.283   1.253
19394SOL    HW259624   6.577   2.227   1.138
19395SOL     OW59625   6.641   2.565   0.425
19395SOL    HW159626   6.659   2.561   0.519
19395SOL    HW259627   6.555   2.524   0.415
19396SOL     OW59628   5.679   2.678   0.778
19396SOL    HW159629   5.759   2.676   0.831
19396SOL    HW259630   5.630   2.753   0.812
19397SOL     OW59631   5.703   3.730   1.585
19397SOL    HW159632   5.715   3.707   1.677
19397SOL    HW259633   5.609   3.721   1.570
19398SOL     OW59634   6.474   2.221   0.221
19398SOL    HW159635   6.506   2.287   0.158
19398SOL    HW259636   6.466   2.141   0.169
19399SOL     OW59637   7.287   2.428   1.830
19399SOL    HW159638   7.254   2.504   1.783
19399SOL    HW259639   7.313   2.367   1.762
19400SOL     OW59640   6.966   3.004   0.536
19400SOL    HW159641   7.047   3.001   0.486
19400SOL    HW259642   6.911   3.066   0.489
19401SOL     OW59643   6.136   2.033   0.906
19401SOL    HW159644   6.139   2.061   0.997
19401SOL    HW259645   6.136   2.114   0.855
19402SOL     OW59646   6.579   3.299   0.474
19402SOL    HW159647   6.544   3.376   0.429
19402SOL    HW259648   6.557   3.313   0.566
19403SOL     OW59649   5.939   3.679   0.878
19403SOL    HW159650   5.985   3.595   0.882
19403SOL    HW259651   6.007   3.744   0.898
19404SOL     OW59652   7.388   2.904   0.879
19404SOL    HW159653   7.336   2.886   0.801
19404SOL    HW259654   7.324   2.915   0.949
19405SOL     OW59655   6.811   3.406   1.514
19405SOL    HW159656   6.799   3.334   1.576
19405SOL    HW259657   6.733   3.405   1.460
19406SOL     OW59658   5.901   2.841   0.266
19406SOL    HW159659   5.978   2.854   0.210
19406SOL    HW259660   5.863   2.759   0.236
19407SOL     OW59661   7.066   2.621   0.721
19407SOL    HW159662   7.067   2.578   0.806
19407SOL    HW259663   7.144   2.677   0.721
19408SOL     OW59664   6.062   3.130   1.735
19408SOL    HW159665   6.034   3.133   1.643
19408SOL    HW259666   5.981   3.127   1.785
19409SOL     OW59667   6.663   3.651   0.232
19409SOL    HW159668   6.619   3.603   0.302
19409SOL    HW259669   6.726   3.588   0.196
19410SOL     OW59670   5.787   2.131   1.506
19410SOL    HW159671   5.713   2.188   1.528
19410SOL    HW259672   5.765   2.046   1.545
19411SOL     OW59673   7.238   3.277   0.086
19411SOL    HW159674   7.172   3.338   0.053
19411SOL    HW259675   7.193   3.192   0.089
19412SOL     OW59676   6.040   3.590   0.331
19412SOL    HW159677   6.087   3.649   0.391
19412SOL    HW259678   6.108   3.554   0.274
19413SOL     OW59679   6.987   1.959   0.450
19413SOL    HW159680   6.983   1.926   0.360
19413SOL    HW259681   7.081   1.966   0.468
19414SOL     OW59682   5.835   3.652   1.230
19414SOL    HW159683   5.888   3.586   1.274
19414SOL    HW259684   5.835   3.626   1.138
19415SOL     OW59685   6.526   3.565   0.895
19415SOL    HW159686   6.603   3.516   0.924
19415SOL    HW259687   6.488   3.511   0.825
19416SOL     OW59688   5.975   2.552   0.478
19416SOL    HW159689   5.993   2.459   0.490
19416SOL    HW259690   5.885   2.563   0.509
19417SOL     OW59691   7.107   2.086   1.721
19417SOL    HW159692   7.121   2.104   1.814
19417SOL    HW259693   7.036   2.021   1.719
19418SOL     OW59694   6.216   1.987   0.115
19418SOL    HW159695   6.310   1.965   0.117
19418SOL    HW259696   6.206   2.039   0.035
19419SOL     OW59697   6.346   2.138   1.753
19419SOL    HW159698   6.429   2.091   1.752
19419SOL    HW259699   6.301   2.107   1.831
19420SOL     OW59700   6.461   3.386   1.194
19420SOL    HW159701   6.441   3.345   1.110
19420SOL    HW259702   6.528   3.330   1.233
19421SOL     OW59703   6.922   2.451   1.434
19421SOL    HW159704   6.953   2.421   1.519
19421SOL    HW259705   6.959   2.539   1.424
19422SOL     OW59706   6.406   3.244   0.952
19422SOL    HW159707   6.492   3.236   0.910
19422SOL    HW259708   6.345   3.256   0.879
19423SOL     OW59709   6.517   2.372   0.897
19423SOL    HW159710   6.490   2.363   0.805
19423SOL    HW259711   6.546   2.284   0.922
19424SOL     OW59712   6.139   1.917   0.503
19424SOL    HW159713   6.060   1.918   0.557
19424SOL    HW259714   6.132   1.995   0.448
19425SOL     OW59715   7.049   3.082   0.052
19425SOL    HW159716   7.061   3.002   0.104
19425SOL    HW259717   6.957   3.105   0.066
19426SOL     OW59718   5.895   1.939   0.206
19426SOL    HW159719   5.973   1.995   0.207
19426SOL    HW259720   5.927   1.853   0.234
19427SOL     OW59721   6.532   2.114   0.464
19427SOL    HW159722   6.506   2.152   0.380
19427SOL    HW259723   6.627   2.127   0.467
19428SOL     OW59724   6.666   2.552   1.453
19428SOL    HW159725   6.601   2.483   1.459
19428SOL    HW259726   6.750   2.506   1.450
19429SOL     OW59727   6.804   3.433   0.794
19429SOL    HW159728   6.816   3.500   0.727
19429SOL    HW259729   6.869   3.455   0.861
19430SOL     OW59730   6.063   3.019   0.725
19430SOL    HW159731   5.997   2.997   0.791
19430SOL    HW259732   6.016   3.011   0.642
19431SOL     OW59733   6.842   3.650   0.614
19431SOL    HW159734   6.892   3.715   0.565
19431SOL    HW259735   6.771   3.701   0.655
19432SOL     OW59736   6.606   2.410   0.065
19432SOL    HW159737   6.594   2.493   0.019
19432SOL    HW259738   6.675   2.429   0.130
19433SOL     OW59739   5.671   2.419   1.390
19433SOL    HW159740   5.764   2.417   1.366
19433SOL    HW259741   5.665   2.487   1.457
19434SOL     OW59742   6.140   2.088   1.178
19434SOL    HW159743   6.183   2.026   1.237
19434SOL    HW259744   6.048   2.088   1.204
19435SOL     OW59745   6.451   2.321   0.638
19435SOL    HW159746   6.410   2.378   0.573
19435SOL    HW259747   6.475   2.243   0.589
19436SOL     OW59748   6.609   1.914   0.741
19436SOL    HW159749   6.545   1.912   0.670
19436SOL    HW259750   6.583   1.843   0.799
19437SOL     OW59751   7.027   3.020   0.860
19437SOL    HW159752   6.954   2.958   0.859
19437SOL    HW259753   7.052   3.028   0.768
19438SOL     OW59754   7.053   2.469   0.957
19438SOL    HW159755   6.990   2.398   0.966
19438SOL    HW259756   7.107   2.464   1.035
19439SOL     OW59757   7.416   2.679   0.431
19439SOL    HW159758   7.465   2.614   0.481
19439SOL    HW259759   7.370   2.629   0.364
19440SOL     OW59760   6.078   3.264   0.175
19440SOL    HW159761   6.010   3.220   0.226
19440SOL    HW259762   6.032   3.305   0.103
19441SOL     OW59763   7.260   3.130   0.653
19441SOL    HW159764   7.354   3.125   0.669
19441SOL    HW259765   7.237   3.221   0.674
19442SOL     OW59766   6.981   2.411   0.081
19442SOL    HW159767   6.927   2.407   0.160
19442SOL    HW259768   7.043   2.339   0.090
19443SOL     OW59769   6.111   2.119   0.325
19443SOL    HW159770   6.163   2.073   0.259
19443SOL    HW259771   6.087   2.201   0.283
19444SOL     OW59772   7.327   3.106   1.548
19444SOL    HW159773   7.415   3.069   1.536
19444SOL    HW259774   7.342   3.194   1.583
19445SOL     OW59775   6.635   3.209   1.324
19445SOL    HW159776   6.559   3.181   1.375
19445SOL    HW259777   6.710   3.173   1.370
19446SOL     OW59778   7.194   3.492   1.661
19446SOL    HW159779   7.187   3.527   1.572
19446SOL    HW259780   7.275   3.440   1.659
19447SOL     OW59781   6.722   3.073   1.099
19447SOL    HW159782   6.667   3.113   1.165
19447SOL    HW259783   6.695   3.113   1.017
19448SOL     OW59784   7.206   2.958   1.076
19448SOL    HW159785   7.197   3.021   1.148
19448SOL    HW259786   7.132   2.977   1.018
19449SOL     OW59787   6.508   1.948   1.389
19449SOL    HW159788   6.529   1.934   1.297
19449SOL    HW259789   6.586   1.990   1.426
19450SOL     OW59790   6.570   2.978   1.724
19450SOL    HW159791   6.480   2.995   1.752
19450SOL    HW259792   6.564   2.898   1.672
19451SOL     OW59793   6.296   2.923   0.373
19451SOL    HW159794   6.280   2.901   0.465
19451SOL    HW259795   6.374   2.873   0.349
19452SOL     OW59796   6.009   2.684   1.254
19452SOL    HW159797   6.076   2.695   1.321
19452SOL    HW259798   5.975   2.595   1.268
19453SOL     OW59799   6.850   2.234   1.285
19453SOL    HW159800   6.880   2.313   1.330
19453SOL    HW259801   6.759   2.254   1.262
19454SOL     OW59802   5.670   3.435   1.359
19454SOL    HW159803   5.655   3.525   1.329
19454SOL    HW259804   5.765   3.423   1.354
19455SOL     OW59805   5.919   2.994   0.494
19455SOL    HW159806   5.908   3.070   0.437
19455SOL    HW259807   5.923   2.919   0.434
19456SOL     OW59808   6.128   2.385   0.856
19456SOL    HW159809   6.142   2.444   0.782
19456SOL    HW259810   6.193   2.411   0.920
19457SOL     OW59811   6.828   3.211   0.399
19457SOL    HW159812   6.884   3.281   0.433
19457SOL    HW259813   6.741   3.231   0.431
19458SOL     OW59814   6.881   3.326   1.151
19458SOL    HW159815   6.936   3.336   1.229
19458SOL    HW259816   6.823   3.253   1.172
19459SOL     OW59817   7.141   2.454   0.511
19459SOL    HW159818   7.097   2.517   0.567
19459SOL    HW259819   7.175   2.506   0.438
19460SOL     OW59820   5.933   3.389   1.308
19460SOL    HW159821   5.924   3.343   1.224
19460SOL    HW259822   6.028   3.403   1.317
19461SOL     OW59823   6.012   2.606   1.610
19461SOL    HW159824   6.072   2.649   1.549
19461SOL    HW259825   6.057   2.525   1.634
19462SOL     OW59826   7.199   2.643   1.692
19462SOL    HW159827   7.113   2.684   1.686
19462SOL    HW259828   7.251   2.685   1.622
19463SOL     OW59829   6.582   2.000   1.756
19463SOL    HW159830   6.639   2.075   1.737
19463SOL    HW259831   6.634   1.924   1.732
19464SOL     OW59832   6.081   1.893   1.752
19464SOL    HW159833   6.029   1.844   1.689
19464SOL    HW259834   6.029   1.971   1.771
19465SOL     OW59835   6.172   2.737   1.035
19465SOL    HW159836   6.210   2.825   1.039
19465SOL    HW259837   6.116   2.732   1.112
19466SOL     OW59838   6.921   2.717   1.012
19466SOL    HW159839   6.832   2.697   0.982
19466SOL    HW259840   6.969   2.635   1.000
19467SOL     OW59841   6.794   2.388   0.281
19467SOL    HW159842   6.807   2.315   0.341
19467SOL    HW259843   6.748   2.454   0.333
19468SOL     OW59844   5.876   2.058   1.247
19468SOL    HW159845   5.841   2.091   1.330
19468SOL    HW259846   5.858   1.964   1.249
19469SOL     OW59847   5.626   3.182   1.261
19469SOL    HW159848   5.652   3.119   1.329
19469SOL    HW259849   5.636   3.267   1.303
19470SOL     OW59850   6.298   2.487   1.045
19470SOL    HW159851   6.379   2.480   0.993
19470SOL    HW259852   6.270   2.578   1.033
19471SOL     OW59853   7.327   2.821   1.865
19471SOL    HW159854   7.284   2.753   1.814
19471SOL    HW259855   7.265   2.843   1.935
19472SOL     OW59856   5.895   1.921   0.630
19472SOL    HW159857   5.870   2.011   0.648
19472SOL    HW259858   5.903   1.880   0.716
19473SOL     OW59859   7.201   2.228   0.367
19473SOL    HW159860   7.234   2.160   0.427
19473SOL    HW259861   7.167   2.296   0.425
19474SOL     OW59862   6.618   2.619   0.957
19474SOL    HW159863   6.604   2.636   1.050
19474SOL    HW259864   6.590   2.528   0.944
19475SOL     OW59865   6.569   3.433   1.724
19475SOL    HW159866   6.552   3.473   1.639
19475SOL    HW259867   6.606   3.348   1.704
19476SOL     OW59868   7.433   3.360   1.604
19476SOL    HW159869   7.456   3.389   1.516
19476SOL    HW259870   7.512   3.373   1.655
19477SOL     OW59871   5.937   2.784   1.809
19477SOL    HW159872   6.014   2.802   1.863
19477SOL    HW259873   5.967   2.719   1.745
19478SOL     OW59874   7.100   2.133   0.129
19478SOL    HW159875   7.047   2.058   0.157
19478SOL    HW259876   7.140   2.165   0.210
19479SOL     OW59877   6.877   2.670   0.056
19479SOL    HW159878   6.927   2.589   0.046
19479SOL    HW259879   6.919   2.731  -0.003
19480SOL     OW59880   6.657   3.206   0.859
19480SOL    HW159881   6.665   3.133   0.797
19480SOL    HW259882   6.714   3.274   0.824
19481SOL     OW59883   5.900   2.674   0.944
19481SOL    HW159884   5.994   2.693   0.944
19481SOL    HW259885   5.894   2.584   0.976
19482SOL     OW59886   5.907   2.395   1.011
19482SOL    HW159887   5.871   2.307   1.001
19482SOL    HW259888   5.984   2.396   0.954
19483SOL     OW59889   6.722   2.232   1.688
19483SOL    HW159890   6.674   2.286   1.751
19483SOL    HW259891   6.808   2.274   1.682
19484SOL     OW59892   6.747   2.057   1.474
19484SOL    HW159893   6.735   2.119   1.546
19484SOL    HW259894   6.790   2.108   1.405
19485SOL     OW59895   5.674   3.639   0.940
19485SOL    HW159896   5.650   3.557   0.898
19485SOL    HW259897   5.764   3.656   0.912
19486SOL     OW59898   6.074   3.435   0.902
19486SOL    HW159899   6.143   3.497   0.925
19486SOL    HW259900   6.117   3.372   0.843
19487SOL     OW59901   6.550   2.644   1.219
19487SOL    HW159902   6.613   2.630   1.290
19487SOL    HW259903   6.468   2.609   1.253
19488SOL     OW59904   5.626   2.417   1.117
19488SOL    HW159905   5.709   2.416   1.070
19488SOL    HW259906   5.650   2.416   1.209
19489SOL     OW59907   5.769   2.389   1.733
19489SOL    HW159908   5.838   2.356   1.675
19489SOL    HW259909   5.735   2.466   1.688
19490SOL     OW59910   6.971   2.789   1.654
19490SOL    HW159911   6.990   2.883   1.651
19490SOL    HW259912   6.965   2.762   1.562
19491SOL     OW59913   6.398   2.442   0.378
19491SOL    HW159914   6.407   2.365   0.323
19491SOL    HW259915   6.320   2.486   0.345
19492SOL     OW59916   7.223   2.462   1.171
19492SOL    HW159917   7.214   2.406   1.249
19492SOL    HW259918   7.312   2.446   1.140
19493SOL     OW59919   5.822   3.407   1.721
19493SOL    HW159920   5.798   3.472   1.787
19493SOL    HW259921   5.831   3.325   1.770
19494SOL     OW59922   6.309   2.303   1.244
19494SOL    HW159923   6.245   2.234   1.226
19494SOL    HW259924   6.295   2.368   1.175
19495SOL     OW59925   6.517   3.536   1.467
19495SOL    HW159926   6.482   3.497   1.387
19495SOL    HW259927   6.508   3.630   1.454
19496SOL     OW59928   6.040   2.336   0.184
19496SOL    HW159929   6.088   2.415   0.210
19496SOL    HW259930   5.963   2.368   0.138
19497SOL     OW59931   5.722   3.007   1.467
19497SOL    HW159932   5.724   2.962   1.551
19497SOL    HW259933   5.742   2.940   1.403
19498SOL     OW59934   6.902   2.901   1.214
19498SOL    HW159935   6.921   2.838   1.144
19498SOL    HW259936   6.838   2.961   1.176
19499SOL     OW59937   6.891   2.705   0.329
19499SOL    HW159938   6.813   2.671   0.373
19499SOL    HW259939   6.879   2.682   0.237
19500SOL     OW59940   7.364   3.597   1.154
19500SOL    HW159941   7.429   3.620   1.087
19500SOL    HW259942   7.340   3.507   1.133
19501SOL     OW59943   6.823   3.592   1.091
19501SOL    HW159944   6.909   3.619   1.057
19501SOL    HW259945   6.836   3.502   1.119
19502SOL     OW59946   5.664   3.141   0.996
19502SOL    HW159947   5.652   3.147   1.091
19502SOL    HW259948   5.605   3.071   0.969
19503SOL     OW59949   6.264   3.537   1.745
19503SOL    HW159950   6.203   3.611   1.737
19503SOL    HW259951   6.339   3.562   1.692
19504SOL     OW59952   6.488   1.968   0.098
19504SOL    HW159953   6.533   1.983   0.015
19504SOL    HW259954   6.552   1.922   0.152
19505SOL     OW59955   7.308   2.018   0.511
19505SOL    HW159956   7.378   1.996   0.450
19505SOL    HW259957   7.287   1.935   0.554
19506SOL     OW59958   6.977   3.428   0.499
19506SOL    HW159959   7.039   3.463   0.435
19506SOL    HW259960   6.927   3.504   0.529
19507SOL     OW59961   5.739   3.657   1.841
19507SOL    HW159962   5.688   3.592   1.890
19507SOL    HW259963   5.783   3.709   1.909
19508SOL     OW59964   6.861   2.794   0.669
19508SOL    HW159965   6.936   2.735   0.683
19508SOL    HW259966   6.896   2.863   0.613
19509SOL     OW59967   6.382   3.142   1.420
19509SOL    HW159968   6.357   3.185   1.501
19509SOL    HW259969   6.307   3.156   1.361
19510SOL     OW59970   6.250   3.472   0.195
19510SOL    HW159971   6.305   3.475   0.116
19510SOL    HW259972   6.201   3.390   0.186
19511SOL     OW59973   7.204   3.592   1.393
19511SOL    HW159974   7.258   3.596   1.314
19511SOL    HW259975   7.189   3.684   1.416
19512SOL     OW59976   7.430   2.029   0.962
19512SOL    HW159977   7.459   1.940   0.939
19512SOL    HW259978   7.342   2.035   0.925
19513SOL     OW59979   5.837   2.172   0.714
19513SOL    HW159980   5.751   2.207   0.693
19513SOL    HW259981   5.839   2.170   0.810
19514SOL     OW59982   6.786   3.463   0.075
19514SOL    HW159983   6.787   3.370   0.096
19514SOL    HW259984   6.717   3.473   0.010
19515SOL     OW59985   6.410   2.872   1.378
19515SOL    HW159986   6.452   2.868   1.292
19515SOL    HW259987   6.403   2.965   1.397
19516SOL     OW59988   6.514   2.786   0.294
19516SOL    HW159989   6.572   2.811   0.222
19516SOL    HW259990   6.560   2.716   0.340
19517SOL     OW59991   7.046   3.444   0.003
19517SOL    HW159992   6.958   3.468   0.033
19517SOL    HW259993   7.096   3.525   0.006
19518SOL     OW59994   5.954   3.163   1.490
19518SOL    HW159995   5.940   3.243   1.438
19518SOL    HW259996   5.873   3.112   1.478
19519SOL     OW59997   7.191   3.150   1.280
19519SOL    HW159998   7.246   3.129   1.355
19519SOL    HW259999   7.130   3.216   1.312
19520SOL     OW60000   6.653   2.976   0.715
19520SOL    HW160001   6.579   2.927   0.751
19520SOL    HW260002   6.717   2.910   0.691
19521SOL     OW60003   6.615   2.107   0.962
19521SOL    HW160004   6.614   2.060   0.878
19521SOL    HW260005   6.608   2.038   1.028
19522SOL     OW60006   6.190   3.340   0.476
19522SOL    HW160007   6.231   3.293   0.404
19522SOL    HW260008   6.113   3.382   0.437
19523SOL     OW60009   7.317   2.252   1.377
19523SOL    HW160010   7.389   2.315   1.377
19523SOL    HW260011   7.346   2.182   1.319
19524SOL     OW60012   5.848   3.193   0.309
19524SOL    HW160013   5.774   3.219   0.255
19524SOL    HW260014   5.835   3.240   0.391
19525SOL     OW60015   5.699   2.891   1.715
19525SOL    HW160016   5.623   2.870   1.770
19525SOL    HW260017   5.774   2.855   1.763
19526SOL     OW60018   6.265   2.051   1.497
19526SOL    HW160019   6.350   2.029   1.460
19526SOL    HW260020   6.285   2.085   1.584
19527SOL     OW60021   7.007   2.716   1.393
19527SOL    HW160022   6.956   2.777   1.339
19527SOL    HW260023   7.096   2.721   1.357
19528SOL     OW60024   5.648   2.002   0.307
19528SOL    HW160025   5.643   2.097   0.295
19528SOL    HW260026   5.736   1.979   0.276
19529SOL     OW60027   6.781   3.192   0.122
19529SOL    HW160028   6.686   3.186   0.110
19529SOL    HW260029   6.794   3.184   0.216
19530SOL     OW60030   6.209   2.693   1.435
19530SOL    HW160031   6.267   2.769   1.424
19530SOL    HW260032   6.269   2.618   1.441
19531SOL     OW60033   7.073   3.654   0.987
19531SOL    HW160034   7.097   3.725   0.928
19531SOL    HW260035   7.156   3.624   1.024
19532SOL     OW60036   6.304   2.418   1.693
19532SOL    HW160037   6.348   2.476   1.755
19532SOL    HW260038   6.317   2.330   1.728
19533SOL     OW60039   7.057   3.051   1.625
19533SOL    HW160040   7.045   3.070   1.719
19533SOL    HW260041   7.148   3.074   1.607
19534SOL     OW60042   5.948   3.601   1.565
19534SOL    HW160043   5.865   3.648   1.553
19534SOL    HW260044   5.924   3.520   1.609
19535SOL     OW60045   7.246   2.741   1.253
19535SOL    HW160046   7.243   2.657   1.207
19535SOL    HW260047   7.236   2.806   1.184
19536SOL     OW60048   6.807   2.174   0.453
19536SOL    HW160049   6.868   2.100   0.453
19536SOL    HW260050   6.829   2.223   0.532
19537SOL     OW60051   6.170   2.591   0.674
19537SOL    HW160052   6.210   2.677   0.662
19537SOL    HW260053   6.104   2.585   0.605
19538SOL     OW60054   7.336   2.224   1.649
19538SOL    HW160055   7.322   2.243   1.556
19538SOL    HW260056   7.262   2.169   1.674
19539SOL     OW60057   7.334   2.792   1.509
19539SOL    HW160058   7.322   2.886   1.523
19539SOL    HW260059   7.314   2.779   1.416
19540SOL     OW60060   6.510   3.228   0.065
19540SOL    HW160061   6.452   3.210   0.138
19540SOL    HW260062   6.490   3.319   0.041
19541SOL     OW60063   6.250   3.639   0.929
19541SOL    HW160064   6.232   3.732   0.918
19541SOL    HW260065   6.345   3.633   0.927
19542SOL     OW60066   6.457   2.836   0.853
19542SOL    HW160067   6.508   2.763   0.891
19542SOL    HW260068   6.415   2.877   0.928
19543SOL     OW60069   6.674   2.850   0.075
19543SOL    HW160070   6.713   2.927   0.033
19543SOL    HW260071   6.745   2.786   0.080
19544SOL     OW60072   7.428   3.416   0.842
19544SOL    HW160073   7.348   3.406   0.790
19544SOL    HW260074   7.412   3.363   0.920
19545SOL     OW60075   5.822   3.161   1.858
19545SOL    HW160076   5.750   3.104   1.832
19545SOL    HW260077   5.808   3.178   1.951
19546SOL     OW60078   5.669   3.095   0.673
19546SOL    HW160079   5.697   3.050   0.753
19546SOL    HW260080   5.727   3.062   0.605
19547SOL     OW60081   6.273   3.277   1.631
19547SOL    HW160082   6.197   3.232   1.668
19547SOL    HW260083   6.270   3.364   1.670
19548SOL     OW60084   7.394   2.040   1.232
19548SOL    HW160085   7.399   1.945   1.245
19548SOL    HW260086   7.408   2.052   1.138
19549SOL     OW60087   6.007   2.292   0.525
19549SOL    HW160088   6.046   2.221   0.474
19549SOL    HW260089   5.960   2.247   0.596
19550SOL     OW60090   7.286   3.343   1.085
19550SOL    HW160091   7.204   3.325   1.038
19550SOL    HW260092   7.287   3.278   1.156
19551SOL     OW60093   5.925   2.425   1.292
19551SOL    HW160094   5.977   2.364   1.346
19551SOL    HW260095   5.940   2.395   1.202
19552SOL     OW60096   6.419   3.435   0.680
19552SOL    HW160097   6.394   3.498   0.612
19552SOL    HW260098   6.345   3.376   0.688
19553SOL     OW60099   7.013   2.093   1.118
19553SOL    HW160100   7.033   2.011   1.162
19553SOL    HW260101   6.963   2.144   1.182
19554SOL     OW60102   6.596   1.880   1.128
19554SOL    HW160103   6.540   1.816   1.084
19554SOL    HW260104   6.682   1.839   1.129
19555SOL     OW60105   6.378   3.182   0.306
19555SOL    HW160106   6.342   3.096   0.326
19555SOL    HW260107   6.447   3.195   0.371
19556SOL     OW60108   6.206   3.421   1.286
19556SOL    HW160109   6.203   3.504   1.335
19556SOL    HW260110   6.295   3.416   1.252
19557SOL     OW60111   6.954   1.894   0.185
19557SOL    HW160112   6.961   1.850   0.100
19557SOL    HW260113   6.871   1.942   0.181
19558SOL     OW60114   6.862   2.321   0.672
19558SOL    HW160115   6.816   2.405   0.678
19558SOL    HW260116   6.870   2.292   0.763
19559SOL     OW60117   7.167   2.053   0.887
19559SOL    HW160118   7.114   2.079   0.962
19559SOL    HW260119   7.167   2.129   0.829
19560SOL     OW60120   5.622   2.940   0.343
19560SOL    HW160121   5.714   2.946   0.317
19560SOL    HW260122   5.613   2.852   0.379
19561SOL     OW60123   6.462   3.520   0.367
19561SOL    HW160124   6.382   3.501   0.318
19561SOL    HW260125   6.440   3.598   0.418
19562SOL     OW60126   5.801   2.476   1.999
19562SOL    HW160127   5.714   2.472   2.040
19562SOL    HW260128   5.784   2.460   1.907
19563SOL     OW60129   5.812   2.145   2.849
19563SOL    HW160130   5.839   2.112   2.935
19563SOL    HW260131   5.721   2.115   2.839
19564SOL     OW60132   5.574   2.248   2.503
19564SOL    HW160133   5.497   2.282   2.549
19564SOL    HW260134   5.541   2.171   2.457
19565SOL     OW60135   6.159   3.163   3.052
19565SOL    HW160136   6.073   3.168   3.010
19565SOL    HW260137   6.174   3.250   3.087
19566SOL     OW60138   7.160   3.380   2.573
19566SOL    HW160139   7.116   3.356   2.655
19566SOL    HW260140   7.090   3.384   2.508
19567SOL     OW60141   6.723   2.558   2.553
19567SOL    HW160142   6.769   2.641   2.540
19567SOL    HW260143   6.675   2.570   2.635
19568SOL     OW60144   7.379   2.455   2.083
19568SOL    HW160145   7.346   2.451   1.993
19568SOL    HW260146   7.335   2.383   2.127
19569SOL     OW60147   6.328   2.997   2.914
19569SOL    HW160148   6.262   3.035   2.972
19569SOL    HW260149   6.370   3.073   2.873
19570SOL     OW60150   6.462   2.615   3.688
19570SOL    HW160151   6.443   2.681   3.754
19570SOL    HW260152   6.481   2.665   3.608
19571SOL     OW60153   6.272   2.853   2.505
19571SOL    HW160154   6.339   2.851   2.574
19571SOL    HW260155   6.204   2.910   2.539
19572SOL     OW60156   6.303   3.014   3.684
19572SOL    HW160157   6.348   3.092   3.717
19572SOL    HW260158   6.223   3.049   3.644
19573SOL     OW60159   5.927   3.264   2.928
19573SOL    HW160160   5.847   3.229   2.891
19573SOL    HW260161   5.960   3.324   2.861
19574SOL     OW60162   7.043   3.367   3.227
19574SOL    HW160163   7.096   3.445   3.241
19574SOL    HW260164   6.970   3.377   3.288
19575SOL     OW60165   6.038   2.243   3.330
19575SOL    HW160166   6.114   2.186   3.345
19575SOL    HW260167   5.962   2.187   3.348
19576SOL     OW60168   7.185   2.299   2.612
19576SOL    HW160169   7.113   2.313   2.550
19576SOL    HW260170   7.174   2.370   2.676
19577SOL     OW60171   5.806   3.577   2.333
19577SOL    HW160172   5.824   3.653   2.389
19577SOL    HW260173   5.882   3.573   2.274
19578SOL     OW60174   6.722   3.203   3.552
19578SOL    HW160175   6.760   3.201   3.640
19578SOL    HW260176   6.669   3.124   3.547
19579SOL     OW60177   5.825   3.304   2.398
19579SOL    HW160178   5.802   3.397   2.403
19579SOL    HW260179   5.769   3.262   2.462
19580SOL     OW60180   5.866   2.953   2.756
19580SOL    HW160181   5.850   2.864   2.788
19580SOL    HW260182   5.803   3.008   2.804
19581SOL     OW60183   6.196   3.642   3.306
19581SOL    HW160184   6.108   3.628   3.343
19581SOL    HW260185   6.214   3.734   3.324
19582SOL     OW60186   6.160   2.847   2.005
19582SOL    HW160187   6.211   2.891   1.936
19582SOL    HW260188   6.198   2.879   2.087
19583SOL     OW60189   7.185   1.990   3.327
19583SOL    HW160190   7.209   2.070   3.282
19583SOL    HW260191   7.155   2.018   3.414
19584SOL     OW60192   5.709   2.519   2.424
19584SOL    HW160193   5.671   2.434   2.448
19584SOL    HW260194   5.697   2.574   2.501
19585SOL     OW60195   7.433   3.610   2.188
19585SOL    HW160196   7.501   3.587   2.252
19585SOL    HW260197   7.447   3.703   2.170
19586SOL     OW60198   5.634   3.446   1.972
19586SOL    HW160199   5.611   3.355   1.993
19586SOL    HW260200   5.605   3.496   2.048
19587SOL     OW60201   7.275   2.784   2.504
19587SOL    HW160202   7.353   2.739   2.472
19587SOL    HW260203   7.248   2.840   2.431
19588SOL     OW60204   7.236   2.967   2.291
19588SOL    HW160205   7.322   2.965   2.250
19588SOL    HW260206   7.244   3.033   2.360
19589SOL     OW60207   5.707   2.602   3.455
19589SOL    HW160208   5.793   2.644   3.454
19589SOL    HW260209   5.644   2.674   3.453
19590SOL     OW60210   6.212   3.255   2.597
19590SOL    HW160211   6.166   3.172   2.607
19590SOL    HW260212   6.192   3.283   2.508
19591SOL     OW60213   6.868   3.096   3.277
19591SOL    HW160214   6.899   3.026   3.219
19591SOL    HW260215   6.924   3.091   3.354
19592SOL     OW60216   6.409   1.866   2.377
19592SOL    HW160217   6.450   1.949   2.352
19592SOL    HW260218   6.316   1.885   2.380
19593SOL     OW60219   5.772   2.813   3.162
19593SOL    HW160220   5.856   2.778   3.133
19593SOL    HW260221   5.714   2.802   3.087
19594SOL     OW60222   7.118   2.866   2.062
19594SOL    HW160223   7.050   2.807   2.094
19594SOL    HW260224   7.159   2.901   2.141
19595SOL     OW60225   6.790   3.689   3.494
19595SOL    HW160226   6.780   3.750   3.420
19595SOL    HW260227   6.798   3.603   3.454
19596SOL     OW60228   5.961   2.136   3.690
19596SOL    HW160229   6.001   2.206   3.741
19596SOL    HW260230   5.885   2.177   3.647
19597SOL     OW60231   7.058   3.277   2.810
19597SOL    HW160232   6.990   3.296   2.875
19597SOL    HW260233   7.041   3.188   2.782
19598SOL     OW60234   7.238   3.626   2.436
19598SOL    HW160235   7.215   3.590   2.350
19598SOL    HW260236   7.220   3.555   2.497
19599SOL     OW60237   6.178   2.572   2.135
19599SOL    HW160238   6.180   2.658   2.095
19599SOL    HW260239   6.113   2.579   2.205
19600SOL     OW60240   6.869   2.237   2.798
19600SOL    HW160241   6.779   2.205   2.805
19600SOL    HW260242   6.919   2.180   2.857
19601SOL     OW60243   7.164   3.539   2.175
19601SOL    HW160244   7.257   3.559   2.166
19601SOL    HW260245   7.134   3.522   2.085
19602SOL     OW60246   6.386   2.477   3.305
19602SOL    HW160247   6.356   2.452   3.393
19602SOL    HW260248   6.350   2.409   3.247
19603SOL     OW60249   6.978   2.338   3.541
19603SOL    HW160250   6.981   2.383   3.626
19603SOL    HW260251   7.034   2.261   3.553
19604SOL     OW60252   6.530   2.748   3.450
19604SOL    HW160253   6.587   2.683   3.409
19604SOL    HW260254   6.484   2.790   3.376
19605SOL     OW60255   6.585   2.263   3.091
19605SOL    HW160256   6.496   2.283   3.120
19605SOL    HW260257   6.574   2.233   3.000
19606SOL     OW60258   6.642   2.559   2.284
19606SOL    HW160259   6.661   2.555   2.377
19606SOL    HW260260   6.557   2.516   2.274
19607SOL     OW60261   5.672   2.688   2.632
19607SOL    HW160262   5.749   2.683   2.690
19607SOL    HW260263   5.619   2.759   2.670
19608SOL     OW60264   5.710   3.737   3.442
19608SOL    HW160265   5.712   3.712   3.535
19608SOL    HW260266   5.618   3.726   3.417
19609SOL     OW60267   6.486   2.209   2.057
19609SOL    HW160268   6.526   2.274   1.999
19609SOL    HW260269   6.494   2.126   2.009
19610SOL     OW60270   7.292   2.426   3.691
19610SOL    HW160271   7.257   2.503   3.646
19610SOL    HW260272   7.315   2.365   3.621
19611SOL     OW60273   6.969   3.006   2.404
19611SOL    HW160274   7.048   3.000   2.350
19611SOL    HW260275   6.914   3.069   2.358
19612SOL     OW60276   6.140   2.034   2.767
19612SOL    HW160277   6.143   2.063   2.858
19612SOL    HW260278   6.134   2.114   2.716
19613SOL     OW60279   6.579   3.310   2.327
19613SOL    HW160280   6.555   3.386   2.275
19613SOL    HW260281   6.550   3.331   2.416
19614SOL     OW60282   5.936   3.673   2.723
19614SOL    HW160283   5.977   3.588   2.738
19614SOL    HW260284   5.996   3.736   2.763
19615SOL     OW60285   7.386   2.906   2.733
19615SOL    HW160286   7.330   2.888   2.657
19615SOL    HW260287   7.324   2.918   2.805
19616SOL     OW60288   6.810   3.408   3.372
19616SOL    HW160289   6.794   3.334   3.430
19616SOL    HW260290   6.724   3.427   3.334
19617SOL     OW60291   5.898   2.828   2.123
19617SOL    HW160292   5.980   2.842   2.076
19617SOL    HW260293   5.868   2.742   2.094
19618SOL     OW60294   7.070   2.613   2.575
19618SOL    HW160295   7.067   2.575   2.663
19618SOL    HW260296   7.146   2.670   2.576
19619SOL     OW60297   6.060   3.124   3.591
19619SOL    HW160298   6.030   3.132   3.501
19619SOL    HW260299   5.979   3.126   3.643
19620SOL     OW60300   6.717   3.642   2.086
19620SOL    HW160301   6.638   3.609   2.129
19620SOL    HW260302   6.739   3.576   2.021
19621SOL     OW60303   5.789   2.123   3.358
19621SOL    HW160304   5.710   2.176   3.359
19621SOL    HW260305   5.761   2.038   3.391
19622SOL     OW60306   7.218   3.244   1.954
19622SOL    HW160307   7.177   3.330   1.942
19622SOL    HW260308   7.149   3.181   1.932
19623SOL     OW60309   6.045   3.600   2.180
19623SOL    HW160310   6.090   3.654   2.245
19623SOL    HW260311   6.116   3.561   2.128
19624SOL     OW60312   6.985   1.968   2.311
19624SOL    HW160313   6.979   1.944   2.218
19624SOL    HW260314   7.079   1.977   2.327
19625SOL     OW60315   5.860   3.659   3.076
19625SOL    HW160316   5.891   3.576   3.113
19625SOL    HW260317   5.795   3.633   3.010
19626SOL     OW60318   6.527   3.566   2.756
19626SOL    HW160319   6.593   3.509   2.796
19626SOL    HW260320   6.490   3.513   2.685
19627SOL     OW60321   5.984   2.552   2.333
19627SOL    HW160322   5.998   2.458   2.349
19627SOL    HW260323   5.892   2.567   2.353
19628SOL     OW60324   7.105   2.085   3.583
19628SOL    HW160325   7.121   2.101   3.675
19628SOL    HW260326   7.028   2.029   3.581
19629SOL     OW60327   6.237   1.976   1.961
19629SOL    HW160328   6.290   1.900   1.985
19629SOL    HW260329   6.180   1.945   1.890
19630SOL     OW60330   6.347   2.137   3.615
19630SOL    HW160331   6.430   2.089   3.614
19630SOL    HW260332   6.302   2.103   3.693
19631SOL     OW60333   6.465   3.388   3.052
19631SOL    HW160334   6.440   3.346   2.969
19631SOL    HW260335   6.529   3.328   3.091
19632SOL     OW60336   6.922   2.449   3.294
19632SOL    HW160337   6.953   2.422   3.381
19632SOL    HW260338   6.955   2.538   3.284
19633SOL     OW60339   6.411   3.245   2.813
19633SOL    HW160340   6.495   3.236   2.768
19633SOL    HW260341   6.347   3.255   2.742
19634SOL     OW60342   6.521   2.371   2.758
19634SOL    HW160343   6.493   2.362   2.667
19634SOL    HW260344   6.547   2.282   2.784
19635SOL     OW60345   6.142   1.925   2.353
19635SOL    HW160346   6.064   1.925   2.409
19635SOL    HW260347   6.131   2.001   2.297
19636SOL     OW60348   7.013   3.067   1.899
19636SOL    HW160349   7.042   2.992   1.952
19636SOL    HW260350   6.928   3.091   1.936
19637SOL     OW60351   5.874   1.911   2.049
19637SOL    HW160352   5.932   1.982   2.021
19637SOL    HW260353   5.933   1.849   2.093
19638SOL     OW60354   6.530   2.110   2.314
19638SOL    HW160355   6.505   2.148   2.230
19638SOL    HW260356   6.624   2.128   2.322
19639SOL     OW60357   6.664   2.553   3.316
19639SOL    HW160358   6.593   2.489   3.320
19639SOL    HW260359   6.744   2.500   3.312
19640SOL     OW60360   6.815   3.429   2.651
19640SOL    HW160361   6.821   3.497   2.584
19640SOL    HW260362   6.867   3.463   2.724
19641SOL     OW60363   6.066   3.018   2.585
19641SOL    HW160364   6.003   2.999   2.654
19641SOL    HW260365   6.017   3.009   2.503
19642SOL     OW60366   6.845   3.651   2.476
19642SOL    HW160367   6.892   3.717   2.424
19642SOL    HW260368   6.773   3.699   2.516
19643SOL     OW60369   6.612   2.389   1.889
19643SOL    HW160370   6.567   2.472   1.871
19643SOL    HW260371   6.674   2.411   1.958
19644SOL     OW60372   5.676   2.419   3.255
19644SOL    HW160373   5.768   2.425   3.227
19644SOL    HW260374   5.666   2.489   3.320
19645SOL     OW60375   6.146   2.088   3.039
19645SOL    HW160376   6.185   2.026   3.100
19645SOL    HW260377   6.052   2.087   3.060
19646SOL     OW60378   6.453   2.317   2.500
19646SOL    HW160379   6.405   2.376   2.442
19646SOL    HW260380   6.473   2.241   2.445
19647SOL     OW60381   6.613   1.913   2.603
19647SOL    HW160382   6.549   1.915   2.532
19647SOL    HW260383   6.584   1.842   2.661
19648SOL     OW60384   7.025   3.018   2.719
19648SOL    HW160385   6.949   2.961   2.730
19648SOL    HW260386   7.036   3.026   2.624
19649SOL     OW60387   7.051   2.471   2.818
19649SOL    HW160388   6.988   2.400   2.826
19649SOL    HW260389   7.105   2.466   2.896
19650SOL     OW60390   7.426   2.665   2.253
19650SOL    HW160391   7.486   2.617   2.310
19650SOL    HW260392   7.405   2.604   2.183
19651SOL     OW60393   6.077   3.285   2.017
19651SOL    HW160394   6.000   3.261   2.068
19651SOL    HW260395   6.070   3.232   1.937
19652SOL     OW60396   7.268   3.132   2.497
19652SOL    HW160397   7.361   3.131   2.518
19652SOL    HW260398   7.238   3.219   2.524
19653SOL     OW60399   6.977   2.435   1.932
19653SOL    HW160400   6.915   2.414   2.002
19653SOL    HW260401   7.063   2.413   1.969
19654SOL     OW60402   6.107   2.119   2.164
19654SOL    HW160403   6.163   2.080   2.097
19654SOL    HW260404   6.080   2.204   2.127
19655SOL     OW60405   7.327   3.106   3.409
19655SOL    HW160406   7.415   3.069   3.397
19655SOL    HW260407   7.342   3.193   3.444
19656SOL     OW60408   6.631   3.202   3.179
19656SOL    HW160409   6.555   3.179   3.233
19656SOL    HW260410   6.707   3.172   3.230
19657SOL     OW60411   7.198   3.493   3.525
19657SOL    HW160412   7.187   3.527   3.437
19657SOL    HW260413   7.278   3.440   3.521
19658SOL     OW60414   6.723   3.068   2.957
19658SOL    HW160415   6.669   3.107   3.025
19658SOL    HW260416   6.696   3.111   2.876
19659SOL     OW60417   7.209   2.961   2.937
19659SOL    HW160418   7.201   3.024   3.008
19659SOL    HW260419   7.134   2.979   2.880
19660SOL     OW60420   6.509   1.946   3.253
19660SOL    HW160421   6.529   1.935   3.160
19660SOL    HW260422   6.586   1.990   3.289
19661SOL     OW60423   6.570   2.976   3.589
19661SOL    HW160424   6.480   2.996   3.616
19661SOL    HW260425   6.562   2.897   3.536
19662SOL     OW60426   6.298   2.925   2.233
19662SOL    HW160427   6.282   2.904   2.325
19662SOL    HW260428   6.372   2.870   2.208
19663SOL     OW60429   6.012   2.682   3.110
19663SOL    HW160430   6.077   2.694   3.179
19663SOL    HW260431   5.975   2.595   3.127
19664SOL     OW60432   6.849   2.234   3.146
19664SOL    HW160433   6.880   2.313   3.191
19664SOL    HW260434   6.758   2.252   3.123
19665SOL     OW60435   5.654   3.433   3.224
19665SOL    HW160436   5.609   3.496   3.167
19665SOL    HW260437   5.747   3.450   3.210
19666SOL     OW60438   5.921   2.988   2.353
19666SOL    HW160439   5.909   3.066   2.299
19666SOL    HW260440   5.917   2.915   2.291
19667SOL     OW60441   6.132   2.383   2.718
19667SOL    HW160442   6.145   2.442   2.644
19667SOL    HW260443   6.196   2.412   2.783
19668SOL     OW60444   6.830   3.215   2.257
19668SOL    HW160445   6.886   3.285   2.290
19668SOL    HW260446   6.743   3.236   2.289
19669SOL     OW60447   6.880   3.326   3.012
19669SOL    HW160448   6.935   3.334   3.091
19669SOL    HW260449   6.816   3.258   3.035
19670SOL     OW60450   7.163   2.482   2.345
19670SOL    HW160451   7.113   2.519   2.417
19670SOL    HW260452   7.200   2.558   2.300
19671SOL     OW60453   5.930   3.400   3.162
19671SOL    HW160454   5.918   3.346   3.085
19671SOL    HW260455   6.025   3.409   3.172
19672SOL     OW60456   6.011   2.608   3.474
19672SOL    HW160457   6.068   2.655   3.413
19672SOL    HW260458   6.053   2.524   3.487
19673SOL     OW60459   7.201   2.642   3.554
19673SOL    HW160460   7.114   2.682   3.548
19673SOL    HW260461   7.252   2.684   3.484
19674SOL     OW60462   6.584   2.001   3.618
19674SOL    HW160463   6.640   2.076   3.599
19674SOL    HW260464   6.638   1.924   3.597
19675SOL     OW60465   6.081   1.894   3.617
19675SOL    HW160466   6.026   1.846   3.555
19675SOL    HW260467   6.034   1.977   3.631
19676SOL     OW60468   6.176   2.735   2.895
19676SOL    HW160469   6.204   2.826   2.895
19676SOL    HW260470   6.115   2.729   2.969
19677SOL     OW60471   6.919   2.717   2.872
19677SOL    HW160472   6.829   2.699   2.845
19677SOL    HW260473   6.966   2.635   2.858
19678SOL     OW60474   6.782   2.387   2.121
19678SOL    HW160475   6.790   2.310   2.177
19678SOL    HW260476   6.741   2.453   2.176
19679SOL     OW60477   5.883   2.056   3.102
19679SOL    HW160478   5.842   2.089   3.183
19679SOL    HW260479   5.864   1.963   3.102
19680SOL     OW60480   5.672   3.173   3.138
19680SOL    HW160481   5.680   3.120   3.217
19680SOL    HW260482   5.652   3.261   3.170
19681SOL     OW60483   6.300   2.489   2.908
19681SOL    HW160484   6.379   2.486   2.855
19681SOL    HW260485   6.267   2.578   2.898
19682SOL     OW60486   7.328   2.820   3.728
19682SOL    HW160487   7.283   2.753   3.677
19682SOL    HW260488   7.265   2.843   3.796
19683SOL     OW60489   5.900   1.923   2.486
19683SOL    HW160490   5.871   2.012   2.504
19683SOL    HW260491   5.906   1.882   2.572
19684SOL     OW60492   7.215   2.248   2.215
19684SOL    HW160493   7.242   2.183   2.280
19684SOL    HW260494   7.187   2.324   2.267
19685SOL     OW60495   6.624   2.617   2.818
19685SOL    HW160496   6.608   2.635   2.910
19685SOL    HW260497   6.593   2.528   2.804
19686SOL     OW60498   6.578   3.437   3.586
19686SOL    HW160499   6.554   3.476   3.502
19686SOL    HW260500   6.607   3.349   3.563
19687SOL     OW60501   7.434   3.358   3.466
19687SOL    HW160502   7.456   3.388   3.378
19687SOL    HW260503   7.514   3.372   3.517
19688SOL     OW60504   5.930   2.727   3.710
19688SOL    HW160505   6.007   2.775   3.740
19688SOL    HW260506   5.956   2.689   3.626
19689SOL     OW60507   7.117   2.129   1.985
19689SOL    HW160508   7.053   2.066   2.018
19689SOL    HW260509   7.151   2.172   2.064
19690SOL     OW60510   6.868   2.685   1.885
19690SOL    HW160511   6.910   2.599   1.892
19690SOL    HW260512   6.902   2.722   1.804
19691SOL     OW60513   6.662   3.206   2.718
19691SOL    HW160514   6.668   3.134   2.656
19691SOL    HW260515   6.719   3.274   2.683
19692SOL     OW60516   5.891   2.669   2.804
19692SOL    HW160517   5.984   2.692   2.800
19692SOL    HW260518   5.889   2.580   2.839
19693SOL     OW60519   5.913   2.392   2.878
19693SOL    HW160520   5.873   2.306   2.864
19693SOL    HW260521   5.989   2.393   2.819
19694SOL     OW60522   6.723   2.232   3.550
19694SOL    HW160523   6.673   2.286   3.612
19694SOL    HW260524   6.808   2.275   3.544
19695SOL     OW60525   6.749   2.057   3.336
19695SOL    HW160526   6.735   2.120   3.407
19695SOL    HW260527   6.789   2.109   3.266
19696SOL     OW60528   5.592   3.173   2.045
19696SOL    HW160529   5.505   3.191   2.011
19696SOL    HW260530   5.587   3.086   2.084
19697SOL     OW60531   5.674   3.637   2.807
19697SOL    HW160532   5.638   3.562   2.761
19697SOL    HW260533   5.761   3.650   2.769
19698SOL     OW60534   6.075   3.435   2.764
19698SOL    HW160535   6.142   3.501   2.784
19698SOL    HW260536   6.119   3.372   2.707
19699SOL     OW60537   6.555   2.642   3.078
19699SOL    HW160538   6.614   2.629   3.152
19699SOL    HW260539   6.468   2.619   3.111
19700SOL     OW60540   5.619   2.397   2.986
19700SOL    HW160541   5.699   2.411   2.936
19700SOL    HW260542   5.645   2.408   3.078
19701SOL     OW60543   5.772   2.356   3.563
19701SOL    HW160544   5.830   2.325   3.493
19701SOL    HW260545   5.745   2.443   3.535
19702SOL     OW60546   6.972   2.787   3.516
19702SOL    HW160547   6.990   2.881   3.513
19702SOL    HW260548   6.964   2.761   3.424
19703SOL     OW60549   6.405   2.432   2.229
19703SOL    HW160550   6.406   2.358   2.169
19703SOL    HW260551   6.329   2.484   2.201
19704SOL     OW60552   7.222   2.463   3.032
19704SOL    HW160553   7.211   2.408   3.110
19704SOL    HW260554   7.311   2.445   3.002
19705SOL     OW60555   5.834   3.413   3.586
19705SOL    HW160556   5.805   3.484   3.644
19705SOL    HW260557   5.832   3.335   3.641
19706SOL     OW60558   6.308   2.305   3.108
19706SOL    HW160559   6.246   2.235   3.087
19706SOL    HW260560   6.296   2.370   3.039
19707SOL     OW60561   6.536   3.531   3.322
19707SOL    HW160562   6.490   3.493   3.246
19707SOL    HW260563   6.519   3.625   3.315
19708SOL     OW60564   6.041   2.349   2.032
19708SOL    HW160565   6.100   2.419   2.060
19708SOL    HW260566   5.954   2.391   2.029
19709SOL     OW60567   5.727   3.002   3.353
19709SOL    HW160568   5.725   2.956   3.437
19709SOL    HW260569   5.742   2.933   3.288
19710SOL     OW60570   6.905   2.900   3.075
19710SOL    HW160571   6.921   2.837   3.004
19710SOL    HW260572   6.840   2.960   3.038
19711SOL     OW60573   6.910   2.716   2.161
19711SOL    HW160574   6.837   2.691   2.218
19711SOL    HW260575   6.876   2.705   2.072
19712SOL     OW60576   7.367   3.595   3.020
19712SOL    HW160577   7.430   3.620   2.952
19712SOL    HW260578   7.340   3.506   2.996
19713SOL     OW60579   6.825   3.592   2.953
19713SOL    HW160580   6.910   3.618   2.918
19713SOL    HW260581   6.837   3.502   2.982
19714SOL     OW60582   5.685   3.117   2.877
19714SOL    HW160583   5.681   3.134   2.971
19714SOL    HW260584   5.595   3.126   2.847
19715SOL     OW60585   6.254   3.540   3.604
19715SOL    HW160586   6.186   3.607   3.610
19715SOL    HW260587   6.308   3.567   3.529
19716SOL     OW60588   7.313   2.026   2.365
19716SOL    HW160589   7.380   2.010   2.299
19716SOL    HW260590   7.296   1.940   2.403
19717SOL     OW60591   6.980   3.431   2.356
19717SOL    HW160592   7.036   3.468   2.288
19717SOL    HW260593   6.927   3.505   2.386
19718SOL     OW60594   5.738   3.652   3.699
19718SOL    HW160595   5.685   3.589   3.748
19718SOL    HW260596   5.777   3.708   3.767
19719SOL     OW60597   6.864   2.788   2.523
19719SOL    HW160598   6.939   2.730   2.537
19719SOL    HW260599   6.899   2.862   2.475
19720SOL     OW60600   6.379   3.144   3.286
19720SOL    HW160601   6.355   3.187   3.368
19720SOL    HW260602   6.305   3.161   3.227
19721SOL     OW60603   6.253   3.492   2.020
19721SOL    HW160604   6.264   3.506   1.926
19721SOL    HW260605   6.199   3.413   2.026
19722SOL     OW60606   7.205   3.590   3.257
19722SOL    HW160607   7.259   3.594   3.177
19722SOL    HW260608   7.192   3.682   3.281
19723SOL     OW60609   7.431   2.027   2.825
19723SOL    HW160610   7.457   1.939   2.800
19723SOL    HW260611   7.343   2.037   2.788
19724SOL     OW60612   5.834   2.173   2.570
19724SOL    HW160613   5.747   2.208   2.548
19724SOL    HW260614   5.836   2.171   2.665
19725SOL     OW60615   6.796   3.458   1.896
19725SOL    HW160616   6.783   3.368   1.926
19725SOL    HW260617   6.727   3.472   1.831
19726SOL     OW60618   6.409   2.876   3.237
19726SOL    HW160619   6.438   2.878   3.146
19726SOL    HW260620   6.398   2.968   3.261
19727SOL     OW60621   6.501   2.768   2.149
19727SOL    HW160622   6.561   2.804   2.085
19727SOL    HW260623   6.553   2.704   2.198
19728SOL     OW60624   7.074   3.493   1.911
19728SOL    HW160625   6.980   3.481   1.896
19728SOL    HW260626   7.112   3.499   1.823
19729SOL     OW60627   5.954   3.168   3.347
19729SOL    HW160628   5.933   3.248   3.299
19729SOL    HW260629   5.875   3.115   3.340
19730SOL     OW60630   7.195   3.151   3.143
19730SOL    HW160631   7.245   3.130   3.221
19730SOL    HW260632   7.131   3.217   3.172
19731SOL     OW60633   6.657   2.974   2.576
19731SOL    HW160634   6.582   2.928   2.614
19731SOL    HW260635   6.717   2.904   2.551
19732SOL     OW60636   6.617   2.107   2.824
19732SOL    HW160637   6.616   2.059   2.741
19732SOL    HW260638   6.608   2.039   2.890
19733SOL     OW60639   6.191   3.348   2.341
19733SOL    HW160640   6.235   3.300   2.270
19733SOL    HW260641   6.106   3.372   2.304
19734SOL     OW60642   7.316   2.252   3.238
19734SOL    HW160643   7.388   2.315   3.237
19734SOL    HW260644   7.346   2.182   3.180
19735SOL     OW60645   5.844   3.208   2.150
19735SOL    HW160646   5.751   3.200   2.128
19735SOL    HW260647   5.844   3.249   2.237
19736SOL     OW60648   5.706   2.877   3.596
19736SOL    HW160649   5.624   2.863   3.643
19736SOL    HW260650   5.772   2.834   3.651
19737SOL     OW60651   6.264   2.049   3.360
19737SOL    HW160652   6.350   2.028   3.323
19737SOL    HW260653   6.284   2.085   3.446
19738SOL     OW60654   5.675   2.180   1.886
19738SOL    HW160655   5.580   2.171   1.875
19738SOL    HW260656   5.697   2.260   1.839
19739SOL     OW60657   7.006   2.714   3.253
19739SOL    HW160658   6.955   2.776   3.201
19739SOL    HW260659   7.095   2.721   3.218
19740SOL     OW60660   5.642   2.011   2.161
19740SOL    HW160661   5.631   2.096   2.119
19740SOL    HW260662   5.727   1.979   2.130
19741SOL     OW60663   6.763   3.193   1.983
19741SOL    HW160664   6.672   3.165   1.983
19741SOL    HW260665   6.788   3.195   2.075
19742SOL     OW60666   6.210   2.692   3.297
19742SOL    HW160667   6.265   2.769   3.284
19742SOL    HW260668   6.273   2.619   3.304
19743SOL     OW60669   7.072   3.654   2.848
19743SOL    HW160670   7.093   3.725   2.787
19743SOL    HW260671   7.157   3.628   2.884
19744SOL     OW60672   6.304   2.416   3.555
19744SOL    HW160673   6.347   2.475   3.617
19744SOL    HW260674   6.318   2.329   3.591
19745SOL     OW60675   7.057   3.048   3.488
19745SOL    HW160676   7.044   3.070   3.580
19745SOL    HW260677   7.147   3.074   3.470
19746SOL     OW60678   5.953   3.605   3.426
19746SOL    HW160679   5.872   3.653   3.409
19746SOL    HW260680   5.924   3.525   3.471
19747SOL     OW60681   7.246   2.742   3.114
19747SOL    HW160682   7.241   2.659   3.067
19747SOL    HW260683   7.236   2.808   3.046
19748SOL     OW60684   6.801   2.182   2.318
19748SOL    HW160685   6.862   2.108   2.316
19748SOL    HW260686   6.829   2.234   2.393
19749SOL     OW60687   6.178   2.587   2.532
19749SOL    HW160688   6.214   2.675   2.524
19749SOL    HW260689   6.110   2.582   2.465
19750SOL     OW60690   7.335   2.222   3.508
19750SOL    HW160691   7.319   2.241   3.416
19750SOL    HW260692   7.261   2.168   3.535
19751SOL     OW60693   7.337   2.791   3.370
19751SOL    HW160694   7.322   2.884   3.386
19751SOL    HW260695   7.315   2.779   3.278
19752SOL     OW60696   6.453   3.222   1.914
19752SOL    HW160697   6.417   3.234   2.001
19752SOL    HW260698   6.459   3.310   1.877
19753SOL     OW60699   6.250   3.641   2.784
19753SOL    HW160700   6.226   3.734   2.777
19753SOL    HW260701   6.345   3.641   2.787
19754SOL     OW60702   6.459   2.838   2.716
19754SOL    HW160703   6.507   2.766   2.756
19754SOL    HW260704   6.415   2.881   2.790
19755SOL     OW60705   6.663   2.852   1.952
19755SOL    HW160706   6.642   2.905   1.875
19755SOL    HW260707   6.736   2.796   1.923
19756SOL     OW60708   7.423   3.416   2.706
19756SOL    HW160709   7.346   3.408   2.650
19756SOL    HW260710   7.398   3.371   2.787
19757SOL     OW60711   5.820   3.163   3.717
19757SOL    HW160712   5.748   3.115   3.676
19757SOL    HW260713   5.790   3.180   3.806
19758SOL     OW60714   5.684   3.091   2.532
19758SOL    HW160715   5.675   3.051   2.619
19758SOL    HW260716   5.753   3.040   2.489
19759SOL     OW60717   6.276   3.275   3.504
19759SOL    HW160718   6.195   3.231   3.530
19759SOL    HW260719   6.266   3.364   3.537
19760SOL     OW60720   7.398   2.038   3.096
19760SOL    HW160721   7.398   1.943   3.106
19760SOL    HW260722   7.411   2.052   3.002
19761SOL     OW60723   6.013   2.290   2.387
19761SOL    HW160724   6.039   2.217   2.331
19761SOL    HW260725   5.958   2.251   2.454
19762SOL     OW60726   7.289   3.342   2.945
19762SOL    HW160727   7.207   3.325   2.899
19762SOL    HW260728   7.289   3.279   3.017
19763SOL     OW60729   5.928   2.425   3.157
19763SOL    HW160730   5.979   2.363   3.208
19763SOL    HW260731   5.940   2.396   3.066
19764SOL     OW60732   6.424   3.437   2.535
19764SOL    HW160733   6.389   3.508   2.480
19764SOL    HW260734   6.349   3.378   2.547
19765SOL     OW60735   7.012   2.091   2.981
19765SOL    HW160736   7.024   2.007   3.025
19765SOL    HW260737   6.962   2.144   3.044
19766SOL     OW60738   6.596   1.880   2.991
19766SOL    HW160739   6.538   1.817   2.948
19766SOL    HW260740   6.682   1.838   2.990
19767SOL     OW60741   6.366   3.194   2.177
19767SOL    HW160742   6.338   3.104   2.194
19767SOL    HW260743   6.440   3.208   2.236
19768SOL     OW60744   6.210   3.415   3.154
19768SOL    HW160745   6.207   3.495   3.208
19768SOL    HW260746   6.296   3.417   3.113
19769SOL     OW60747   6.949   1.912   2.042
19769SOL    HW160748   6.984   1.841   1.988
19769SOL    HW260749   6.859   1.886   2.060
19770SOL     OW60750   6.885   2.326   2.537
19770SOL    HW160751   6.833   2.407   2.537
19770SOL    HW260752   6.879   2.293   2.627
19771SOL     OW60753   7.169   2.052   2.752
19771SOL    HW160754   7.115   2.080   2.827
19771SOL    HW260755   7.168   2.128   2.693
19772SOL     OW60756   5.631   2.925   2.164
19772SOL    HW160757   5.725   2.917   2.150
19772SOL    HW260758   5.602   2.836   2.186
19773SOL     OW60759   6.480   3.530   2.192
19773SOL    HW160760   6.401   3.513   2.140
19773SOL    HW260761   6.453   3.597   2.255
19774SOL     OW60762   5.779   2.473   3.853
19774SOL    HW160763   5.733   2.512   3.927
19774SOL    HW260764   5.816   2.547   3.806
19775SOL     OW60765   5.814   2.141   4.712
19775SOL    HW160766   5.838   2.112   4.800
19775SOL    HW260767   5.723   2.113   4.701
19776SOL     OW60768   5.567   2.240   4.363
19776SOL    HW160769   5.493   2.282   4.408
19776SOL    HW260770   5.531   2.159   4.328
19777SOL     OW60771   6.167   3.163   4.910
19777SOL    HW160772   6.079   3.165   4.872
19777SOL    HW260773   6.178   3.249   4.949
19778SOL     OW60774   7.139   3.388   4.429
19778SOL    HW160775   7.078   3.417   4.497
19778SOL    HW260776   7.086   3.383   4.350
19779SOL     OW60777   6.727   2.558   4.414
19779SOL    HW160778   6.770   2.642   4.404
19779SOL    HW260779   6.676   2.565   4.495
19780SOL     OW60780   7.382   2.455   3.944
19780SOL    HW160781   7.348   2.451   3.854
19780SOL    HW260782   7.335   2.385   3.990
19781SOL     OW60783   6.347   3.002   4.784
19781SOL    HW160784   6.277   3.036   4.840
19781SOL    HW260785   6.375   3.078   4.732
19782SOL     OW60786   6.462   2.616   5.554
19782SOL    HW160787   6.430   2.678   5.619
19782SOL    HW260788   6.479   2.669   5.476
19783SOL     OW60789   6.273   2.852   4.369
19783SOL    HW160790   6.336   2.849   4.441
19783SOL    HW260791   6.202   2.908   4.402
19784SOL     OW60792   6.305   3.019   5.541
19784SOL    HW160793   6.345   3.098   5.578
19784SOL    HW260794   6.221   3.049   5.506
19785SOL     OW60795   5.932   3.258   4.789
19785SOL    HW160796   5.845   3.232   4.760
19785SOL    HW260797   5.959   3.325   4.726
19786SOL     OW60798   7.048   3.373   5.081
19786SOL    HW160799   7.101   3.450   5.101
19786SOL    HW260800   6.973   3.379   5.141
19787SOL     OW60801   6.046   2.240   5.179
19787SOL    HW160802   6.115   2.178   5.203
19787SOL    HW260803   5.965   2.200   5.210
19788SOL     OW60804   7.181   2.299   4.474
19788SOL    HW160805   7.106   2.310   4.416
19788SOL    HW260806   7.170   2.367   4.541
19789SOL     OW60807   5.836   3.562   4.211
19789SOL    HW160808   5.839   3.646   4.258
19789SOL    HW260809   5.880   3.580   4.127
19790SOL     OW60810   6.726   3.198   5.410
19790SOL    HW160811   6.760   3.203   5.500
19790SOL    HW260812   6.670   3.121   5.410
19791SOL     OW60813   5.840   3.298   4.269
19791SOL    HW160814   5.824   3.392   4.266
19791SOL    HW260815   5.775   3.264   4.331
19792SOL     OW60816   5.865   2.954   4.624
19792SOL    HW160817   5.847   2.865   4.656
19792SOL    HW260818   5.801   3.009   4.669
19793SOL     OW60819   6.206   3.631   5.179
19793SOL    HW160820   6.116   3.619   5.208
19793SOL    HW260821   6.222   3.725   5.189
19794SOL     OW60822   6.167   2.847   3.866
19794SOL    HW160823   6.213   2.895   3.797
19794SOL    HW260824   6.205   2.879   3.948
19795SOL     OW60825   7.184   1.992   5.186
19795SOL    HW160826   7.201   2.076   5.142
19795SOL    HW260827   7.157   2.017   5.275
19796SOL     OW60828   5.710   2.522   4.287
19796SOL    HW160829   5.664   2.442   4.312
19796SOL    HW260830   5.692   2.583   4.359
19797SOL     OW60831   7.437   3.609   4.049
19797SOL    HW160832   7.503   3.586   4.113
19797SOL    HW260833   7.450   3.703   4.033
19798SOL     OW60834   5.643   3.444   3.842
19798SOL    HW160835   5.606   3.357   3.859
19798SOL    HW260836   5.615   3.497   3.916
19799SOL     OW60837   7.278   2.787   4.373
19799SOL    HW160838   7.355   2.740   4.342
19799SOL    HW260839   7.251   2.841   4.299
19800SOL     OW60840   7.235   2.968   4.157
19800SOL    HW160841   7.322   2.968   4.116
19800SOL    HW260842   7.241   3.034   4.226
19801SOL     OW60843   5.692   2.614   5.304
19801SOL    HW160844   5.772   2.665   5.316
19801SOL    HW260845   5.623   2.679   5.296
19802SOL     OW60846   6.207   3.254   4.460
19802SOL    HW160847   6.158   3.172   4.472
19802SOL    HW260848   6.185   3.283   4.372
19803SOL     OW60849   6.878   3.099   5.131
19803SOL    HW160850   6.917   3.028   5.080
19803SOL    HW260851   6.922   3.095   5.216
19804SOL     OW60852   6.411   1.867   4.237
19804SOL    HW160853   6.450   1.951   4.213
19804SOL    HW260854   6.317   1.884   4.242
19805SOL     OW60855   5.772   2.813   5.025
19805SOL    HW160856   5.850   2.774   4.987
19805SOL    HW260857   5.702   2.795   4.962
19806SOL     OW60858   7.119   2.866   3.925
19806SOL    HW160859   7.049   2.808   3.957
19806SOL    HW260860   7.159   2.900   4.005
19807SOL     OW60861   6.812   3.702   5.358
19807SOL    HW160862   6.789   3.762   5.287
19807SOL    HW260863   6.799   3.615   5.320
19808SOL     OW60864   5.938   2.113   5.568
19808SOL    HW160865   5.974   2.199   5.591
19808SOL    HW260866   5.844   2.123   5.576
19809SOL     OW60867   7.242   3.623   4.294
19809SOL    HW160868   7.217   3.591   4.208
19809SOL    HW260869   7.218   3.553   4.355
19810SOL     OW60870   6.169   2.569   3.990
19810SOL    HW160871   6.175   2.656   3.952
19810SOL    HW260872   6.108   2.578   4.063
19811SOL     OW60873   6.869   2.237   4.659
19811SOL    HW160874   6.779   2.206   4.666
19811SOL    HW260875   6.919   2.180   4.718
19812SOL     OW60876   7.167   3.538   4.035
19812SOL    HW160877   7.259   3.558   4.024
19812SOL    HW260878   7.135   3.523   3.946
19813SOL     OW60879   6.391   2.476   5.165
19813SOL    HW160880   6.362   2.452   5.253
19813SOL    HW260881   6.353   2.410   5.108
19814SOL     OW60882   6.980   2.337   5.403
19814SOL    HW160883   6.981   2.381   5.488
19814SOL    HW260884   7.032   2.258   5.415
19815SOL     OW60885   6.531   2.750   5.312
19815SOL    HW160886   6.586   2.683   5.271
19815SOL    HW260887   6.485   2.791   5.238
19816SOL     OW60888   6.587   2.264   4.951
19816SOL    HW160889   6.500   2.285   4.982
19816SOL    HW260890   6.574   2.225   4.864
19817SOL     OW60891   6.643   2.558   4.146
19817SOL    HW160892   6.661   2.552   4.239
19817SOL    HW260893   6.557   2.516   4.136
19818SOL     OW60894   5.671   2.694   4.494
19818SOL    HW160895   5.744   2.689   4.555
19818SOL    HW260896   5.614   2.763   4.529
19819SOL     OW60897   5.703   3.715   5.292
19819SOL    HW160898   5.701   3.699   5.386
19819SOL    HW260899   5.613   3.701   5.263
19820SOL     OW60900   6.485   2.210   3.918
19820SOL    HW160901   6.525   2.274   3.860
19820SOL    HW260902   6.488   2.127   3.870
19821SOL     OW60903   7.297   2.427   5.553
19821SOL    HW160904   7.260   2.503   5.509
19821SOL    HW260905   7.316   2.365   5.482
19822SOL     OW60906   6.967   3.008   4.262
19822SOL    HW160907   7.046   2.999   4.209
19822SOL    HW260908   6.912   3.069   4.212
19823SOL     OW60909   6.144   2.037   4.632
19823SOL    HW160910   6.143   2.062   4.725
19823SOL    HW260911   6.134   2.120   4.585
19824SOL     OW60912   6.581   3.318   4.200
19824SOL    HW160913   6.562   3.385   4.135
19824SOL    HW260914   6.531   3.344   4.277
19825SOL     OW60915   5.933   3.672   4.581
19825SOL    HW160916   5.973   3.588   4.603
19825SOL    HW260917   5.980   3.736   4.634
19826SOL     OW60918   7.383   2.915   4.602
19826SOL    HW160919   7.332   2.891   4.525
19826SOL    HW260920   7.317   2.923   4.672
19827SOL     OW60921   6.806   3.404   5.219
19827SOL    HW160922   6.791   3.335   5.285
19827SOL    HW260923   6.720   3.440   5.201
19828SOL     OW60924   5.911   2.845   3.986
19828SOL    HW160925   5.996   2.856   3.945
19828SOL    HW260926   5.866   2.782   3.930
19829SOL     OW60927   7.071   2.614   4.437
19829SOL    HW160928   7.067   2.572   4.523
19829SOL    HW260929   7.149   2.669   4.440
19830SOL     OW60930   6.062   3.125   5.451
19830SOL    HW160931   6.030   3.135   5.361
19830SOL    HW260932   5.982   3.124   5.504
19831SOL     OW60933   6.725   3.635   3.958
19831SOL    HW160934   6.641   3.607   3.994
19831SOL    HW260935   6.742   3.573   3.887
19832SOL     OW60936   5.788   2.148   5.228
19832SOL    HW160937   5.713   2.207   5.220
19832SOL    HW260938   5.755   2.072   5.276
19833SOL     OW60939   7.217   3.245   3.817
19833SOL    HW160940   7.176   3.330   3.805
19833SOL    HW260941   7.148   3.182   3.795
19834SOL     OW60942   6.053   3.615   4.025
19834SOL    HW160943   6.093   3.663   4.097
19834SOL    HW260944   6.126   3.568   3.984
19835SOL     OW60945   6.986   1.970   4.173
19835SOL    HW160946   6.980   1.945   4.080
19835SOL    HW260947   7.080   1.978   4.189
19836SOL     OW60948   5.860   3.656   4.930
19836SOL    HW160949   5.888   3.573   4.968
19836SOL    HW260950   5.775   3.637   4.890
19837SOL     OW60951   6.529   3.552   4.625
19837SOL    HW160952   6.519   3.496   4.702
19837SOL    HW260953   6.490   3.501   4.553
19838SOL     OW60954   5.983   2.550   4.194
19838SOL    HW160955   5.992   2.456   4.210
19838SOL    HW260956   5.893   2.570   4.221
19839SOL     OW60957   7.107   2.085   5.445
19839SOL    HW160958   7.122   2.102   5.538
19839SOL    HW260959   7.033   2.024   5.443
19840SOL     OW60960   6.240   1.976   3.823
19840SOL    HW160961   6.287   1.898   3.853
19840SOL    HW260962   6.183   1.944   3.754
19841SOL     OW60963   6.347   2.136   5.477
19841SOL    HW160964   6.429   2.087   5.476
19841SOL    HW260965   6.299   2.101   5.553
19842SOL     OW60966   6.484   3.394   4.868
19842SOL    HW160967   6.444   3.330   4.809
19842SOL    HW260968   6.530   3.341   4.932
19843SOL     OW60969   6.926   2.448   5.156
19843SOL    HW160970   6.954   2.420   5.243
19843SOL    HW260971   6.955   2.539   5.149
19844SOL     OW60972   6.414   3.234   4.653
19844SOL    HW160973   6.489   3.239   4.593
19844SOL    HW260974   6.337   3.247   4.596
19845SOL     OW60975   6.526   2.375   4.618
19845SOL    HW160976   6.497   2.364   4.527
19845SOL    HW260977   6.547   2.286   4.647
19846SOL     OW60978   6.143   1.922   4.217
19846SOL    HW160979   6.066   1.924   4.273
19846SOL    HW260980   6.133   1.999   4.160
19847SOL     OW60981   7.012   3.068   3.761
19847SOL    HW160982   7.038   2.993   3.815
19847SOL    HW260983   6.926   3.092   3.794
19848SOL     OW60984   5.875   1.923   3.907
19848SOL    HW160985   5.937   1.988   3.874
19848SOL    HW260986   5.930   1.858   3.951
19849SOL     OW60987   6.529   2.112   4.175
19849SOL    HW160988   6.506   2.150   4.091
19849SOL    HW260989   6.623   2.130   4.184
19850SOL     OW60990   6.663   2.553   5.176
19850SOL    HW160991   6.587   2.495   5.182
19850SOL    HW260992   6.738   2.493   5.177
19851SOL     OW60993   6.875   3.445   4.553
19851SOL    HW160994   6.864   3.498   4.474
19851SOL    HW260995   6.845   3.502   4.624
19852SOL     OW60996   6.068   3.014   4.454
19852SOL    HW160997   6.002   2.998   4.521
19852SOL    HW260998   6.020   3.008   4.371
19853SOL     OW60999   6.851   3.644   4.343
19853SOL    HW161000   6.894   3.711   4.290
19853SOL    HW261001   6.775   3.688   4.381
19854SOL     OW61002   6.611   2.390   3.750
19854SOL    HW161003   6.566   2.472   3.731
19854SOL    HW261004   6.673   2.413   3.820
19855SOL     OW61005   5.674   2.413   5.121
19855SOL    HW161006   5.765   2.421   5.094
19855SOL    HW261007   5.661   2.485   5.183
19856SOL     OW61008   6.143   2.087   4.904
19856SOL    HW161009   6.181   2.029   4.969
19856SOL    HW261010   6.050   2.090   4.927
19857SOL     OW61011   6.456   2.321   4.360
19857SOL    HW161012   6.403   2.378   4.305
19857SOL    HW261013   6.473   2.244   4.305
19858SOL     OW61014   6.615   1.910   4.463
19858SOL    HW161015   6.549   1.910   4.393
19858SOL    HW261016   6.587   1.841   4.523
19859SOL     OW61017   6.976   3.047   4.565
19859SOL    HW161018   6.939   2.959   4.569
19859SOL    HW261019   7.016   3.053   4.478
19860SOL     OW61020   7.051   2.471   4.679
19860SOL    HW161021   6.987   2.400   4.688
19860SOL    HW261022   7.104   2.466   4.758
19861SOL     OW61023   7.425   2.666   4.116
19861SOL    HW161024   7.485   2.618   4.173
19861SOL    HW261025   7.405   2.604   4.045
19862SOL     OW61026   6.075   3.283   3.882
19862SOL    HW161027   6.000   3.260   3.938
19862SOL    HW261028   6.051   3.250   3.796
19863SOL     OW61029   7.258   3.135   4.366
19863SOL    HW161030   7.351   3.136   4.386
19863SOL    HW261031   7.227   3.221   4.394
19864SOL     OW61032   6.977   2.434   3.795
19864SOL    HW161033   6.913   2.414   3.863
19864SOL    HW261034   7.061   2.414   3.836
19865SOL     OW61035   6.113   2.118   4.029
19865SOL    HW161036   6.168   2.079   3.961
19865SOL    HW261037   6.084   2.202   3.992
19866SOL     OW61038   7.327   3.105   5.271
19866SOL    HW161039   7.415   3.068   5.260
19866SOL    HW261040   7.342   3.193   5.307
19867SOL     OW61041   6.637   3.197   5.031
19867SOL    HW161042   6.556   3.181   5.081
19867SOL    HW261043   6.707   3.171   5.091
19868SOL     OW61044   7.200   3.492   5.385
19868SOL    HW161045   7.190   3.529   5.297
19868SOL    HW261046   7.279   3.439   5.380
19869SOL     OW61047   6.723   3.073   4.801
19869SOL    HW161048   6.685   3.106   4.883
19869SOL    HW261049   6.647   3.049   4.748
19870SOL     OW61050   7.205   2.956   4.811
19870SOL    HW161051   7.208   3.018   4.885
19870SOL    HW261052   7.113   2.952   4.787
19871SOL     OW61053   6.511   1.946   5.116
19871SOL    HW161054   6.531   1.936   5.023
19871SOL    HW261055   6.588   1.990   5.153
19872SOL     OW61056   6.570   2.976   5.453
19872SOL    HW161057   6.480   2.997   5.481
19872SOL    HW261058   6.560   2.897   5.401
19873SOL     OW61059   6.298   2.925   4.097
19873SOL    HW161060   6.280   2.903   4.188
19873SOL    HW261061   6.373   2.870   4.074
19874SOL     OW61062   6.013   2.676   4.968
19874SOL    HW161063   6.073   2.691   5.041
19874SOL    HW261064   5.973   2.591   4.988
19875SOL     OW61065   6.852   2.235   5.005
19875SOL    HW161066   6.881   2.313   5.052
19875SOL    HW261067   6.760   2.253   4.984
19876SOL     OW61068   5.650   3.427   5.085
19876SOL    HW161069   5.590   3.490   5.048
19876SOL    HW261070   5.735   3.471   5.084
19877SOL     OW61071   5.931   2.991   4.219
19877SOL    HW161072   5.911   3.074   4.175
19877SOL    HW261073   5.928   2.925   4.150
19878SOL     OW61074   6.134   2.380   4.576
19878SOL    HW161075   6.147   2.441   4.503
19878SOL    HW261076   6.195   2.409   4.643
19879SOL     OW61077   6.824   3.212   4.120
19879SOL    HW161078   6.881   3.285   4.144
19879SOL    HW261079   6.738   3.237   4.151
19880SOL     OW61080   6.869   3.318   4.886
19880SOL    HW161081   6.938   3.333   4.950
19880SOL    HW261082   6.795   3.284   4.937
19881SOL     OW61083   7.162   2.485   4.203
19881SOL    HW161084   7.112   2.518   4.277
19881SOL    HW261085   7.196   2.563   4.160
19882SOL     OW61086   5.937   3.404   5.023
19882SOL    HW161087   5.917   3.344   4.951
19882SOL    HW261088   6.033   3.406   5.027
19883SOL     OW61089   6.011   2.615   5.337
19883SOL    HW161090   6.072   2.654   5.274
19883SOL    HW261091   6.044   2.526   5.351
19884SOL     OW61092   7.203   2.641   5.416
19884SOL    HW161093   7.116   2.681   5.412
19884SOL    HW261094   7.253   2.684   5.347
19885SOL     OW61095   6.584   1.999   5.479
19885SOL    HW161096   6.640   2.075   5.461
19885SOL    HW261097   6.638   1.923   5.458
19886SOL     OW61098   6.077   1.894   5.479
19886SOL    HW161099   6.025   1.846   5.413
19886SOL    HW261100   6.025   1.971   5.499
19887SOL     OW61101   6.174   2.733   4.758
19887SOL    HW161102   6.183   2.828   4.754
19887SOL    HW261103   6.114   2.718   4.831
19888SOL     OW61104   6.914   2.716   4.727
19888SOL    HW161105   6.824   2.693   4.703
19888SOL    HW261106   6.963   2.635   4.716
19889SOL     OW61107   6.782   2.387   3.982
19889SOL    HW161108   6.790   2.310   4.039
19889SOL    HW261109   6.740   2.453   4.038
19890SOL     OW61110   5.879   2.060   4.970
19890SOL    HW161111   5.838   2.094   5.049
19890SOL    HW261112   5.860   1.966   4.971
19891SOL     OW61113   5.694   3.173   4.996
19891SOL    HW161114   5.690   3.119   5.075
19891SOL    HW261115   5.666   3.260   5.025
19892SOL     OW61116   6.299   2.488   4.767
19892SOL    HW161117   6.379   2.487   4.715
19892SOL    HW261118   6.265   2.577   4.759
19893SOL     OW61119   7.328   2.824   5.586
19893SOL    HW161120   7.286   2.753   5.538
19893SOL    HW261121   7.267   2.846   5.656
19894SOL     OW61122   5.900   1.926   4.347
19894SOL    HW161123   5.869   2.014   4.367
19894SOL    HW261124   5.906   1.882   4.432
19895SOL     OW61125   7.217   2.250   4.076
19895SOL    HW161126   7.240   2.184   4.141
19895SOL    HW261127   7.189   2.325   4.127
19896SOL     OW61128   6.630   2.618   4.682
19896SOL    HW161129   6.612   2.634   4.775
19896SOL    HW261130   6.599   2.529   4.667
19897SOL     OW61131   6.595   3.446   5.446
19897SOL    HW161132   6.556   3.483   5.368
19897SOL    HW261133   6.600   3.352   5.428
19898SOL     OW61134   7.436   3.357   5.325
19898SOL    HW161135   7.458   3.389   5.237
19898SOL    HW261136   7.515   3.371   5.376
19899SOL     OW61137   5.946   2.770   5.556
19899SOL    HW161138   6.032   2.789   5.595
19899SOL    HW261139   5.966   2.715   5.481
19900SOL     OW61140   7.123   2.125   3.847
19900SOL    HW161141   7.056   2.065   3.880
19900SOL    HW261142   7.154   2.171   3.925
19901SOL     OW61143   6.871   2.686   3.749
19901SOL    HW161144   6.912   2.599   3.754
19901SOL    HW261145   6.904   2.723   3.667
19902SOL     OW61146   6.670   3.215   4.526
19902SOL    HW161147   6.661   3.127   4.491
19902SOL    HW261148   6.669   3.272   4.450
19903SOL     OW61149   5.888   2.668   4.667
19903SOL    HW161150   5.981   2.690   4.665
19903SOL    HW261151   5.885   2.578   4.701
19904SOL     OW61152   5.914   2.390   4.737
19904SOL    HW161153   5.874   2.304   4.726
19904SOL    HW261154   5.989   2.390   4.677
19905SOL     OW61155   6.723   2.233   5.411
19905SOL    HW161156   6.672   2.285   5.473
19905SOL    HW261157   6.808   2.276   5.407
19906SOL     OW61158   6.750   2.058   5.197
19906SOL    HW161159   6.735   2.120   5.269
19906SOL    HW261160   6.790   2.111   5.128
19907SOL     OW61161   5.597   3.168   3.905
19907SOL    HW161162   5.510   3.189   3.872
19907SOL    HW261163   5.588   3.082   3.945
19908SOL     OW61164   5.667   3.642   4.651
19908SOL    HW161165   5.633   3.562   4.611
19908SOL    HW261166   5.757   3.648   4.618
19909SOL     OW61167   6.078   3.440   4.632
19909SOL    HW161168   6.145   3.507   4.643
19909SOL    HW261169   6.118   3.378   4.570
19910SOL     OW61170   6.558   2.646   4.940
19910SOL    HW161171   6.613   2.627   5.015
19910SOL    HW261172   6.469   2.625   4.969
19911SOL     OW61173   5.621   2.395   4.850
19911SOL    HW161174   5.702   2.413   4.802
19911SOL    HW261175   5.644   2.405   4.942
19912SOL     OW61176   5.770   2.394   5.456
19912SOL    HW161177   5.814   2.350   5.383
19912SOL    HW261178   5.731   2.472   5.417
19913SOL     OW61179   6.975   2.786   5.379
19913SOL    HW161180   6.989   2.880   5.377
19913SOL    HW261181   6.965   2.761   5.287
19914SOL     OW61182   6.403   2.436   4.087
19914SOL    HW161183   6.405   2.360   4.028
19914SOL    HW261184   6.326   2.485   4.059
19915SOL     OW61185   7.221   2.466   4.895
19915SOL    HW161186   7.210   2.408   4.970
19915SOL    HW261187   7.310   2.447   4.864
19916SOL     OW61188   5.862   3.415   5.460
19916SOL    HW161189   5.822   3.483   5.514
19916SOL    HW261190   5.837   3.333   5.503
19917SOL     OW61191   6.312   2.304   4.969
19917SOL    HW161192   6.245   2.237   4.955
19917SOL    HW261193   6.296   2.369   4.899
19918SOL     OW61194   6.547   3.533   5.182
19918SOL    HW161195   6.470   3.497   5.138
19918SOL    HW261196   6.536   3.628   5.175
19919SOL     OW61197   6.034   2.343   3.887
19919SOL    HW161198   6.091   2.414   3.915
19919SOL    HW261199   5.946   2.381   3.889
19920SOL     OW61200   5.737   3.003   5.215
19920SOL    HW161201   5.730   2.958   5.300
19920SOL    HW261202   5.748   2.932   5.151
19921SOL     OW61203   6.917   2.902   4.922
19921SOL    HW161204   6.918   2.832   4.857
19921SOL    HW261205   6.848   2.962   4.893
19922SOL     OW61206   6.909   2.716   4.024
19922SOL    HW161207   6.835   2.690   4.079
19922SOL    HW261208   6.876   2.707   3.935
19923SOL     OW61209   7.353   3.609   4.869
19923SOL    HW161210   7.423   3.629   4.807
19923SOL    HW261211   7.338   3.515   4.858
19924SOL     OW61212   6.832   3.584   4.794
19924SOL    HW161213   6.922   3.611   4.777
19924SOL    HW261214   6.840   3.505   4.847
19925SOL     OW61215   5.675   3.115   4.736
19925SOL    HW161216   5.683   3.126   4.831
19925SOL    HW261217   5.588   3.150   4.715
19926SOL     OW61218   6.247   3.543   5.459
19926SOL    HW161219   6.180   3.607   5.484
19926SOL    HW261220   6.274   3.570   5.371
19927SOL     OW61221   7.307   2.024   4.225
19927SOL    HW161222   7.378   2.009   4.162
19927SOL    HW261223   7.292   1.939   4.265
19928SOL     OW61224   6.976   3.430   4.207
19928SOL    HW161225   7.032   3.467   4.140
19928SOL    HW261226   6.923   3.504   4.237
19929SOL     OW61227   5.739   3.649   5.557
19929SOL    HW161228   5.684   3.588   5.605
19929SOL    HW261229   5.775   3.707   5.624
19930SOL     OW61230   6.866   2.792   4.391
19930SOL    HW161231   6.940   2.732   4.400
19930SOL    HW261232   6.899   2.863   4.337
19931SOL     OW61233   6.381   3.153   5.142
19931SOL    HW161234   6.358   3.192   5.226
19931SOL    HW261235   6.303   3.164   5.088
19932SOL     OW61236   6.260   3.485   3.879
19932SOL    HW161237   6.265   3.502   3.785
19932SOL    HW261238   6.201   3.410   3.886
19933SOL     OW61239   7.210   3.595   5.117
19933SOL    HW161240   7.258   3.602   5.034
19933SOL    HW261241   7.194   3.685   5.143
19934SOL     OW61242   7.431   2.027   4.686
19934SOL    HW161243   7.459   1.939   4.664
19934SOL    HW261244   7.343   2.035   4.651
19935SOL     OW61245   5.829   2.174   4.432
19935SOL    HW161246   5.741   2.207   4.413
19935SOL    HW261247   5.833   2.171   4.528
19936SOL     OW61248   6.799   3.458   3.758
19936SOL    HW161249   6.784   3.368   3.786
19936SOL    HW261250   6.730   3.474   3.693
19937SOL     OW61251   6.408   2.880   5.100
19937SOL    HW161252   6.420   2.885   5.005
19937SOL    HW261253   6.397   2.971   5.127
19938SOL     OW61254   6.503   2.769   4.017
19938SOL    HW161255   6.562   2.805   3.950
19938SOL    HW261256   6.555   2.702   4.062
19939SOL     OW61257   7.076   3.492   3.773
19939SOL    HW161258   6.982   3.480   3.759
19939SOL    HW261259   7.113   3.498   3.685
19940SOL     OW61260   5.960   3.170   5.204
19940SOL    HW161261   5.932   3.252   5.164
19940SOL    HW261262   5.882   3.114   5.201
19941SOL     OW61263   7.182   3.133   5.025
19941SOL    HW161264   7.237   3.118   5.102
19941SOL    HW261265   7.121   3.201   5.052
19942SOL     OW61266   6.651   2.965   4.444
19942SOL    HW161267   6.576   2.916   4.479
19942SOL    HW261268   6.712   2.897   4.415
19943SOL     OW61269   6.618   2.107   4.685
19943SOL    HW161270   6.615   2.059   4.602
19943SOL    HW261271   6.609   2.039   4.752
19944SOL     OW61272   6.185   3.350   4.207
19944SOL    HW161273   6.215   3.307   4.127
19944SOL    HW261274   6.096   3.380   4.186
19945SOL     OW61275   7.316   2.256   5.097
19945SOL    HW161276   7.389   2.318   5.096
19945SOL    HW261277   7.346   2.184   5.041
19946SOL     OW61278   5.846   3.205   4.021
19946SOL    HW161279   5.754   3.203   3.994
19946SOL    HW261280   5.845   3.247   4.107
19947SOL     OW61281   5.709   2.891   5.461
19947SOL    HW161282   5.628   2.868   5.506
19947SOL    HW261283   5.778   2.848   5.512
19948SOL     OW61284   6.266   2.047   5.221
19948SOL    HW161285   6.353   2.026   5.185
19948SOL    HW261286   6.284   2.084   5.307
19949SOL     OW61287   7.007   2.717   5.115
19949SOL    HW161288   6.959   2.778   5.059
19949SOL    HW261289   7.097   2.720   5.081
19950SOL     OW61290   5.653   2.011   4.046
19950SOL    HW161291   5.671   2.101   4.074
19950SOL    HW261292   5.732   1.984   3.999
19951SOL     OW61293   6.758   3.193   3.839
19951SOL    HW161294   6.664   3.179   3.832
19951SOL    HW261295   6.776   3.190   3.933
19952SOL     OW61296   6.211   2.689   5.157
19952SOL    HW161297   6.265   2.768   5.150
19952SOL    HW261298   6.274   2.618   5.166
19953SOL     OW61299   7.091   3.643   4.716
19953SOL    HW161300   7.100   3.717   4.655
19953SOL    HW261301   7.176   3.639   4.760
19954SOL     OW61302   6.314   2.414   5.413
19954SOL    HW161303   6.348   2.472   5.481
19954SOL    HW261304   6.320   2.326   5.452
19955SOL     OW61305   7.055   3.050   5.352
19955SOL    HW161306   7.039   3.070   5.444
19955SOL    HW261307   7.147   3.074   5.338
19956SOL     OW61308   5.957   3.605   5.288
19956SOL    HW161309   5.874   3.649   5.269
19956SOL    HW261310   5.933   3.528   5.338
19957SOL     OW61311   7.252   2.736   4.982
19957SOL    HW161312   7.244   2.651   4.937
19957SOL    HW261313   7.243   2.800   4.912
19958SOL     OW61314   6.803   2.183   4.180
19958SOL    HW161315   6.862   2.108   4.179
19958SOL    HW261316   6.831   2.234   4.256
19959SOL     OW61317   6.181   2.584   4.389
19959SOL    HW161318   6.215   2.674   4.382
19959SOL    HW261319   6.111   2.580   4.324
19960SOL     OW61320   7.337   2.226   5.368
19960SOL    HW161321   7.318   2.244   5.276
19960SOL    HW261322   7.265   2.169   5.396
19961SOL     OW61323   7.340   2.792   5.235
19961SOL    HW161324   7.320   2.884   5.251
19961SOL    HW261325   7.316   2.777   5.143
19962SOL     OW61326   6.472   3.224   3.782
19962SOL    HW161327   6.426   3.230   3.866
19962SOL    HW261328   6.461   3.310   3.742
19963SOL     OW61329   6.256   3.645   4.641
19963SOL    HW161330   6.216   3.733   4.635
19963SOL    HW261331   6.350   3.662   4.645
19964SOL     OW61332   6.456   2.835   4.586
19964SOL    HW161333   6.500   2.759   4.624
19964SOL    HW261334   6.411   2.877   4.659
19965SOL     OW61335   6.665   2.850   3.817
19965SOL    HW161336   6.641   2.905   3.743
19965SOL    HW261337   6.737   2.795   3.785
19966SOL     OW61338   7.434   3.412   4.572
19966SOL    HW161339   7.353   3.408   4.523
19966SOL    HW261340   7.421   3.351   4.645
19967SOL     OW61341   5.808   3.160   5.568
19967SOL    HW161342   5.760   3.094   5.517
19967SOL    HW261343   5.753   3.177   5.644
19968SOL     OW61344   5.689   3.094   4.402
19968SOL    HW161345   5.679   3.067   4.493
19968SOL    HW261346   5.756   3.036   4.366
19969SOL     OW61347   6.278   3.280   5.364
19969SOL    HW161348   6.200   3.232   5.389
19969SOL    HW261349   6.265   3.368   5.400
19970SOL     OW61350   7.403   2.043   4.958
19970SOL    HW161351   7.395   1.949   4.972
19970SOL    HW261352   7.415   2.052   4.863
19971SOL     OW61353   6.003   2.288   4.243
19971SOL    HW161354   6.041   2.211   4.201
19971SOL    HW261355   5.952   2.252   4.316
19972SOL     OW61356   7.302   3.341   4.845
19972SOL    HW161357   7.214   3.324   4.878
19972SOL    HW261358   7.357   3.279   4.893
19973SOL     OW61359   5.925   2.422   5.016
19973SOL    HW161360   5.977   2.360   5.068
19973SOL    HW261361   5.936   2.393   4.926
19974SOL     OW61362   6.424   3.432   4.397
19974SOL    HW161363   6.397   3.511   4.350
19974SOL    HW261364   6.343   3.381   4.405
19975SOL     OW61365   7.013   2.090   4.842
19975SOL    HW161366   7.019   2.004   4.883
19975SOL    HW261367   6.964   2.143   4.905
19976SOL     OW61368   6.598   1.882   4.854
19976SOL    HW161369   6.537   1.819   4.817
19976SOL    HW261370   6.683   1.838   4.851
19977SOL     OW61371   6.369   3.190   4.035
19977SOL    HW161372   6.334   3.102   4.052
19977SOL    HW261373   6.435   3.203   4.103
19978SOL     OW61374   6.223   3.414   5.011
19978SOL    HW161375   6.214   3.487   5.072
19978SOL    HW261376   6.294   3.439   4.952
19979SOL     OW61377   6.948   1.914   3.903
19979SOL    HW161378   6.978   1.846   3.843
19979SOL    HW261379   6.858   1.889   3.924
19980SOL     OW61380   6.890   2.327   4.400
19980SOL    HW161381   6.837   2.407   4.399
19980SOL    HW261382   6.880   2.292   4.488
19981SOL     OW61383   7.169   2.051   4.614
19981SOL    HW161384   7.115   2.077   4.689
19981SOL    HW261385   7.167   2.126   4.556
19982SOL     OW61386   5.633   2.923   4.032
19982SOL    HW161387   5.728   2.932   4.033
19982SOL    HW261388   5.618   2.828   4.035
19983SOL     OW61389   6.482   3.529   4.051
19983SOL    HW161390   6.405   3.511   3.997
19983SOL    HW261391   6.451   3.595   4.114
19984SOL     OW61392   5.803   2.463   5.726
19984SOL    HW161393   5.715   2.466   5.764
19984SOL    HW261394   5.788   2.459   5.632
19985SOL     OW61395   5.812   2.144   6.576
19985SOL    HW161396   5.837   2.112   6.662
19985SOL    HW261397   5.722   2.116   6.565
19986SOL     OW61398   5.574   2.243   6.230
19986SOL    HW161399   5.496   2.280   6.271
19986SOL    HW261400   5.543   2.166   6.183
19987SOL     OW61401   6.160   3.162   6.777
19987SOL    HW161402   6.075   3.166   6.732
19987SOL    HW261403   6.173   3.250   6.812
19988SOL     OW61404   7.158   3.382   6.298
19988SOL    HW161405   7.112   3.357   6.378
19988SOL    HW261406   7.089   3.388   6.232
19989SOL     OW61407   6.727   2.554   6.277
19989SOL    HW161408   6.770   2.638   6.263
19989SOL    HW261409   6.677   2.566   6.358
19990SOL     OW61410   7.381   2.456   5.807
19990SOL    HW161411   7.348   2.451   5.718
19990SOL    HW261412   7.336   2.386   5.854
19991SOL     OW61413   6.339   3.003   6.645
19991SOL    HW161414   6.269   3.038   6.699
19991SOL    HW261415   6.375   3.079   6.600
19992SOL     OW61416   6.461   2.617   7.411
19992SOL    HW161417   6.431   2.683   7.473
19992SOL    HW261418   6.480   2.667   7.331
19993SOL     OW61419   6.274   2.852   6.230
19993SOL    HW161420   6.338   2.853   6.301
19993SOL    HW261421   6.204   2.910   6.261
19994SOL     OW61422   6.303   3.018   7.408
19994SOL    HW161423   6.346   3.096   7.441
19994SOL    HW261424   6.222   3.049   7.369
19995SOL     OW61425   5.930   3.262   6.651
19995SOL    HW161426   5.849   3.225   6.615
19995SOL    HW261427   5.961   3.323   6.584
19996SOL     OW61428   7.043   3.364   6.953
19996SOL    HW161429   7.094   3.444   6.967
19996SOL    HW261430   6.967   3.373   7.010
19997SOL     OW61431   6.046   2.247   7.051
19997SOL    HW161432   6.115   2.183   7.065
19997SOL    HW261433   5.965   2.201   7.073
19998SOL     OW61434   7.181   2.299   6.335
19998SOL    HW161435   7.105   2.308   6.277
19998SOL    HW261436   7.171   2.370   6.399
19999SOL     OW61437   5.853   3.562   6.068
19999SOL    HW161438   5.861   3.645   6.115
19999SOL    HW261439   5.788   3.579   6.000
20000SOL     OW61440   6.723   3.201   7.276
20000SOL    HW161441   6.757   3.201   7.366
20000SOL    HW261442   6.669   3.122   7.271
20001SOL     OW61443   5.844   3.298   6.140
20001SOL    HW161444   5.834   3.393   6.133
20001SOL    HW261445   5.774   3.271   6.199
20002SOL     OW61446   5.876   2.952   6.490
20002SOL    HW161447   5.847   2.864   6.514
20002SOL    HW261448   5.810   3.010   6.528
20003SOL     OW61449   6.202   3.637   7.040
20003SOL    HW161450   6.112   3.625   7.071
20003SOL    HW261451   6.218   3.731   7.051
20004SOL     OW61452   6.178   2.840   5.718
20004SOL    HW161453   6.222   2.895   5.654
20004SOL    HW261454   6.204   2.875   5.803
20005SOL     OW61455   7.183   1.990   7.050
20005SOL    HW161456   7.207   2.071   7.004
20005SOL    HW261457   7.156   2.019   7.137
20006SOL     OW61458   5.717   2.509   6.152
20006SOL    HW161459   5.670   2.428   6.172
20006SOL    HW261460   5.701   2.565   6.227
20007SOL     OW61461   7.430   3.612   5.904
20007SOL    HW161462   7.481   3.592   5.983
20007SOL    HW261463   7.447   3.705   5.887
20008SOL     OW61464   5.639   3.449   5.705
20008SOL    HW161465   5.589   3.368   5.715
20008SOL    HW261466   5.622   3.498   5.786
20009SOL     OW61467   7.279   2.789   6.229
20009SOL    HW161468   7.348   2.736   6.187
20009SOL    HW261469   7.246   2.845   6.159
20010SOL     OW61470   7.235   2.967   6.013
20010SOL    HW161471   7.321   2.965   5.972
20010SOL    HW261472   7.242   3.035   6.080
20011SOL     OW61473   5.694   2.613   7.169
20011SOL    HW161474   5.777   2.661   7.170
20011SOL    HW261475   5.627   2.680   7.156
20012SOL     OW61476   6.211   3.256   6.320
20012SOL    HW161477   6.164   3.173   6.330
20012SOL    HW261478   6.188   3.285   6.231
20013SOL     OW61479   6.868   3.096   7.001
20013SOL    HW161480   6.898   3.026   6.944
20013SOL    HW261481   6.923   3.090   7.078
20014SOL     OW61482   6.410   1.867   6.102
20014SOL    HW161483   6.450   1.950   6.076
20014SOL    HW261484   6.316   1.886   6.105
20015SOL     OW61485   5.770   2.811   6.887
20015SOL    HW161486   5.853   2.778   6.855
20015SOL    HW261487   5.715   2.818   6.809
20016SOL     OW61488   7.120   2.864   5.784
20016SOL    HW161489   7.051   2.806   5.814
20016SOL    HW261490   7.158   2.900   5.864
20017SOL     OW61491   6.800   3.693   7.218
20017SOL    HW161492   6.783   3.752   7.145
20017SOL    HW261493   6.797   3.605   7.179
20018SOL     OW61494   5.936   2.108   7.436
20018SOL    HW161495   5.974   2.195   7.452
20018SOL    HW261496   5.842   2.122   7.441
20019SOL     OW61497   7.065   3.274   6.536
20019SOL    HW161498   6.994   3.295   6.596
20019SOL    HW261499   7.043   3.186   6.504
20020SOL     OW61500   7.253   3.619   6.154
20020SOL    HW161501   7.216   3.589   6.071
20020SOL    HW261502   7.226   3.553   6.218
20021SOL     OW61503   6.178   2.578   5.859
20021SOL    HW161504   6.176   2.663   5.815
20021SOL    HW261505   6.113   2.585   5.929
20022SOL     OW61506   6.870   2.237   6.522
20022SOL    HW161507   6.779   2.207   6.528
20022SOL    HW261508   6.918   2.180   6.581
20023SOL     OW61509   7.161   3.543   5.897
20023SOL    HW161510   7.253   3.564   5.883
20023SOL    HW261511   7.126   3.525   5.809
20024SOL     OW61512   6.390   2.475   7.028
20024SOL    HW161513   6.359   2.450   7.115
20024SOL    HW261514   6.352   2.409   6.970
20025SOL     OW61515   6.976   2.339   7.263
20025SOL    HW161516   6.979   2.383   7.348
20025SOL    HW261517   7.032   2.262   7.273
20026SOL     OW61518   6.529   2.750   7.172
20026SOL    HW161519   6.585   2.684   7.132
20026SOL    HW261520   6.484   2.792   7.098
20027SOL     OW61521   6.585   2.261   6.815
20027SOL    HW161522   6.496   2.281   6.843
20027SOL    HW261523   6.576   2.235   6.723
20028SOL     OW61524   6.643   2.557   6.008
20028SOL    HW161525   6.660   2.551   6.102
20028SOL    HW261526   6.557   2.517   5.996
20029SOL     OW61527   5.671   2.673   6.362
20029SOL    HW161528   5.746   2.676   6.422
20029SOL    HW261529   5.617   2.747   6.388
20030SOL     OW61530   5.711   3.740   7.165
20030SOL    HW161531   5.710   3.713   7.256
20030SOL    HW261532   5.622   3.724   7.134
20031SOL     OW61533   6.485   2.209   5.782
20031SOL    HW161534   6.526   2.272   5.724
20031SOL    HW261535   6.473   2.130   5.728
20032SOL     OW61536   7.292   2.431   7.417
20032SOL    HW161537   7.257   2.507   7.370
20032SOL    HW261538   7.313   2.368   7.348
20033SOL     OW61539   6.970   3.009   6.135
20033SOL    HW161540   7.044   3.002   6.075
20033SOL    HW261541   6.910   3.070   6.092
20034SOL     OW61542   6.139   2.032   6.490
20034SOL    HW161543   6.140   2.065   6.580
20034SOL    HW261544   6.132   2.110   6.435
20035SOL     OW61545   6.582   3.314   6.055
20035SOL    HW161546   6.555   3.386   5.998
20035SOL    HW261547   6.546   3.336   6.140
20036SOL     OW61548   5.936   3.677   6.451
20036SOL    HW161549   5.978   3.592   6.463
20036SOL    HW261550   6.000   3.740   6.482
20037SOL     OW61551   7.388   2.919   6.450
20037SOL    HW161552   7.335   2.891   6.376
20037SOL    HW261553   7.327   2.925   6.523
20038SOL     OW61554   6.809   3.405   7.093
20038SOL    HW161555   6.792   3.331   7.152
20038SOL    HW261556   6.723   3.428   7.058
20039SOL     OW61557   5.896   2.821   5.850
20039SOL    HW161558   5.959   2.849   5.784
20039SOL    HW261559   5.858   2.740   5.816
20040SOL     OW61560   7.074   2.612   6.299
20040SOL    HW161561   7.067   2.574   6.387
20040SOL    HW261562   7.149   2.671   6.305
20041SOL     OW61563   6.057   3.126   7.317
20041SOL    HW161564   6.029   3.135   7.227
20041SOL    HW261565   5.976   3.125   7.368
20042SOL     OW61566   6.724   3.634   5.821
20042SOL    HW161567   6.640   3.608   5.859
20042SOL    HW261568   6.740   3.570   5.752
20043SOL     OW61569   5.790   2.146   7.083
20043SOL    HW161570   5.723   2.214   7.076
20043SOL    HW261571   5.748   2.075   7.132
20044SOL     OW61572   7.220   3.244   5.675
20044SOL    HW161573   7.178   3.329   5.666
20044SOL    HW261574   7.151   3.181   5.657
20045SOL     OW61575   6.088   3.648   5.851
20045SOL    HW161576   6.092   3.668   5.945
20045SOL    HW261577   6.135   3.565   5.842
20046SOL     OW61578   6.984   1.967   6.034
20046SOL    HW161579   6.977   1.944   5.941
20046SOL    HW261580   7.079   1.973   6.050
20047SOL     OW61581   5.858   3.657   6.797
20047SOL    HW161582   5.888   3.571   6.827
20047SOL    HW261583   5.800   3.637   6.723
20048SOL     OW61584   6.526   3.565   6.476
20048SOL    HW161585   6.572   3.499   6.528
20048SOL    HW261586   6.488   3.515   6.403
20049SOL     OW61587   5.991   2.546   6.063
20049SOL    HW161588   6.003   2.453   6.079
20049SOL    HW261589   5.898   2.561   6.079
20050SOL     OW61590   7.104   2.087   7.306
20050SOL    HW161591   7.118   2.102   7.400
20050SOL    HW261592   7.028   2.029   7.303
20051SOL     OW61593   6.241   1.974   5.683
20051SOL    HW161594   6.287   1.894   5.708
20051SOL    HW261595   6.180   1.946   5.615
20052SOL     OW61596   6.348   2.137   7.341
20052SOL    HW161597   6.430   2.088   7.341
20052SOL    HW261598   6.300   2.105   7.418
20053SOL     OW61599   6.468   3.390   6.771
20053SOL    HW161600   6.440   3.346   6.691
20053SOL    HW261601   6.529   3.328   6.812
20054SOL     OW61602   6.923   2.448   7.015
20054SOL    HW161603   6.951   2.422   7.102
20054SOL    HW261604   6.953   2.538   7.005
20055SOL     OW61605   6.411   3.249   6.533
20055SOL    HW161606   6.493   3.238   6.486
20055SOL    HW261607   6.345   3.258   6.465
20056SOL     OW61608   6.524   2.371   6.481
20056SOL    HW161609   6.495   2.364   6.390
20056SOL    HW261610   6.547   2.282   6.506
20057SOL     OW61611   6.143   1.925   6.078
20057SOL    HW161612   6.065   1.926   6.133
20057SOL    HW261613   6.133   2.002   6.021
20058SOL     OW61614   7.011   3.069   5.624
20058SOL    HW161615   7.035   2.993   5.677
20058SOL    HW261616   6.925   3.095   5.657
20059SOL     OW61617   5.870   1.914   5.771
20059SOL    HW161618   5.923   1.985   5.735
20059SOL    HW261619   5.933   1.856   5.814
20060SOL     OW61620   6.531   2.110   6.038
20060SOL    HW161621   6.506   2.147   5.953
20060SOL    HW261622   6.624   2.130   6.045
20061SOL     OW61623   6.662   2.552   7.042
20061SOL    HW161624   6.587   2.494   7.042
20061SOL    HW261625   6.738   2.494   7.034
20062SOL     OW61626   6.827   3.425   6.374
20062SOL    HW161627   6.824   3.494   6.307
20062SOL    HW261628   6.861   3.470   6.452
20063SOL     OW61629   6.069   3.017   6.310
20063SOL    HW161630   6.004   2.999   6.378
20063SOL    HW261631   6.020   3.010   6.228
20064SOL     OW61632   6.845   3.651   6.202
20064SOL    HW161633   6.886   3.716   6.145
20064SOL    HW261634   6.769   3.695   6.240
20065SOL     OW61635   6.612   2.391   5.612
20065SOL    HW161636   6.564   2.472   5.594
20065SOL    HW261637   6.671   2.413   5.684
20066SOL     OW61638   5.677   2.407   6.990
20066SOL    HW161639   5.767   2.418   6.958
20066SOL    HW261640   5.664   2.481   7.050
20067SOL     OW61641   6.142   2.090   6.762
20067SOL    HW161642   6.180   2.024   6.819
20067SOL    HW261643   6.049   2.091   6.785
20068SOL     OW61644   6.454   2.319   6.223
20068SOL    HW161645   6.400   2.378   6.171
20068SOL    HW261646   6.471   2.244   6.166
20069SOL     OW61647   6.614   1.914   6.326
20069SOL    HW161648   6.549   1.917   6.256
20069SOL    HW261649   6.584   1.842   6.383
20070SOL     OW61650   7.020   3.018   6.439
20070SOL    HW161651   6.942   2.966   6.457
20070SOL    HW261652   7.023   3.025   6.343
20071SOL     OW61653   7.051   2.471   6.541
20071SOL    HW161654   6.987   2.400   6.549
20071SOL    HW261655   7.103   2.465   6.621
20072SOL     OW61656   7.430   2.667   5.979
20072SOL    HW161657   7.487   2.617   6.036
20072SOL    HW261658   7.404   2.606   5.910
20073SOL     OW61659   6.072   3.285   5.742
20073SOL    HW161660   6.003   3.254   5.802
20073SOL    HW261661   6.036   3.269   5.655
20074SOL     OW61662   7.272   3.140   6.210
20074SOL    HW161663   7.364   3.143   6.237
20074SOL    HW261664   7.235   3.223   6.242
20075SOL     OW61665   6.978   2.431   5.658
20075SOL    HW161666   6.911   2.414   5.724
20075SOL    HW261667   7.060   2.406   5.699
20076SOL     OW61668   6.110   2.118   5.888
20076SOL    HW161669   6.163   2.079   5.818
20076SOL    HW261670   6.084   2.203   5.852
20077SOL     OW61671   7.328   3.104   7.132
20077SOL    HW161672   7.416   3.068   7.119
20077SOL    HW261673   7.343   3.191   7.169
20078SOL     OW61674   6.627   3.202   6.904
20078SOL    HW161675   6.552   3.179   6.958
20078SOL    HW261676   6.703   3.172   6.955
20079SOL     OW61677   7.203   3.493   7.254
20079SOL    HW161678   7.188   3.525   7.165
20079SOL    HW261679   7.281   3.438   7.247
20080SOL     OW61680   6.731   3.076   6.682
20080SOL    HW161681   6.670   3.108   6.748
20080SOL    HW261682   6.698   3.113   6.599
20081SOL     OW61683   7.212   2.963   6.659
20081SOL    HW161684   7.203   3.025   6.731
20081SOL    HW261685   7.135   2.978   6.604
20082SOL     OW61686   6.510   1.946   6.977
20082SOL    HW161687   6.528   1.934   6.884
20082SOL    HW261688   6.588   1.990   7.012
20083SOL     OW61689   6.569   2.974   7.317
20083SOL    HW161690   6.479   2.996   7.343
20083SOL    HW261691   6.561   2.897   7.261
20084SOL     OW61692   6.298   2.924   5.957
20084SOL    HW161693   6.278   2.901   6.048
20084SOL    HW261694   6.372   2.869   5.934
20085SOL     OW61695   6.012   2.681   6.834
20085SOL    HW161696   6.077   2.692   6.904
20085SOL    HW261697   5.972   2.596   6.852
20086SOL     OW61698   6.849   2.230   6.871
20086SOL    HW161699   6.879   2.310   6.914
20086SOL    HW261700   6.758   2.248   6.847
20087SOL     OW61701   5.652   3.436   6.947
20087SOL    HW161702   5.604   3.498   6.892
20087SOL    HW261703   5.744   3.455   6.932
20088SOL     OW61704   5.933   2.985   6.074
20088SOL    HW161705   5.915   3.063   6.021
20088SOL    HW261706   5.925   2.913   6.012
20089SOL     OW61707   6.136   2.383   6.445
20089SOL    HW161708   6.147   2.441   6.370
20089SOL    HW261709   6.199   2.415   6.509
20090SOL     OW61710   6.830   3.213   5.986
20090SOL    HW161711   6.884   3.286   6.017
20090SOL    HW261712   6.741   3.236   6.015
20091SOL     OW61713   6.881   3.325   6.732
20091SOL    HW161714   6.929   3.329   6.815
20091SOL    HW261715   6.820   3.252   6.744
20092SOL     OW61716   7.161   2.485   6.065
20092SOL    HW161717   7.116   2.516   6.143
20092SOL    HW261718   7.174   2.563   6.012
20093SOL     OW61719   5.930   3.400   6.884
20093SOL    HW161720   5.918   3.345   6.807
20093SOL    HW261721   6.025   3.409   6.892
20094SOL     OW61722   6.012   2.610   7.197
20094SOL    HW161723   6.071   2.655   7.136
20094SOL    HW261724   6.051   2.523   7.208
20095SOL     OW61725   7.203   2.645   7.277
20095SOL    HW161726   7.116   2.684   7.270
20095SOL    HW261727   7.253   2.685   7.206
20096SOL     OW61728   6.585   1.999   7.350
20096SOL    HW161729   6.639   2.075   7.328
20096SOL    HW261730   6.636   1.923   7.321
20097SOL     OW61731   6.076   1.891   7.344
20097SOL    HW161732   6.027   1.845   7.276
20097SOL    HW261733   6.023   1.969   7.363
20098SOL     OW61734   6.178   2.733   6.622
20098SOL    HW161735   6.192   2.827   6.612
20098SOL    HW261736   6.114   2.725   6.693
20099SOL     OW61737   6.917   2.716   6.598
20099SOL    HW161738   6.827   2.699   6.570
20099SOL    HW261739   6.963   2.634   6.582
20100SOL     OW61740   6.783   2.387   5.844
20100SOL    HW161741   6.788   2.310   5.900
20100SOL    HW261742   6.741   2.453   5.899
20101SOL     OW61743   5.880   2.057   6.832
20101SOL    HW161744   5.841   2.090   6.913
20101SOL    HW261745   5.860   1.963   6.832
20102SOL     OW61746   5.676   3.176   6.863
20102SOL    HW161747   5.681   3.122   6.941
20102SOL    HW261748   5.654   3.263   6.895
20103SOL     OW61749   6.305   2.491   6.635
20103SOL    HW161750   6.381   2.489   6.578
20103SOL    HW261751   6.269   2.579   6.625
20104SOL     OW61752   7.330   2.821   7.451
20104SOL    HW161753   7.287   2.754   7.399
20104SOL    HW261754   7.267   2.844   7.519
20105SOL     OW61755   5.901   1.922   6.210
20105SOL    HW161756   5.871   2.011   6.226
20105SOL    HW261757   5.906   1.882   6.296
20106SOL     OW61758   7.218   2.250   5.939
20106SOL    HW161759   7.243   2.184   6.004
20106SOL    HW261760   7.190   2.325   5.991
20107SOL     OW61761   6.629   2.616   6.542
20107SOL    HW161762   6.611   2.634   6.634
20107SOL    HW261763   6.596   2.527   6.528
20108SOL     OW61764   6.585   3.440   7.309
20108SOL    HW161765   6.553   3.479   7.227
20108SOL    HW261766   6.608   3.350   7.285
20109SOL     OW61767   7.437   3.355   7.193
20109SOL    HW161768   7.456   3.386   7.105
20109SOL    HW261769   7.518   3.369   7.242
20110SOL     OW61770   5.939   2.762   7.415
20110SOL    HW161771   6.023   2.790   7.452
20110SOL    HW261772   5.962   2.708   7.340
20111SOL     OW61773   7.122   2.128   5.709
20111SOL    HW161774   7.056   2.066   5.740
20111SOL    HW261775   7.154   2.171   5.789
20112SOL     OW61776   6.871   2.684   5.611
20112SOL    HW161777   6.912   2.597   5.617
20112SOL    HW261778   6.905   2.720   5.529
20113SOL     OW61779   6.665   3.207   6.442
20113SOL    HW161780   6.669   3.134   6.380
20113SOL    HW261781   6.723   3.274   6.404
20114SOL     OW61782   5.887   2.666   6.533
20114SOL    HW161783   5.979   2.690   6.518
20114SOL    HW261784   5.892   2.576   6.566
20115SOL     OW61785   5.918   2.390   6.605
20115SOL    HW161786   5.876   2.306   6.589
20115SOL    HW261787   5.992   2.391   6.545
20116SOL     OW61788   6.721   2.231   7.278
20116SOL    HW161789   6.671   2.286   7.337
20116SOL    HW261790   6.805   2.276   7.269
20117SOL     OW61791   6.750   2.055   7.064
20117SOL    HW161792   6.734   2.119   7.133
20117SOL    HW261793   6.789   2.106   6.993
20118SOL     OW61794   5.609   3.164   5.763
20118SOL    HW161795   5.521   3.185   5.732
20118SOL    HW261796   5.599   3.080   5.809
20119SOL     OW61797   5.681   3.629   6.542
20119SOL    HW161798   5.643   3.559   6.490
20119SOL    HW261799   5.763   3.651   6.499
20120SOL     OW61800   6.076   3.438   6.491
20120SOL    HW161801   6.144   3.502   6.511
20120SOL    HW261802   6.119   3.377   6.430
20121SOL     OW61803   6.560   2.641   6.801
20121SOL    HW161804   6.614   2.628   6.879
20121SOL    HW261805   6.471   2.622   6.829
20122SOL     OW61806   5.618   2.390   6.715
20122SOL    HW161807   5.690   2.414   6.656
20122SOL    HW261808   5.652   2.407   6.803
20123SOL     OW61809   5.776   2.395   7.318
20123SOL    HW161810   5.833   2.360   7.249
20123SOL    HW261811   5.736   2.472   7.279
20124SOL     OW61812   6.973   2.786   7.240
20124SOL    HW161813   6.989   2.881   7.236
20124SOL    HW261814   6.962   2.760   7.149
20125SOL     OW61815   6.404   2.438   5.951
20125SOL    HW161816   6.400   2.362   5.893
20125SOL    HW261817   6.329   2.491   5.926
20126SOL     OW61818   7.221   2.465   6.758
20126SOL    HW161819   7.209   2.408   6.834
20126SOL    HW261820   7.310   2.446   6.727
20127SOL     OW61821   5.836   3.413   7.312
20127SOL    HW161822   5.806   3.483   7.370
20127SOL    HW261823   5.827   3.333   7.364
20128SOL     OW61824   6.310   2.304   6.832
20128SOL    HW161825   6.245   2.236   6.811
20128SOL    HW261826   6.298   2.370   6.763
20129SOL     OW61827   6.540   3.531   7.043
20129SOL    HW161828   6.494   3.492   6.969
20129SOL    HW261829   6.520   3.624   7.038
20130SOL     OW61830   6.047   2.351   5.763
20130SOL    HW161831   6.101   2.425   5.791
20130SOL    HW261832   5.958   2.388   5.757
20131SOL     OW61833   5.729   3.003   7.076
20131SOL    HW161834   5.727   2.960   7.161
20131SOL    HW261835   5.742   2.932   7.013
20132SOL     OW61836   6.907   2.902   6.798
20132SOL    HW161837   6.919   2.837   6.728
20132SOL    HW261838   6.843   2.964   6.762
20133SOL     OW61839   6.913   2.714   5.887
20133SOL    HW161840   6.840   2.695   5.945
20133SOL    HW261841   6.876   2.706   5.799
20134SOL     OW61842   7.372   3.591   6.751
20134SOL    HW161843   7.425   3.618   6.677
20134SOL    HW261844   7.339   3.505   6.728
20135SOL     OW61845   6.826   3.594   6.687
20135SOL    HW161846   6.909   3.615   6.645
20135SOL    HW261847   6.835   3.502   6.711
20136SOL     OW61848   5.691   3.117   6.602
20136SOL    HW161849   5.682   3.136   6.696
20136SOL    HW261850   5.602   3.130   6.567
20137SOL     OW61851   6.251   3.542   7.323
20137SOL    HW161852   6.183   3.607   7.340
20137SOL    HW261853   6.287   3.567   7.238
20138SOL     OW61854   7.315   2.027   6.089
20138SOL    HW161855   7.382   2.009   6.023
20138SOL    HW261856   7.296   1.941   6.127
20139SOL     OW61857   6.983   3.433   6.083
20139SOL    HW161858   7.032   3.471   6.010
20139SOL    HW261859   6.925   3.503   6.112
20140SOL     OW61860   5.732   3.649   7.423
20140SOL    HW161861   5.679   3.587   7.473
20140SOL    HW261862   5.773   3.705   7.489
20141SOL     OW61863   6.864   2.784   6.243
20141SOL    HW161864   6.941   2.728   6.257
20141SOL    HW261865   6.899   2.862   6.199
20142SOL     OW61866   6.377   3.145   7.012
20142SOL    HW161867   6.352   3.188   7.094
20142SOL    HW261868   6.304   3.163   6.953
20143SOL     OW61869   6.276   3.466   5.734
20143SOL    HW161870   6.269   3.497   5.643
20143SOL    HW261871   6.209   3.398   5.741
20144SOL     OW61872   7.206   3.589   6.986
20144SOL    HW161873   7.258   3.593   6.906
20144SOL    HW261874   7.191   3.681   7.009
20145SOL     OW61875   7.431   2.028   6.550
20145SOL    HW161876   7.458   1.939   6.525
20145SOL    HW261877   7.343   2.037   6.513
20146SOL     OW61878   5.834   2.171   6.294
20146SOL    HW161879   5.747   2.206   6.271
20146SOL    HW261880   5.835   2.172   6.390
20147SOL     OW61881   6.804   3.457   5.621
20147SOL    HW161882   6.789   3.368   5.654
20147SOL    HW261883   6.735   3.472   5.557
20148SOL     OW61884   6.408   2.878   6.958
20148SOL    HW161885   6.424   2.883   6.864
20148SOL    HW261886   6.396   2.969   6.985
20149SOL     OW61887   6.506   2.772   5.879
20149SOL    HW161888   6.566   2.808   5.814
20149SOL    HW261889   6.558   2.704   5.923
20150SOL     OW61890   7.078   3.489   5.635
20150SOL    HW161891   6.984   3.479   5.623
20150SOL    HW261892   7.113   3.497   5.546
20151SOL     OW61893   5.955   3.170   7.072
20151SOL    HW161894   5.935   3.249   7.021
20151SOL    HW261895   5.877   3.116   7.063
20152SOL     OW61896   7.200   3.153   6.871
20152SOL    HW161897   7.244   3.128   6.952
20152SOL    HW261898   7.134   3.216   6.897
20153SOL     OW61899   6.660   2.973   6.305
20153SOL    HW161900   6.582   2.930   6.340
20153SOL    HW261901   6.714   2.901   6.273
20154SOL     OW61902   6.619   2.107   6.547
20154SOL    HW161903   6.616   2.059   6.464
20154SOL    HW261904   6.608   2.039   6.614
20155SOL     OW61905   6.178   3.354   6.066
20155SOL    HW161906   6.202   3.309   5.985
20155SOL    HW261907   6.086   3.378   6.054
20156SOL     OW61908   7.319   2.250   6.966
20156SOL    HW161909   7.390   2.314   6.963
20156SOL    HW261910   7.348   2.180   6.907
20157SOL     OW61911   5.858   3.196   5.894
20157SOL    HW161912   5.771   3.196   5.855
20157SOL    HW261913   5.848   3.240   5.978
20158SOL     OW61914   5.709   2.897   7.326
20158SOL    HW161915   5.628   2.871   7.370
20158SOL    HW261916   5.778   2.848   7.371
20159SOL     OW61917   6.265   2.047   7.085
20159SOL    HW161918   6.350   2.029   7.046
20159SOL    HW261919   6.285   2.087   7.170
20160SOL     OW61920   5.674   2.178   5.606
20160SOL    HW161921   5.581   2.167   5.584
20160SOL    HW261922   5.697   2.264   5.569
20161SOL     OW61923   7.006   2.715   6.977
20161SOL    HW161924   6.954   2.775   6.924
20161SOL    HW261925   7.094   2.720   6.940
20162SOL     OW61926   5.639   2.013   5.885
20162SOL    HW161927   5.622   2.095   5.840
20162SOL    HW261928   5.724   1.984   5.851
20163SOL     OW61929   6.759   3.195   5.703
20163SOL    HW161930   6.664   3.185   5.695
20163SOL    HW261931   6.776   3.191   5.797
20164SOL     OW61932   6.212   2.690   7.021
20164SOL    HW161933   6.266   2.768   7.007
20164SOL    HW261934   6.276   2.618   7.027
20165SOL     OW61935   7.066   3.651   6.565
20165SOL    HW161936   7.081   3.722   6.503
20165SOL    HW261937   7.152   3.632   6.602
20166SOL     OW61938   6.308   2.416   7.277
20166SOL    HW161939   6.347   2.475   7.341
20166SOL    HW261940   6.320   2.328   7.315
20167SOL     OW61941   7.057   3.047   7.213
20167SOL    HW161942   7.043   3.071   7.304
20167SOL    HW261943   7.148   3.074   7.195
20168SOL     OW61944   5.954   3.605   7.151
20168SOL    HW161945   5.875   3.654   7.131
20168SOL    HW261946   5.924   3.526   7.195
20169SOL     OW61947   7.247   2.741   6.839
20169SOL    HW161948   7.240   2.657   6.794
20169SOL    HW261949   7.236   2.807   6.770
20170SOL     OW61950   6.803   2.183   6.042
20170SOL    HW161951   6.863   2.108   6.041
20170SOL    HW261952   6.832   2.234   6.118
20171SOL     OW61953   6.183   2.587   6.259
20171SOL    HW161954   6.217   2.676   6.248
20171SOL    HW261955   6.115   2.579   6.192
20172SOL     OW61956   7.334   2.224   7.238
20172SOL    HW161957   7.322   2.242   7.145
20172SOL    HW261958   7.259   2.169   7.261
20173SOL     OW61959   7.343   2.791   7.093
20173SOL    HW161960   7.321   2.883   7.109
20173SOL    HW261961   7.318   2.776   7.002
20174SOL     OW61962   6.475   3.231   5.647
20174SOL    HW161963   6.433   3.221   5.732
20174SOL    HW261964   6.451   3.319   5.618
20175SOL     OW61965   6.253   3.641   6.518
20175SOL    HW161966   6.225   3.732   6.505
20175SOL    HW261967   6.348   3.644   6.507
20176SOL     OW61968   6.459   2.842   6.444
20176SOL    HW161969   6.505   2.767   6.483
20176SOL    HW261970   6.416   2.885   6.518
20177SOL     OW61971   6.672   2.856   5.683
20177SOL    HW161972   6.643   2.907   5.607
20177SOL    HW261973   6.739   2.797   5.648
20178SOL     OW61974   7.411   3.410   6.425
20178SOL    HW161975   7.330   3.402   6.374
20178SOL    HW261976   7.394   3.359   6.504
20179SOL     OW61977   5.806   3.157   7.431
20179SOL    HW161978   5.761   3.087   7.382
20179SOL    HW261979   5.749   3.174   7.506
20180SOL     OW61980   5.678   3.094   6.265
20180SOL    HW161981   5.658   3.036   6.339
20180SOL    HW261982   5.743   3.046   6.214
20181SOL     OW61983   6.278   3.275   7.234
20181SOL    HW161984   6.195   3.233   7.256
20181SOL    HW261985   6.267   3.366   7.264
20182SOL     OW61986   7.401   2.039   6.821
20182SOL    HW161987   7.397   1.944   6.832
20182SOL    HW261988   7.412   2.052   6.726
20183SOL     OW61989   6.023   2.284   6.119
20183SOL    HW161990   6.035   2.215   6.054
20183SOL    HW261991   5.960   2.247   6.181
20184SOL     OW61992   7.287   3.343   6.677
20184SOL    HW161993   7.207   3.326   6.627
20184SOL    HW261994   7.284   3.279   6.748
20185SOL     OW61995   5.923   2.425   6.880
20185SOL    HW161996   5.979   2.365   6.929
20185SOL    HW261997   5.935   2.400   6.788
20186SOL     OW61998   6.421   3.440   6.256
20186SOL    HW161999   6.390   3.512   6.200
20186SOL    HW262000   6.346   3.382   6.265
20187SOL     OW62001   7.012   2.089   6.705
20187SOL    HW162002   7.018   2.002   6.744
20187SOL    HW262003   6.962   2.141   6.768
20188SOL     OW62004   6.596   1.878   6.714
20188SOL    HW162005   6.539   1.816   6.669
20188SOL    HW262006   6.682   1.837   6.716
20189SOL     OW62007   6.375   3.184   5.893
20189SOL    HW162008   6.339   3.098   5.915
20189SOL    HW262009   6.436   3.202   5.964
20190SOL     OW62010   6.212   3.414   6.880
20190SOL    HW162011   6.209   3.492   6.936
20190SOL    HW262012   6.296   3.420   6.834
20191SOL     OW62013   6.950   1.913   5.764
20191SOL    HW162014   6.984   1.842   5.710
20191SOL    HW262015   6.860   1.888   5.783
20192SOL     OW62016   6.892   2.326   6.262
20192SOL    HW162017   6.838   2.406   6.260
20192SOL    HW262018   6.881   2.292   6.351
20193SOL     OW62019   7.169   2.053   6.476
20193SOL    HW162020   7.115   2.079   6.551
20193SOL    HW262021   7.168   2.128   6.417
20194SOL     OW62022   5.630   2.926   5.902
20194SOL    HW162023   5.724   2.917   5.885
20194SOL    HW262024   5.601   2.837   5.922
20195SOL     OW62025   6.482   3.530   5.916
20195SOL    HW162026   6.408   3.509   5.859
20195SOL    HW262027   6.448   3.597   5.975
20196SOL     OW62028   5.803   2.460   7.589
20196SOL    HW162029   5.715   2.466   7.624
20196SOL    HW262030   5.792   2.461   7.494
20197SOL     OW62031   5.812   2.144   8.438
20197SOL    HW162032   5.837   2.113   8.524
20197SOL    HW262033   5.721   2.117   8.427
20198SOL     OW62034   5.577   2.243   8.092
20198SOL    HW162035   5.499   2.280   8.135
20198SOL    HW262036   5.544   2.167   8.044
20199SOL     OW62037   6.159   3.161   8.639
20199SOL    HW162038   6.075   3.165   8.592
20199SOL    HW262039   6.172   3.250   8.672
20200SOL     OW62040   7.161   3.382   8.157
20200SOL    HW162041   7.115   3.357   8.238
20200SOL    HW262042   7.092   3.388   8.091
20201SOL     OW62043   6.727   2.555   8.141
20201SOL    HW162044   6.771   2.639   8.124
20201SOL    HW262045   6.677   2.570   8.221
20202SOL     OW62046   7.379   2.458   7.670
20202SOL    HW162047   7.347   2.455   7.580
20202SOL    HW262048   7.336   2.384   7.713
20203SOL     OW62049   6.342   3.004   8.510
20203SOL    HW162050   6.270   3.038   8.563
20203SOL    HW262051   6.377   3.080   8.463
20204SOL     OW62052   6.464   2.618   9.270
20204SOL    HW162053   6.436   2.686   9.331
20204SOL    HW262054   6.482   2.664   9.189
20205SOL     OW62055   6.273   2.851   8.093
20205SOL    HW162056   6.338   2.854   8.163
20205SOL    HW262057   6.203   2.910   8.123
20206SOL     OW62058   6.301   3.018   9.274
20206SOL    HW162059   6.347   3.097   9.302
20206SOL    HW262060   6.221   3.050   9.231
20207SOL     OW62061   5.929   3.263   8.513
20207SOL    HW162062   5.848   3.227   8.476
20207SOL    HW262063   5.960   3.324   8.446
20208SOL     OW62064   7.043   3.363   8.815
20208SOL    HW162065   7.095   3.443   8.826
20208SOL    HW262066   6.969   3.375   8.874
20209SOL     OW62067   6.044   2.249   8.919
20209SOL    HW162068   6.113   2.184   8.929
20209SOL    HW262069   5.963   2.201   8.937
20210SOL     OW62070   7.183   2.298   8.195
20210SOL    HW162071   7.110   2.308   8.135
20210SOL    HW262072   7.176   2.373   8.254
20211SOL     OW62073   5.852   3.562   7.928
20211SOL    HW162074   5.861   3.645   7.975
20211SOL    HW262075   5.782   3.577   7.865
20212SOL     OW62076   6.723   3.201   9.139
20212SOL    HW162077   6.760   3.196   9.228
20212SOL    HW262078   6.670   3.122   9.131
20213SOL     OW62079   5.843   3.301   8.005
20213SOL    HW162080   5.836   3.396   7.994
20213SOL    HW262081   5.769   3.278   8.062
20214SOL     OW62082   5.875   2.951   8.354
20214SOL    HW162083   5.844   2.864   8.376
20214SOL    HW262084   5.809   3.010   8.389
20215SOL     OW62085   6.200   3.639   8.903
20215SOL    HW162086   6.109   3.629   8.931
20215SOL    HW262087   6.217   3.733   8.911
20216SOL     OW62088   6.172   2.844   7.586
20216SOL    HW162089   6.217   2.896   7.519
20216SOL    HW262090   6.205   2.879   7.669
20217SOL     OW62091   7.182   1.989   8.912
20217SOL    HW162092   7.211   2.068   8.867
20217SOL    HW262093   7.155   2.021   8.999
20218SOL     OW62094   5.716   2.508   8.014
20218SOL    HW162095   5.670   2.427   8.034
20218SOL    HW262096   5.699   2.565   8.089
20219SOL     OW62097   7.426   3.612   7.767
20219SOL    HW162098   7.478   3.590   7.845
20219SOL    HW262099   7.444   3.704   7.752
20220SOL     OW62100   5.636   3.453   7.580
20220SOL    HW162101   5.596   3.368   7.597
20220SOL    HW262102   5.620   3.504   7.660
20221SOL     OW62103   7.280   2.786   8.088
20221SOL    HW162104   7.347   2.735   8.043
20221SOL    HW262105   7.245   2.845   8.021
20222SOL     OW62106   7.234   2.968   7.877
20222SOL    HW162107   7.320   2.968   7.836
20222SOL    HW262108   7.240   3.034   7.946
20223SOL     OW62109   5.695   2.614   9.031
20223SOL    HW162110   5.777   2.662   9.023
20223SOL    HW262111   5.627   2.680   9.014
20224SOL     OW62112   6.208   3.256   8.184
20224SOL    HW162113   6.161   3.173   8.193
20224SOL    HW262114   6.187   3.286   8.096
20225SOL     OW62115   6.865   3.093   8.868
20225SOL    HW162116   6.894   3.025   8.807
20225SOL    HW262117   6.927   3.087   8.941
20226SOL     OW62118   6.410   1.862   7.968
20226SOL    HW162119   6.451   1.944   7.939
20226SOL    HW262120   6.316   1.882   7.969
20227SOL     OW62121   5.767   2.811   8.754
20227SOL    HW162122   5.851   2.779   8.719
20227SOL    HW262123   5.714   2.827   8.676
20228SOL     OW62124   7.121   2.863   7.647
20228SOL    HW162125   7.051   2.805   7.677
20228SOL    HW262126   7.158   2.900   7.727
20229SOL     OW62127   6.784   3.685   9.081
20229SOL    HW162128   6.776   3.747   9.009
20229SOL    HW262129   6.791   3.600   9.038
20230SOL     OW62130   5.932   2.106   9.300
20230SOL    HW162131   5.970   2.194   9.306
20230SOL    HW262132   5.837   2.121   9.303
20231SOL     OW62133   7.061   3.277   8.394
20231SOL    HW162134   6.991   3.298   8.456
20231SOL    HW262135   7.042   3.188   8.365
20232SOL     OW62136   7.246   3.622   8.017
20232SOL    HW162137   7.213   3.591   7.932
20232SOL    HW262138   7.222   3.553   8.079
20233SOL     OW62139   6.180   2.580   7.723
20233SOL    HW162140   6.177   2.664   7.677
20233SOL    HW262141   6.114   2.588   7.792
20234SOL     OW62142   6.871   2.239   8.386
20234SOL    HW162143   6.780   2.208   8.391
20234SOL    HW262144   6.919   2.181   8.444
20235SOL     OW62145   7.160   3.540   7.760
20235SOL    HW162146   7.252   3.561   7.746
20235SOL    HW262147   7.125   3.523   7.672
20236SOL     OW62148   6.389   2.475   8.890
20236SOL    HW162149   6.357   2.450   8.977
20236SOL    HW262150   6.351   2.409   8.831
20237SOL     OW62151   6.975   2.340   9.124
20237SOL    HW162152   6.979   2.384   9.209
20237SOL    HW262153   7.032   2.264   9.134
20238SOL     OW62154   6.529   2.751   9.033
20238SOL    HW162155   6.585   2.684   8.993
20238SOL    HW262156   6.485   2.792   8.958
20239SOL     OW62157   6.583   2.260   8.677
20239SOL    HW162158   6.494   2.280   8.704
20239SOL    HW262159   6.577   2.240   8.583
20240SOL     OW62160   6.643   2.554   7.870
20240SOL    HW162161   6.659   2.550   7.965
20240SOL    HW262162   6.557   2.515   7.859
20241SOL     OW62163   5.667   2.670   8.225
20241SOL    HW162164   5.741   2.676   8.285
20241SOL    HW262165   5.611   2.744   8.248
20242SOL     OW62166   5.703   3.734   9.014
20242SOL    HW162167   5.692   3.707   9.105
20242SOL    HW262168   5.623   3.704   8.971
20243SOL     OW62169   6.489   2.207   7.644
20243SOL    HW162170   6.527   2.276   7.588
20243SOL    HW262171   6.488   2.129   7.588
20244SOL     OW62172   7.287   2.433   9.280
20244SOL    HW162173   7.255   2.509   9.231
20244SOL    HW262174   7.311   2.369   9.213
20245SOL     OW62175   6.969   3.007   7.993
20245SOL    HW162176   7.043   3.000   7.934
20245SOL    HW262177   6.910   3.069   7.950
20246SOL     OW62178   6.138   2.030   8.350
20246SOL    HW162179   6.139   2.066   8.439
20246SOL    HW262180   6.131   2.107   8.293
20247SOL     OW62181   6.582   3.314   7.917
20247SOL    HW162182   6.555   3.385   7.859
20247SOL    HW262183   6.545   3.337   8.002
20248SOL     OW62184   5.941   3.679   8.312
20248SOL    HW162185   5.981   3.593   8.325
20248SOL    HW262186   6.010   3.741   8.337
20249SOL     OW62187   7.390   2.911   8.314
20249SOL    HW162188   7.337   2.888   8.238
20249SOL    HW262189   7.326   2.920   8.385
20250SOL     OW62190   6.811   3.405   8.959
20250SOL    HW162191   6.796   3.329   9.016
20250SOL    HW262192   6.730   3.413   8.908
20251SOL     OW62193   5.902   2.823   7.710
20251SOL    HW162194   5.978   2.851   7.659
20251SOL    HW262195   5.865   2.750   7.659
20252SOL     OW62196   7.076   2.612   8.161
20252SOL    HW162197   7.069   2.577   8.250
20252SOL    HW262198   7.151   2.671   8.165
20253SOL     OW62199   6.051   3.129   9.186
20253SOL    HW162200   6.027   3.139   9.094
20253SOL    HW262201   5.968   3.127   9.233
20254SOL     OW62202   6.725   3.631   7.688
20254SOL    HW162203   6.640   3.604   7.723
20254SOL    HW262204   6.741   3.571   7.615
20255SOL     OW62205   5.790   2.143   8.945
20255SOL    HW162206   5.719   2.206   8.932
20255SOL    HW262207   5.747   2.066   8.984
20256SOL     OW62208   7.223   3.245   7.543
20256SOL    HW162209   7.181   3.331   7.531
20256SOL    HW262210   7.155   3.182   7.522
20257SOL     OW62211   6.087   3.647   7.712
20257SOL    HW162212   6.093   3.662   7.807
20257SOL    HW262213   6.139   3.568   7.698
20258SOL     OW62214   6.985   1.964   7.898
20258SOL    HW162215   6.975   1.943   7.805
20258SOL    HW262216   7.079   1.978   7.910
20259SOL     OW62217   5.857   3.654   8.655
20259SOL    HW162218   5.887   3.567   8.682
20259SOL    HW262219   5.797   3.638   8.583
20260SOL     OW62220   6.529   3.564   8.336
20260SOL    HW162221   6.599   3.506   8.367
20260SOL    HW262222   6.487   3.516   8.265
20261SOL     OW62223   5.992   2.547   7.927
20261SOL    HW162224   6.004   2.453   7.942
20261SOL    HW262225   5.898   2.561   7.940
20262SOL     OW62226   7.103   2.087   9.168
20262SOL    HW162227   7.117   2.102   9.261
20262SOL    HW262228   7.025   2.031   9.164
20263SOL     OW62229   6.239   1.972   7.547
20263SOL    HW162230   6.298   1.897   7.558
20263SOL    HW262231   6.178   1.945   7.479
20264SOL     OW62232   6.348   2.138   9.205
20264SOL    HW162233   6.430   2.088   9.204
20264SOL    HW262234   6.300   2.104   9.280
20265SOL     OW62235   6.466   3.390   8.639
20265SOL    HW162236   6.442   3.351   8.555
20265SOL    HW262237   6.531   3.329   8.676
20266SOL     OW62238   6.921   2.449   8.876
20266SOL    HW162239   6.951   2.423   8.963
20266SOL    HW262240   6.953   2.538   8.865
20267SOL     OW62241   6.409   3.249   8.397
20267SOL    HW162242   6.492   3.240   8.350
20267SOL    HW262243   6.344   3.259   8.328
20268SOL     OW62244   6.522   2.370   8.343
20268SOL    HW162245   6.493   2.364   8.252
20268SOL    HW262246   6.547   2.281   8.367
20269SOL     OW62247   6.144   1.924   7.941
20269SOL    HW162248   6.064   1.925   7.994
20269SOL    HW262249   6.136   2.000   7.884
20270SOL     OW62250   7.014   3.071   7.487
20270SOL    HW162251   7.037   2.994   7.539
20270SOL    HW262252   6.927   3.096   7.517
20271SOL     OW62253   5.870   1.912   7.633
20271SOL    HW162254   5.918   1.982   7.588
20271SOL    HW262255   5.938   1.858   7.673
20272SOL     OW62256   6.531   2.105   7.900
20272SOL    HW162257   6.504   2.143   7.816
20272SOL    HW262258   6.624   2.127   7.907
20273SOL     OW62259   6.662   2.551   8.907
20273SOL    HW162260   6.588   2.491   8.903
20273SOL    HW262261   6.739   2.496   8.895
20274SOL     OW62262   6.814   3.435   8.242
20274SOL    HW162263   6.816   3.498   8.171
20274SOL    HW262264   6.870   3.473   8.310
20275SOL     OW62265   6.068   3.015   8.173
20275SOL    HW162266   6.002   2.998   8.240
20275SOL    HW262267   6.019   3.009   8.090
20276SOL     OW62268   6.844   3.653   8.065
20276SOL    HW162269   6.888   3.716   8.008
20276SOL    HW262270   6.768   3.700   8.100
20277SOL     OW62271   6.609   2.393   7.475
20277SOL    HW162272   6.562   2.474   7.454
20277SOL    HW262273   6.672   2.419   7.542
20278SOL     OW62274   5.681   2.407   8.855
20278SOL    HW162275   5.769   2.419   8.821
20278SOL    HW262276   5.667   2.482   8.912
20279SOL     OW62277   6.143   2.091   8.622
20279SOL    HW162278   6.180   2.021   8.676
20279SOL    HW262279   6.049   2.091   8.644
20280SOL     OW62280   6.453   2.317   8.085
20280SOL    HW162281   6.403   2.377   8.030
20280SOL    HW262282   6.472   2.242   8.027
20281SOL     OW62283   6.614   1.918   8.191
20281SOL    HW162284   6.551   1.926   8.119
20281SOL    HW262285   6.580   1.846   8.244
20282SOL     OW62286   7.024   3.019   8.301
20282SOL    HW162287   6.943   2.968   8.310
20282SOL    HW262288   7.037   3.028   8.207
20283SOL     OW62289   7.050   2.474   8.405
20283SOL    HW162290   6.988   2.401   8.410
20283SOL    HW262291   7.104   2.466   8.484
20284SOL     OW62292   7.428   2.667   7.844
20284SOL    HW162293   7.486   2.616   7.899
20284SOL    HW262294   7.404   2.608   7.773
20285SOL     OW62295   6.075   3.283   7.603
20285SOL    HW162296   6.006   3.255   7.663
20285SOL    HW262297   6.044   3.257   7.516
20286SOL     OW62298   7.267   3.134   8.083
20286SOL    HW162299   7.361   3.137   8.103
20286SOL    HW262300   7.235   3.220   8.108
20287SOL     OW62301   6.978   2.433   7.518
20287SOL    HW162302   6.914   2.413   7.587
20287SOL    HW262303   7.063   2.410   7.556
20288SOL     OW62304   6.113   2.118   7.753
20288SOL    HW162305   6.163   2.076   7.683
20288SOL    HW262306   6.086   2.202   7.717
20289SOL     OW62307   7.328   3.105   8.997
20289SOL    HW162308   7.416   3.069   8.983
20289SOL    HW262309   7.344   3.194   9.031
20290SOL     OW62310   6.631   3.209   8.774
20290SOL    HW162311   6.555   3.181   8.825
20290SOL    HW262312   6.705   3.171   8.821
20291SOL     OW62313   7.200   3.492   9.115
20291SOL    HW162314   7.186   3.526   9.026
20291SOL    HW262315   7.280   3.440   9.108
20292SOL     OW62316   6.731   3.081   8.547
20292SOL    HW162317   6.666   3.111   8.610
20292SOL    HW262318   6.701   3.115   8.463
20293SOL     OW62319   7.209   2.959   8.519
20293SOL    HW162320   7.199   3.023   8.590
20293SOL    HW262321   7.135   2.975   8.461
20294SOL     OW62322   6.511   1.943   8.840
20294SOL    HW162323   6.528   1.933   8.746
20294SOL    HW262324   6.588   1.989   8.873
20295SOL     OW62325   6.568   2.974   9.179
20295SOL    HW162326   6.477   2.994   9.202
20295SOL    HW262327   6.562   2.898   9.121
20296SOL     OW62328   6.299   2.926   7.820
20296SOL    HW162329   6.279   2.902   7.911
20296SOL    HW262330   6.375   2.872   7.798
20297SOL     OW62331   6.011   2.684   8.698
20297SOL    HW162332   6.077   2.694   8.767
20297SOL    HW262333   5.973   2.598   8.714
20298SOL     OW62334   6.847   2.229   8.734
20298SOL    HW162335   6.878   2.310   8.776
20298SOL    HW262336   6.757   2.247   8.710
20299SOL     OW62337   5.656   3.426   8.801
20299SOL    HW162338   5.606   3.488   8.748
20299SOL    HW262339   5.747   3.450   8.787
20300SOL     OW62340   5.931   2.984   7.937
20300SOL    HW162341   5.916   3.063   7.884
20300SOL    HW262342   5.924   2.912   7.875
20301SOL     OW62343   6.136   2.384   8.310
20301SOL    HW162344   6.146   2.441   8.234
20301SOL    HW262345   6.201   2.417   8.373
20302SOL     OW62346   6.829   3.211   7.850
20302SOL    HW162347   6.884   3.285   7.879
20302SOL    HW262348   6.741   3.235   7.877
20303SOL     OW62349   6.881   3.325   8.594
20303SOL    HW162350   6.929   3.327   8.676
20303SOL    HW262351   6.823   3.250   8.602
20304SOL     OW62352   7.162   2.481   7.930
20304SOL    HW162353   7.116   2.518   8.005
20304SOL    HW262354   7.180   2.556   7.873
20305SOL     OW62355   5.935   3.397   8.746
20305SOL    HW162356   5.921   3.344   8.668
20305SOL    HW262357   6.030   3.408   8.751
20306SOL     OW62358   6.010   2.612   9.058
20306SOL    HW162359   6.071   2.655   8.998
20306SOL    HW262360   6.040   2.521   9.061
20307SOL     OW62361   7.201   2.646   9.139
20307SOL    HW162362   7.114   2.686   9.131
20307SOL    HW262363   7.252   2.686   9.068
20308SOL     OW62364   6.584   1.999   9.213
20308SOL    HW162365   6.638   2.074   9.191
20308SOL    HW262366   6.635   1.923   9.184
20309SOL     OW62367   6.074   1.890   9.208
20309SOL    HW162368   6.027   1.845   9.138
20309SOL    HW262369   6.021   1.968   9.226
20310SOL     OW62370   6.181   2.732   8.487
20310SOL    HW162371   6.191   2.826   8.470
20310SOL    HW262372   6.114   2.727   8.554
20311SOL     OW62373   6.919   2.716   8.465
20311SOL    HW162374   6.831   2.702   8.430
20311SOL    HW262375   6.965   2.635   8.446
20312SOL     OW62376   6.787   2.386   7.708
20312SOL    HW162377   6.790   2.308   7.764
20312SOL    HW262378   6.744   2.452   7.763
20313SOL     OW62379   5.882   2.056   8.693
20313SOL    HW162380   5.842   2.090   8.773
20313SOL    HW262381   5.861   1.963   8.693
20314SOL     OW62382   5.675   3.167   8.724
20314SOL    HW162383   5.683   3.119   8.806
20314SOL    HW262384   5.656   3.257   8.750
20315SOL     OW62385   6.308   2.491   8.500
20315SOL    HW162386   6.382   2.488   8.440
20315SOL    HW262387   6.272   2.579   8.490
20316SOL     OW62388   7.331   2.818   9.316
20316SOL    HW162389   7.287   2.754   9.261
20316SOL    HW262390   7.265   2.841   9.382
20317SOL     OW62391   5.901   1.920   8.071
20317SOL    HW162392   5.871   2.010   8.086
20317SOL    HW262393   5.905   1.881   8.158
20318SOL     OW62394   7.215   2.246   7.802
20318SOL    HW162395   7.243   2.182   7.868
20318SOL    HW262396   7.188   2.322   7.854
20319SOL     OW62397   6.625   2.616   8.403
20319SOL    HW162398   6.610   2.633   8.495
20319SOL    HW262399   6.593   2.527   8.388
20320SOL     OW62400   6.575   3.431   9.172
20320SOL    HW162401   6.550   3.474   9.090
20320SOL    HW262402   6.613   3.347   9.144
20321SOL     OW62403   7.436   3.357   9.053
20321SOL    HW162404   7.455   3.388   8.964
20321SOL    HW262405   7.517   3.372   9.102
20322SOL     OW62406   5.935   2.758   9.278
20322SOL    HW162407   6.020   2.790   9.310
20322SOL    HW262408   5.957   2.704   9.202
20323SOL     OW62409   7.118   2.126   7.572
20323SOL    HW162410   7.052   2.065   7.604
20323SOL    HW262411   7.152   2.170   7.650
20324SOL     OW62412   6.874   2.685   7.474
20324SOL    HW162413   6.914   2.598   7.477
20324SOL    HW262414   6.905   2.722   7.391
20325SOL     OW62415   6.665   3.207   8.308
20325SOL    HW162416   6.669   3.136   8.244
20325SOL    HW262417   6.719   3.276   8.269
20326SOL     OW62418   5.885   2.665   8.394
20326SOL    HW162419   5.975   2.689   8.371
20326SOL    HW262420   5.892   2.576   8.428
20327SOL     OW62421   5.920   2.390   8.469
20327SOL    HW162422   5.876   2.307   8.452
20327SOL    HW262423   5.994   2.391   8.409
20328SOL     OW62424   6.721   2.230   9.141
20328SOL    HW162425   6.671   2.286   9.199
20328SOL    HW262426   6.805   2.275   9.130
20329SOL     OW62427   6.750   2.055   8.927
20329SOL    HW162428   6.735   2.119   8.996
20329SOL    HW262429   6.789   2.105   8.856
20330SOL     OW62430   5.618   3.164   7.633
20330SOL    HW162431   5.531   3.182   7.598
20330SOL    HW262432   5.609   3.081   7.678
20331SOL     OW62433   5.690   3.628   8.411
20331SOL    HW162434   5.650   3.559   8.359
20331SOL    HW262435   5.769   3.652   8.363
20332SOL     OW62436   6.079   3.439   8.357
20332SOL    HW162437   6.147   3.502   8.378
20332SOL    HW262438   6.120   3.379   8.294
20333SOL     OW62439   6.561   2.639   8.663
20333SOL    HW162440   6.613   2.629   8.742
20333SOL    HW262441   6.472   2.617   8.691
20334SOL     OW62442   5.617   2.386   8.578
20334SOL    HW162443   5.683   2.415   8.515
20334SOL    HW262444   5.654   2.407   8.663
20335SOL     OW62445   5.779   2.395   9.179
20335SOL    HW162446   5.823   2.350   9.107
20335SOL    HW262447   5.741   2.473   9.140
20336SOL     OW62448   6.971   2.788   9.102
20336SOL    HW162449   6.990   2.882   9.097
20336SOL    HW262450   6.961   2.761   9.011
20337SOL     OW62451   6.402   2.435   7.816
20337SOL    HW162452   6.399   2.362   7.755
20337SOL    HW262453   6.328   2.491   7.790
20338SOL     OW62454   7.221   2.462   8.621
20338SOL    HW162455   7.210   2.406   8.697
20338SOL    HW262456   7.310   2.443   8.590
20339SOL     OW62457   5.838   3.411   9.171
20339SOL    HW162458   5.804   3.481   9.226
20339SOL    HW262459   5.825   3.332   9.222
20340SOL     OW62460   6.308   2.303   8.695
20340SOL    HW162461   6.245   2.236   8.671
20340SOL    HW262462   6.299   2.370   8.626
20341SOL     OW62463   6.526   3.532   8.912
20341SOL    HW162464   6.489   3.493   8.833
20341SOL    HW262465   6.509   3.626   8.901
20342SOL     OW62466   6.048   2.351   7.631
20342SOL    HW162467   6.102   2.426   7.656
20342SOL    HW262468   5.960   2.387   7.623
20343SOL     OW62469   5.731   3.005   8.942
20343SOL    HW162470   5.728   2.961   9.027
20343SOL    HW262471   5.742   2.933   8.879
20344SOL     OW62472   6.903   2.902   8.663
20344SOL    HW162473   6.918   2.838   8.594
20344SOL    HW262474   6.842   2.965   8.625
20345SOL     OW62475   6.912   2.713   7.748
20345SOL    HW162476   6.836   2.695   7.803
20345SOL    HW262477   6.880   2.706   7.658
20346SOL     OW62478   7.374   3.591   8.613
20346SOL    HW162479   7.433   3.618   8.542
20346SOL    HW262480   7.341   3.505   8.586
20347SOL     OW62481   6.827   3.596   8.553
20347SOL    HW162482   6.910   3.618   8.510
20347SOL    HW262483   6.836   3.502   8.573
20348SOL     OW62484   5.689   3.119   8.461
20348SOL    HW162485   5.678   3.133   8.555
20348SOL    HW262486   5.606   3.147   8.423
20349SOL     OW62487   6.257   3.544   9.188
20349SOL    HW162488   6.184   3.605   9.192
20349SOL    HW262489   6.301   3.564   9.105
20350SOL     OW62490   7.318   2.026   7.953
20350SOL    HW162491   7.383   2.011   7.885
20350SOL    HW262492   7.300   1.940   7.990
20351SOL     OW62493   6.982   3.432   7.946
20351SOL    HW162494   7.032   3.467   7.873
20351SOL    HW262495   6.924   3.503   7.972
20352SOL     OW62496   5.732   3.648   9.282
20352SOL    HW162497   5.680   3.583   9.330
20352SOL    HW262498   5.768   3.705   9.351
20353SOL     OW62499   6.866   2.785   8.108
20353SOL    HW162500   6.942   2.728   8.118
20353SOL    HW262501   6.899   2.861   8.061
20354SOL     OW62502   6.379   3.144   8.876
20354SOL    HW162503   6.352   3.187   8.957
20354SOL    HW262504   6.309   3.165   8.814
20355SOL     OW62505   6.275   3.469   7.597
20355SOL    HW162506   6.272   3.496   7.505
20355SOL    HW262507   6.210   3.399   7.603
20356SOL     OW62508   7.205   3.588   8.846
20356SOL    HW162509   7.259   3.591   8.766
20356SOL    HW262510   7.191   3.680   8.868
20357SOL     OW62511   7.429   2.027   8.413
20357SOL    HW162512   7.457   1.940   8.386
20357SOL    HW262513   7.342   2.038   8.375
20358SOL     OW62514   5.835   2.169   8.156
20358SOL    HW162515   5.749   2.205   8.132
20358SOL    HW262516   5.836   2.171   8.251
20359SOL     OW62517   6.800   3.459   7.483
20359SOL    HW162518   6.786   3.369   7.512
20359SOL    HW262519   6.732   3.475   7.418
20360SOL     OW62520   6.408   2.877   8.818
20360SOL    HW162521   6.422   2.881   8.724
20360SOL    HW262522   6.397   2.969   8.844
20361SOL     OW62523   6.509   2.774   7.748
20361SOL    HW162524   6.566   2.808   7.678
20361SOL    HW262525   6.560   2.703   7.788
20362SOL     OW62526   7.076   3.489   7.499
20362SOL    HW162527   6.982   3.479   7.485
20362SOL    HW262528   7.113   3.497   7.411
20363SOL     OW62529   5.957   3.173   8.938
20363SOL    HW162530   5.941   3.250   8.882
20363SOL    HW262531   5.879   3.119   8.926
20364SOL     OW62532   7.195   3.151   8.727
20364SOL    HW162533   7.246   3.129   8.805
20364SOL    HW262534   7.131   3.216   8.756
20365SOL     OW62535   6.660   2.974   8.170
20365SOL    HW162536   6.581   2.931   8.203
20365SOL    HW262537   6.713   2.903   8.133
20366SOL     OW62538   6.620   2.108   8.410
20366SOL    HW162539   6.618   2.061   8.327
20366SOL    HW262540   6.608   2.040   8.477
20367SOL     OW62541   6.186   3.355   7.931
20367SOL    HW162542   6.219   3.310   7.853
20367SOL    HW262543   6.095   3.378   7.909
20368SOL     OW62544   7.322   2.247   8.833
20368SOL    HW162545   7.392   2.313   8.828
20368SOL    HW262546   7.349   2.179   8.772
20369SOL     OW62547   5.865   3.196   7.760
20369SOL    HW162548   5.779   3.197   7.719
20369SOL    HW262549   5.853   3.242   7.844
20370SOL     OW62550   5.710   2.903   9.196
20370SOL    HW162551   5.629   2.874   9.237
20370SOL    HW262552   5.778   2.847   9.234
20371SOL     OW62553   6.265   2.046   8.948
20371SOL    HW162554   6.350   2.029   8.908
20371SOL    HW262555   6.285   2.087   9.031
20372SOL     OW62556   5.673   2.181   7.466
20372SOL    HW162557   5.588   2.168   7.423
20372SOL    HW262558   5.702   2.266   7.435
20373SOL     OW62559   7.005   2.715   8.840
20373SOL    HW162560   6.953   2.775   8.787
20373SOL    HW262561   7.093   2.720   8.802
20374SOL     OW62562   5.639   2.014   7.743
20374SOL    HW162563   5.621   2.093   7.693
20374SOL    HW262564   5.725   1.985   7.713
20375SOL     OW62565   6.758   3.194   7.564
20375SOL    HW162566   6.663   3.186   7.555
20375SOL    HW262567   6.774   3.190   7.658
20376SOL     OW62568   6.212   2.691   8.885
20376SOL    HW162569   6.266   2.768   8.868
20376SOL    HW262570   6.275   2.619   8.889
20377SOL     OW62571   7.066   3.653   8.429
20377SOL    HW162572   7.082   3.723   8.366
20377SOL    HW262573   7.153   3.627   8.458
20378SOL     OW62574   6.309   2.415   9.140
20378SOL    HW162575   6.349   2.474   9.203
20378SOL    HW262576   6.322   2.328   9.178
20379SOL     OW62577   7.060   3.047   9.074
20379SOL    HW162578   7.048   3.071   9.166
20379SOL    HW262579   7.150   3.074   9.054
20380SOL     OW62580   5.952   3.611   9.015
20380SOL    HW162581   5.873   3.657   8.989
20380SOL    HW262582   5.922   3.528   9.053
20381SOL     OW62583   7.245   2.741   8.701
20381SOL    HW162584   7.240   2.657   8.655
20381SOL    HW262585   7.234   2.807   8.633
20382SOL     OW62586   6.801   2.179   7.907
20382SOL    HW162587   6.862   2.106   7.905
20382SOL    HW262588   6.831   2.232   7.981
20383SOL     OW62589   6.179   2.589   8.125
20383SOL    HW162590   6.215   2.676   8.112
20383SOL    HW262591   6.113   2.579   8.056
20384SOL     OW62592   7.333   2.223   9.105
20384SOL    HW162593   7.326   2.241   9.011
20384SOL    HW262594   7.257   2.169   9.125
20385SOL     OW62595   7.342   2.790   8.955
20385SOL    HW162596   7.324   2.883   8.970
20385SOL    HW262597   7.318   2.776   8.863
20386SOL     OW62598   6.478   3.229   7.511
20386SOL    HW162599   6.428   3.234   7.593
20386SOL    HW262600   6.461   3.312   7.468
20387SOL     OW62601   6.257   3.643   8.390
20387SOL    HW162602   6.229   3.732   8.370
20387SOL    HW262603   6.351   3.642   8.370
20388SOL     OW62604   6.458   2.842   8.307
20388SOL    HW162605   6.505   2.767   8.344
20388SOL    HW262606   6.417   2.885   8.382
20389SOL     OW62607   6.669   2.851   7.545
20389SOL    HW162608   6.641   2.905   7.471
20389SOL    HW262609   6.738   2.796   7.510
20390SOL     OW62610   7.421   3.420   8.293
20390SOL    HW162611   7.346   3.411   8.234
20390SOL    HW262612   7.395   3.372   8.372
20391SOL     OW62613   5.799   3.154   9.292
20391SOL    HW162614   5.761   3.080   9.244
20391SOL    HW262615   5.737   3.170   9.364
20392SOL     OW62616   5.677   3.092   8.124
20392SOL    HW162617   5.662   3.031   8.197
20392SOL    HW262618   5.746   3.049   8.072
20393SOL     OW62619   6.278   3.272   9.099
20393SOL    HW162620   6.192   3.234   9.117
20393SOL    HW262621   6.270   3.364   9.125
20394SOL     OW62622   7.398   2.037   8.684
20394SOL    HW162623   7.399   1.941   8.693
20394SOL    HW262624   7.410   2.052   8.590
20395SOL     OW62625   6.025   2.284   7.983
20395SOL    HW162626   6.038   2.217   7.915
20395SOL    HW262627   5.961   2.245   8.042
20396SOL     OW62628   7.287   3.343   8.532
20396SOL    HW162629   7.207   3.326   8.483
20396SOL    HW262630   7.285   3.278   8.603
20397SOL     OW62631   5.925   2.427   8.743
20397SOL    HW162632   5.982   2.366   8.791
20397SOL    HW262633   5.936   2.402   8.651
20398SOL     OW62634   6.420   3.444   8.116
20398SOL    HW162635   6.395   3.517   8.059
20398SOL    HW262636   6.344   3.387   8.118
20399SOL     OW62637   7.011   2.090   8.568
20399SOL    HW162638   7.025   2.005   8.612
20399SOL    HW262639   6.960   2.141   8.631
20400SOL     OW62640   6.595   1.877   8.576
20400SOL    HW162641   6.540   1.816   8.527
20400SOL    HW262642   6.682   1.837   8.577
20401SOL     OW62643   6.365   3.192   7.762
20401SOL    HW162644   6.333   3.103   7.778
20401SOL    HW262645   6.436   3.203   7.825
20402SOL     OW62646   6.213   3.413   8.745
20402SOL    HW162647   6.211   3.493   8.799
20402SOL    HW262648   6.297   3.417   8.699
20403SOL     OW62649   6.946   1.913   7.630
20403SOL    HW162650   6.977   1.849   7.566
20403SOL    HW262651   6.857   1.884   7.650
20404SOL     OW62652   6.890   2.326   8.124
20404SOL    HW162653   6.837   2.406   8.122
20404SOL    HW262654   6.881   2.294   8.214
20405SOL     OW62655   7.168   2.054   8.338
20405SOL    HW162656   7.114   2.082   8.412
20405SOL    HW262657   7.168   2.128   8.278
20406SOL     OW62658   5.633   2.924   7.764
20406SOL    HW162659   5.727   2.913   7.747
20406SOL    HW262660   5.603   2.836   7.785
20407SOL     OW62661   6.480   3.529   7.779
20407SOL    HW162662   6.408   3.508   7.720
20407SOL    HW262663   6.446   3.598   7.836
20408SOL     OW62664   5.802   2.465   9.449
20408SOL    HW162665   5.712   2.474   9.479
20408SOL    HW262666   5.796   2.463   9.354
20409SOL     OW62667   5.810   2.148  10.303
20409SOL    HW162668   5.837   2.111  10.388
20409SOL    HW262669   5.720   2.116  10.291
20410SOL     OW62670   5.578   2.243   9.955
20410SOL    HW162671   5.497   2.276   9.993
20410SOL    HW262672   5.550   2.167   9.903
20411SOL     OW62673   6.156   3.163  10.502
20411SOL    HW162674   6.074   3.169  10.453
20411SOL    HW262675   6.172   3.253  10.531
20412SOL     OW62676   7.165   3.381  10.017
20412SOL    HW162677   7.118   3.355  10.096
20412SOL    HW262678   7.097   3.386   9.950
20413SOL     OW62679   6.725   2.559  10.003
20413SOL    HW162680   6.771   2.641   9.988
20413SOL    HW262681   6.675   2.574  10.083
20414SOL     OW62682   7.375   2.458   9.533
20414SOL    HW162683   7.344   2.457   9.442
20414SOL    HW262684   7.335   2.381   9.573
20415SOL     OW62685   6.333   3.000  10.369
20415SOL    HW162686   6.265   3.039  10.424
20415SOL    HW262687   6.370   3.074  10.320
20416SOL     OW62688   6.464   2.617  11.132
20416SOL    HW162689   6.449   2.688  11.196
20416SOL    HW262690   6.484   2.663  11.050
20417SOL     OW62691   6.273   2.851   9.955
20417SOL    HW162692   6.338   2.853  10.025
20417SOL    HW262693   6.204   2.911   9.985
20418SOL     OW62694   6.302   3.015  11.138
20418SOL    HW162695   6.352   3.091  11.168
20418SOL    HW262696   6.225   3.052  11.095
20419SOL     OW62697   5.922   3.269  10.376
20419SOL    HW162698   5.846   3.228  10.333
20419SOL    HW262699   5.961   3.324  10.308
20420SOL     OW62700   7.043   3.363  10.678
20420SOL    HW162701   7.096   3.442  10.687
20420SOL    HW262702   6.971   3.376  10.740
20421SOL     OW62703   6.043   2.254  10.787
20421SOL    HW162704   6.115   2.191  10.793
20421SOL    HW262705   5.964   2.201  10.800
20422SOL     OW62706   7.186   2.298  10.057
20422SOL    HW162707   7.116   2.310   9.992
20422SOL    HW262708   7.182   2.376  10.111
20423SOL     OW62709   5.807   3.580   9.774
20423SOL    HW162710   5.830   3.656   9.827
20423SOL    HW262711   5.875   3.575   9.707
20424SOL     OW62712   6.724   3.203  11.004
20424SOL    HW162713   6.764   3.195  11.091
20424SOL    HW262714   6.673   3.123  10.993
20425SOL     OW62715   5.823   3.318   9.858
20425SOL    HW162716   5.804   3.410   9.843
20425SOL    HW262717   5.755   3.289   9.919
20426SOL     OW62718   5.868   2.954  10.207
20426SOL    HW162719   5.853   2.865  10.237
20426SOL    HW262720   5.805   3.007  10.254
20427SOL     OW62721   6.189   3.650  10.751
20427SOL    HW162722   6.103   3.636  10.790
20427SOL    HW262723   6.210   3.741  10.769
20428SOL     OW62724   6.169   2.846   9.453
20428SOL    HW162725   6.213   2.896   9.384
20428SOL    HW262726   6.207   2.880   9.534
20429SOL     OW62727   7.181   1.989  10.774
20429SOL    HW162728   7.213   2.066  10.726
20429SOL    HW262729   7.156   2.023  10.859
20430SOL     OW62730   5.714   2.509   9.877
20430SOL    HW162731   5.673   2.425   9.894
20430SOL    HW262732   5.699   2.560   9.956
20431SOL     OW62733   7.430   3.612   9.636
20431SOL    HW162734   7.498   3.590   9.699
20431SOL    HW262735   7.445   3.704   9.615
20432SOL     OW62736   5.637   3.449   9.435
20432SOL    HW162737   5.595   3.363   9.442
20432SOL    HW262738   5.602   3.499   9.508
20433SOL     OW62739   7.279   2.785   9.951
20433SOL    HW162740   7.349   2.735   9.909
20433SOL    HW262741   7.247   2.843   9.883
20434SOL     OW62742   7.233   2.967   9.742
20434SOL    HW162743   7.319   2.967   9.699
20434SOL    HW262744   7.241   3.032   9.811
20435SOL     OW62745   5.701   2.611  10.894
20435SOL    HW162746   5.786   2.654  10.889
20435SOL    HW262747   5.638   2.681  10.877
20436SOL     OW62748   6.199   3.254  10.049
20436SOL    HW162749   6.156   3.169  10.052
20436SOL    HW262750   6.186   3.286   9.960
20437SOL     OW62751   6.865   3.092  10.732
20437SOL    HW162752   6.893   3.025  10.670
20437SOL    HW262753   6.928   3.087  10.804
20438SOL     OW62754   6.410   1.867   9.832
20438SOL    HW162755   6.451   1.948   9.802
20438SOL    HW262756   6.316   1.886   9.831
20439SOL     OW62757   5.768   2.816  10.607
20439SOL    HW162758   5.855   2.780  10.586
20439SOL    HW262759   5.718   2.805  10.526
20440SOL     OW62760   7.119   2.864   9.510
20440SOL    HW162761   7.050   2.806   9.541
20440SOL    HW262762   7.158   2.900   9.590
20441SOL     OW62763   6.773   3.680  10.942
20441SOL    HW162764   6.772   3.743  10.870
20441SOL    HW262765   6.786   3.595  10.899
20442SOL     OW62766   5.934   2.105  11.159
20442SOL    HW162767   5.975   2.190  11.171
20442SOL    HW262768   5.840   2.123  11.165
20443SOL     OW62769   7.056   3.282  10.251
20443SOL    HW162770   6.989   3.299  10.317
20443SOL    HW262771   7.041   3.191  10.225
20444SOL     OW62772   7.238   3.628   9.883
20444SOL    HW162773   7.216   3.595   9.795
20444SOL    HW262774   7.221   3.554   9.941
20445SOL     OW62775   6.181   2.582   9.585
20445SOL    HW162776   6.178   2.664   9.537
20445SOL    HW262777   6.114   2.591   9.653
20446SOL     OW62778   6.868   2.241  10.249
20446SOL    HW162779   6.779   2.207  10.253
20446SOL    HW262780   6.919   2.183  10.306
20447SOL     OW62781   7.163   3.537   9.624
20447SOL    HW162782   7.255   3.559   9.612
20447SOL    HW262783   7.129   3.522   9.535
20448SOL     OW62784   6.382   2.476  10.753
20448SOL    HW162785   6.352   2.451  10.840
20448SOL    HW262786   6.348   2.408  10.695
20449SOL     OW62787   6.975   2.338  10.986
20449SOL    HW162788   6.980   2.383  11.071
20449SOL    HW262789   7.032   2.262  10.996
20450SOL     OW62790   6.531   2.748  10.896
20450SOL    HW162791   6.586   2.681  10.856
20450SOL    HW262792   6.485   2.788  10.822
20451SOL     OW62793   6.582   2.262  10.537
20451SOL    HW162794   6.492   2.279  10.562
20451SOL    HW262795   6.578   2.237  10.445
20452SOL     OW62796   6.643   2.554   9.732
20452SOL    HW162797   6.660   2.550   9.827
20452SOL    HW262798   6.557   2.514   9.722
20453SOL     OW62799   5.670   2.663  10.098
20453SOL    HW162800   5.750   2.671  10.150
20453SOL    HW262801   5.620   2.742  10.119
20454SOL     OW62802   5.707   3.743  10.893
20454SOL    HW162803   5.709   3.717  10.985
20454SOL    HW262804   5.624   3.708  10.860
20455SOL     OW62805   6.489   2.211   9.508
20455SOL    HW162806   6.528   2.278   9.451
20455SOL    HW262807   6.485   2.133   9.453
20456SOL     OW62808   7.283   2.432  11.142
20456SOL    HW162809   7.252   2.508  11.093
20456SOL    HW262810   7.310   2.369  11.075
20457SOL     OW62811   6.967   3.005   9.850
20457SOL    HW162812   7.044   2.995   9.793
20457SOL    HW262813   6.911   3.067   9.804
20458SOL     OW62814   6.136   2.029  10.209
20458SOL    HW162815   6.138   2.069  10.296
20458SOL    HW262816   6.133   2.103  10.148
20459SOL     OW62817   6.586   3.315   9.778
20459SOL    HW162818   6.556   3.385   9.721
20459SOL    HW262819   6.550   3.337   9.864
20460SOL     OW62820   5.940   3.680  10.185
20460SOL    HW162821   5.986   3.596  10.190
20460SOL    HW262822   6.009   3.745  10.199
20461SOL     OW62823   7.389   2.905  10.184
20461SOL    HW162824   7.338   2.888  10.105
20461SOL    HW262825   7.322   2.914  10.253
20462SOL     OW62826   6.809   3.404  10.824
20462SOL    HW162827   6.798   3.330  10.883
20462SOL    HW262828   6.741   3.393  10.758
20463SOL     OW62829   5.900   2.821   9.568
20463SOL    HW162830   5.981   2.849   9.526
20463SOL    HW262831   5.866   2.753   9.511
20464SOL     OW62832   7.074   2.614  10.025
20464SOL    HW162833   7.071   2.578  10.114
20464SOL    HW262834   7.151   2.671  10.025
20465SOL     OW62835   6.053   3.136  11.053
20465SOL    HW162836   6.029   3.142  10.961
20465SOL    HW262837   5.970   3.130  11.100
20466SOL     OW62838   6.721   3.630   9.550
20466SOL    HW162839   6.636   3.600   9.582
20466SOL    HW262840   6.741   3.571   9.477
20467SOL     OW62841   5.789   2.145  10.804
20467SOL    HW162842   5.728   2.217  10.788
20467SOL    HW262843   5.739   2.082  10.856
20468SOL     OW62844   7.221   3.246   9.409
20468SOL    HW162845   7.181   3.331   9.393
20468SOL    HW262846   7.153   3.183   9.385
20469SOL     OW62847   6.049   3.599   9.625
20469SOL    HW162848   6.097   3.656   9.685
20469SOL    HW262849   6.117   3.563   9.567
20470SOL     OW62850   6.985   1.965   9.759
20470SOL    HW162851   6.975   1.943   9.666
20470SOL    HW262852   7.079   1.978   9.771
20471SOL     OW62853   5.843   3.652  10.528
20471SOL    HW162854   5.889   3.572  10.553
20471SOL    HW262855   5.813   3.635  10.439
20472SOL     OW62856   6.531   3.561  10.199
20472SOL    HW162857   6.615   3.515  10.210
20472SOL    HW262858   6.486   3.513  10.129
20473SOL     OW62859   5.991   2.548   9.790
20473SOL    HW162860   6.005   2.455   9.803
20473SOL    HW262861   5.896   2.560   9.799
20474SOL     OW62862   7.105   2.088  11.030
20474SOL    HW162863   7.117   2.105  11.123
20474SOL    HW262864   7.032   2.025  11.027
20475SOL     OW62865   6.239   1.972   9.410
20475SOL    HW162866   6.299   1.898   9.420
20475SOL    HW262867   6.178   1.945   9.342
20476SOL     OW62868   6.347   2.140  11.067
20476SOL    HW162869   6.430   2.091  11.066
20476SOL    HW262870   6.304   2.114  11.148
20477SOL     OW62871   6.458   3.385  10.507
20477SOL    HW162872   6.442   3.351  10.419
20477SOL    HW262873   6.530   3.331  10.541
20478SOL     OW62874   6.920   2.450  10.740
20478SOL    HW162875   6.951   2.423  10.826
20478SOL    HW262876   6.955   2.538  10.728
20479SOL     OW62877   6.405   3.247  10.258
20479SOL    HW162878   6.490   3.240  10.215
20479SOL    HW262879   6.342   3.259  10.187
20480SOL     OW62880   6.517   2.370  10.205
20480SOL    HW162881   6.490   2.364  10.114
20480SOL    HW262882   6.546   2.282  10.228
20481SOL     OW62883   6.144   1.925   9.804
20481SOL    HW162884   6.063   1.925   9.855
20481SOL    HW262885   6.136   2.001   9.746
20482SOL     OW62886   7.016   3.071   9.348
20482SOL    HW162887   7.039   2.994   9.400
20482SOL    HW262888   6.928   3.094   9.379
20483SOL     OW62889   5.869   1.913   9.495
20483SOL    HW162890   5.915   1.980   9.445
20483SOL    HW262891   5.939   1.858   9.532
20484SOL     OW62892   6.532   2.109   9.763
20484SOL    HW162893   6.505   2.146   9.679
20484SOL    HW262894   6.625   2.128   9.769
20485SOL     OW62895   6.664   2.550  10.767
20485SOL    HW162896   6.596   2.483  10.764
20485SOL    HW262897   6.746   2.502  10.757
20486SOL     OW62898   6.797   3.447  10.112
20486SOL    HW162899   6.808   3.506  10.037
20486SOL    HW262900   6.871   3.465  10.169
20487SOL     OW62901   6.064   3.015  10.029
20487SOL    HW162902   5.998   2.996  10.096
20487SOL    HW262903   6.018   3.007   9.946
20488SOL     OW62904   6.843   3.655   9.927
20488SOL    HW162905   6.892   3.715   9.870
20488SOL    HW262906   6.770   3.707   9.961
20489SOL     OW62907   6.609   2.394   9.338
20489SOL    HW162908   6.563   2.475   9.314
20489SOL    HW262909   6.675   2.421   9.401
20490SOL     OW62910   5.684   2.402  10.717
20490SOL    HW162911   5.772   2.415  10.682
20490SOL    HW262912   5.671   2.477  10.776
20491SOL     OW62913   6.141   2.092  10.483
20491SOL    HW162914   6.181   2.016  10.526
20491SOL    HW262915   6.049   2.087  10.507
20492SOL     OW62916   6.452   2.317   9.945
20492SOL    HW162917   6.407   2.376   9.884
20492SOL    HW262918   6.475   2.240   9.893
20493SOL     OW62919   6.607   1.920  10.056
20493SOL    HW162920   6.547   1.922   9.981
20493SOL    HW262921   6.579   1.844  10.107
20494SOL     OW62922   7.028   3.021  10.163
20494SOL    HW162923   6.949   2.967  10.159
20494SOL    HW262924   7.055   3.030  10.072
20495SOL     OW62925   7.051   2.476  10.269
20495SOL    HW162926   6.990   2.402  10.272
20495SOL    HW262927   7.105   2.466  10.347
20496SOL     OW62928   7.424   2.665   9.708
20496SOL    HW162929   7.487   2.615   9.760
20496SOL    HW262930   7.402   2.607   9.635
20497SOL     OW62931   6.077   3.282   9.459
20497SOL    HW162932   6.007   3.252   9.516
20497SOL    HW262933   6.055   3.247   9.373
20498SOL     OW62934   7.264   3.126   9.956
20498SOL    HW162935   7.359   3.124   9.971
20498SOL    HW262936   7.239   3.217   9.972
20499SOL     OW62937   6.978   2.434   9.379
20499SOL    HW162938   6.917   2.413   9.449
20499SOL    HW262939   7.065   2.411   9.414
20500SOL     OW62940   6.115   2.120   9.617
20500SOL    HW162941   6.163   2.077   9.547
20500SOL    HW262942   6.087   2.203   9.580
20501SOL     OW62943   7.329   3.106  10.865
20501SOL    HW162944   7.416   3.070  10.848
20501SOL    HW262945   7.345   3.195  10.896
20502SOL     OW62946   6.636   3.218  10.645
20502SOL    HW162947   6.559   3.185  10.692
20502SOL    HW262948   6.710   3.173  10.685
20503SOL     OW62949   7.197   3.493  10.976
20503SOL    HW162950   7.184   3.527  10.888
20503SOL    HW262951   7.278   3.441  10.970
20504SOL     OW62952   6.730   3.085  10.412
20504SOL    HW162953   6.663   3.116  10.473
20504SOL    HW262954   6.702   3.117  10.327
20505SOL     OW62955   7.203   2.955  10.383
20505SOL    HW162956   7.193   3.020  10.452
20505SOL    HW262957   7.131   2.973  10.322
20506SOL     OW62958   6.508   1.945  10.699
20506SOL    HW162959   6.526   1.931  10.607
20506SOL    HW262960   6.586   1.988  10.733
20507SOL     OW62961   6.570   2.975  11.037
20507SOL    HW162962   6.479   2.994  11.060
20507SOL    HW262963   6.565   2.898  10.980
20508SOL     OW62964   6.300   2.925   9.684
20508SOL    HW162965   6.282   2.901   9.774
20508SOL    HW262966   6.376   2.873   9.659
20509SOL     OW62967   6.008   2.688  10.566
20509SOL    HW162968   6.078   2.696  10.630
20509SOL    HW262969   5.975   2.599  10.577
20510SOL     OW62970   6.846   2.228  10.599
20510SOL    HW162971   6.878   2.309  10.640
20510SOL    HW262972   6.756   2.248  10.573
20511SOL     OW62973   5.661   3.434  10.669
20511SOL    HW162974   5.623   3.499  10.609
20511SOL    HW262975   5.755   3.440  10.654
20512SOL     OW62976   5.922   2.985   9.797
20512SOL    HW162977   5.916   3.060   9.738
20512SOL    HW262978   5.918   2.909   9.739
20513SOL     OW62979   6.132   2.388  10.175
20513SOL    HW162980   6.142   2.445  10.099
20513SOL    HW262981   6.201   2.417  10.235
20514SOL     OW62982   6.831   3.211   9.710
20514SOL    HW162983   6.887   3.283   9.737
20514SOL    HW262984   6.743   3.236   9.737
20515SOL     OW62985   6.882   3.325  10.456
20515SOL    HW162986   6.933   3.327  10.537
20515SOL    HW262987   6.828   3.247  10.464
20516SOL     OW62988   7.163   2.478   9.796
20516SOL    HW162989   7.113   2.520   9.865
20516SOL    HW262990   7.194   2.550   9.740
20517SOL     OW62991   5.932   3.394  10.612
20517SOL    HW162992   5.921   3.345  10.530
20517SOL    HW262993   6.026   3.407  10.620
20518SOL     OW62994   6.010   2.608  10.918
20518SOL    HW162995   6.070   2.653  10.858
20518SOL    HW262996   6.049   2.521  10.930
20519SOL     OW62997   7.200   2.647  11.001
20519SOL    HW162998   7.113   2.687  10.993
20519SOL    HW262999   7.251   2.686  10.930
20520SOL     OW63000   6.583   2.000  11.076
20520SOL    HW163001   6.638   2.074  11.052
20520SOL    HW263002   6.631   1.923  11.045
20521SOL     OW63003   6.079   1.888  11.069
20521SOL    HW163004   6.032   1.843  10.999
20521SOL    HW263005   6.028   1.967  11.086
20522SOL     OW63006   6.184   2.733  10.352
20522SOL    HW163007   6.206   2.826  10.342
20522SOL    HW263008   6.114   2.732  10.418
20523SOL     OW63009   6.921   2.717  10.329
20523SOL    HW163010   6.836   2.704  10.287
20523SOL    HW263011   6.969   2.636  10.311
20524SOL     OW63012   6.789   2.385   9.572
20524SOL    HW163013   6.792   2.307   9.627
20524SOL    HW263014   6.745   2.451   9.626
20525SOL     OW63015   5.882   2.050  10.557
20525SOL    HW163016   5.842   2.084  10.637
20525SOL    HW263017   5.859   1.957  10.556
20526SOL     OW63018   5.631   3.173  10.587
20526SOL    HW163019   5.666   3.120  10.659
20526SOL    HW263020   5.636   3.263  10.618
20527SOL     OW63021   6.309   2.490  10.364
20527SOL    HW163022   6.383   2.484  10.304
20527SOL    HW263023   6.275   2.579  10.352
20528SOL     OW63024   7.330   2.819  11.177
20528SOL    HW163025   7.287   2.754  11.122
20528SOL    HW263026   7.265   2.841  11.244
20529SOL     OW63027   5.901   1.919   9.934
20529SOL    HW163028   5.871   2.009   9.950
20529SOL    HW263029   5.906   1.880  10.021
20530SOL     OW63030   7.213   2.243   9.665
20530SOL    HW163031   7.244   2.180   9.730
20530SOL    HW263032   7.187   2.319   9.717
20531SOL     OW63033   6.618   2.618  10.264
20531SOL    HW163034   6.605   2.634  10.357
20531SOL    HW263035   6.589   2.528  10.251
20532SOL     OW63036   6.569   3.427  11.035
20532SOL    HW163037   6.548   3.472  10.953
20532SOL    HW263038   6.613   3.346  11.008
20533SOL     OW63039   7.434   3.360  10.915
20533SOL    HW163040   7.454   3.389  10.825
20533SOL    HW263041   7.515   3.373  10.963
20534SOL     OW63042   5.935   2.768  11.129
20534SOL    HW163043   6.017   2.793  11.171
20534SOL    HW263044   5.961   2.709  11.058
20535SOL     OW63045   7.115   2.126   9.433
20535SOL    HW163046   7.049   2.065   9.467
20535SOL    HW263047   7.150   2.169   9.512
20536SOL     OW63048   6.874   2.687   9.336
20536SOL    HW163049   6.914   2.600   9.339
20536SOL    HW263050   6.904   2.724   9.254
20537SOL     OW63051   6.661   3.207  10.173
20537SOL    HW163052   6.666   3.136  10.109
20537SOL    HW263053   6.712   3.278  10.134
20538SOL     OW63054   5.894   2.672  10.258
20538SOL    HW163055   5.984   2.688  10.230
20538SOL    HW263056   5.894   2.582  10.290
20539SOL     OW63057   5.914   2.394  10.329
20539SOL    HW163058   5.874   2.308  10.313
20539SOL    HW263059   5.990   2.396  10.271
20540SOL     OW63060   6.721   2.230  11.003
20540SOL    HW163061   6.672   2.287  11.062
20540SOL    HW263062   6.805   2.273  10.992
20541SOL     OW63063   6.747   2.053  10.790
20541SOL    HW163064   6.734   2.118  10.859
20541SOL    HW263065   6.789   2.102  10.719
20542SOL     OW63066   5.617   3.163   9.501
20542SOL    HW163067   5.529   3.186   9.471
20542SOL    HW263068   5.607   3.077   9.542
20543SOL     OW63069   5.685   3.633  10.269
20543SOL    HW163070   5.649   3.563  10.216
20543SOL    HW263071   5.769   3.654  10.227
20544SOL     OW63072   6.077   3.438  10.218
20544SOL    HW163073   6.147   3.499  10.241
20544SOL    HW263074   6.117   3.377  10.156
20545SOL     OW63075   6.555   2.642  10.527
20545SOL    HW163076   6.612   2.630  10.603
20545SOL    HW263077   6.471   2.607  10.555
20546SOL     OW63078   5.619   2.399  10.436
20546SOL    HW163079   5.689   2.410  10.372
20546SOL    HW263080   5.662   2.408  10.521
20547SOL     OW63081   5.782   2.392  11.042
20547SOL    HW163082   5.843   2.358  10.976
20547SOL    HW263083   5.743   2.469  11.000
20548SOL     OW63084   6.969   2.790  10.964
20548SOL    HW163085   6.990   2.884  10.959
20548SOL    HW263086   6.962   2.762  10.873
20549SOL     OW63087   6.401   2.434   9.682
20549SOL    HW163088   6.403   2.362   9.619
20549SOL    HW263089   6.328   2.489   9.653
20550SOL     OW63090   7.222   2.460  10.484
20550SOL    HW163091   7.213   2.403  10.560
20550SOL    HW263092   7.311   2.444  10.452
20551SOL     OW63093   5.823   3.408  11.032
20551SOL    HW163094   5.800   3.473  11.098
20551SOL    HW263095   5.827   3.325  11.079
20552SOL     OW63096   6.306   2.302  10.558
20552SOL    HW163097   6.245   2.233  10.533
20552SOL    HW263098   6.298   2.368  10.489
20553SOL     OW63099   6.505   3.538  10.785
20553SOL    HW163100   6.481   3.495  10.703
20553SOL    HW263101   6.498   3.632  10.765
20554SOL     OW63102   6.046   2.353   9.499
20554SOL    HW163103   6.101   2.428   9.520
20554SOL    HW263104   5.958   2.390   9.487
20555SOL     OW63105   5.724   3.008  10.793
20555SOL    HW163106   5.727   2.965  10.878
20555SOL    HW263107   5.739   2.938  10.730
20556SOL     OW63108   6.900   2.902  10.528
20556SOL    HW163109   6.917   2.839  10.458
20556SOL    HW263110   6.840   2.965  10.488
20557SOL     OW63111   6.909   2.713   9.610
20557SOL    HW163112   6.831   2.691   9.661
20557SOL    HW263113   6.881   2.706   9.519
20558SOL     OW63114   7.375   3.591  10.476
20558SOL    HW163115   7.434   3.618  10.406
20558SOL    HW263116   7.342   3.506  10.447
20559SOL     OW63117   6.828   3.597  10.420
20559SOL    HW163118   6.909   3.622  10.375
20559SOL    HW263119   6.837   3.503  10.436
20560SOL     OW63120   5.683   3.114  10.325
20560SOL    HW163121   5.656   3.135  10.415
20560SOL    HW263122   5.606   3.072  10.287
20561SOL     OW63123   6.266   3.540  11.052
20561SOL    HW163124   6.199   3.608  11.044
20561SOL    HW263125   6.328   3.559  10.981
20562SOL     OW63126   7.319   2.027   9.815
20562SOL    HW163127   7.383   2.011   9.747
20562SOL    HW263128   7.300   1.940   9.851
20563SOL     OW63129   6.983   3.431   9.809
20563SOL    HW163130   7.036   3.464   9.736
20563SOL    HW263131   6.926   3.504   9.831
20564SOL     OW63132   5.726   3.657  11.150
20564SOL    HW163133   5.678   3.588  11.195
20564SOL    HW263134   5.771   3.705  11.220
20565SOL     OW63135   6.866   2.789   9.977
20565SOL    HW163136   6.942   2.730   9.985
20565SOL    HW263137   6.899   2.862   9.924
20566SOL     OW63138   6.382   3.142  10.734
20566SOL    HW163139   6.355   3.185  10.815
20566SOL    HW263140   6.313   3.164  10.671
20567SOL     OW63141   6.257   3.486   9.463
20567SOL    HW163142   6.266   3.504   9.369
20567SOL    HW263143   6.199   3.410   9.467
20568SOL     OW63144   7.204   3.588  10.706
20568SOL    HW163145   7.259   3.590  10.629
20568SOL    HW263146   7.189   3.680  10.728
20569SOL     OW63147   7.429   2.027  10.277
20569SOL    HW163148   7.457   1.940  10.249
20569SOL    HW263149   7.343   2.038  10.237
20570SOL     OW63150   5.835   2.168  10.019
20570SOL    HW163151   5.750   2.204   9.995
20570SOL    HW263152   5.836   2.172  10.115
20571SOL     OW63153   6.797   3.461   9.345
20571SOL    HW163154   6.784   3.369   9.369
20571SOL    HW263155   6.732   3.478   9.277
20572SOL     OW63156   6.409   2.874  10.684
20572SOL    HW163157   6.435   2.871  10.593
20572SOL    HW263158   6.400   2.967  10.704
20573SOL     OW63159   6.512   2.777   9.613
20573SOL    HW163160   6.566   2.808   9.541
20573SOL    HW263161   6.561   2.704   9.650
20574SOL     OW63162   7.076   3.492   9.361
20574SOL    HW163163   6.982   3.481   9.345
20574SOL    HW263164   7.114   3.498   9.273
20575SOL     OW63165   5.953   3.172  10.806
20575SOL    HW163166   5.944   3.246  10.745
20575SOL    HW263167   5.876   3.118  10.789
20576SOL     OW63168   7.188   3.149  10.583
20576SOL    HW163169   7.251   3.132  10.654
20576SOL    HW263170   7.128   3.214  10.620
20577SOL     OW63171   6.658   2.976  10.033
20577SOL    HW163172   6.580   2.929  10.064
20577SOL    HW263173   6.715   2.908   9.997
20578SOL     OW63174   6.617   2.108  10.274
20578SOL    HW163175   6.614   2.062  10.190
20578SOL    HW263176   6.608   2.038  10.339
20579SOL     OW63177   6.196   3.356   9.797
20579SOL    HW163178   6.243   3.305   9.731
20579SOL    HW263179   6.117   3.386   9.752
20580SOL     OW63180   7.322   2.249  10.694
20580SOL    HW163181   7.392   2.313  10.689
20580SOL    HW263182   7.349   2.179  10.633
20581SOL     OW63183   5.869   3.196   9.622
20581SOL    HW163184   5.784   3.195   9.577
20581SOL    HW263185   5.853   3.246   9.702
20582SOL     OW63186   5.708   2.909  11.052
20582SOL    HW163187   5.629   2.878  11.095
20582SOL    HW263188   5.778   2.854  11.088
20583SOL     OW63189   6.265   2.051  10.811
20583SOL    HW163190   6.349   2.034  10.769
20583SOL    HW263191   6.287   2.089  10.896
20584SOL     OW63192   5.667   2.183   9.327
20584SOL    HW163193   5.589   2.170   9.274
20584SOL    HW263194   5.700   2.269   9.301
20585SOL     OW63195   7.005   2.716  10.703
20585SOL    HW163196   6.953   2.776  10.650
20585SOL    HW263197   7.093   2.720  10.665
20586SOL     OW63198   5.638   2.016   9.602
20586SOL    HW163199   5.619   2.090   9.544
20586SOL    HW263200   5.725   1.986   9.574
20587SOL     OW63201   6.759   3.194   9.425
20587SOL    HW163202   6.664   3.185   9.417
20587SOL    HW263203   6.776   3.189   9.519
20588SOL     OW63204   6.211   2.692  10.747
20588SOL    HW163205   6.267   2.768  10.731
20588SOL    HW263206   6.272   2.618  10.750
20589SOL     OW63207   7.066   3.656  10.294
20589SOL    HW163208   7.085   3.725  10.230
20589SOL    HW263209   7.152   3.621  10.317
20590SOL     OW63210   6.303   2.418  11.005
20590SOL    HW163211   6.349   2.477  11.065
20590SOL    HW263212   6.320   2.331  11.040
20591SOL     OW63213   7.061   3.049  10.936
20591SOL    HW163214   7.051   3.071  11.029
20591SOL    HW263215   7.151   3.073  10.915
20592SOL     OW63216   5.951   3.607  10.880
20592SOL    HW163217   5.871   3.655  10.858
20592SOL    HW263218   5.921   3.524  10.916
20593SOL     OW63219   7.244   2.740  10.564
20593SOL    HW163220   7.241   2.656  10.518
20593SOL    HW263221   7.233   2.805  10.495
20594SOL     OW63222   6.801   2.179   9.770
20594SOL    HW163223   6.863   2.106   9.766
20594SOL    HW263224   6.832   2.232   9.844
20595SOL     OW63225   6.170   2.594   9.994
20595SOL    HW163226   6.211   2.678   9.976
20595SOL    HW263227   6.108   2.582   9.921
20596SOL     OW63228   7.335   2.224  10.966
20596SOL    HW163229   7.327   2.242  10.873
20596SOL    HW263230   7.259   2.169  10.987
20597SOL     OW63231   7.341   2.790  10.817
20597SOL    HW163232   7.326   2.884  10.831
20597SOL    HW263233   7.318   2.776  10.726
20598SOL     OW63234   6.478   3.233   9.372
20598SOL    HW163235   6.419   3.257   9.443
20598SOL    HW263236   6.475   3.308   9.313
20599SOL     OW63237   6.255   3.641  10.254
20599SOL    HW163238   6.232   3.731  10.230
20599SOL    HW263239   6.349   3.635  10.236
20600SOL     OW63240   6.457   2.839  10.167
20600SOL    HW163241   6.505   2.764  10.202
20600SOL    HW263242   6.417   2.880  10.244
20601SOL     OW63243   6.666   2.849   9.405
20601SOL    HW163244   6.639   2.903   9.331
20601SOL    HW263245   6.737   2.795   9.372
20602SOL     OW63246   7.426   3.420  10.153
20602SOL    HW163247   7.352   3.411  10.093
20602SOL    HW263248   7.402   3.367  10.229
20603SOL     OW63249   5.798   3.153  11.155
20603SOL    HW163250   5.762   3.077  11.110
20603SOL    HW263251   5.738   3.169  11.228
20604SOL     OW63252   5.674   3.092   9.974
20604SOL    HW163253   5.695   3.038  10.051
20604SOL    HW263254   5.736   3.063   9.907
20605SOL     OW63255   6.277   3.271  10.954
20605SOL    HW163256   6.193   3.234  10.981
20605SOL    HW263257   6.274   3.362  10.983
20606SOL     OW63258   7.395   2.036  10.546
20606SOL    HW163259   7.399   1.940  10.555
20606SOL    HW263260   7.407   2.051  10.453
20607SOL     OW63261   6.025   2.286   9.845
20607SOL    HW163262   6.043   2.221   9.776
20607SOL    HW263263   5.961   2.242   9.902
20608SOL     OW63264   7.282   3.345  10.394
20608SOL    HW163265   7.203   3.329  10.343
20608SOL    HW263266   7.281   3.278  10.462
20609SOL     OW63267   5.926   2.427  10.603
20609SOL    HW163268   5.984   2.368  10.652
20609SOL    HW263269   5.939   2.403  10.512
20610SOL     OW63270   6.419   3.451   9.976
20610SOL    HW163271   6.406   3.526   9.918
20610SOL    HW263272   6.342   3.396   9.962
20611SOL     OW63273   7.011   2.092  10.429
20611SOL    HW163274   7.025   2.006  10.469
20611SOL    HW263275   6.961   2.140  10.494
20612SOL     OW63276   6.594   1.874  10.437
20612SOL    HW163277   6.544   1.813  10.383
20612SOL    HW263278   6.681   1.835  10.442
20613SOL     OW63279   6.357   3.197   9.639
20613SOL    HW163280   6.328   3.105   9.643
20613SOL    HW263281   6.442   3.197   9.681
20614SOL     OW63282   6.206   3.418  10.605
20614SOL    HW163283   6.207   3.500  10.655
20614SOL    HW263284   6.293   3.415  10.564
20615SOL     OW63285   6.944   1.913   9.492
20615SOL    HW163286   6.976   1.850   9.427
20615SOL    HW263287   6.855   1.883   9.513
20616SOL     OW63288   6.887   2.327   9.986
20616SOL    HW163289   6.835   2.407   9.985
20616SOL    HW263290   6.880   2.296  10.077
20617SOL     OW63291   7.169   2.054  10.199
20617SOL    HW163292   7.114   2.083  10.272
20617SOL    HW263293   7.170   2.129  10.139
20618SOL     OW63294   5.629   2.921   9.635
20618SOL    HW163295   5.720   2.910   9.608
20618SOL    HW263296   5.598   2.833   9.654
20619SOL     OW63297   6.474   3.528   9.642
20619SOL    HW163298   6.400   3.511   9.584
20619SOL    HW263299   6.444   3.600   9.698
20620SOL     OW63300   5.802   2.473  11.310
20620SOL    HW163301   5.712   2.475  11.341
20620SOL    HW263302   5.794   2.464  11.215
20621SOL     OW63303   5.811   2.147  12.161
20621SOL    HW163304   5.842   2.113  12.245
20621SOL    HW263305   5.721   2.116  12.154
20622SOL     OW63306   5.579   2.245  11.814
20622SOL    HW163307   5.499   2.276  11.857
20622SOL    HW263308   5.550   2.169  11.763
20623SOL     OW63309   6.127   3.111  12.335
20623SOL    HW163310   6.051   3.148  12.290
20623SOL    HW263311   6.136   3.163  12.415
20624SOL     OW63312   7.166   3.387  11.882
20624SOL    HW163313   7.121   3.352  11.959
20624SOL    HW263314   7.100   3.386  11.813
20625SOL     OW63315   6.721   2.560  11.865
20625SOL    HW163316   6.766   2.643  11.855
20625SOL    HW263317   6.669   2.571  11.945
20626SOL     OW63318   7.374   2.456  11.394
20626SOL    HW163319   7.342   2.455  11.304
20626SOL    HW263320   7.334   2.380  11.435
20627SOL     OW63321   6.347   2.998  12.234
20627SOL    HW163322   6.265   3.028  12.273
20627SOL    HW263323   6.379   3.074  12.184
20628SOL     OW63324   6.272   2.852  11.817
20628SOL    HW163325   6.337   2.850  11.887
20628SOL    HW263326   6.204   2.911  11.850
20629SOL     OW63327   5.921   3.268  12.227
20629SOL    HW163328   5.841   3.232  12.189
20629SOL    HW263329   5.958   3.323  12.158
20630SOL     OW63330   7.189   2.298  11.920
20630SOL    HW163331   7.123   2.315  11.853
20630SOL    HW263332   7.179   2.371  11.982
20631SOL     OW63333   5.806   3.580  11.636
20631SOL    HW163334   5.829   3.655  11.691
20631SOL    HW263335   5.878   3.573  11.573
20632SOL     OW63336   5.821   3.314  11.716
20632SOL    HW163337   5.800   3.407  11.710
20632SOL    HW263338   5.759   3.279  11.780
20633SOL     OW63339   5.862   2.955  12.065
20633SOL    HW163340   5.855   2.867  12.102
20633SOL    HW263341   5.804   3.008  12.119
20634SOL     OW63342   6.163   2.848  11.316
20634SOL    HW163343   6.210   2.894  11.247
20634SOL    HW263344   6.202   2.879  11.398
20635SOL     OW63345   5.709   2.518  11.737
20635SOL    HW163346   5.674   2.432  11.759
20635SOL    HW263347   5.699   2.569  11.817
20636SOL     OW63348   7.429   3.615  11.506
20636SOL    HW163349   7.502   3.592  11.563
20636SOL    HW263350   7.446   3.705  11.480
20637SOL     OW63351   5.635   3.448  11.292
20637SOL    HW163352   5.612   3.357  11.310
20637SOL    HW263353   5.604   3.497  11.368
20638SOL     OW63354   7.277   2.785  11.822
20638SOL    HW163355   7.357   2.738  11.796
20638SOL    HW263356   7.253   2.836  11.745
20639SOL     OW63357   7.235   2.964  11.605
20639SOL    HW163358   7.320   2.963  11.562
20639SOL    HW263359   7.243   3.030  11.674
20640SOL     OW63360   5.760   2.607   0.219
20640SOL    HW163361   5.745   2.588   0.312
20640SOL    HW263362   5.682   2.655   0.191
20641SOL     OW63363   6.199   3.258  11.900
20641SOL    HW163364   6.154   3.173  11.907
20641SOL    HW263365   6.181   3.286  11.810
20642SOL     OW63366   6.409   1.868  11.690
20642SOL    HW163367   6.450   1.950  11.663
20642SOL    HW263368   6.315   1.888  11.691
20643SOL     OW63369   5.783   2.857  12.421
20643SOL    HW163370   5.856   2.794  12.421
20643SOL    HW263371   5.706   2.803  12.436
20644SOL     OW63372   7.117   2.865  11.373
20644SOL    HW163373   7.048   2.807  11.404
20644SOL    HW263374   7.159   2.898  11.452
20645SOL     OW63375   7.034   3.286  12.097
20645SOL    HW163376   6.978   3.297  12.174
20645SOL    HW263377   7.028   3.193  12.077
20646SOL     OW63378   7.228   3.633  11.749
20646SOL    HW163379   7.213   3.601  11.660
20646SOL    HW263380   7.223   3.555  11.804
20647SOL     OW63381   6.180   2.577  11.446
20647SOL    HW163382   6.180   2.661  11.400
20647SOL    HW263383   6.114   2.587  11.515
20648SOL     OW63384   6.875   2.240  12.109
20648SOL    HW163385   6.786   2.204  12.108
20648SOL    HW263386   6.923   2.182  12.168
20649SOL     OW63387   7.162   3.540  11.487
20649SOL    HW163388   7.255   3.559  11.477
20649SOL    HW263389   7.131   3.524  11.398
20650SOL     OW63390   6.570   2.209  12.384
20650SOL    HW163391   6.561   2.278  12.450
20650SOL    HW263392   6.487   2.211  12.336
20651SOL     OW63393   6.643   2.557  11.594
20651SOL    HW163394   6.661   2.552  11.688
20651SOL    HW263395   6.558   2.514  11.584
20652SOL     OW63396   5.674   2.683  11.954
20652SOL    HW163397   5.755   2.680  12.005
20652SOL    HW263398   5.625   2.757  11.988
20653SOL     OW63399   6.492   2.206  11.365
20653SOL    HW163400   6.526   2.276  11.310
20653SOL    HW263401   6.515   2.126  11.319
20654SOL     OW63402   6.968   3.004  11.711
20654SOL    HW163403   7.047   2.992  11.657
20654SOL    HW263404   6.914   3.065  11.661
20655SOL     OW63405   6.136   2.044  12.064
20655SOL    HW163406   6.139   2.090  12.148
20655SOL    HW263407   6.132   2.113  11.998
20656SOL     OW63408   6.585   3.314  11.641
20656SOL    HW163409   6.554   3.386  11.586
20656SOL    HW263410   6.552   3.334  11.729
20657SOL     OW63411   5.941   3.680  12.041
20657SOL    HW163412   5.984   3.595  12.049
20657SOL    HW263413   6.009   3.743  12.062
20658SOL     OW63414   7.383   2.920  12.050
20658SOL    HW163415   7.333   2.894  11.973
20658SOL    HW263416   7.318   2.923  12.120
20659SOL     OW63417   5.897   2.824  11.429
20659SOL    HW163418   5.980   2.847  11.387
20659SOL    HW263419   5.866   2.748  11.381
20660SOL     OW63420   7.069   2.616  11.886
20660SOL    HW163421   7.067   2.575  11.973
20660SOL    HW263422   7.147   2.671  11.887
20661SOL     OW63423   6.718   3.630  11.411
20661SOL    HW163424   6.635   3.598  11.445
20661SOL    HW263425   6.739   3.571  11.339
20662SOL     OW63426   7.219   3.248  11.274
20662SOL    HW163427   7.179   3.333  11.254
20662SOL    HW263428   7.152   3.184  11.248
20663SOL     OW63429   6.048   3.602  11.486
20663SOL    HW163430   6.097   3.655  11.549
20663SOL    HW263431   6.116   3.564  11.430
20664SOL     OW63432   6.986   1.968  11.621
20664SOL    HW163433   6.979   1.944  11.528
20664SOL    HW263434   7.080   1.976  11.638
20665SOL     OW63435   5.833   3.640  12.389
20665SOL    HW163436   5.820   3.567  12.450
20665SOL    HW263437   5.787   3.614  12.310
20666SOL     OW63438   6.532   3.555  12.066
20666SOL    HW163439   6.615   3.507  12.072
20666SOL    HW263440   6.482   3.509  12.000
20667SOL     OW63441   5.987   2.552  11.648
20667SOL    HW163442   6.001   2.459  11.662
20667SOL    HW263443   5.893   2.565  11.661
20668SOL     OW63444   6.233   1.972  11.279
20668SOL    HW163445   6.305   1.908  11.284
20668SOL    HW263446   6.179   1.941  11.206
20669SOL     OW63447   6.396   3.227  12.101
20669SOL    HW163448   6.483   3.232  12.064
20669SOL    HW263449   6.337   3.243  12.028
20670SOL     OW63450   6.518   2.372  12.066
20670SOL    HW163451   6.489   2.362  11.976
20670SOL    HW263452   6.555   2.287  12.089
20671SOL     OW63453   6.141   1.924  11.665
20671SOL    HW163454   6.061   1.924  11.717
20671SOL    HW263455   6.133   2.001  11.609
20672SOL     OW63456   7.017   3.070  11.210
20672SOL    HW163457   7.044   2.993  11.261
20672SOL    HW263458   6.930   3.091  11.242
20673SOL     OW63459   5.871   1.909  11.354
20673SOL    HW163460   5.918   1.977  11.306
20673SOL    HW263461   5.940   1.857  11.395
20674SOL     OW63462   6.530   2.109  11.624
20674SOL    HW163463   6.506   2.147  11.539
20674SOL    HW263464   6.624   2.127  11.632
20675SOL     OW63465   6.791   3.441  11.971
20675SOL    HW163466   6.812   3.506  11.903
20675SOL    HW263467   6.876   3.420  12.010
20676SOL     OW63468   6.062   3.017  11.891
20676SOL    HW163469   5.997   2.996  11.958
20676SOL    HW263470   6.015   3.007  11.808
20677SOL     OW63471   6.849   3.653  11.792
20677SOL    HW163472   6.894   3.715  11.733
20677SOL    HW263473   6.770   3.700  11.820
20678SOL     OW63474   6.609   2.393  11.200
20678SOL    HW163475   6.566   2.475  11.178
20678SOL    HW263476   6.676   2.418  11.264
20679SOL     OW63477   6.149   2.076  12.348
20679SOL    HW163478   6.167   1.983  12.331
20679SOL    HW263479   6.056   2.079  12.370
20680SOL     OW63480   6.450   2.318  11.806
20680SOL    HW163481   6.408   2.375  11.742
20680SOL    HW263482   6.475   2.240  11.757
20681SOL     OW63483   6.608   1.907  11.912
20681SOL    HW163484   6.547   1.907  11.838
20681SOL    HW263485   6.583   1.832  11.965
20682SOL     OW63486   7.021   3.020  12.023
20682SOL    HW163487   6.952   2.953  12.019
20682SOL    HW263488   7.051   3.029  11.933
20683SOL     OW63489   7.048   2.473  12.126
20683SOL    HW163490   6.990   2.398  12.131
20683SOL    HW263491   7.107   2.464  12.201
20684SOL     OW63492   7.422   2.665  11.565
20684SOL    HW163493   7.483   2.617  11.621
20684SOL    HW263494   7.402   2.605  11.494
20685SOL     OW63495   6.076   3.284  11.322
20685SOL    HW163496   6.003   3.253  11.375
20685SOL    HW263497   6.068   3.236  11.239
20686SOL     OW63498   7.266   3.130  11.814
20686SOL    HW163499   7.360   3.123  11.830
20686SOL    HW263500   7.245   3.221  11.832
20687SOL     OW63501   6.978   2.436  11.241
20687SOL    HW163502   6.919   2.413  11.312
20687SOL    HW263503   7.065   2.411  11.273
20688SOL     OW63504   6.109   2.121  11.481
20688SOL    HW163505   6.160   2.077  11.413
20688SOL    HW263506   6.083   2.204  11.441
20689SOL     OW63507   6.693   3.104  12.287
20689SOL    HW163508   6.609   3.120  12.331
20689SOL    HW263509   6.678   3.131  12.197
20690SOL     OW63510   7.188   2.958  12.245
20690SOL    HW163511   7.151   2.988  12.328
20690SOL    HW263512   7.120   2.978  12.180
20691SOL     OW63513   6.298   2.924  11.546
20691SOL    HW163514   6.282   2.900  11.637
20691SOL    HW263515   6.374   2.872  11.520
20692SOL     OW63516   6.018   2.677  12.457
20692SOL    HW163517   6.058   2.734  12.522
20692SOL    HW263518   6.068   2.596  12.460
20693SOL     OW63519   6.838   2.221  12.432
20693SOL    HW163520   6.865   2.307  12.464
20693SOL    HW263521   6.747   2.232  12.405
20694SOL     OW63522   5.916   2.988  11.659
20694SOL    HW163523   5.912   3.062  11.599
20694SOL    HW263524   5.915   2.911  11.602
20695SOL     OW63525   6.126   2.383  12.033
20695SOL    HW163526   6.139   2.441  11.959
20695SOL    HW263527   6.191   2.412  12.097
20696SOL     OW63528   6.831   3.211  11.568
20696SOL    HW163529   6.888   3.282  11.598
20696SOL    HW263530   6.743   3.236  11.598
20697SOL     OW63531   6.874   3.315  12.312
20697SOL    HW163532   6.925   3.314  12.393
20697SOL    HW263533   6.814   3.241  12.321
20698SOL     OW63534   7.163   2.477  11.659
20698SOL    HW163535   7.111   2.522  11.726
20698SOL    HW263536   7.204   2.548  11.610
20699SOL     OW63537   5.973   3.391  12.463
20699SOL    HW163538   5.941   3.339  12.388
20699SOL    HW263539   6.008   3.470  12.423
20700SOL     OW63540   6.168   2.735  12.217
20700SOL    HW163541   6.192   2.827  12.204
20700SOL    HW263542   6.106   2.737  12.290
20701SOL     OW63543   6.909   2.717  12.171
20701SOL    HW163544   6.824   2.690  12.137
20701SOL    HW263545   6.964   2.638  12.162
20702SOL     OW63546   6.786   2.385  11.433
20702SOL    HW163547   6.793   2.308  11.488
20702SOL    HW263548   6.744   2.451  11.488
20703SOL     OW63549   5.886   2.050  12.409
20703SOL    HW163550   5.857   2.083  12.494
20703SOL    HW263551   5.868   1.956  12.413
20704SOL     OW63552   5.652   3.186  12.433
20704SOL    HW163553   5.688   3.110  12.479
20704SOL    HW263554   5.650   3.255  12.499
20705SOL     OW63555   6.298   2.489  12.219
20705SOL    HW163556   6.376   2.482  12.164
20705SOL    HW263557   6.268   2.579  12.207
20706SOL     OW63558   5.898   1.919  11.795
20706SOL    HW163559   5.870   2.009  11.812
20706SOL    HW263560   5.906   1.880  11.882
20707SOL     OW63561   7.213   2.245  11.525
20707SOL    HW163562   7.242   2.179  11.589
20707SOL    HW263563   7.187   2.320  11.579
20708SOL     OW63564   6.615   2.616  12.141
20708SOL    HW163565   6.606   2.625  12.236
20708SOL    HW263566   6.587   2.527  12.122
20709SOL     OW63567   7.112   2.130  11.295
20709SOL    HW163568   7.050   2.066  11.328
20709SOL    HW263569   7.149   2.171  11.373
20710SOL     OW63570   6.872   2.687  11.198
20710SOL    HW163571   6.913   2.600  11.202
20710SOL    HW263572   6.904   2.725  11.116
20711SOL     OW63573   6.658   3.203  12.031
20711SOL    HW163574   6.664   3.131  11.969
20711SOL    HW263575   6.707   3.274  11.990
20712SOL     OW63576   5.897   2.675  12.117
20712SOL    HW163577   5.991   2.689  12.107
20712SOL    HW263578   5.889   2.584  12.142
20713SOL     OW63579   5.895   2.404  12.170
20713SOL    HW163580   5.864   2.313  12.170
20713SOL    HW263581   5.977   2.401  12.120
20714SOL     OW63582   6.763   2.078   0.153
20714SOL    HW163583   6.736   2.145   0.217
20714SOL    HW263584   6.787   2.127   0.075
20715SOL     OW63585   5.605   3.172  11.358
20715SOL    HW163586   5.516   3.192  11.329
20715SOL    HW263587   5.598   3.085  11.398
20716SOL     OW63588   5.682   3.640  12.121
20716SOL    HW163589   5.649   3.566  12.071
20716SOL    HW263590   5.770   3.656  12.085
20717SOL     OW63591   6.080   3.443  12.074
20717SOL    HW163592   6.151   3.500  12.101
20717SOL    HW263593   6.121   3.379  12.016
20718SOL     OW63594   6.558   2.648  12.416
20718SOL    HW163595   6.606   2.717  12.461
20718SOL    HW263596   6.466   2.673  12.427
20719SOL     OW63597   5.640   2.419  12.287
20719SOL    HW163598   5.713   2.428  12.225
20719SOL    HW263599   5.682   2.404  12.372
20720SOL     OW63600   6.402   2.432  11.542
20720SOL    HW163601   6.405   2.359  11.479
20720SOL    HW263602   6.329   2.486  11.513
20721SOL     OW63603   7.231   2.461  12.328
20721SOL    HW163604   7.231   2.412  12.411
20721SOL    HW263605   7.321   2.456  12.298
20722SOL     OW63606   6.304   2.300  12.417
20722SOL    HW163607   6.238   2.236  12.391
20722SOL    HW263608   6.294   2.371  12.354
20723SOL     OW63609   6.486   3.514   0.031
20723SOL    HW163610   6.484   3.580  -0.039
20723SOL    HW263611   6.514   3.562   0.109
20724SOL     OW63612   6.043   2.351  11.354
20724SOL    HW163613   6.102   2.424  11.377
20724SOL    HW263614   5.957   2.392  11.345
20725SOL     OW63615   6.871   2.901  12.367
20725SOL    HW163616   6.890   2.842  12.294
20725SOL    HW263617   6.818   2.970  12.330
20726SOL     OW63618   6.906   2.716  11.472
20726SOL    HW163619   6.830   2.686  11.523
20726SOL    HW263620   6.879   2.706  11.381
20727SOL     OW63621   7.335   3.612  12.284
20727SOL    HW163622   7.420   3.621  12.242
20727SOL    HW263623   7.321   3.517  12.290
20728SOL     OW63624   6.842   3.596  12.276
20728SOL    HW163625   6.923   3.626  12.235
20728SOL    HW263626   6.853   3.501  12.285
20729SOL     OW63627   5.677   3.134  12.169
20729SOL    HW163628   5.661   3.153  12.262
20729SOL    HW263629   5.609   3.071  12.146
20730SOL     OW63630   7.313   2.027  11.674
20730SOL    HW163631   7.380   2.010  11.608
20730SOL    HW263632   7.296   1.941  11.713
20731SOL     OW63633   6.984   3.428  11.671
20731SOL    HW163634   7.039   3.461  11.599
20731SOL    HW263635   6.928   3.502  11.694
20732SOL     OW63636   6.864   2.792  11.842
20732SOL    HW163637   6.937   2.732  11.852
20732SOL    HW263638   6.898   2.863  11.787
20733SOL     OW63639   6.255   3.489  11.327
20733SOL    HW163640   6.267   3.505  11.233
20733SOL    HW263641   6.198   3.412  11.330
20734SOL     OW63642   7.208   3.657   0.030
20734SOL    HW163643   7.265   3.643  -0.046
20734SOL    HW263644   7.246   3.732   0.075
20735SOL     OW63645   7.425   2.030  12.146
20735SOL    HW163646   7.458   1.944  12.120
20735SOL    HW263647   7.339   2.036  12.104
20736SOL     OW63648   5.837   2.169  11.880
20736SOL    HW163649   5.751   2.205  11.858
20736SOL    HW263650   5.839   2.172  11.976
20737SOL     OW63651   6.795   3.461  11.208
20737SOL    HW163652   6.783   3.369  11.231
20737SOL    HW263653   6.731   3.477  11.139
20738SOL     OW63654   6.378   2.873  12.481
20738SOL    HW163655   6.376   2.920  12.398
20738SOL    HW263656   6.451   2.912  12.528
20739SOL     OW63657   6.508   2.774  11.471
20739SOL    HW163658   6.563   2.807  11.400
20739SOL    HW263659   6.559   2.704  11.512
20740SOL     OW63660   7.074   3.497  11.223
20740SOL    HW163661   6.981   3.483  11.206
20740SOL    HW263662   7.114   3.502  11.136
20741SOL     OW63663   6.653   2.974  11.890
20741SOL    HW163664   6.579   2.924  11.923
20741SOL    HW263665   6.716   2.908  11.861
20742SOL     OW63666   6.627   2.111  12.106
20742SOL    HW163667   6.622   2.046  12.036
20742SOL    HW263668   6.614   2.061  12.186
20743SOL     OW63669   6.192   3.358  11.648
20743SOL    HW163670   6.243   3.305  11.587
20743SOL    HW263671   6.113   3.381  11.599
20744SOL     OW63672   7.359   2.301   0.037
20744SOL    HW163673   7.453   2.307   0.055
20744SOL    HW263674   7.345   2.210   0.010
20745SOL     OW63675   5.862   3.199  11.479
20745SOL    HW163676   5.775   3.197  11.439
20745SOL    HW263677   5.850   3.245  11.561
20746SOL     OW63678   5.669   2.184  11.187
20746SOL    HW163679   5.586   2.172  11.140
20746SOL    HW263680   5.703   2.267  11.154
20747SOL     OW63681   5.642   2.017  11.465
20747SOL    HW163682   5.625   2.094  11.411
20747SOL    HW263683   5.728   1.987  11.437
20748SOL     OW63684   6.761   3.192  11.288
20748SOL    HW163685   6.667   3.175  11.284
20748SOL    HW263686   6.781   3.190  11.381
20749SOL     OW63687   7.099   3.667  12.146
20749SOL    HW163688   7.112   3.615  12.066
20749SOL    HW263689   7.171   3.641  12.203
20750SOL     OW63690   7.257   2.732  12.404
20750SOL    HW163691   7.238   2.646  12.365
20750SOL    HW263692   7.236   2.794  12.335
20751SOL     OW63693   6.800   2.179  11.630
20751SOL    HW163694   6.863   2.106  11.626
20751SOL    HW263695   6.829   2.231  11.705
20752SOL     OW63696   6.168   2.592  11.854
20752SOL    HW163697   6.211   2.677  11.838
20752SOL    HW263698   6.106   2.582  11.782
20753SOL     OW63699   7.407   2.764   0.122
20753SOL    HW163700   7.370   2.838   0.171
20753SOL    HW263701   7.346   2.751   0.049
20754SOL     OW63702   6.468   3.228  11.228
20754SOL    HW163703   6.416   3.259  11.302
20754SOL    HW263704   6.474   3.304  11.170
20755SOL     OW63705   6.253   3.654  12.125
20755SOL    HW163706   6.234   3.742  12.092
20755SOL    HW263707   6.346   3.642  12.109
20756SOL     OW63708   6.458   2.833  12.030
20756SOL    HW163709   6.506   2.760  12.068
20756SOL    HW263710   6.422   2.880  12.106
20757SOL     OW63711   6.662   2.848  11.263
20757SOL    HW163712   6.639   2.902  11.188
20757SOL    HW263713   6.735   2.795  11.233
20758SOL     OW63714   7.441   3.419  12.022
20758SOL    HW163715   7.361   3.402  11.973
20758SOL    HW263716   7.454   3.341  12.076
20759SOL     OW63717   5.678   3.089  11.836
20759SOL    HW163718   5.697   3.048  11.920
20759SOL    HW263719   5.744   3.053  11.776
20760SOL     OW63720   7.393   2.040  12.422
20760SOL    HW163721   7.429   1.952  12.431
20760SOL    HW263722   7.397   2.058  12.328
20761SOL     OW63723   6.017   2.290  11.701
20761SOL    HW163724   6.042   2.222  11.638
20761SOL    HW263725   5.960   2.246  11.763
20762SOL     OW63726   7.285   3.350  12.287
20762SOL    HW163727   7.210   3.301  12.254
20762SOL    HW263728   7.321   3.294  12.356
20763SOL     OW63729   6.413   3.448  11.845
20763SOL    HW163730   6.392   3.513  11.778
20763SOL    HW263731   6.339   3.387  11.843
20764SOL     OW63732   7.032   2.099  12.294
20764SOL    HW163733   7.097   2.065  12.356
20764SOL    HW263734   6.964   2.137  12.349
20765SOL     OW63735   6.583   1.825  12.316
20765SOL    HW163736   6.551   1.786  12.234
20765SOL    HW263737   6.677   1.808  12.315
20766SOL     OW63738   6.358   3.196  11.501
20766SOL    HW163739   6.331   3.104  11.506
20766SOL    HW263740   6.443   3.198  11.544
20767SOL     OW63741   6.947   1.912  11.354
20767SOL    HW163742   6.982   1.843  11.297
20767SOL    HW263743   6.857   1.884  11.371
20768SOL     OW63744   6.882   2.327  11.846
20768SOL    HW163745   6.830   2.408  11.849
20768SOL    HW263746   6.880   2.295  11.936
20769SOL     OW63747   7.168   2.049  12.057
20769SOL    HW163748   7.114   2.076  12.132
20769SOL    HW263749   7.168   2.126  11.999
20770SOL     OW63750   5.627   2.924  11.487
20770SOL    HW163751   5.720   2.915  11.466
20770SOL    HW263752   5.599   2.835  11.506
20771SOL     OW63753   6.473   3.528  11.508
20771SOL    HW163754   6.399   3.511  11.450
20771SOL    HW263755   6.444   3.601  11.563
20772SOL     OW63756   5.852   4.320   0.031
20772SOL    HW163757   5.815   4.376   0.100
20772SOL    HW263758   5.790   4.326  -0.041
20773SOL     OW63759   5.810   4.008   0.993
20773SOL    HW163760   5.836   3.975   1.079
20773SOL    HW263761   5.721   3.975   0.981
20774SOL     OW63762   5.578   4.111   0.637
20774SOL    HW163763   5.503   4.141   0.688
20774SOL    HW263764   5.549   4.031   0.595
20775SOL     OW63765   6.160   5.026   1.194
20775SOL    HW163766   6.072   5.028   1.158
20775SOL    HW263767   6.176   5.116   1.224
20776SOL     OW63768   7.162   5.245   0.715
20776SOL    HW163769   7.119   5.218   0.797
20776SOL    HW263770   7.092   5.244   0.650
20777SOL     OW63771   6.718   4.427   0.691
20777SOL    HW163772   6.766   4.509   0.683
20777SOL    HW263773   6.671   4.435   0.775
20778SOL     OW63774   7.305   4.337   0.270
20778SOL    HW163775   7.319   4.330   0.176
20778SOL    HW263776   7.281   4.249   0.298
20779SOL     OW63777   6.322   4.857   1.048
20779SOL    HW163778   6.260   4.896   1.110
20779SOL    HW263779   6.366   4.932   1.008
20780SOL     OW63780   6.466   4.475   1.831
20780SOL    HW163781   6.449   4.541   1.899
20780SOL    HW263782   6.485   4.527   1.752
20781SOL     OW63783   6.270   4.718   0.646
20781SOL    HW163784   6.339   4.710   0.713
20781SOL    HW263785   6.204   4.774   0.686
20782SOL     OW63786   6.301   4.871   1.820
20782SOL    HW163787   6.346   4.947   1.855
20782SOL    HW263788   6.220   4.906   1.782
20783SOL     OW63789   5.921   5.137   1.070
20783SOL    HW163790   5.845   5.097   1.029
20783SOL    HW263791   5.963   5.186   1.000
20784SOL     OW63792   7.043   5.230   1.365
20784SOL    HW163793   7.098   5.308   1.377
20784SOL    HW263794   6.974   5.239   1.430
20785SOL     OW63795   6.041   4.105   1.459
20785SOL    HW163796   6.116   4.049   1.480
20785SOL    HW263797   5.966   4.059   1.495
20786SOL     OW63798   7.192   4.166   0.753
20786SOL    HW163799   7.148   4.199   0.675
20786SOL    HW263800   7.167   4.228   0.822
20787SOL     OW63801   5.809   5.395   0.504
20787SOL    HW163802   5.824   5.478   0.550
20787SOL    HW263803   5.878   5.391   0.438
20788SOL     OW63804   6.722   5.068   1.697
20788SOL    HW163805   6.763   5.061   1.783
20788SOL    HW263806   6.669   4.989   1.689
20789SOL     OW63807   5.857   4.812   0.892
20789SOL    HW163808   5.861   4.722   0.926
20789SOL    HW263809   5.804   4.859   0.956
20790SOL     OW63810   6.173   5.523   1.419
20790SOL    HW163811   6.097   5.500   1.473
20790SOL    HW263812   6.203   5.607   1.454
20791SOL     OW63813   6.165   4.687   0.155
20791SOL    HW163814   6.231   4.703   0.087
20791SOL    HW263815   6.200   4.729   0.233
20792SOL     OW63816   7.180   3.855   1.460
20792SOL    HW163817   7.209   3.936   1.418
20792SOL    HW263818   7.155   3.882   1.549
20793SOL     OW63819   5.703   4.374   0.559
20793SOL    HW163820   5.672   4.287   0.582
20793SOL    HW263821   5.698   4.424   0.640
20794SOL     OW63822   7.436   5.466   0.316
20794SOL    HW163823   7.496   5.438   0.385
20794SOL    HW263824   7.458   5.558   0.301
20795SOL     OW63825   5.627   5.233   0.155
20795SOL    HW163826   5.540   5.198   0.134
20795SOL    HW263827   5.609   5.319   0.194
20796SOL     OW63828   7.268   4.659   0.651
20796SOL    HW163829   7.336   4.610   0.605
20796SOL    HW263830   7.235   4.721   0.586
20797SOL     OW63831   7.230   4.842   0.435
20797SOL    HW163832   7.317   4.838   0.396
20797SOL    HW263833   7.238   4.905   0.506
20798SOL     OW63834   5.711   4.473   1.577
20798SOL    HW163835   5.799   4.507   1.590
20798SOL    HW263836   5.653   4.549   1.586
20799SOL     OW63837   6.207   5.118   0.731
20799SOL    HW163838   6.166   5.033   0.743
20799SOL    HW263839   6.190   5.140   0.639
20800SOL     OW63840   6.868   4.959   1.416
20800SOL    HW163841   6.899   4.889   1.358
20800SOL    HW263842   6.925   4.953   1.492
20801SOL     OW63843   6.410   3.736   0.527
20801SOL    HW163844   6.447   3.820   0.500
20801SOL    HW263845   6.315   3.752   0.529
20802SOL     OW63846   5.774   4.686   1.274
20802SOL    HW163847   5.860   4.645   1.261
20802SOL    HW263848   5.712   4.620   1.243
20803SOL     OW63849   7.082   4.738   0.227
20803SOL    HW163850   7.019   4.679   0.267
20803SOL    HW263851   7.136   4.769   0.300
20804SOL     OW63852   6.770   5.544   1.628
20804SOL    HW163853   6.775   5.602   1.552
20804SOL    HW263854   6.788   5.457   1.592
20805SOL     OW63855   5.940   3.984   1.819
20805SOL    HW163856   5.977   4.060   1.863
20805SOL    HW263857   5.847   3.985   1.843
20806SOL     OW63858   7.052   5.143   0.944
20806SOL    HW163859   6.988   5.159   1.014
20806SOL    HW263860   7.038   5.051   0.920
20807SOL     OW63861   7.230   5.490   0.584
20807SOL    HW163862   7.210   5.450   0.499
20807SOL    HW263863   7.220   5.418   0.647
20808SOL     OW63864   6.167   4.432   0.279
20808SOL    HW163865   6.173   4.520   0.240
20808SOL    HW263866   6.102   4.441   0.348
20809SOL     OW63867   6.867   4.100   0.935
20809SOL    HW163868   6.778   4.066   0.943
20809SOL    HW263869   6.919   4.044   0.993
20810SOL     OW63870   7.174   5.396   0.329
20810SOL    HW163871   7.268   5.412   0.322
20810SOL    HW263872   7.144   5.390   0.238
20811SOL     OW63873   6.379   4.341   1.440
20811SOL    HW163874   6.356   4.315   1.529
20811SOL    HW263875   6.348   4.270   1.385
20812SOL     OW63876   6.980   4.198   1.679
20812SOL    HW163877   6.983   4.242   1.764
20812SOL    HW263878   7.033   4.120   1.691
20813SOL     OW63879   6.534   4.607   1.592
20813SOL    HW163880   6.589   4.541   1.551
20813SOL    HW263881   6.484   4.645   1.519
20814SOL     OW63882   6.586   4.129   1.224
20814SOL    HW163883   6.496   4.145   1.253
20814SOL    HW263884   6.577   4.084   1.140
20815SOL     OW63885   6.640   4.429   0.425
20815SOL    HW163886   6.658   4.424   0.519
20815SOL    HW263887   6.555   4.387   0.415
20816SOL     OW63888   5.685   4.544   0.771
20816SOL    HW163889   5.762   4.538   0.827
20816SOL    HW263890   5.637   4.620   0.804
20817SOL     OW63891   5.707   5.598   1.587
20817SOL    HW163892   5.715   5.579   1.680
20817SOL    HW263893   5.621   5.563   1.563
20818SOL     OW63894   6.474   4.083   0.219
20818SOL    HW163895   6.502   4.148   0.155
20818SOL    HW263896   6.457   4.004   0.167
20819SOL     OW63897   7.289   4.289   1.830
20819SOL    HW163898   7.255   4.365   1.783
20819SOL    HW263899   7.315   4.228   1.761
20820SOL     OW63900   6.967   4.866   0.536
20820SOL    HW163901   7.049   4.861   0.486
20820SOL    HW263902   6.912   4.927   0.487
20821SOL     OW63903   6.137   3.895   0.907
20821SOL    HW163904   6.139   3.923   0.999
20821SOL    HW263905   6.135   3.977   0.858
20822SOL     OW63906   6.582   5.155   0.474
20822SOL    HW163907   6.539   5.233   0.439
20822SOL    HW263908   6.571   5.163   0.569
20823SOL     OW63909   5.936   5.538   0.878
20823SOL    HW163910   5.984   5.456   0.882
20823SOL    HW263911   6.001   5.605   0.899
20824SOL     OW63912   7.388   4.770   0.879
20824SOL    HW163913   7.335   4.750   0.801
20824SOL    HW263914   7.324   4.779   0.950
20825SOL     OW63915   6.811   5.267   1.516
20825SOL    HW163916   6.799   5.197   1.580
20825SOL    HW263917   6.738   5.256   1.455
20826SOL     OW63918   5.900   4.719   0.256
20826SOL    HW163919   5.982   4.717   0.206
20826SOL    HW263920   5.858   4.635   0.236
20827SOL     OW63921   7.066   4.483   0.721
20827SOL    HW163922   7.066   4.439   0.806
20827SOL    HW263923   7.143   4.539   0.723
20828SOL     OW63924   6.063   4.994   1.735
20828SOL    HW163925   6.035   4.997   1.644
20828SOL    HW263926   5.981   4.988   1.785
20829SOL     OW63927   6.643   5.499   0.224
20829SOL    HW163928   6.634   5.462   0.312
20829SOL    HW263929   6.713   5.448   0.184
20830SOL     OW63930   5.785   3.997   1.510
20830SOL    HW163931   5.707   4.049   1.529
20830SOL    HW263932   5.770   3.913   1.554
20831SOL     OW63933   7.242   5.134   0.084
20831SOL    HW163934   7.176   5.197   0.055
20831SOL    HW263935   7.196   5.050   0.086
20832SOL     OW63936   6.033   5.443   0.338
20832SOL    HW163937   6.078   5.507   0.394
20832SOL    HW263938   6.101   5.413   0.277
20833SOL     OW63939   6.989   3.823   0.451
20833SOL    HW163940   6.985   3.792   0.361
20833SOL    HW263941   7.082   3.827   0.471
20834SOL     OW63942   5.842   5.515   1.228
20834SOL    HW163943   5.889   5.450   1.280
20834SOL    HW263944   5.844   5.481   1.138
20835SOL     OW63945   6.523   5.428   0.895
20835SOL    HW163946   6.599   5.378   0.924
20835SOL    HW263947   6.486   5.376   0.824
20836SOL     OW63948   5.976   4.417   0.479
20836SOL    HW163949   5.994   4.324   0.490
20836SOL    HW263950   5.884   4.427   0.505
20837SOL     OW63951   7.107   3.947   1.721
20837SOL    HW163952   7.121   3.966   1.814
20837SOL    HW263953   7.039   3.880   1.721
20838SOL     OW63954   6.215   3.846   0.120
20838SOL    HW163955   6.308   3.823   0.119
20838SOL    HW263956   6.199   3.884   0.033
20839SOL     OW63957   6.347   4.000   1.752
20839SOL    HW163958   6.430   3.952   1.749
20839SOL    HW263959   6.301   3.964   1.828
20840SOL     OW63960   6.462   5.251   1.196
20840SOL    HW163961   6.442   5.209   1.112
20840SOL    HW263962   6.528   5.194   1.236
20841SOL     OW63963   6.923   4.313   1.435
20841SOL    HW163964   6.954   4.282   1.520
20841SOL    HW263965   6.960   4.401   1.427
20842SOL     OW63966   6.407   5.109   0.953
20842SOL    HW163967   6.493   5.099   0.912
20842SOL    HW263968   6.347   5.119   0.879
20843SOL     OW63969   6.518   4.236   0.896
20843SOL    HW163970   6.491   4.225   0.805
20843SOL    HW263971   6.545   4.148   0.923
20844SOL     OW63972   6.140   3.780   0.504
20844SOL    HW163973   6.061   3.780   0.557
20844SOL    HW263974   6.133   3.858   0.449
20845SOL     OW63975   7.047   4.943   0.050
20845SOL    HW163976   7.061   4.864   0.102
20845SOL    HW263977   6.956   4.967   0.066
20846SOL     OW63978   5.897   3.801   0.204
20846SOL    HW163979   5.978   3.850   0.194
20846SOL    HW263980   5.924   3.714   0.234
20847SOL     OW63981   6.532   3.975   0.464
20847SOL    HW163982   6.506   4.013   0.380
20847SOL    HW263983   6.627   3.987   0.467
20848SOL     OW63984   6.667   4.414   1.452
20848SOL    HW163985   6.601   4.345   1.461
20848SOL    HW263986   6.751   4.368   1.450
20849SOL     OW63987   6.803   5.294   0.793
20849SOL    HW163988   6.817   5.362   0.726
20849SOL    HW263989   6.870   5.311   0.859
20850SOL     OW63990   6.064   4.884   0.730
20850SOL    HW163991   6.000   4.859   0.797
20850SOL    HW263992   6.018   4.871   0.647
20851SOL     OW63993   6.841   5.512   0.612
20851SOL    HW163994   6.893   5.577   0.564
20851SOL    HW263995   6.772   5.564   0.654
20852SOL     OW63996   6.613   4.274   0.067
20852SOL    HW163997   6.599   4.358   0.022
20852SOL    HW263998   6.677   4.294   0.135
20853SOL     OW63999   5.670   4.282   1.387
20853SOL    HW164000   5.763   4.278   1.365
20853SOL    HW264001   5.664   4.349   1.455
20854SOL     OW64002   6.140   3.950   1.179
20854SOL    HW164003   6.182   3.888   1.239
20854SOL    HW264004   6.048   3.950   1.206
20855SOL     OW64005   6.453   4.184   0.637
20855SOL    HW164006   6.411   4.240   0.572
20855SOL    HW264007   6.475   4.104   0.590
20856SOL     OW64008   6.609   3.775   0.740
20856SOL    HW164009   6.545   3.771   0.669
20856SOL    HW264010   6.584   3.704   0.799
20857SOL     OW64011   7.025   4.882   0.860
20857SOL    HW164012   6.956   4.816   0.861
20857SOL    HW264013   7.050   4.889   0.767
20858SOL     OW64014   7.052   4.331   0.957
20858SOL    HW164015   6.989   4.260   0.966
20858SOL    HW264016   7.107   4.326   1.035
20859SOL     OW64017   7.416   4.540   0.430
20859SOL    HW164018   7.464   4.475   0.481
20859SOL    HW264019   7.370   4.489   0.363
20860SOL     OW64020   6.075   5.129   0.183
20860SOL    HW164021   6.046   5.038   0.193
20860SOL    HW264022   6.020   5.165   0.114
20861SOL     OW64023   7.261   4.993   0.651
20861SOL    HW164024   7.355   4.987   0.667
20861SOL    HW264025   7.238   5.083   0.673
20862SOL     OW64026   6.972   4.261   0.075
20862SOL    HW164027   6.920   4.266   0.155
20862SOL    HW264028   7.034   4.190   0.091
20863SOL     OW64029   6.117   3.985   0.329
20863SOL    HW164030   6.164   3.935   0.262
20863SOL    HW264031   6.091   4.066   0.285
20864SOL     OW64032   7.327   4.969   1.547
20864SOL    HW164033   7.414   4.931   1.538
20864SOL    HW264034   7.342   5.056   1.583
20865SOL     OW64035   6.635   5.075   1.328
20865SOL    HW164036   6.559   5.044   1.377
20865SOL    HW264037   6.710   5.035   1.372
20866SOL     OW64038   7.193   5.356   1.661
20866SOL    HW164039   7.186   5.390   1.572
20866SOL    HW264040   7.273   5.303   1.660
20867SOL     OW64041   6.724   4.939   1.101
20867SOL    HW164042   6.666   4.977   1.167
20867SOL    HW264043   6.694   4.977   1.018
20868SOL     OW64044   7.206   4.820   1.077
20868SOL    HW164045   7.198   4.883   1.149
20868SOL    HW264046   7.131   4.840   1.020
20869SOL     OW64047   6.507   3.811   1.389
20869SOL    HW164048   6.530   3.797   1.297
20869SOL    HW264049   6.585   3.852   1.427
20870SOL     OW64050   6.569   4.841   1.723
20870SOL    HW164051   6.479   4.856   1.751
20870SOL    HW264052   6.564   4.760   1.672
20871SOL     OW64053   6.296   4.786   0.377
20871SOL    HW164054   6.282   4.763   0.469
20871SOL    HW264055   6.375   4.737   0.352
20872SOL     OW64056   6.010   4.544   1.252
20872SOL    HW164057   6.075   4.555   1.321
20872SOL    HW264058   5.975   4.455   1.266
20873SOL     OW64059   6.851   4.099   1.283
20873SOL    HW164060   6.881   4.177   1.330
20873SOL    HW264061   6.760   4.118   1.260
20874SOL     OW64062   5.664   5.299   1.362
20874SOL    HW164063   5.642   5.377   1.312
20874SOL    HW264064   5.759   5.292   1.356
20875SOL     OW64065   5.925   4.858   0.497
20875SOL    HW164066   5.921   4.935   0.441
20875SOL    HW264067   5.924   4.784   0.436
20876SOL     OW64068   6.128   4.246   0.856
20876SOL    HW164069   6.143   4.305   0.782
20876SOL    HW264070   6.193   4.271   0.921
20877SOL     OW64071   6.831   5.072   0.394
20877SOL    HW164072   6.886   5.142   0.430
20877SOL    HW264073   6.743   5.091   0.427
20878SOL     OW64074   6.881   5.188   1.151
20878SOL    HW164075   6.936   5.197   1.228
20878SOL    HW264076   6.826   5.112   1.169
20879SOL     OW64077   7.139   4.318   0.510
20879SOL    HW164078   7.096   4.380   0.569
20879SOL    HW264079   7.172   4.372   0.438
20880SOL     OW64080   5.931   5.257   1.311
20880SOL    HW164081   5.921   5.208   1.229
20880SOL    HW264082   6.025   5.268   1.321
20881SOL     OW64083   6.009   4.470   1.609
20881SOL    HW164084   6.073   4.510   1.550
20881SOL    HW264085   6.048   4.387   1.634
20882SOL     OW64086   7.200   4.504   1.692
20882SOL    HW164087   7.114   4.545   1.687
20882SOL    HW264088   7.251   4.547   1.622
20883SOL     OW64089   6.582   3.862   1.749
20883SOL    HW164090   6.641   3.936   1.733
20883SOL    HW264091   6.635   3.785   1.729
20884SOL     OW64092   6.082   3.758   1.749
20884SOL    HW164093   6.028   3.705   1.690
20884SOL    HW264094   6.030   3.836   1.767
20885SOL     OW64095   6.171   4.600   1.034
20885SOL    HW164096   6.210   4.687   1.041
20885SOL    HW264097   6.117   4.591   1.112
20886SOL     OW64098   6.920   4.580   1.011
20886SOL    HW164099   6.831   4.558   0.984
20886SOL    HW264100   6.970   4.499   1.000
20887SOL     OW64101   6.794   4.253   0.282
20887SOL    HW164102   6.809   4.179   0.341
20887SOL    HW264103   6.748   4.318   0.336
20888SOL     OW64104   5.874   3.922   1.249
20888SOL    HW164105   5.840   3.955   1.332
20888SOL    HW264106   5.856   3.828   1.252
20889SOL     OW64107   5.652   5.039   1.262
20889SOL    HW164108   5.672   4.978   1.333
20889SOL    HW264109   5.642   5.124   1.306
20890SOL     OW64110   6.299   4.349   1.044
20890SOL    HW164111   6.379   4.340   0.992
20890SOL    HW264112   6.271   4.440   1.031
20891SOL     OW64113   7.326   4.686   1.863
20891SOL    HW164114   7.284   4.615   1.815
20891SOL    HW264115   7.265   4.706   1.934
20892SOL     OW64116   5.896   3.784   0.630
20892SOL    HW164117   5.870   3.874   0.649
20892SOL    HW264118   5.904   3.743   0.716
20893SOL     OW64119   7.202   4.091   0.368
20893SOL    HW164120   7.233   4.023   0.427
20893SOL    HW264121   7.167   4.159   0.426
20894SOL     OW64122   6.618   4.482   0.958
20894SOL    HW164123   6.603   4.498   1.051
20894SOL    HW264124   6.590   4.391   0.945
20895SOL     OW64125   6.568   5.296   1.725
20895SOL    HW164126   6.552   5.335   1.639
20895SOL    HW264127   6.605   5.210   1.705
20896SOL     OW64128   7.431   5.223   1.604
20896SOL    HW164129   7.456   5.251   1.516
20896SOL    HW264130   7.511   5.235   1.656
20897SOL     OW64131   5.937   4.652   1.803
20897SOL    HW164132   6.011   4.664   1.862
20897SOL    HW264133   5.966   4.585   1.741
20898SOL     OW64134   7.086   4.008   0.131
20898SOL    HW164135   7.040   3.927   0.153
20898SOL    HW264136   7.132   4.033   0.211
20899SOL     OW64137   6.874   4.529   0.058
20899SOL    HW164138   6.925   4.448   0.045
20899SOL    HW264139   6.916   4.593  -0.000
20900SOL     OW64140   6.656   5.067   0.858
20900SOL    HW164141   6.664   4.994   0.797
20900SOL    HW264142   6.714   5.134   0.824
20901SOL     OW64143   5.901   4.535   0.943
20901SOL    HW164144   5.995   4.552   0.947
20901SOL    HW264145   5.892   4.445   0.975
20902SOL     OW64146   5.906   4.257   1.009
20902SOL    HW164147   5.870   4.169   1.000
20902SOL    HW264148   5.983   4.257   0.953
20903SOL     OW64149   6.723   4.095   1.685
20903SOL    HW164150   6.675   4.147   1.750
20903SOL    HW264151   6.809   4.136   1.681
20904SOL     OW64152   6.747   3.920   1.471
20904SOL    HW164153   6.735   3.981   1.543
20904SOL    HW264154   6.791   3.972   1.403
20905SOL     OW64155   5.668   5.492   0.930
20905SOL    HW164156   5.648   5.415   0.877
20905SOL    HW264157   5.760   5.511   0.911
20906SOL     OW64158   6.070   5.295   0.894
20906SOL    HW164159   6.139   5.356   0.922
20906SOL    HW264160   6.116   5.232   0.839
20907SOL     OW64161   6.549   4.508   1.221
20907SOL    HW164162   6.611   4.492   1.291
20907SOL    HW264163   6.467   4.469   1.252
20908SOL     OW64164   5.625   4.285   1.115
20908SOL    HW164165   5.710   4.278   1.070
20908SOL    HW264166   5.647   4.280   1.208
20909SOL     OW64167   5.767   4.254   1.736
20909SOL    HW164168   5.827   4.211   1.675
20909SOL    HW264169   5.733   4.329   1.687
20910SOL     OW64170   6.971   4.651   1.655
20910SOL    HW164171   6.990   4.745   1.652
20910SOL    HW264172   6.966   4.624   1.563
20911SOL     OW64173   6.400   4.304   0.378
20911SOL    HW164174   6.407   4.226   0.323
20911SOL    HW264175   6.321   4.349   0.346
20912SOL     OW64176   7.223   4.325   1.171
20912SOL    HW164177   7.215   4.268   1.248
20912SOL    HW264178   7.313   4.310   1.140
20913SOL     OW64179   5.820   5.268   1.723
20913SOL    HW164180   5.795   5.325   1.796
20913SOL    HW264181   5.831   5.182   1.763
20914SOL     OW64182   6.310   4.165   1.244
20914SOL    HW164183   6.246   4.096   1.228
20914SOL    HW264184   6.295   4.229   1.175
20915SOL     OW64185   6.509   5.401   1.471
20915SOL    HW164186   6.481   5.360   1.389
20915SOL    HW264187   6.502   5.495   1.454
20916SOL     OW64188   6.050   4.200   0.184
20916SOL    HW164189   6.098   4.278   0.211
20916SOL    HW264190   5.981   4.233   0.126
20917SOL     OW64191   5.729   4.869   1.471
20917SOL    HW164192   5.728   4.824   1.555
20917SOL    HW264193   5.746   4.799   1.407
20918SOL     OW64194   6.903   4.764   1.213
20918SOL    HW164195   6.921   4.700   1.143
20918SOL    HW264196   6.839   4.824   1.175
20919SOL     OW64197   6.888   4.570   0.330
20919SOL    HW164198   6.812   4.534   0.375
20919SOL    HW264199   6.877   4.544   0.239
20920SOL     OW64200   7.365   5.459   1.155
20920SOL    HW164201   7.429   5.482   1.087
20920SOL    HW264202   7.339   5.369   1.134
20921SOL     OW64203   6.823   5.455   1.092
20921SOL    HW164204   6.909   5.482   1.058
20921SOL    HW264205   6.836   5.365   1.120
20922SOL     OW64206   5.677   5.008   0.995
20922SOL    HW164207   5.663   5.016   1.089
20922SOL    HW264208   5.612   4.944   0.966
20923SOL     OW64209   6.267   5.399   1.746
20923SOL    HW164210   6.210   5.475   1.734
20923SOL    HW264211   6.345   5.420   1.694
20924SOL     OW64212   6.489   3.820   0.098
20924SOL    HW164213   6.535   3.838   0.016
20924SOL    HW264214   6.556   3.783   0.156
20925SOL     OW64215   7.308   3.880   0.511
20925SOL    HW164216   7.378   3.857   0.450
20925SOL    HW264217   7.286   3.797   0.554
20926SOL     OW64218   6.978   5.289   0.498
20926SOL    HW164219   7.040   5.324   0.434
20926SOL    HW264220   6.929   5.366   0.528
20927SOL     OW64221   5.731   5.527   1.844
20927SOL    HW164222   5.683   5.457   1.888
20927SOL    HW264223   5.779   5.571   1.914
20928SOL     OW64224   6.862   4.657   0.671
20928SOL    HW164225   6.935   4.597   0.684
20928SOL    HW264226   6.896   4.726   0.614
20929SOL     OW64227   6.381   5.003   1.417
20929SOL    HW164228   6.356   5.047   1.498
20929SOL    HW264229   6.305   5.012   1.360
20930SOL     OW64230   6.247   5.340   0.199
20930SOL    HW164231   6.311   5.345   0.129
20930SOL    HW264232   6.203   5.256   0.186
20931SOL     OW64233   7.203   5.454   1.392
20931SOL    HW164234   7.259   5.458   1.314
20931SOL    HW264235   7.188   5.546   1.415
20932SOL     OW64236   7.430   3.891   0.961
20932SOL    HW164237   7.459   3.802   0.939
20932SOL    HW264238   7.342   3.896   0.925
20933SOL     OW64239   5.837   4.036   0.714
20933SOL    HW164240   5.750   4.070   0.693
20933SOL    HW264241   5.839   4.032   0.810
20934SOL     OW64242   6.790   5.333   0.069
20934SOL    HW164243   6.784   5.238   0.086
20934SOL    HW264244   6.762   5.343  -0.022
20935SOL     OW64245   6.410   4.732   1.380
20935SOL    HW164246   6.456   4.724   1.296
20935SOL    HW264247   6.404   4.826   1.396
20936SOL     OW64248   6.514   4.651   0.297
20936SOL    HW164249   6.572   4.674   0.224
20936SOL    HW264250   6.559   4.580   0.342
20937SOL     OW64251   7.051   5.303   0.009
20937SOL    HW164252   6.963   5.329   0.038
20937SOL    HW264253   7.101   5.384   0.009
20938SOL     OW64254   5.955   5.028   1.490
20938SOL    HW164255   5.936   5.108   1.439
20938SOL    HW264256   5.878   4.974   1.479
20939SOL     OW64257   7.191   5.011   1.281
20939SOL    HW164258   7.246   4.990   1.357
20939SOL    HW264259   7.130   5.077   1.314
20940SOL     OW64260   6.652   4.838   0.714
20940SOL    HW164261   6.579   4.788   0.751
20940SOL    HW264262   6.718   4.773   0.691
20941SOL     OW64263   6.615   3.968   0.962
20941SOL    HW164264   6.613   3.922   0.878
20941SOL    HW264265   6.608   3.899   1.027
20942SOL     OW64266   6.177   5.194   0.473
20942SOL    HW164267   6.229   5.146   0.409
20942SOL    HW264268   6.120   5.250   0.420
20943SOL     OW64269   7.314   4.116   1.375
20943SOL    HW164270   7.388   4.178   1.376
20943SOL    HW264271   7.344   4.045   1.318
20944SOL     OW64272   5.773   5.103   0.368
20944SOL    HW164273   5.725   5.025   0.341
20944SOL    HW264274   5.770   5.160   0.292
20945SOL     OW64275   5.698   4.768   1.725
20945SOL    HW164276   5.622   4.740   1.776
20945SOL    HW264277   5.772   4.723   1.766
20946SOL     OW64278   6.265   3.914   1.496
20946SOL    HW164279   6.351   3.890   1.460
20946SOL    HW264280   6.284   3.947   1.583
20947SOL     OW64281   7.007   4.580   1.393
20947SOL    HW164282   6.957   4.640   1.339
20947SOL    HW264283   7.096   4.583   1.358
20948SOL     OW64284   5.651   3.867   0.307
20948SOL    HW164285   5.651   3.963   0.304
20948SOL    HW264286   5.737   3.842   0.275
20949SOL     OW64287   6.780   5.060   0.118
20949SOL    HW164288   6.685   5.052   0.108
20949SOL    HW264289   6.796   5.051   0.212
20950SOL     OW64290   6.208   4.554   1.435
20950SOL    HW164291   6.266   4.629   1.425
20950SOL    HW264292   6.267   4.479   1.441
20951SOL     OW64293   7.073   5.517   0.988
20951SOL    HW164294   7.100   5.587   0.929
20951SOL    HW264295   7.155   5.483   1.024
20952SOL     OW64296   6.309   4.278   1.692
20952SOL    HW164297   6.351   4.334   1.758
20952SOL    HW264298   6.319   4.189   1.726
20953SOL     OW64299   7.056   4.915   1.625
20953SOL    HW164300   7.045   4.931   1.719
20953SOL    HW264301   7.148   4.936   1.608
20954SOL     OW64302   5.949   5.465   1.569
20954SOL    HW164303   5.866   5.512   1.559
20954SOL    HW264304   5.925   5.383   1.612
20955SOL     OW64305   7.246   4.602   1.253
20955SOL    HW164306   7.243   4.517   1.209
20955SOL    HW264307   7.237   4.666   1.183
20956SOL     OW64308   6.808   4.036   0.451
20956SOL    HW164309   6.869   3.962   0.452
20956SOL    HW264310   6.829   4.085   0.531
20957SOL     OW64311   6.172   4.453   0.674
20957SOL    HW164312   6.212   4.539   0.662
20957SOL    HW264313   6.106   4.447   0.606
20958SOL     OW64314   7.337   4.086   1.646
20958SOL    HW164315   7.320   4.105   1.554
20958SOL    HW264316   7.264   4.030   1.673
20959SOL     OW64317   7.334   4.654   1.509
20959SOL    HW164318   7.322   4.748   1.522
20959SOL    HW264319   7.313   4.640   1.416
20960SOL     OW64320   6.506   5.091   0.071
20960SOL    HW164321   6.447   5.073   0.144
20960SOL    HW264322   6.488   5.183   0.049
20961SOL     OW64323   6.246   5.498   0.931
20961SOL    HW164324   6.230   5.592   0.918
20961SOL    HW264325   6.341   5.490   0.928
20962SOL     OW64326   6.458   4.697   0.853
20962SOL    HW164327   6.508   4.624   0.890
20962SOL    HW264328   6.414   4.737   0.928
20963SOL     OW64329   6.670   4.710   0.073
20963SOL    HW164330   6.712   4.783   0.027
20963SOL    HW264331   6.739   4.644   0.081
20964SOL     OW64332   7.430   5.278   0.841
20964SOL    HW164333   7.348   5.267   0.792
20964SOL    HW264334   7.422   5.218   0.915
20965SOL     OW64335   5.815   5.017   1.848
20965SOL    HW164336   5.759   4.947   1.815
20965SOL    HW264337   5.784   5.032   1.937
20966SOL     OW64338   5.725   4.969   0.667
20966SOL    HW164339   5.722   4.924   0.751
20966SOL    HW264340   5.766   4.907   0.607
20967SOL     OW64341   6.272   5.140   1.627
20967SOL    HW164342   6.198   5.093   1.666
20967SOL    HW264343   6.271   5.226   1.669
20968SOL     OW64344   7.394   3.904   1.231
20968SOL    HW164345   7.398   3.809   1.246
20968SOL    HW264346   7.409   3.914   1.137
20969SOL     OW64347   6.008   4.157   0.526
20969SOL    HW164348   6.047   4.087   0.475
20969SOL    HW264349   5.961   4.111   0.596
20970SOL     OW64350   7.282   5.207   1.088
20970SOL    HW164351   7.203   5.187   1.039
20970SOL    HW264352   7.285   5.141   1.158
20971SOL     OW64353   5.926   4.286   1.292
20971SOL    HW164354   5.976   4.225   1.346
20971SOL    HW264355   5.939   4.254   1.202
20972SOL     OW64356   6.419   5.296   0.681
20972SOL    HW164357   6.406   5.337   0.595
20972SOL    HW264358   6.343   5.239   0.692
20973SOL     OW64359   7.013   3.955   1.116
20973SOL    HW164360   7.031   3.872   1.160
20973SOL    HW264361   6.964   4.006   1.181
20974SOL     OW64362   6.596   3.743   1.129
20974SOL    HW164363   6.539   3.678   1.089
20974SOL    HW264364   6.683   3.702   1.129
20975SOL     OW64365   6.371   5.047   0.315
20975SOL    HW164366   6.341   4.957   0.334
20975SOL    HW264367   6.446   5.059   0.373
20976SOL     OW64368   6.205   5.286   1.284
20976SOL    HW164369   6.202   5.369   1.332
20976SOL    HW264370   6.295   5.279   1.253
20977SOL     OW64371   6.956   3.763   0.185
20977SOL    HW164372   6.960   3.705   0.109
20977SOL    HW264373   6.870   3.804   0.180
20978SOL     OW64374   6.863   4.184   0.671
20978SOL    HW164375   6.817   4.268   0.678
20978SOL    HW264376   6.870   4.153   0.762
20979SOL     OW64377   7.168   3.914   0.887
20979SOL    HW164378   7.115   3.940   0.963
20979SOL    HW264379   7.167   3.991   0.830
20980SOL     OW64380   5.646   4.807   0.354
20980SOL    HW164381   5.725   4.788   0.304
20980SOL    HW264382   5.616   4.721   0.384
20981SOL     OW64383   6.443   5.374   0.397
20981SOL    HW164384   6.373   5.364   0.331
20981SOL    HW264385   6.431   5.462   0.431
20982SOL     OW64386   5.800   4.347   1.999
20982SOL    HW164387   5.715   4.339   2.042
20982SOL    HW264388   5.783   4.324   1.908
20983SOL     OW64389   5.809   4.003   2.850
20983SOL    HW164390   5.833   3.972   2.937
20983SOL    HW264391   5.719   3.972   2.838
20984SOL     OW64392   5.570   4.115   2.501
20984SOL    HW164393   5.494   4.148   2.550
20984SOL    HW264394   5.539   4.035   2.459
20985SOL     OW64395   6.161   5.024   3.055
20985SOL    HW164396   6.072   5.021   3.020
20985SOL    HW264397   6.171   5.114   3.086
20986SOL     OW64398   7.162   5.243   2.574
20986SOL    HW164399   7.118   5.217   2.655
20986SOL    HW264400   7.092   5.246   2.509
20987SOL     OW64401   6.724   4.420   2.551
20987SOL    HW164402   6.768   4.504   2.542
20987SOL    HW264403   6.674   4.427   2.632
20988SOL     OW64404   7.378   4.318   2.083
20988SOL    HW164405   7.345   4.313   1.993
20988SOL    HW264406   7.335   4.246   2.129
20989SOL     OW64407   6.332   4.862   2.914
20989SOL    HW164408   6.266   4.897   2.973
20989SOL    HW264409   6.373   4.939   2.874
20990SOL     OW64410   6.468   4.478   3.696
20990SOL    HW164411   6.436   4.541   3.761
20990SOL    HW264412   6.483   4.529   3.617
20991SOL     OW64413   6.272   4.718   2.504
20991SOL    HW164414   6.338   4.713   2.574
20991SOL    HW264415   6.203   4.773   2.540
20992SOL     OW64416   6.304   4.875   3.682
20992SOL    HW164417   6.347   4.952   3.717
20992SOL    HW264418   6.221   4.908   3.646
20993SOL     OW64419   5.921   5.134   2.929
20993SOL    HW164420   5.844   5.091   2.893
20993SOL    HW264421   5.957   5.185   2.856
20994SOL     OW64422   7.043   5.229   3.226
20994SOL    HW164423   7.096   5.308   3.240
20994SOL    HW264424   6.971   5.237   3.289
20995SOL     OW64425   6.039   4.102   3.321
20995SOL    HW164426   6.106   4.038   3.343
20995SOL    HW264427   5.958   4.064   3.355
20996SOL     OW64428   7.182   4.162   2.612
20996SOL    HW164429   7.108   4.172   2.552
20996SOL    HW264430   7.169   4.230   2.678
20997SOL     OW64431   5.801   5.447   2.329
20997SOL    HW164432   5.826   5.519   2.387
20997SOL    HW264433   5.879   5.432   2.275
20998SOL     OW64434   6.722   5.066   3.558
20998SOL    HW164435   6.758   5.063   3.646
20998SOL    HW264436   6.668   4.987   3.551
20999SOL     OW64437   5.823   5.166   2.401
20999SOL    HW164438   5.791   5.255   2.415
20999SOL    HW264439   5.772   5.113   2.462
21000SOL     OW64440   5.873   4.816   2.765
21000SOL    HW164441   5.858   4.728   2.797
21000SOL    HW264442   5.808   4.870   2.810
21001SOL     OW64443   6.183   5.516   3.295
21001SOL    HW164444   6.103   5.494   3.341
21001SOL    HW264445   6.204   5.604   3.323
21002SOL     OW64446   6.158   4.709   2.006
21002SOL    HW164447   6.209   4.750   1.937
21002SOL    HW264448   6.196   4.741   2.088
21003SOL     OW64449   7.185   3.853   3.325
21003SOL    HW164450   7.198   3.935   3.279
21003SOL    HW264451   7.156   3.878   3.413
21004SOL     OW64452   5.708   4.380   2.424
21004SOL    HW164453   5.669   4.296   2.447
21004SOL    HW264454   5.699   4.433   2.503
21005SOL     OW64455   7.434   5.473   2.189
21005SOL    HW164456   7.503   5.450   2.251
21005SOL    HW264457   7.449   5.565   2.170
21006SOL     OW64458   5.635   5.309   1.972
21006SOL    HW164459   5.614   5.218   1.990
21006SOL    HW264460   5.605   5.357   2.050
21007SOL     OW64461   7.278   4.647   2.505
21007SOL    HW164462   7.353   4.599   2.471
21007SOL    HW264463   7.250   4.702   2.433
21008SOL     OW64464   7.236   4.828   2.290
21008SOL    HW164465   7.323   4.825   2.249
21008SOL    HW264466   7.245   4.895   2.358
21009SOL     OW64467   5.696   4.472   3.439
21009SOL    HW164468   5.776   4.521   3.460
21009SOL    HW264469   5.629   4.540   3.431
21010SOL     OW64470   6.213   5.116   2.596
21010SOL    HW164471   6.167   5.033   2.607
21010SOL    HW264472   6.193   5.143   2.507
21011SOL     OW64473   6.868   4.960   3.276
21011SOL    HW164474   6.898   4.889   3.219
21011SOL    HW264475   6.923   4.953   3.354
21012SOL     OW64476   6.410   3.730   2.375
21012SOL    HW164477   6.450   3.814   2.352
21012SOL    HW264478   6.317   3.748   2.380
21013SOL     OW64479   5.772   4.685   3.136
21013SOL    HW164480   5.854   4.639   3.120
21013SOL    HW264481   5.704   4.622   3.111
21014SOL     OW64482   7.118   4.728   2.061
21014SOL    HW164483   7.048   4.670   2.093
21014SOL    HW264484   7.159   4.762   2.141
21015SOL     OW64485   6.784   5.549   3.492
21015SOL    HW164486   6.777   5.605   3.415
21015SOL    HW264487   6.793   5.461   3.457
21016SOL     OW64488   5.938   3.979   3.701
21016SOL    HW164489   5.969   4.068   3.719
21016SOL    HW264490   5.843   3.984   3.713
21017SOL     OW64491   7.058   5.139   2.808
21017SOL    HW164492   6.991   5.158   2.873
21017SOL    HW264493   7.040   5.049   2.780
21018SOL     OW64494   7.234   5.491   2.436
21018SOL    HW164495   7.214   5.452   2.351
21018SOL    HW264496   7.219   5.420   2.498
21019SOL     OW64497   6.175   4.432   2.135
21019SOL    HW164498   6.177   4.520   2.096
21019SOL    HW264499   6.111   4.438   2.206
21020SOL     OW64500   6.869   4.100   2.797
21020SOL    HW164501   6.778   4.068   2.804
21020SOL    HW264502   6.918   4.043   2.856
21021SOL     OW64503   7.164   5.403   2.175
21021SOL    HW164504   7.258   5.422   2.166
21021SOL    HW264505   7.135   5.384   2.085
21022SOL     OW64506   6.393   4.338   3.301
21022SOL    HW164507   6.367   4.313   3.390
21022SOL    HW264508   6.355   4.270   3.245
21023SOL     OW64509   6.983   4.202   3.542
21023SOL    HW164510   6.982   4.242   3.629
21023SOL    HW264511   7.030   4.120   3.554
21024SOL     OW64512   6.534   4.610   3.453
21024SOL    HW164513   6.589   4.543   3.413
21024SOL    HW264514   6.485   4.649   3.381
21025SOL     OW64515   6.588   4.125   3.087
21025SOL    HW164516   6.499   4.145   3.118
21025SOL    HW264517   6.576   4.084   3.002
21026SOL     OW64518   6.642   4.424   2.283
21026SOL    HW164519   6.662   4.418   2.376
21026SOL    HW264520   6.558   4.380   2.273
21027SOL     OW64521   5.682   4.559   2.630
21027SOL    HW164522   5.757   4.545   2.687
21027SOL    HW264523   5.630   4.626   2.673
21028SOL     OW64524   5.710   5.599   3.445
21028SOL    HW164525   5.714   5.581   3.539
21028SOL    HW264526   5.631   5.554   3.415
21029SOL     OW64527   6.481   4.072   2.058
21029SOL    HW164528   6.526   4.132   1.998
21029SOL    HW264529   6.476   3.990   2.010
21030SOL     OW64530   7.331   4.294   3.681
21030SOL    HW164531   7.284   4.368   3.643
21030SOL    HW264532   7.324   4.225   3.615
21031SOL     OW64533   6.972   4.869   2.406
21031SOL    HW164534   7.050   4.860   2.351
21031SOL    HW264535   6.916   4.930   2.358
21032SOL     OW64536   6.149   3.900   2.771
21032SOL    HW164537   6.146   3.925   2.863
21032SOL    HW264538   6.135   3.982   2.724
21033SOL     OW64539   6.582   5.171   2.327
21033SOL    HW164540   6.556   5.249   2.277
21033SOL    HW264541   6.554   5.190   2.417
21034SOL     OW64542   5.938   5.537   2.729
21034SOL    HW164543   5.978   5.450   2.736
21034SOL    HW264544   6.005   5.597   2.760
21035SOL     OW64545   7.387   4.773   2.731
21035SOL    HW164546   7.334   4.749   2.656
21035SOL    HW264547   7.325   4.782   2.803
21036SOL     OW64548   6.812   5.267   3.376
21036SOL    HW164549   6.798   5.195   3.438
21036SOL    HW264550   6.731   5.269   3.325
21037SOL     OW64551   5.894   4.686   2.121
21037SOL    HW164552   5.978   4.698   2.076
21037SOL    HW264553   5.868   4.596   2.099
21038SOL     OW64554   7.069   4.477   2.576
21038SOL    HW164555   7.066   4.436   2.662
21038SOL    HW264556   7.147   4.532   2.579
21039SOL     OW64557   6.061   4.995   3.598
21039SOL    HW164558   6.033   5.001   3.506
21039SOL    HW264559   5.979   4.983   3.647
21040SOL     OW64560   6.715   5.506   2.084
21040SOL    HW164561   6.638   5.472   2.129
21040SOL    HW264562   6.738   5.439   2.020
21041SOL     OW64563   5.777   4.009   3.378
21041SOL    HW164564   5.690   4.047   3.367
21041SOL    HW264565   5.760   3.922   3.414
21042SOL     OW64566   7.217   5.108   1.953
21042SOL    HW164567   7.175   5.193   1.942
21042SOL    HW264568   7.149   5.044   1.932
21043SOL     OW64569   6.044   5.463   2.180
21043SOL    HW164570   6.092   5.513   2.247
21043SOL    HW264571   6.113   5.419   2.130
21044SOL     OW64572   6.984   3.832   2.309
21044SOL    HW164573   6.979   3.806   2.217
21044SOL    HW264574   7.078   3.835   2.328
21045SOL     OW64575   5.853   5.522   3.079
21045SOL    HW164576   5.889   5.446   3.124
21045SOL    HW264577   5.820   5.488   2.996
21046SOL     OW64578   6.523   5.427   2.755
21046SOL    HW164579   6.587   5.371   2.797
21046SOL    HW264580   6.488   5.374   2.683
21047SOL     OW64581   5.982   4.413   2.334
21047SOL    HW164582   5.997   4.320   2.350
21047SOL    HW264583   5.890   4.427   2.355
21048SOL     OW64584   7.106   3.947   3.583
21048SOL    HW164585   7.120   3.963   3.676
21048SOL    HW264586   7.032   3.885   3.580
21049SOL     OW64587   6.241   3.839   1.957
21049SOL    HW164588   6.282   3.760   1.992
21049SOL    HW264589   6.182   3.807   1.889
21050SOL     OW64590   6.351   3.998   3.615
21050SOL    HW164591   6.432   3.948   3.612
21050SOL    HW264592   6.300   3.958   3.685
21051SOL     OW64593   6.464   5.254   3.055
21051SOL    HW164594   6.440   5.211   2.973
21051SOL    HW264595   6.527   5.195   3.096
21052SOL     OW64596   6.926   4.309   3.294
21052SOL    HW164597   6.955   4.283   3.382
21052SOL    HW264598   6.955   4.400   3.286
21053SOL     OW64599   6.410   5.114   2.814
21053SOL    HW164600   6.493   5.101   2.770
21053SOL    HW264601   6.345   5.117   2.744
21054SOL     OW64602   6.525   4.238   2.756
21054SOL    HW164603   6.496   4.226   2.666
21054SOL    HW264604   6.546   4.149   2.786
21055SOL     OW64605   6.143   3.788   2.352
21055SOL    HW164606   6.067   3.788   2.410
21055SOL    HW264607   6.130   3.863   2.295
21056SOL     OW64608   7.014   4.928   1.899
21056SOL    HW164609   7.044   4.853   1.951
21056SOL    HW264610   6.929   4.951   1.936
21057SOL     OW64611   5.880   3.778   2.049
21057SOL    HW164612   5.940   3.853   2.049
21057SOL    HW264613   5.929   3.709   2.092
21058SOL     OW64614   6.531   3.975   2.314
21058SOL    HW164615   6.507   4.012   2.229
21058SOL    HW264616   6.624   3.992   2.323
21059SOL     OW64617   6.664   4.414   3.315
21059SOL    HW164618   6.588   4.357   3.319
21059SOL    HW264619   6.739   4.355   3.313
21060SOL     OW64620   6.813   5.290   2.650
21060SOL    HW164621   6.822   5.359   2.585
21060SOL    HW264622   6.868   5.318   2.723
21061SOL     OW64623   6.066   4.882   2.586
21061SOL    HW164624   6.004   4.861   2.656
21061SOL    HW264625   6.016   4.871   2.505
21062SOL     OW64626   6.846   5.514   2.476
21062SOL    HW164627   6.893   5.580   2.424
21062SOL    HW264628   6.774   5.562   2.516
21063SOL     OW64629   6.614   4.249   1.889
21063SOL    HW164630   6.569   4.332   1.872
21063SOL    HW264631   6.674   4.268   1.960
21064SOL     OW64632   5.676   4.287   3.244
21064SOL    HW164633   5.770   4.287   3.225
21064SOL    HW264634   5.665   4.351   3.314
21065SOL     OW64635   6.144   3.951   3.043
21065SOL    HW164636   6.181   3.887   3.104
21065SOL    HW264637   6.051   3.955   3.065
21066SOL     OW64638   6.457   4.182   2.499
21066SOL    HW164639   6.403   4.239   2.443
21066SOL    HW264640   6.474   4.105   2.445
21067SOL     OW64641   6.614   3.773   2.601
21067SOL    HW164642   6.548   3.772   2.531
21067SOL    HW264643   6.587   3.704   2.661
21068SOL     OW64644   7.022   4.879   2.718
21068SOL    HW164645   6.951   4.816   2.732
21068SOL    HW264646   7.030   4.886   2.623
21069SOL     OW64647   7.050   4.333   2.816
21069SOL    HW164648   6.986   4.262   2.825
21069SOL    HW264649   7.103   4.327   2.896
21070SOL     OW64650   7.425   4.528   2.254
21070SOL    HW164651   7.485   4.480   2.311
21070SOL    HW264652   7.404   4.467   2.184
21071SOL     OW64653   6.075   5.148   2.016
21071SOL    HW164654   5.998   5.122   2.066
21071SOL    HW264655   6.074   5.091   1.938
21072SOL     OW64656   7.271   4.998   2.491
21072SOL    HW164657   7.364   4.995   2.515
21072SOL    HW264658   7.241   5.083   2.522
21073SOL     OW64659   6.977   4.296   1.933
21073SOL    HW164660   6.913   4.276   2.002
21073SOL    HW264661   7.061   4.269   1.970
21074SOL     OW64662   6.101   3.978   2.157
21074SOL    HW164663   6.162   3.943   2.093
21074SOL    HW264664   6.076   4.064   2.123
21075SOL     OW64665   7.326   4.969   3.408
21075SOL    HW164666   7.413   4.933   3.394
21075SOL    HW264667   7.342   5.056   3.444
21076SOL     OW64668   6.630   5.072   3.187
21076SOL    HW164669   6.554   5.043   3.237
21076SOL    HW264670   6.706   5.036   3.233
21077SOL     OW64671   7.197   5.356   3.525
21077SOL    HW164672   7.187   5.389   3.435
21077SOL    HW264673   7.277   5.302   3.522
21078SOL     OW64674   6.728   4.941   2.961
21078SOL    HW164675   6.668   4.974   3.027
21078SOL    HW264676   6.695   4.976   2.878
21079SOL     OW64677   7.210   4.823   2.936
21079SOL    HW164678   7.202   4.885   3.009
21079SOL    HW264679   7.134   4.840   2.881
21080SOL     OW64680   6.512   3.808   3.254
21080SOL    HW164681   6.532   3.798   3.161
21080SOL    HW264682   6.588   3.852   3.291
21081SOL     OW64683   6.570   4.839   3.590
21081SOL    HW164684   6.480   4.856   3.618
21081SOL    HW264685   6.564   4.759   3.538
21082SOL     OW64686   6.299   4.789   2.232
21082SOL    HW164687   6.282   4.767   2.324
21082SOL    HW264688   6.372   4.733   2.207
21083SOL     OW64689   6.011   4.544   3.112
21083SOL    HW164690   6.074   4.556   3.183
21083SOL    HW264691   5.977   4.456   3.125
21084SOL     OW64692   6.852   4.097   3.143
21084SOL    HW164693   6.881   4.175   3.190
21084SOL    HW264694   6.761   4.115   3.121
21085SOL     OW64695   5.659   5.309   3.233
21085SOL    HW164696   5.625   5.369   3.166
21085SOL    HW264697   5.752   5.301   3.212
21086SOL     OW64698   5.923   4.849   2.352
21086SOL    HW164699   5.910   4.922   2.292
21086SOL    HW264700   5.917   4.771   2.297
21087SOL     OW64701   6.133   4.243   2.716
21087SOL    HW164702   6.148   4.303   2.643
21087SOL    HW264703   6.195   4.271   2.783
21088SOL     OW64704   6.832   5.077   2.255
21088SOL    HW164705   6.888   5.146   2.290
21088SOL    HW264706   6.745   5.097   2.288
21089SOL     OW64707   6.881   5.188   3.009
21089SOL    HW164708   6.932   5.195   3.089
21089SOL    HW264709   6.823   5.113   3.024
21090SOL     OW64710   7.161   4.345   2.344
21090SOL    HW164711   7.111   4.381   2.418
21090SOL    HW264712   7.197   4.422   2.300
21091SOL     OW64713   5.926   5.266   3.164
21091SOL    HW164714   5.914   5.211   3.086
21091SOL    HW264715   6.021   5.271   3.175
21092SOL     OW64716   6.003   4.483   3.471
21092SOL    HW164717   6.074   4.508   3.412
21092SOL    HW264718   6.011   4.388   3.481
21093SOL     OW64719   7.210   4.503   3.553
21093SOL    HW164720   7.122   4.541   3.546
21093SOL    HW264721   7.258   4.541   3.479
21094SOL     OW64722   6.586   3.860   3.612
21094SOL    HW164723   6.643   3.935   3.596
21094SOL    HW264724   6.641   3.784   3.593
21095SOL     OW64725   6.076   3.758   3.619
21095SOL    HW164726   6.025   3.711   3.553
21095SOL    HW264727   6.023   3.835   3.639
21096SOL     OW64728   6.171   4.595   2.896
21096SOL    HW164729   6.197   4.687   2.899
21096SOL    HW264730   6.114   4.585   2.972
21097SOL     OW64731   6.916   4.580   2.871
21097SOL    HW164732   6.825   4.559   2.847
21097SOL    HW264733   6.964   4.498   2.858
21098SOL     OW64734   6.780   4.250   2.120
21098SOL    HW164735   6.789   4.173   2.176
21098SOL    HW264736   6.739   4.316   2.176
21099SOL     OW64737   5.882   3.927   3.107
21099SOL    HW164738   5.828   3.956   3.180
21099SOL    HW264739   5.869   3.832   3.104
21100SOL     OW64740   5.669   5.043   3.134
21100SOL    HW164741   5.685   4.977   3.202
21100SOL    HW264742   5.638   5.120   3.181
21101SOL     OW64743   6.300   4.350   2.906
21101SOL    HW164744   6.379   4.348   2.853
21101SOL    HW264745   6.266   4.439   2.897
21102SOL     OW64746   7.323   4.686   3.726
21102SOL    HW164747   7.280   4.617   3.676
21102SOL    HW264748   7.262   4.707   3.797
21103SOL     OW64749   5.902   3.791   2.483
21103SOL    HW164750   5.869   3.878   2.504
21103SOL    HW264751   5.907   3.746   2.567
21104SOL     OW64752   7.217   4.111   2.215
21104SOL    HW164753   7.242   4.044   2.278
21104SOL    HW264754   7.188   4.186   2.268
21105SOL     OW64755   6.626   4.482   2.820
21105SOL    HW164756   6.607   4.499   2.913
21105SOL    HW264757   6.595   4.393   2.806
21106SOL     OW64758   6.577   5.302   3.584
21106SOL    HW164759   6.555   5.338   3.498
21106SOL    HW264760   6.604   5.212   3.566
21107SOL     OW64761   7.434   5.220   3.466
21107SOL    HW164762   7.456   5.250   3.378
21107SOL    HW264763   7.514   5.236   3.517
21108SOL     OW64764   5.942   4.657   3.672
21108SOL    HW164765   6.021   4.661   3.726
21108SOL    HW264766   5.962   4.592   3.605
21109SOL     OW64767   7.116   3.995   1.985
21109SOL    HW164768   7.054   3.929   2.017
21109SOL    HW264769   7.151   4.035   2.064
21110SOL     OW64770   6.867   4.546   1.886
21110SOL    HW164771   6.909   4.460   1.894
21110SOL    HW264772   6.903   4.583   1.805
21111SOL     OW64773   6.657   5.067   2.717
21111SOL    HW164774   6.664   4.994   2.656
21111SOL    HW264775   6.716   5.134   2.681
21112SOL     OW64776   5.895   4.528   2.802
21112SOL    HW164777   5.989   4.546   2.808
21112SOL    HW264778   5.886   4.439   2.837
21113SOL     OW64779   5.911   4.250   2.873
21113SOL    HW164780   5.872   4.164   2.862
21113SOL    HW264781   5.987   4.249   2.814
21114SOL     OW64782   6.724   4.095   3.548
21114SOL    HW164783   6.672   4.146   3.610
21114SOL    HW264784   6.808   4.141   3.544
21115SOL     OW64785   6.751   3.920   3.335
21115SOL    HW164786   6.736   3.982   3.406
21115SOL    HW264787   6.790   3.973   3.265
21116SOL     OW64788   5.597   5.035   2.046
21116SOL    HW164789   5.508   5.053   2.013
21116SOL    HW264790   5.591   4.948   2.085
21117SOL     OW64791   5.675   5.498   2.804
21117SOL    HW164792   5.641   5.422   2.758
21117SOL    HW264793   5.764   5.510   2.770
21118SOL     OW64794   6.072   5.298   2.757
21118SOL    HW164795   6.141   5.360   2.783
21118SOL    HW264796   6.118   5.232   2.705
21119SOL     OW64797   6.552   4.506   3.079
21119SOL    HW164798   6.611   4.491   3.154
21119SOL    HW264799   6.467   4.472   3.108
21120SOL     OW64800   5.615   4.267   2.980
21120SOL    HW164801   5.700   4.263   2.936
21120SOL    HW264802   5.637   4.274   3.073
21121SOL     OW64803   5.777   4.250   3.590
21121SOL    HW164804   5.779   4.181   3.523
21121SOL    HW264805   5.732   4.323   3.549
21122SOL     OW64806   6.979   4.646   3.518
21122SOL    HW164807   6.992   4.741   3.515
21122SOL    HW264808   6.967   4.621   3.426
21123SOL     OW64809   6.407   4.298   2.224
21123SOL    HW164810   6.409   4.220   2.168
21123SOL    HW264811   6.328   4.345   2.198
21124SOL     OW64812   7.219   4.327   3.032
21124SOL    HW164813   7.207   4.270   3.108
21124SOL    HW264814   7.308   4.308   3.002
21125SOL     OW64815   5.825   5.267   3.592
21125SOL    HW164816   5.793   5.318   3.667
21125SOL    HW264817   5.831   5.177   3.625
21126SOL     OW64818   6.313   4.165   3.107
21126SOL    HW164819   6.247   4.097   3.094
21126SOL    HW264820   6.295   4.229   3.038
21127SOL     OW64821   6.522   5.399   3.326
21127SOL    HW164822   6.485   5.357   3.248
21127SOL    HW264823   6.506   5.492   3.313
21128SOL     OW64824   6.038   4.212   2.028
21128SOL    HW164825   6.098   4.280   2.059
21128SOL    HW264826   5.952   4.254   2.027
21129SOL     OW64827   5.747   4.868   3.336
21129SOL    HW164828   5.733   4.824   3.419
21129SOL    HW264829   5.751   4.797   3.272
21130SOL     OW64830   6.906   4.764   3.073
21130SOL    HW164831   6.918   4.699   3.004
21130SOL    HW264832   6.842   4.826   3.037
21131SOL     OW64833   6.908   4.581   2.162
21131SOL    HW164834   6.837   4.551   2.219
21131SOL    HW264835   6.874   4.566   2.073
21132SOL     OW64836   7.363   5.458   3.016
21132SOL    HW164837   7.428   5.482   2.949
21132SOL    HW264838   7.339   5.368   2.995
21133SOL     OW64839   6.824   5.456   2.954
21133SOL    HW164840   6.910   5.481   2.920
21133SOL    HW264841   6.835   5.365   2.982
21134SOL     OW64842   5.683   4.991   2.870
21134SOL    HW164843   5.673   5.007   2.964
21134SOL    HW264844   5.607   4.938   2.846
21135SOL     OW64845   6.263   5.401   3.608
21135SOL    HW164846   6.199   5.472   3.601
21135SOL    HW264847   6.331   5.425   3.545
21136SOL     OW64848   7.312   3.888   2.364
21136SOL    HW164849   7.380   3.871   2.299
21136SOL    HW264850   7.294   3.803   2.403
21137SOL     OW64851   6.981   5.293   2.356
21137SOL    HW164852   7.037   5.330   2.288
21137SOL    HW264853   6.928   5.367   2.387
21138SOL     OW64854   5.727   5.535   3.704
21138SOL    HW164855   5.680   5.462   3.745
21138SOL    HW264856   5.776   5.575   3.776
21139SOL     OW64857   6.863   4.652   2.527
21139SOL    HW164858   6.937   4.593   2.540
21139SOL    HW264859   6.900   4.725   2.477
21140SOL     OW64860   6.376   5.005   3.279
21140SOL    HW164861   6.352   5.049   3.361
21140SOL    HW264862   6.299   5.013   3.224
21141SOL     OW64863   6.252   5.355   2.020
21141SOL    HW164864   6.265   5.368   1.926
21141SOL    HW264865   6.198   5.276   2.027
21142SOL     OW64866   7.205   5.453   3.256
21142SOL    HW164867   7.257   5.457   3.176
21142SOL    HW264868   7.190   5.545   3.279
21143SOL     OW64869   7.430   3.888   2.827
21143SOL    HW164870   7.458   3.800   2.803
21143SOL    HW264871   7.342   3.896   2.790
21144SOL     OW64872   5.830   4.040   2.572
21144SOL    HW164873   5.743   4.073   2.551
21144SOL    HW264874   5.831   4.032   2.667
21145SOL     OW64875   6.795   5.319   1.897
21145SOL    HW164876   6.783   5.229   1.927
21145SOL    HW264877   6.725   5.332   1.832
21146SOL     OW64878   6.411   4.734   3.241
21146SOL    HW164879   6.441   4.732   3.151
21146SOL    HW264880   6.399   4.828   3.260
21147SOL     OW64881   6.502   4.633   2.146
21147SOL    HW164882   6.565   4.670   2.084
21147SOL    HW264883   6.551   4.568   2.195
21148SOL     OW64884   7.072   5.359   1.911
21148SOL    HW164885   6.979   5.344   1.896
21148SOL    HW264886   7.110   5.364   1.823
21149SOL     OW64887   5.962   5.035   3.349
21149SOL    HW164888   5.933   5.112   3.299
21149SOL    HW264889   5.890   4.973   3.341
21150SOL     OW64890   7.195   5.013   3.144
21150SOL    HW164891   7.243   4.990   3.223
21150SOL    HW264892   7.131   5.079   3.173
21151SOL     OW64893   6.655   4.836   2.576
21151SOL    HW164894   6.581   4.789   2.614
21151SOL    HW264895   6.717   4.767   2.553
21152SOL     OW64896   6.618   3.969   2.824
21152SOL    HW164897   6.614   3.922   2.740
21152SOL    HW264898   6.609   3.900   2.890
21153SOL     OW64899   6.192   5.211   2.338
21153SOL    HW164900   6.241   5.161   2.272
21153SOL    HW264901   6.104   5.220   2.302
21154SOL     OW64902   7.317   4.120   3.237
21154SOL    HW164903   7.389   4.183   3.236
21154SOL    HW264904   7.347   4.049   3.180
21155SOL     OW64905   5.848   5.070   2.154
21155SOL    HW164906   5.756   5.060   2.129
21155SOL    HW264907   5.845   5.109   2.242
21156SOL     OW64908   5.704   4.780   3.595
21156SOL    HW164909   5.625   4.750   3.640
21156SOL    HW264910   5.775   4.729   3.635
21157SOL     OW64911   6.266   3.908   3.358
21157SOL    HW164912   6.353   3.887   3.323
21157SOL    HW264913   6.284   3.947   3.444
21158SOL     OW64914   5.677   4.041   1.889
21158SOL    HW164915   5.581   4.034   1.894
21158SOL    HW264916   5.692   4.122   1.840
21159SOL     OW64917   7.006   4.578   3.254
21159SOL    HW164918   6.954   4.638   3.201
21159SOL    HW264919   7.094   4.582   3.215
21160SOL     OW64920   5.645   3.870   2.165
21160SOL    HW164921   5.636   3.960   2.134
21160SOL    HW264922   5.728   3.840   2.129
21161SOL     OW64923   6.765   5.054   1.984
21161SOL    HW164924   6.677   5.015   1.986
21161SOL    HW264925   6.792   5.058   2.076
21162SOL     OW64926   6.212   4.548   3.297
21162SOL    HW164927   6.269   4.625   3.288
21162SOL    HW264928   6.273   4.474   3.304
21163SOL     OW64929   7.074   5.517   2.852
21163SOL    HW164930   7.098   5.587   2.791
21163SOL    HW264931   7.157   5.487   2.888
21164SOL     OW64932   6.324   4.273   3.550
21164SOL    HW164933   6.352   4.329   3.623
21164SOL    HW264934   6.325   4.184   3.586
21165SOL     OW64935   7.055   4.912   3.488
21165SOL    HW164936   7.042   4.931   3.581
21165SOL    HW264937   7.146   4.936   3.471
21166SOL     OW64938   5.952   5.462   3.435
21166SOL    HW164939   5.870   5.509   3.419
21166SOL    HW264940   5.925   5.381   3.479
21167SOL     OW64941   7.244   4.602   3.112
21167SOL    HW164942   7.238   4.518   3.067
21167SOL    HW264943   7.235   4.667   3.043
21168SOL     OW64944   6.804   4.047   2.316
21168SOL    HW164945   6.862   3.971   2.314
21168SOL    HW264946   6.832   4.097   2.393
21169SOL     OW64947   6.182   4.448   2.529
21169SOL    HW164948   6.215   4.538   2.520
21169SOL    HW264949   6.110   4.443   2.465
21170SOL     OW64950   7.335   4.089   3.506
21170SOL    HW164951   7.319   4.105   3.413
21170SOL    HW264952   7.264   4.031   3.533
21171SOL     OW64953   7.351   4.641   3.359
21171SOL    HW164954   7.334   4.732   3.380
21171SOL    HW264955   7.319   4.630   3.269
21172SOL     OW64956   6.444   5.085   1.912
21172SOL    HW164957   6.413   5.097   2.002
21172SOL    HW264958   6.457   5.175   1.879
21173SOL     OW64959   6.249   5.504   2.788
21173SOL    HW164960   6.232   5.597   2.778
21173SOL    HW264961   6.344   5.497   2.787
21174SOL     OW64962   6.458   4.700   2.716
21174SOL    HW164963   6.506   4.627   2.755
21174SOL    HW264964   6.414   4.742   2.791
21175SOL     OW64965   6.669   4.721   1.952
21175SOL    HW164966   6.644   4.768   1.872
21175SOL    HW264967   6.738   4.661   1.924
21176SOL     OW64968   7.423   5.279   2.705
21176SOL    HW164969   7.345   5.269   2.651
21176SOL    HW264970   7.402   5.231   2.785
21177SOL     OW64971   5.804   5.013   3.703
21177SOL    HW164972   5.767   4.936   3.660
21177SOL    HW264973   5.748   5.028   3.779
21178SOL     OW64974   5.685   4.956   2.536
21178SOL    HW164975   5.659   4.913   2.618
21178SOL    HW264976   5.750   4.898   2.498
21179SOL     OW64977   6.275   5.140   3.496
21179SOL    HW164978   6.199   5.092   3.528
21179SOL    HW264979   6.268   5.227   3.536
21180SOL     OW64980   7.404   3.907   3.098
21180SOL    HW164981   7.398   3.813   3.114
21180SOL    HW264982   7.415   3.915   3.003
21181SOL     OW64983   6.012   4.152   2.386
21181SOL    HW164984   6.034   4.075   2.334
21181SOL    HW264985   5.957   4.118   2.457
21182SOL     OW64986   7.288   5.203   2.946
21182SOL    HW164987   7.206   5.185   2.899
21182SOL    HW264988   7.288   5.140   3.018
21183SOL     OW64989   5.935   4.288   3.152
21183SOL    HW164990   5.979   4.222   3.206
21183SOL    HW264991   5.939   4.253   3.064
21184SOL     OW64992   6.421   5.297   2.536
21184SOL    HW164993   6.381   5.358   2.473
21184SOL    HW264994   6.352   5.233   2.554
21185SOL     OW64995   7.011   3.951   2.978
21185SOL    HW164996   7.012   3.863   3.015
21185SOL    HW264997   6.963   4.003   3.043
21186SOL     OW64998   6.598   3.745   2.992
21186SOL    HW164999   6.537   3.681   2.956
21186SOL    HW265000   6.683   3.700   2.990
21187SOL     OW65001   6.366   5.056   2.179
21187SOL    HW165002   6.339   4.966   2.194
21187SOL    HW265003   6.443   5.068   2.236
21188SOL     OW65004   6.205   5.284   3.148
21188SOL    HW165005   6.203   5.364   3.200
21188SOL    HW265006   6.294   5.280   3.114
21189SOL     OW65007   6.952   3.774   2.039
21189SOL    HW165008   6.988   3.700   1.991
21189SOL    HW265009   6.861   3.749   2.057
21190SOL     OW65010   6.889   4.190   2.537
21190SOL    HW165011   6.835   4.269   2.537
21190SOL    HW265012   6.879   4.154   2.626
21191SOL     OW65013   7.170   3.914   2.752
21191SOL    HW165014   7.115   3.939   2.826
21191SOL    HW265015   7.168   3.989   2.693
21192SOL     OW65016   5.631   4.784   2.163
21192SOL    HW165017   5.725   4.773   2.147
21192SOL    HW265018   5.601   4.697   2.188
21193SOL     OW65019   6.480   5.393   2.194
21193SOL    HW165020   6.401   5.375   2.143
21193SOL    HW265021   6.453   5.461   2.256
21194SOL     OW65022   5.805   4.340   3.858
21194SOL    HW165023   5.719   4.336   3.898
21194SOL    HW265024   5.789   4.322   3.765
21195SOL     OW65025   5.807   4.001   4.712
21195SOL    HW165026   5.831   3.973   4.800
21195SOL    HW265027   5.717   3.973   4.701
21196SOL     OW65028   5.575   4.112   4.361
21196SOL    HW165029   5.500   4.147   4.408
21196SOL    HW265030   5.541   4.033   4.317
21197SOL     OW65031   6.163   5.022   4.918
21197SOL    HW165032   6.074   5.014   4.884
21197SOL    HW265033   6.169   5.113   4.948
21198SOL     OW65034   7.160   5.243   4.436
21198SOL    HW165035   7.116   5.216   4.517
21198SOL    HW265036   7.090   5.247   4.371
21199SOL     OW65037   6.730   4.414   4.413
21199SOL    HW165038   6.770   4.500   4.403
21199SOL    HW265039   6.677   4.421   4.493
21200SOL     OW65040   7.392   4.317   3.943
21200SOL    HW165041   7.355   4.318   3.855
21200SOL    HW265042   7.339   4.253   3.991
21201SOL     OW65043   6.345   4.868   4.781
21201SOL    HW165044   6.274   4.898   4.838
21201SOL    HW265045   6.379   4.947   4.741
21202SOL     OW65046   6.471   4.484   5.561
21202SOL    HW165047   6.421   4.543   5.618
21202SOL    HW265048   6.482   4.532   5.480
21203SOL     OW65049   6.274   4.719   4.366
21203SOL    HW165050   6.337   4.715   4.438
21203SOL    HW265051   6.202   4.773   4.400
21204SOL     OW65052   6.307   4.881   5.541
21204SOL    HW165053   6.348   4.960   5.576
21204SOL    HW265054   6.223   4.910   5.507
21205SOL     OW65055   5.924   5.130   4.790
21205SOL    HW165056   5.844   5.088   4.759
21205SOL    HW265057   5.954   5.183   4.717
21206SOL     OW65058   7.043   5.228   5.088
21206SOL    HW165059   7.095   5.307   5.103
21206SOL    HW265060   6.970   5.235   5.149
21207SOL     OW65061   6.035   4.096   5.182
21207SOL    HW165062   6.098   4.029   5.209
21207SOL    HW265063   5.951   4.065   5.215
21208SOL     OW65064   7.178   4.161   4.473
21208SOL    HW165065   7.099   4.168   4.420
21208SOL    HW265066   7.168   4.229   4.540
21209SOL     OW65067   5.800   5.448   4.190
21209SOL    HW165068   5.826   5.520   4.248
21209SOL    HW265069   5.877   5.433   4.135
21210SOL     OW65070   6.722   5.065   5.419
21210SOL    HW165071   6.756   5.063   5.508
21210SOL    HW265072   6.668   4.986   5.412
21211SOL     OW65073   5.826   5.167   4.273
21211SOL    HW165074   5.787   5.254   4.285
21211SOL    HW265075   5.775   5.111   4.332
21212SOL     OW65076   5.880   4.817   4.635
21212SOL    HW165077   5.858   4.728   4.664
21212SOL    HW265078   5.812   4.872   4.675
21213SOL     OW65079   6.191   5.510   5.167
21213SOL    HW165080   6.107   5.489   5.208
21213SOL    HW265081   6.205   5.603   5.189
21214SOL     OW65082   6.164   4.704   3.862
21214SOL    HW165083   6.214   4.751   3.796
21214SOL    HW265084   6.196   4.738   3.946
21215SOL     OW65085   7.186   3.855   5.188
21215SOL    HW165086   7.203   3.941   5.148
21215SOL    HW265087   7.151   3.876   5.275
21216SOL     OW65088   5.716   4.375   4.285
21216SOL    HW165089   5.670   4.294   4.306
21216SOL    HW265090   5.703   4.430   4.363
21217SOL     OW65091   7.434   5.472   4.049
21217SOL    HW165092   7.501   5.449   4.113
21217SOL    HW265093   7.449   5.565   4.031
21218SOL     OW65094   5.641   5.311   3.831
21218SOL    HW165095   5.616   5.220   3.846
21218SOL    HW265096   5.609   5.359   3.907
21219SOL     OW65097   7.277   4.649   4.368
21219SOL    HW165098   7.352   4.600   4.334
21219SOL    HW265099   7.249   4.704   4.294
21220SOL     OW65100   7.242   4.826   4.150
21220SOL    HW165101   7.329   4.826   4.109
21220SOL    HW265102   7.247   4.894   4.217
21221SOL     OW65103   5.693   4.478   5.298
21221SOL    HW165104   5.769   4.529   5.326
21221SOL    HW265105   5.625   4.543   5.283
21222SOL     OW65106   6.214   5.115   4.459
21222SOL    HW165107   6.167   5.032   4.470
21222SOL    HW265108   6.192   5.143   4.370
21223SOL     OW65109   6.868   4.960   5.138
21223SOL    HW165110   6.898   4.888   5.081
21223SOL    HW265111   6.922   4.952   5.217
21224SOL     OW65112   6.412   3.724   4.243
21224SOL    HW165113   6.452   3.808   4.217
21224SOL    HW265114   6.318   3.742   4.246
21225SOL     OW65115   5.758   4.695   4.985
21225SOL    HW165116   5.826   4.631   4.965
21225SOL    HW265117   5.676   4.650   4.962
21226SOL     OW65118   7.121   4.725   3.923
21226SOL    HW165119   7.050   4.668   3.955
21226SOL    HW265120   7.160   4.760   4.003
21227SOL     OW65121   6.794   5.552   5.355
21227SOL    HW165122   6.779   5.606   5.278
21227SOL    HW265123   6.795   5.462   5.321
21228SOL     OW65124   5.930   3.981   5.566
21228SOL    HW165125   5.960   4.072   5.571
21228SOL    HW265126   5.835   3.987   5.574
21229SOL     OW65127   7.061   5.137   4.672
21229SOL    HW165128   6.992   5.157   4.735
21229SOL    HW265129   7.041   5.048   4.642
21230SOL     OW65130   7.237   5.489   4.297
21230SOL    HW165131   7.213   5.452   4.212
21230SOL    HW265132   7.219   5.419   4.359
21231SOL     OW65133   6.177   4.438   4.000
21231SOL    HW165134   6.170   4.524   3.957
21231SOL    HW265135   6.112   4.442   4.070
21232SOL     OW65136   6.872   4.095   4.659
21232SOL    HW165137   6.780   4.068   4.665
21232SOL    HW265138   6.918   4.038   4.720
21233SOL     OW65139   7.164   5.404   4.036
21233SOL    HW165140   7.257   5.423   4.026
21233SOL    HW265141   7.133   5.386   3.947
21234SOL     OW65142   6.397   4.336   5.163
21234SOL    HW165143   6.372   4.311   5.252
21234SOL    HW265144   6.356   4.271   5.107
21235SOL     OW65145   6.983   4.203   5.402
21235SOL    HW165146   6.982   4.245   5.488
21235SOL    HW265147   7.030   4.121   5.416
21236SOL     OW65148   6.535   4.613   5.313
21236SOL    HW165149   6.589   4.544   5.273
21236SOL    HW265150   6.486   4.651   5.239
21237SOL     OW65151   6.588   4.123   4.952
21237SOL    HW165152   6.501   4.144   4.986
21237SOL    HW265153   6.572   4.092   4.863
21238SOL     OW65154   6.644   4.424   4.145
21238SOL    HW165155   6.661   4.415   4.239
21238SOL    HW265156   6.559   4.382   4.132
21239SOL     OW65157   5.685   4.549   4.491
21239SOL    HW165158   5.757   4.541   4.554
21239SOL    HW265159   5.625   4.611   4.532
21240SOL     OW65160   5.714   5.600   5.302
21240SOL    HW165161   5.710   5.582   5.396
21240SOL    HW265162   5.651   5.539   5.263
21241SOL     OW65163   6.478   4.069   3.921
21241SOL    HW165164   6.523   4.126   3.859
21241SOL    HW265165   6.440   3.999   3.868
21242SOL     OW65166   7.305   4.292   5.552
21242SOL    HW165167   7.265   4.367   5.509
21242SOL    HW265168   7.315   4.227   5.483
21243SOL     OW65169   6.972   4.870   4.271
21243SOL    HW165170   7.048   4.864   4.214
21243SOL    HW265171   6.912   4.931   4.227
21244SOL     OW65172   6.150   3.897   4.636
21244SOL    HW165173   6.145   3.925   4.727
21244SOL    HW265174   6.128   3.976   4.586
21245SOL     OW65175   6.583   5.173   4.190
21245SOL    HW165176   6.555   5.249   4.137
21245SOL    HW265177   6.551   5.192   4.278
21246SOL     OW65178   5.938   5.537   4.587
21246SOL    HW165179   5.975   5.449   4.596
21246SOL    HW265180   6.004   5.595   4.624
21247SOL     OW65181   7.386   4.775   4.591
21247SOL    HW165182   7.330   4.749   4.517
21247SOL    HW265183   7.326   4.784   4.665
21248SOL     OW65184   6.813   5.265   5.237
21248SOL    HW165185   6.798   5.194   5.299
21248SOL    HW265186   6.731   5.270   5.186
21249SOL     OW65187   5.892   4.683   3.986
21249SOL    HW165188   5.966   4.693   3.925
21249SOL    HW265189   5.856   4.597   3.965
21250SOL     OW65190   7.072   4.473   4.436
21250SOL    HW165191   7.065   4.434   4.523
21250SOL    HW265192   7.147   4.531   4.441
21251SOL     OW65193   6.060   4.996   5.460
21251SOL    HW165194   6.032   5.004   5.369
21251SOL    HW265195   5.979   4.979   5.509
21252SOL     OW65196   6.717   5.504   3.949
21252SOL    HW165197   6.638   5.472   3.992
21252SOL    HW265198   6.738   5.438   3.884
21253SOL     OW65199   5.772   4.012   5.245
21253SOL    HW165200   5.688   4.054   5.226
21253SOL    HW265201   5.748   3.926   5.280
21254SOL     OW65202   7.216   5.106   3.813
21254SOL    HW165203   7.174   5.192   3.804
21254SOL    HW265204   7.147   5.043   3.795
21255SOL     OW65205   6.045   5.468   4.039
21255SOL    HW165206   6.092   5.514   4.108
21255SOL    HW265207   6.112   5.417   3.993
21256SOL     OW65208   6.984   3.827   4.173
21256SOL    HW165209   6.977   3.804   4.080
21256SOL    HW265210   7.079   3.836   4.188
21257SOL     OW65211   5.863   5.525   4.933
21257SOL    HW165212   5.887   5.446   4.982
21257SOL    HW265213   5.809   5.494   4.861
21258SOL     OW65214   6.521   5.427   4.614
21258SOL    HW165215   6.572   5.364   4.666
21258SOL    HW265216   6.487   5.375   4.541
21259SOL     OW65217   5.987   4.409   4.200
21259SOL    HW165218   6.002   4.316   4.217
21259SOL    HW265219   5.894   4.422   4.218
21260SOL     OW65220   7.100   3.945   5.446
21260SOL    HW165221   7.116   3.959   5.539
21260SOL    HW265222   7.023   3.888   5.443
21261SOL     OW65223   6.246   3.840   3.817
21261SOL    HW165224   6.281   3.758   3.853
21261SOL    HW265225   6.181   3.811   3.753
21262SOL     OW65226   6.351   3.995   5.476
21262SOL    HW165227   6.432   3.945   5.473
21262SOL    HW265228   6.300   3.953   5.546
21263SOL     OW65229   6.467   5.257   4.915
21263SOL    HW165230   6.439   5.212   4.835
21263SOL    HW265231   6.526   5.195   4.958
21264SOL     OW65232   6.932   4.307   5.152
21264SOL    HW165233   6.957   4.283   5.241
21264SOL    HW265234   6.954   4.400   5.146
21265SOL     OW65235   6.411   5.118   4.675
21265SOL    HW165236   6.494   5.102   4.629
21265SOL    HW265237   6.345   5.118   4.607
21266SOL     OW65238   6.531   4.238   4.616
21266SOL    HW165239   6.500   4.228   4.526
21266SOL    HW265240   6.546   4.149   4.646
21267SOL     OW65241   6.147   3.787   4.215
21267SOL    HW165242   6.069   3.787   4.270
21267SOL    HW265243   6.137   3.864   4.158
21268SOL     OW65244   7.012   4.928   3.762
21268SOL    HW165245   7.038   4.852   3.815
21268SOL    HW265246   6.925   4.952   3.796
21269SOL     OW65247   5.870   3.781   3.905
21269SOL    HW165248   5.923   3.855   3.874
21269SOL    HW265249   5.934   3.722   3.946
21270SOL     OW65250   6.532   3.969   4.175
21270SOL    HW165251   6.506   4.005   4.090
21270SOL    HW265252   6.625   3.992   4.183
21271SOL     OW65253   6.663   4.413   5.178
21271SOL    HW165254   6.581   4.363   5.181
21271SOL    HW265255   6.732   4.347   5.178
21272SOL     OW65256   6.821   5.286   4.509
21272SOL    HW165257   6.824   5.357   4.445
21272SOL    HW265258   6.863   5.323   4.588
21273SOL     OW65259   6.067   4.882   4.450
21273SOL    HW165260   6.004   4.861   4.519
21273SOL    HW265261   6.018   4.871   4.368
21274SOL     OW65262   6.845   5.514   4.338
21274SOL    HW165263   6.890   5.580   4.286
21274SOL    HW265264   6.771   5.560   4.377
21275SOL     OW65265   6.613   4.249   3.750
21275SOL    HW165266   6.566   4.331   3.733
21275SOL    HW265267   6.668   4.269   3.826
21276SOL     OW65268   5.686   4.289   5.105
21276SOL    HW165269   5.780   4.292   5.086
21276SOL    HW265270   5.673   4.354   5.173
21277SOL     OW65271   6.144   3.950   4.908
21277SOL    HW165272   6.178   3.894   4.977
21277SOL    HW265273   6.050   3.956   4.926
21278SOL     OW65274   6.458   4.183   4.360
21278SOL    HW165275   6.393   4.239   4.316
21278SOL    HW265276   6.468   4.108   4.303
21279SOL     OW65277   6.621   3.759   4.465
21279SOL    HW165278   6.551   3.764   4.400
21279SOL    HW265279   6.592   3.691   4.526
21280SOL     OW65280   7.020   4.879   4.578
21280SOL    HW165281   6.947   4.820   4.596
21280SOL    HW265282   7.022   4.886   4.483
21281SOL     OW65283   7.050   4.332   4.678
21281SOL    HW165284   6.986   4.262   4.688
21281SOL    HW265285   7.103   4.328   4.758
21282SOL     OW65286   7.441   4.531   4.111
21282SOL    HW165287   7.493   4.480   4.174
21282SOL    HW265288   7.414   4.467   4.045
21283SOL     OW65289   6.075   5.147   3.875
21283SOL    HW165290   6.001   5.121   3.930
21283SOL    HW265291   6.063   5.096   3.795
21284SOL     OW65292   7.271   5.001   4.347
21284SOL    HW165293   7.362   4.999   4.375
21284SOL    HW265294   7.237   5.083   4.381
21285SOL     OW65295   6.978   4.290   3.800
21285SOL    HW165296   6.905   4.276   3.861
21285SOL    HW265297   7.055   4.257   3.847
21286SOL     OW65298   6.114   3.981   4.024
21286SOL    HW165299   6.164   3.943   3.952
21286SOL    HW265300   6.083   4.065   3.990
21287SOL     OW65301   7.327   4.967   5.270
21287SOL    HW165302   7.414   4.931   5.257
21287SOL    HW265303   7.342   5.055   5.306
21288SOL     OW65304   6.628   5.073   5.050
21288SOL    HW165305   6.552   5.043   5.099
21288SOL    HW265306   6.703   5.036   5.096
21289SOL     OW65307   7.200   5.357   5.389
21289SOL    HW165308   7.188   5.388   5.300
21289SOL    HW265309   7.279   5.302   5.385
21290SOL     OW65310   6.731   4.944   4.823
21290SOL    HW165311   6.667   4.972   4.888
21290SOL    HW265312   6.696   4.976   4.740
21291SOL     OW65313   7.211   4.824   4.798
21291SOL    HW165314   7.203   4.886   4.871
21291SOL    HW265315   7.133   4.840   4.745
21292SOL     OW65316   6.519   3.805   5.118
21292SOL    HW165317   6.538   3.805   5.024
21292SOL    HW265318   6.592   3.854   5.157
21293SOL     OW65319   6.570   4.838   5.454
21293SOL    HW165320   6.480   4.856   5.481
21293SOL    HW265321   6.564   4.759   5.401
21294SOL     OW65322   6.299   4.791   4.093
21294SOL    HW165323   6.279   4.768   4.184
21294SOL    HW265324   6.372   4.735   4.069
21295SOL     OW65325   6.010   4.544   4.971
21295SOL    HW165326   6.068   4.560   5.046
21295SOL    HW265327   5.976   4.456   4.985
21296SOL     OW65328   6.852   4.098   5.001
21296SOL    HW165329   6.881   4.176   5.048
21296SOL    HW265330   6.760   4.116   4.981
21297SOL     OW65331   5.664   5.347   5.111
21297SOL    HW165332   5.617   5.371   5.032
21297SOL    HW265333   5.741   5.299   5.079
21298SOL     OW65334   5.937   4.850   4.209
21298SOL    HW165335   5.916   4.923   4.151
21298SOL    HW265336   5.925   4.772   4.154
21299SOL     OW65337   6.139   4.242   4.580
21299SOL    HW165338   6.151   4.302   4.506
21299SOL    HW265339   6.198   4.275   4.648
21300SOL     OW65340   6.832   5.075   4.120
21300SOL    HW165341   6.887   5.146   4.153
21300SOL    HW265342   6.744   5.097   4.151
21301SOL     OW65343   6.880   5.188   4.869
21301SOL    HW165344   6.929   5.192   4.951
21301SOL    HW265345   6.822   5.113   4.879
21302SOL     OW65346   7.163   4.352   4.199
21302SOL    HW165347   7.117   4.376   4.280
21302SOL    HW265348   7.171   4.434   4.151
21303SOL     OW65349   5.924   5.266   5.024
21303SOL    HW165350   5.910   5.209   4.948
21303SOL    HW265351   6.019   5.270   5.033
21304SOL     OW65352   6.001   4.492   5.344
21304SOL    HW165353   6.071   4.507   5.280
21304SOL    HW265354   5.987   4.397   5.342
21305SOL     OW65355   7.204   4.504   5.416
21305SOL    HW165356   7.116   4.542   5.411
21305SOL    HW265357   7.252   4.546   5.344
21306SOL     OW65358   6.587   3.860   5.467
21306SOL    HW165359   6.643   3.937   5.456
21306SOL    HW265360   6.648   3.785   5.462
21307SOL     OW65361   6.072   3.763   5.483
21307SOL    HW165362   6.022   3.715   5.417
21307SOL    HW265363   6.018   3.839   5.504
21308SOL     OW65364   6.171   4.594   4.760
21308SOL    HW165365   6.180   4.688   4.751
21308SOL    HW265366   6.112   4.581   4.834
21309SOL     OW65367   6.913   4.579   4.732
21309SOL    HW165368   6.823   4.559   4.710
21309SOL    HW265369   6.960   4.497   4.719
21310SOL     OW65370   6.779   4.251   3.982
21310SOL    HW165371   6.785   4.173   4.038
21310SOL    HW265372   6.737   4.317   4.037
21311SOL     OW65373   5.881   3.925   4.967
21311SOL    HW165374   5.816   3.954   5.031
21311SOL    HW265375   5.869   3.830   4.962
21312SOL     OW65376   5.673   5.050   5.008
21312SOL    HW165377   5.704   4.980   5.066
21312SOL    HW265378   5.587   5.074   5.042
21313SOL     OW65379   6.304   4.354   4.772
21313SOL    HW165380   6.380   4.356   4.714
21313SOL    HW265381   6.265   4.441   4.764
21314SOL     OW65382   7.329   4.683   5.589
21314SOL    HW165383   7.285   4.615   5.538
21314SOL    HW265384   7.266   4.706   5.657
21315SOL     OW65385   5.906   3.795   4.343
21315SOL    HW165386   5.871   3.882   4.364
21315SOL    HW265387   5.908   3.749   4.426
21316SOL     OW65388   7.221   4.115   4.076
21316SOL    HW165389   7.243   4.048   4.141
21316SOL    HW265390   7.191   4.190   4.128
21317SOL     OW65391   6.633   4.481   4.683
21317SOL    HW165392   6.612   4.498   4.775
21317SOL    HW265393   6.600   4.393   4.667
21318SOL     OW65394   6.583   5.305   5.444
21318SOL    HW165395   6.556   5.340   5.359
21318SOL    HW265396   6.605   5.214   5.427
21319SOL     OW65397   7.435   5.219   5.329
21319SOL    HW165398   7.456   5.250   5.241
21319SOL    HW265399   7.515   5.234   5.379
21320SOL     OW65400   5.953   4.655   5.560
21320SOL    HW165401   6.039   4.660   5.601
21320SOL    HW265402   5.964   4.596   5.486
21321SOL     OW65403   7.123   3.992   3.848
21321SOL    HW165404   7.057   3.929   3.878
21321SOL    HW265405   7.154   4.033   3.929
21322SOL     OW65406   6.872   4.545   3.749
21322SOL    HW165407   6.911   4.458   3.756
21322SOL    HW265408   6.906   4.581   3.667
21323SOL     OW65409   6.659   5.068   4.577
21323SOL    HW165410   6.665   4.994   4.517
21323SOL    HW265411   6.718   5.133   4.541
21324SOL     OW65412   5.895   4.525   4.668
21324SOL    HW165413   5.989   4.542   4.673
21324SOL    HW265414   5.884   4.437   4.704
21325SOL     OW65415   5.916   4.246   4.738
21325SOL    HW165416   5.873   4.161   4.725
21325SOL    HW265417   5.990   4.245   4.677
21326SOL     OW65418   6.725   4.095   5.410
21326SOL    HW165419   6.671   4.146   5.470
21326SOL    HW265420   6.808   4.143   5.407
21327SOL     OW65421   6.756   3.923   5.197
21327SOL    HW165422   6.738   3.984   5.268
21327SOL    HW265423   6.791   3.977   5.126
21328SOL     OW65424   5.606   5.035   3.900
21328SOL    HW165425   5.516   5.054   3.872
21328SOL    HW265426   5.599   4.950   3.945
21329SOL     OW65427   5.676   5.498   4.669
21329SOL    HW165428   5.641   5.422   4.623
21329SOL    HW265429   5.764   5.509   4.632
21330SOL     OW65430   6.072   5.300   4.617
21330SOL    HW165431   6.142   5.360   4.645
21330SOL    HW265432   6.118   5.233   4.566
21331SOL     OW65433   6.556   4.504   4.939
21331SOL    HW165434   6.610   4.489   5.017
21331SOL    HW265435   6.469   4.475   4.965
21332SOL     OW65436   5.614   4.261   4.842
21332SOL    HW165437   5.697   4.261   4.795
21332SOL    HW265438   5.638   4.275   4.934
21333SOL     OW65439   5.786   4.253   5.444
21333SOL    HW165440   5.768   4.176   5.389
21333SOL    HW265441   5.729   4.321   5.409
21334SOL     OW65442   6.975   4.647   5.379
21334SOL    HW165443   6.989   4.742   5.376
21334SOL    HW265444   6.963   4.621   5.288
21335SOL     OW65445   6.409   4.304   4.080
21335SOL    HW165446   6.403   4.223   4.029
21335SOL    HW265447   6.329   4.352   4.058
21336SOL     OW65448   7.220   4.329   4.894
21336SOL    HW165449   7.205   4.274   4.971
21336SOL    HW265450   7.309   4.307   4.866
21337SOL     OW65451   5.831   5.268   5.462
21337SOL    HW165452   5.791   5.312   5.537
21337SOL    HW265453   5.834   5.175   5.488
21338SOL     OW65454   6.314   4.165   4.969
21338SOL    HW165455   6.245   4.099   4.958
21338SOL    HW265456   6.296   4.230   4.901
21339SOL     OW65457   6.525   5.400   5.186
21339SOL    HW165458   6.487   5.356   5.109
21339SOL    HW265459   6.503   5.492   5.174
21340SOL     OW65460   6.044   4.214   3.900
21340SOL    HW165461   6.099   4.287   3.930
21340SOL    HW265462   5.957   4.252   3.892
21341SOL     OW65463   5.760   4.864   5.198
21341SOL    HW165464   5.729   4.822   5.278
21341SOL    HW265465   5.752   4.796   5.131
21342SOL     OW65466   6.908   4.765   4.933
21342SOL    HW165467   6.917   4.699   4.864
21342SOL    HW265468   6.844   4.828   4.899
21343SOL     OW65469   6.913   4.577   4.026
21343SOL    HW165470   6.841   4.555   4.085
21343SOL    HW265471   6.876   4.567   3.938
21344SOL     OW65472   7.368   5.456   4.882
21344SOL    HW165473   7.430   5.480   4.814
21344SOL    HW265474   7.340   5.367   4.860
21345SOL     OW65475   6.825   5.457   4.820
21345SOL    HW165476   6.910   5.481   4.784
21345SOL    HW265477   6.834   5.365   4.846
21346SOL     OW65478   5.685   4.994   4.738
21346SOL    HW165479   5.673   5.009   4.832
21346SOL    HW265480   5.611   4.940   4.713
21347SOL     OW65481   6.261   5.404   5.468
21347SOL    HW165482   6.192   5.470   5.466
21347SOL    HW265483   6.317   5.424   5.393
21348SOL     OW65484   7.313   3.888   4.226
21348SOL    HW165485   7.383   3.870   4.162
21348SOL    HW265486   7.295   3.803   4.265
21349SOL     OW65487   6.982   5.293   4.218
21349SOL    HW165488   7.035   5.331   4.149
21349SOL    HW265489   6.927   5.365   4.249
21350SOL     OW65490   5.719   5.541   5.565
21350SOL    HW165491   5.675   5.464   5.601
21350SOL    HW265492   5.768   5.577   5.638
21351SOL     OW65493   6.864   4.648   4.384
21351SOL    HW165494   6.939   4.590   4.397
21351SOL    HW265495   6.900   4.724   4.338
21352SOL     OW65496   6.374   5.007   5.143
21352SOL    HW165497   6.349   5.049   5.224
21352SOL    HW265498   6.297   5.014   5.087
21353SOL     OW65499   6.254   5.351   3.882
21353SOL    HW165500   6.263   5.366   3.788
21353SOL    HW265501   6.198   5.273   3.888
21354SOL     OW65502   7.205   5.452   5.120
21354SOL    HW165503   7.258   5.455   5.040
21354SOL    HW265504   7.191   5.544   5.143
21355SOL     OW65505   7.431   3.892   4.686
21355SOL    HW165506   7.458   3.803   4.661
21355SOL    HW265507   7.342   3.900   4.652
21356SOL     OW65508   5.832   4.042   4.435
21356SOL    HW165509   5.745   4.073   4.410
21356SOL    HW265510   5.828   4.033   4.530
21357SOL     OW65511   6.797   5.319   3.759
21357SOL    HW165512   6.784   5.230   3.790
21357SOL    HW265513   6.728   5.333   3.694
21358SOL     OW65514   6.410   4.736   5.100
21358SOL    HW165515   6.426   4.737   5.006
21358SOL    HW265516   6.397   4.828   5.123
21359SOL     OW65517   6.506   4.638   4.011
21359SOL    HW165518   6.570   4.674   3.949
21359SOL    HW265519   6.554   4.569   4.058
21360SOL     OW65520   7.074   5.357   3.773
21360SOL    HW165521   6.980   5.343   3.759
21360SOL    HW265522   7.111   5.362   3.685
21361SOL     OW65523   5.965   5.039   5.211
21361SOL    HW165524   5.932   5.113   5.160
21361SOL    HW265525   5.897   4.972   5.204
21362SOL     OW65526   7.198   5.014   5.007
21362SOL    HW165527   7.243   4.990   5.088
21362SOL    HW265528   7.133   5.079   5.034
21363SOL     OW65529   6.658   4.834   4.440
21363SOL    HW165530   6.581   4.791   4.477
21363SOL    HW265531   6.716   4.763   4.413
21364SOL     OW65532   6.620   3.969   4.683
21364SOL    HW165533   6.614   3.921   4.600
21364SOL    HW265534   6.610   3.902   4.750
21365SOL     OW65535   6.189   5.212   4.201
21365SOL    HW165536   6.233   5.162   4.132
21365SOL    HW265537   6.096   5.212   4.175
21366SOL     OW65538   7.319   4.113   5.102
21366SOL    HW165539   7.389   4.179   5.099
21366SOL    HW265540   7.349   4.044   5.043
21367SOL     OW65541   5.859   5.068   4.028
21367SOL    HW165542   5.770   5.059   3.993
21367SOL    HW265543   5.846   5.108   4.114
21368SOL     OW65544   5.706   4.777   5.465
21368SOL    HW165545   5.623   4.749   5.502
21368SOL    HW265546   5.772   4.723   5.509
21369SOL     OW65547   6.268   3.900   5.219
21369SOL    HW165548   6.357   3.884   5.187
21369SOL    HW265549   6.280   3.941   5.305
21370SOL     OW65550   5.672   4.036   3.750
21370SOL    HW165551   5.580   4.015   3.734
21370SOL    HW265552   5.683   4.125   3.715
21371SOL     OW65553   7.006   4.578   5.115
21371SOL    HW165554   6.954   4.638   5.062
21371SOL    HW265555   7.094   4.584   5.078
21372SOL     OW65556   5.644   3.872   4.032
21372SOL    HW165557   5.624   3.957   3.993
21372SOL    HW265558   5.726   3.846   3.991
21373SOL     OW65559   6.762   5.056   3.844
21373SOL    HW165560   6.670   5.028   3.842
21373SOL    HW265561   6.785   5.055   3.937
21374SOL     OW65562   6.212   4.546   5.160
21374SOL    HW165563   6.267   4.623   5.150
21374SOL    HW265564   6.273   4.473   5.167
21375SOL     OW65565   7.072   5.518   4.714
21375SOL    HW165566   7.096   5.586   4.651
21375SOL    HW265567   7.155   5.485   4.747
21376SOL     OW65568   6.334   4.267   5.411
21376SOL    HW165569   6.342   4.322   5.489
21376SOL    HW265570   6.329   4.178   5.445
21377SOL     OW65571   7.055   4.911   5.350
21377SOL    HW165572   7.041   4.931   5.443
21377SOL    HW265573   7.146   4.937   5.334
21378SOL     OW65574   5.955   5.461   5.301
21378SOL    HW165575   5.873   5.505   5.277
21378SOL    HW265576   5.927   5.380   5.345
21379SOL     OW65577   7.248   4.604   4.977
21379SOL    HW165578   7.239   4.520   4.932
21379SOL    HW265579   7.236   4.669   4.908
21380SOL     OW65580   6.806   4.046   4.178
21380SOL    HW165581   6.862   3.969   4.179
21380SOL    HW265582   6.834   4.097   4.255
21381SOL     OW65583   6.189   4.447   4.391
21381SOL    HW165584   6.218   4.537   4.381
21381SOL    HW265585   6.116   4.438   4.330
21382SOL     OW65586   7.331   4.085   5.373
21382SOL    HW165587   7.315   4.104   5.280
21382SOL    HW265588   7.257   4.030   5.399
21383SOL     OW65589   7.342   4.651   5.231
21383SOL    HW165590   7.321   4.743   5.249
21383SOL    HW265591   7.317   4.638   5.139
21384SOL     OW65592   6.459   5.087   3.781
21384SOL    HW165593   6.419   5.091   3.868
21384SOL    HW265594   6.454   5.176   3.747
21385SOL     OW65595   6.250   5.505   4.654
21385SOL    HW165596   6.231   5.598   4.641
21385SOL    HW265597   6.346   5.499   4.647
21386SOL     OW65598   6.459   4.704   4.581
21386SOL    HW165599   6.504   4.629   4.620
21386SOL    HW265600   6.416   4.747   4.655
21387SOL     OW65601   6.678   4.726   3.820
21387SOL    HW165602   6.646   4.770   3.741
21387SOL    HW265603   6.742   4.662   3.786
21388SOL     OW65604   7.421   5.279   4.568
21388SOL    HW165605   7.344   5.270   4.513
21388SOL    HW265606   7.399   5.231   4.648
21389SOL     OW65607   5.801   5.013   5.564
21389SOL    HW165608   5.767   4.935   5.520
21389SOL    HW265609   5.741   5.027   5.637
21390SOL     OW65610   5.683   4.959   4.405
21390SOL    HW165611   5.647   4.915   4.482
21390SOL    HW265612   5.735   4.891   4.361
21391SOL     OW65613   6.277   5.140   5.364
21391SOL    HW165614   6.199   5.092   5.390
21391SOL    HW265615   6.266   5.227   5.402
21392SOL     OW65616   7.410   3.905   4.958
21392SOL    HW165617   7.394   3.811   4.968
21392SOL    HW265618   7.418   3.917   4.863
21393SOL     OW65619   6.022   4.148   4.257
21393SOL    HW165620   6.031   4.074   4.197
21393SOL    HW265621   5.960   4.117   4.324
21394SOL     OW65622   7.288   5.203   4.809
21394SOL    HW165623   7.207   5.185   4.761
21394SOL    HW265624   7.287   5.141   4.882
21395SOL     OW65625   5.943   4.288   5.014
21395SOL    HW165626   5.982   4.218   5.068
21395SOL    HW265627   5.941   4.252   4.926
21396SOL     OW65628   6.420   5.295   4.396
21396SOL    HW165629   6.378   5.355   4.334
21396SOL    HW265630   6.352   5.231   4.416
21397SOL     OW65631   7.015   3.950   4.847
21397SOL    HW165632   7.031   3.871   4.898
21397SOL    HW265633   6.962   4.006   4.904
21398SOL     OW65634   6.605   3.746   4.852
21398SOL    HW165635   6.537   3.680   4.836
21398SOL    HW265636   6.688   3.699   4.836
21399SOL     OW65637   6.366   5.056   4.040
21399SOL    HW165638   6.335   4.966   4.054
21399SOL    HW265639   6.440   5.066   4.099
21400SOL     OW65640   6.205   5.282   5.012
21400SOL    HW165641   6.203   5.361   5.066
21400SOL    HW265642   6.294   5.281   4.975
21401SOL     OW65643   6.951   3.777   3.900
21401SOL    HW165644   6.983   3.706   3.844
21401SOL    HW265645   6.862   3.751   3.923
21402SOL     OW65646   6.896   4.187   4.401
21402SOL    HW165647   6.842   4.266   4.398
21402SOL    HW265648   6.882   4.152   4.489
21403SOL     OW65649   7.168   3.913   4.616
21403SOL    HW165650   7.113   3.938   4.691
21403SOL    HW265651   7.164   3.988   4.557
21404SOL     OW65652   5.633   4.791   4.030
21404SOL    HW165653   5.726   4.778   4.012
21404SOL    HW265654   5.601   4.704   4.054
21405SOL     OW65655   6.480   5.394   4.055
21405SOL    HW165656   6.401   5.374   4.005
21405SOL    HW265657   6.452   5.460   4.118
21406SOL     OW65658   5.807   4.328   5.718
21406SOL    HW165659   5.721   4.328   5.759
21406SOL    HW265660   5.790   4.318   5.625
21407SOL     OW65661   5.807   4.004   6.575
21407SOL    HW165662   5.830   3.972   6.663
21407SOL    HW265663   5.717   3.977   6.563
21408SOL     OW65664   5.589   4.109   6.226
21408SOL    HW165665   5.509   4.142   6.267
21408SOL    HW265666   5.563   4.026   6.186
21409SOL     OW65667   6.162   5.021   6.781
21409SOL    HW165668   6.076   5.013   6.740
21409SOL    HW265669   6.167   5.113   6.808
21410SOL     OW65670   7.161   5.245   6.298
21410SOL    HW165671   7.116   5.216   6.377
21410SOL    HW265672   7.092   5.249   6.231
21411SOL     OW65673   6.734   4.412   6.277
21411SOL    HW165674   6.771   4.500   6.266
21411SOL    HW265675   6.678   4.419   6.355
21412SOL     OW65676   7.386   4.318   5.808
21412SOL    HW165677   7.352   4.314   5.719
21412SOL    HW265678   7.336   4.251   5.855
21413SOL     OW65679   6.358   4.873   6.652
21413SOL    HW165680   6.282   4.898   6.705
21413SOL    HW265681   6.383   4.953   6.607
21414SOL     OW65682   6.472   4.484   7.420
21414SOL    HW165683   6.422   4.546   7.473
21414SOL    HW265684   6.485   4.529   7.337
21415SOL     OW65685   6.275   4.719   6.228
21415SOL    HW165686   6.337   4.716   6.301
21415SOL    HW265687   6.203   4.774   6.259
21416SOL     OW65688   6.305   4.879   7.407
21416SOL    HW165689   6.348   4.959   7.438
21416SOL    HW265690   6.223   4.910   7.369
21417SOL     OW65691   5.924   5.132   6.652
21417SOL    HW165692   5.845   5.088   6.620
21417SOL    HW265693   5.955   5.184   6.578
21418SOL     OW65694   7.043   5.226   6.951
21418SOL    HW165695   7.094   5.306   6.964
21418SOL    HW265696   6.969   5.234   7.012
21419SOL     OW65697   6.037   4.103   7.051
21419SOL    HW165698   6.100   4.033   7.065
21419SOL    HW265699   5.953   4.066   7.077
21420SOL     OW65700   7.178   4.164   6.334
21420SOL    HW165701   7.098   4.168   6.282
21420SOL    HW265702   7.167   4.233   6.400
21421SOL     OW65703   5.801   5.447   6.053
21421SOL    HW165704   5.828   5.521   6.108
21421SOL    HW265705   5.874   5.433   5.993
21422SOL     OW65706   6.723   5.064   7.281
21422SOL    HW165707   6.756   5.060   7.371
21422SOL    HW265708   6.669   4.986   7.272
21423SOL     OW65709   5.836   5.168   6.140
21423SOL    HW165710   5.790   5.252   6.147
21423SOL    HW265711   5.786   5.108   6.195
21424SOL     OW65712   5.893   4.817   6.509
21424SOL    HW165713   5.863   4.728   6.530
21424SOL    HW265714   5.821   4.874   6.534
21425SOL     OW65715   6.193   5.510   7.033
21425SOL    HW165716   6.108   5.490   7.071
21425SOL    HW265717   6.206   5.603   7.051
21426SOL     OW65718   6.192   4.692   5.711
21426SOL    HW165719   6.235   4.752   5.651
21426SOL    HW265720   6.205   4.732   5.798
21427SOL     OW65721   7.188   3.853   7.051
21427SOL    HW165722   7.191   3.937   7.005
21427SOL    HW265723   7.154   3.874   7.138
21428SOL     OW65724   5.722   4.364   6.139
21428SOL    HW165725   5.669   4.285   6.154
21428SOL    HW265726   5.708   4.418   6.216
21429SOL     OW65727   7.432   5.472   5.910
21429SOL    HW165728   7.498   5.449   5.975
21429SOL    HW265729   7.447   5.565   5.892
21430SOL     OW65730   5.645   5.312   5.691
21430SOL    HW165731   5.616   5.222   5.704
21430SOL    HW265732   5.611   5.359   5.767
21431SOL     OW65733   7.282   4.651   6.227
21431SOL    HW165734   7.345   4.597   6.180
21431SOL    HW265735   7.245   4.709   6.160
21432SOL     OW65736   7.233   4.830   6.013
21432SOL    HW165737   7.320   4.829   5.972
21432SOL    HW265738   7.240   4.898   6.080
21433SOL     OW65739   5.697   4.472   7.168
21433SOL    HW165740   5.777   4.524   7.174
21433SOL    HW265741   5.628   4.537   7.153
21434SOL     OW65742   6.212   5.117   6.321
21434SOL    HW165743   6.166   5.034   6.331
21434SOL    HW265744   6.190   5.145   6.232
21435SOL     OW65745   6.867   4.958   7.002
21435SOL    HW165746   6.895   4.888   6.943
21435SOL    HW265747   6.924   4.950   7.079
21436SOL     OW65748   6.411   3.729   6.103
21436SOL    HW165749   6.448   3.813   6.076
21436SOL    HW265750   6.316   3.745   6.107
21437SOL     OW65751   5.773   4.684   6.874
21437SOL    HW165752   5.854   4.642   6.847
21437SOL    HW265753   5.705   4.640   6.821
21438SOL     OW65754   7.121   4.724   5.784
21438SOL    HW165755   7.051   4.666   5.814
21438SOL    HW265756   7.157   4.761   5.865
21439SOL     OW65757   6.792   5.548   7.216
21439SOL    HW165758   6.777   5.604   7.140
21439SOL    HW265759   6.792   5.459   7.181
21440SOL     OW65760   5.931   3.977   7.429
21440SOL    HW165761   5.963   4.068   7.426
21440SOL    HW265762   5.836   3.985   7.440
21441SOL     OW65763   7.061   5.137   6.532
21441SOL    HW165764   6.991   5.157   6.594
21441SOL    HW265765   7.041   5.048   6.502
21442SOL     OW65766   7.236   5.490   6.158
21442SOL    HW165767   7.212   5.455   6.072
21442SOL    HW265768   7.218   5.419   6.219
21443SOL     OW65769   6.178   4.443   5.865
21443SOL    HW165770   6.169   4.524   5.815
21443SOL    HW265771   6.111   4.448   5.932
21444SOL     OW65772   6.871   4.096   6.523
21444SOL    HW165773   6.779   4.069   6.527
21444SOL    HW265774   6.916   4.038   6.584
21445SOL     OW65775   7.162   5.406   5.898
21445SOL    HW165776   7.256   5.423   5.887
21445SOL    HW265777   7.130   5.387   5.810
21446SOL     OW65778   6.395   4.336   7.027
21446SOL    HW165779   6.368   4.310   7.115
21446SOL    HW265780   6.356   4.270   6.969
21447SOL     OW65781   6.981   4.204   7.262
21447SOL    HW165782   6.982   4.246   7.349
21447SOL    HW265783   7.029   4.122   7.275
21448SOL     OW65784   6.535   4.612   7.174
21448SOL    HW165785   6.588   4.543   7.135
21448SOL    HW265786   6.486   4.650   7.101
21449SOL     OW65787   6.589   4.123   6.812
21449SOL    HW165788   6.500   4.142   6.842
21449SOL    HW265789   6.577   4.086   6.724
21450SOL     OW65790   6.646   4.422   6.006
21450SOL    HW165791   6.660   4.412   6.100
21450SOL    HW265792   6.560   4.382   5.991
21451SOL     OW65793   5.691   4.526   6.349
21451SOL    HW165794   5.744   4.541   6.427
21451SOL    HW265795   5.617   4.586   6.358
21452SOL     OW65796   5.714   5.602   7.164
21452SOL    HW165797   5.709   5.581   7.258
21452SOL    HW265798   5.646   5.548   7.124
21453SOL     OW65799   6.474   4.069   5.784
21453SOL    HW165800   6.517   4.122   5.717
21453SOL    HW265801   6.420   4.007   5.734
21454SOL     OW65802   7.303   4.293   7.414
21454SOL    HW165803   7.264   4.368   7.370
21454SOL    HW265804   7.314   4.228   7.345
21455SOL     OW65805   6.971   4.871   6.134
21455SOL    HW165806   7.045   4.862   6.074
21455SOL    HW265807   6.911   4.931   6.089
21456SOL     OW65808   6.147   3.894   6.491
21456SOL    HW165809   6.143   3.929   6.580
21456SOL    HW265810   6.125   3.967   6.435
21457SOL     OW65811   6.586   5.177   6.054
21457SOL    HW165812   6.556   5.249   5.999
21457SOL    HW265813   6.550   5.195   6.140
21458SOL     OW65814   5.939   5.538   6.450
21458SOL    HW165815   5.976   5.450   6.458
21458SOL    HW265816   6.008   5.595   6.482
21459SOL     OW65817   7.390   4.776   6.452
21459SOL    HW165818   7.337   4.748   6.376
21459SOL    HW265819   7.327   4.783   6.523
21460SOL     OW65820   6.812   5.263   7.099
21460SOL    HW165821   6.798   5.192   7.162
21460SOL    HW265822   6.738   5.257   7.039
21461SOL     OW65823   5.889   4.675   5.842
21461SOL    HW165824   5.911   4.673   5.750
21461SOL    HW265825   5.835   4.598   5.856
21462SOL     OW65826   7.075   4.474   6.297
21462SOL    HW165827   7.065   4.435   6.384
21462SOL    HW265828   7.151   4.532   6.306
21463SOL     OW65829   6.057   4.997   7.324
21463SOL    HW165830   6.029   5.005   7.232
21463SOL    HW265831   5.977   4.981   7.372
21464SOL     OW65832   6.719   5.501   5.816
21464SOL    HW165833   6.638   5.470   5.856
21464SOL    HW265834   6.739   5.436   5.748
21465SOL     OW65835   5.770   4.019   7.100
21465SOL    HW165836   5.687   4.054   7.068
21465SOL    HW265837   5.748   3.931   7.131
21466SOL     OW65838   7.218   5.108   5.677
21466SOL    HW165839   7.176   5.193   5.666
21466SOL    HW265840   7.149   5.044   5.659
21467SOL     OW65841   6.046   5.473   5.897
21467SOL    HW165842   6.095   5.515   5.968
21467SOL    HW265843   6.111   5.417   5.853
21468SOL     OW65844   6.980   3.828   6.030
21468SOL    HW165845   6.967   3.804   5.938
21468SOL    HW265846   7.075   3.830   6.040
21469SOL     OW65847   5.860   5.523   6.795
21469SOL    HW165848   5.886   5.441   6.836
21469SOL    HW265849   5.806   5.497   6.721
21470SOL     OW65850   6.523   5.426   6.473
21470SOL    HW165851   6.576   5.363   6.520
21470SOL    HW265852   6.486   5.376   6.400
21471SOL     OW65853   5.991   4.406   6.067
21471SOL    HW165854   6.008   4.313   6.082
21471SOL    HW265855   5.897   4.416   6.079
21472SOL     OW65856   7.099   3.946   7.306
21472SOL    HW165857   7.113   3.961   7.400
21472SOL    HW265858   7.022   3.889   7.302
21473SOL     OW65859   6.246   3.842   5.680
21473SOL    HW165860   6.255   3.765   5.736
21473SOL    HW265861   6.179   3.816   5.615
21474SOL     OW65862   6.355   3.998   7.343
21474SOL    HW165863   6.435   3.947   7.338
21474SOL    HW265864   6.302   3.954   7.409
21475SOL     OW65865   6.466   5.258   6.779
21475SOL    HW165866   6.440   5.214   6.697
21475SOL    HW265867   6.527   5.197   6.821
21476SOL     OW65868   6.930   4.309   7.013
21476SOL    HW165869   6.955   4.284   7.102
21476SOL    HW265870   6.953   4.401   7.007
21477SOL     OW65871   6.410   5.121   6.537
21477SOL    HW165872   6.492   5.104   6.490
21477SOL    HW265873   6.343   5.120   6.468
21478SOL     OW65874   6.528   4.239   6.477
21478SOL    HW165875   6.498   4.229   6.387
21478SOL    HW265876   6.542   4.150   6.508
21479SOL     OW65877   6.146   3.789   6.084
21479SOL    HW165878   6.065   3.788   6.134
21479SOL    HW265879   6.136   3.863   6.024
21480SOL     OW65880   7.013   4.930   5.625
21480SOL    HW165881   7.038   4.853   5.676
21480SOL    HW265882   6.925   4.952   5.655
21481SOL     OW65883   5.867   3.785   5.763
21481SOL    HW165884   5.909   3.860   5.720
21481SOL    HW265885   5.939   3.732   5.797
21482SOL     OW65886   6.532   3.973   6.038
21482SOL    HW165887   6.505   4.005   5.952
21482SOL    HW265888   6.625   3.995   6.043
21483SOL     OW65889   6.661   4.411   7.041
21483SOL    HW165890   6.580   4.360   7.043
21483SOL    HW265891   6.730   4.346   7.035
21484SOL     OW65892   6.819   5.289   6.374
21484SOL    HW165893   6.822   5.358   6.307
21484SOL    HW265894   6.865   5.326   6.449
21485SOL     OW65895   6.069   4.882   6.312
21485SOL    HW165896   6.005   4.861   6.380
21485SOL    HW265897   6.021   4.871   6.230
21486SOL     OW65898   6.845   5.515   6.202
21486SOL    HW165899   6.888   5.580   6.147
21486SOL    HW265900   6.769   5.561   6.238
21487SOL     OW65901   6.613   4.251   5.610
21487SOL    HW165902   6.564   4.332   5.593
21487SOL    HW265903   6.666   4.271   5.687
21488SOL     OW65904   5.686   4.301   6.957
21488SOL    HW165905   5.780   4.301   6.941
21488SOL    HW265906   5.674   4.360   7.032
21489SOL     OW65907   6.144   3.955   6.764
21489SOL    HW165908   6.176   3.880   6.813
21489SOL    HW265909   6.051   3.960   6.786
21490SOL     OW65910   6.458   4.185   6.221
21490SOL    HW165911   6.392   4.238   6.176
21490SOL    HW265912   6.470   4.109   6.165
21491SOL     OW65913   6.617   3.771   6.322
21491SOL    HW165914   6.550   3.775   6.253
21491SOL    HW265915   6.587   3.702   6.380
21492SOL     OW65916   7.019   4.879   6.438
21492SOL    HW165917   6.945   4.821   6.453
21492SOL    HW265918   7.024   4.888   6.342
21493SOL     OW65919   7.051   4.332   6.540
21493SOL    HW165920   6.985   4.263   6.549
21493SOL    HW265921   7.102   4.327   6.621
21494SOL     OW65922   7.437   4.531   5.978
21494SOL    HW165923   7.495   4.479   6.034
21494SOL    HW265924   7.406   4.470   5.912
21495SOL     OW65925   6.075   5.147   5.735
21495SOL    HW165926   6.003   5.119   5.791
21495SOL    HW265927   6.060   5.101   5.652
21496SOL     OW65928   7.269   5.001   6.212
21496SOL    HW165929   7.361   5.001   6.238
21496SOL    HW265930   7.236   5.085   6.243
21497SOL     OW65931   6.977   4.292   5.658
21497SOL    HW165932   6.907   4.276   5.721
21497SOL    HW265933   7.057   4.266   5.703
21498SOL     OW65934   6.119   3.985   5.891
21498SOL    HW165935   6.160   3.940   5.817
21498SOL    HW265936   6.088   4.068   5.855
21499SOL     OW65937   7.327   4.968   7.133
21499SOL    HW165938   7.414   4.931   7.120
21499SOL    HW265939   7.343   5.055   7.168
21500SOL     OW65940   6.631   5.084   6.923
21500SOL    HW165941   6.554   5.048   6.967
21500SOL    HW265942   6.705   5.038   6.962
21501SOL     OW65943   7.201   5.358   7.254
21501SOL    HW165944   7.186   5.389   7.164
21501SOL    HW265945   7.279   5.303   7.248
21502SOL     OW65946   6.731   4.949   6.685
21502SOL    HW165947   6.658   4.964   6.744
21502SOL    HW265948   6.700   4.977   6.600
21503SOL     OW65949   7.211   4.823   6.658
21503SOL    HW165950   7.202   4.885   6.730
21503SOL    HW265951   7.134   4.838   6.604
21504SOL     OW65952   6.512   3.808   6.979
21504SOL    HW165953   6.529   3.799   6.886
21504SOL    HW265954   6.589   3.853   7.014
21505SOL     OW65955   6.569   4.837   7.317
21505SOL    HW165956   6.479   4.854   7.342
21505SOL    HW265957   6.565   4.759   7.261
21506SOL     OW65958   6.300   4.796   5.954
21506SOL    HW165959   6.276   4.769   6.042
21506SOL    HW265960   6.375   4.740   5.931
21507SOL     OW65961   6.017   4.549   6.838
21507SOL    HW165962   6.078   4.559   6.911
21507SOL    HW265963   5.982   4.460   6.848
21508SOL     OW65964   6.853   4.096   6.865
21508SOL    HW165965   6.882   4.175   6.911
21508SOL    HW265966   6.761   4.113   6.843
21509SOL     OW65967   5.662   5.329   6.968
21509SOL    HW165968   5.618   5.367   6.892
21509SOL    HW265969   5.746   5.299   6.934
21510SOL     OW65970   5.953   4.847   6.063
21510SOL    HW165971   5.926   4.920   6.007
21510SOL    HW265972   5.940   4.769   6.008
21511SOL     OW65973   6.139   4.250   6.450
21511SOL    HW165974   6.151   4.307   6.374
21511SOL    HW265975   6.202   4.284   6.514
21512SOL     OW65976   6.832   5.074   5.985
21512SOL    HW165977   6.887   5.146   6.017
21512SOL    HW265978   6.744   5.097   6.013
21513SOL     OW65979   6.879   5.188   6.729
21513SOL    HW165980   6.926   5.188   6.812
21513SOL    HW265981   6.821   5.112   6.734
21514SOL     OW65982   7.161   4.352   6.059
21514SOL    HW165983   7.120   4.378   6.142
21514SOL    HW265984   7.148   4.428   6.002
21515SOL     OW65985   5.925   5.265   6.885
21515SOL    HW165986   5.911   5.210   6.808
21515SOL    HW265987   6.020   5.271   6.893
21516SOL     OW65988   5.999   4.487   7.199
21516SOL    HW165989   6.071   4.510   7.139
21516SOL    HW265990   5.994   4.391   7.195
21517SOL     OW65991   7.205   4.507   7.278
21517SOL    HW165992   7.117   4.544   7.272
21517SOL    HW265993   7.252   4.546   7.205
21518SOL     OW65994   6.589   3.858   7.336
21518SOL    HW165995   6.645   3.934   7.319
21518SOL    HW265996   6.644   3.782   7.318
21519SOL     OW65997   6.074   3.760   7.344
21519SOL    HW165998   6.025   3.712   7.277
21519SOL    HW265999   6.019   3.836   7.365
21520SOL     OW66000   6.178   4.595   6.623
21520SOL    HW166001   6.164   4.686   6.597
21520SOL    HW266002   6.116   4.582   6.695
21521SOL     OW66003   6.914   4.578   6.598
21521SOL    HW166004   6.823   4.560   6.572
21521SOL    HW266005   6.960   4.496   6.582
21522SOL     OW66006   6.784   4.250   5.845
21522SOL    HW166007   6.788   4.172   5.900
21522SOL    HW266008   6.740   4.316   5.898
21523SOL     OW66009   5.883   3.924   6.832
21523SOL    HW166010   5.819   3.954   6.896
21523SOL    HW266011   5.869   3.830   6.827
21524SOL     OW66012   5.674   5.045   6.862
21524SOL    HW166013   5.690   4.976   6.927
21524SOL    HW266014   5.607   5.101   6.902
21525SOL     OW66015   6.314   4.359   6.641
21525SOL    HW166016   6.384   4.355   6.575
21525SOL    HW266017   6.274   4.445   6.629
21526SOL     OW66018   7.330   4.684   7.451
21526SOL    HW166019   7.288   4.616   7.399
21526SOL    HW266020   7.266   4.705   7.519
21527SOL     OW66021   5.904   3.794   6.208
21527SOL    HW166022   5.870   3.882   6.225
21527SOL    HW266023   5.903   3.751   6.294
21528SOL     OW66024   7.219   4.111   5.944
21528SOL    HW166025   7.241   4.049   6.013
21528SOL    HW266026   7.189   4.189   5.991
21529SOL     OW66027   6.634   4.481   6.545
21529SOL    HW166028   6.612   4.498   6.636
21529SOL    HW266029   6.600   4.393   6.528
21530SOL     OW66030   6.581   5.302   7.307
21530SOL    HW166031   6.554   5.340   7.223
21530SOL    HW266032   6.609   5.213   7.286
21531SOL     OW66033   7.435   5.220   7.192
21531SOL    HW166034   7.455   5.250   7.104
21531SOL    HW266035   7.516   5.233   7.241
21532SOL     OW66036   5.952   4.650   7.415
21532SOL    HW166037   6.039   4.653   7.455
21532SOL    HW266038   5.962   4.590   7.341
21533SOL     OW66039   7.125   3.987   5.712
21533SOL    HW166040   7.056   3.927   5.740
21533SOL    HW266041   7.153   4.031   5.792
21534SOL     OW66042   6.875   4.548   5.614
21534SOL    HW166043   6.910   4.459   5.617
21534SOL    HW266044   6.905   4.583   5.530
21535SOL     OW66045   6.659   5.069   6.441
21535SOL    HW166046   6.664   4.995   6.381
21535SOL    HW266047   6.717   5.135   6.403
21536SOL     OW66048   5.885   4.530   6.548
21536SOL    HW166049   5.977   4.538   6.520
21536SOL    HW266050   5.876   4.438   6.574
21537SOL     OW66051   5.916   4.249   6.604
21537SOL    HW166052   5.873   4.165   6.589
21537SOL    HW266053   5.990   4.249   6.543
21538SOL     OW66054   6.725   4.094   7.272
21538SOL    HW166055   6.670   4.145   7.332
21538SOL    HW266056   6.807   4.143   7.266
21539SOL     OW66057   6.753   3.920   7.058
21539SOL    HW166058   6.736   3.982   7.129
21539SOL    HW266059   6.789   3.974   6.987
21540SOL     OW66060   5.607   5.036   5.762
21540SOL    HW166061   5.517   5.055   5.735
21540SOL    HW266062   5.601   4.954   5.810
21541SOL     OW66063   5.680   5.496   6.537
21541SOL    HW166064   5.640   5.423   6.489
21541SOL    HW266065   5.765   5.508   6.495
21542SOL     OW66066   6.074   5.302   6.483
21542SOL    HW166067   6.145   5.360   6.511
21542SOL    HW266068   6.118   5.236   6.428
21543SOL     OW66069   6.557   4.505   6.801
21543SOL    HW166070   6.606   4.489   6.882
21543SOL    HW266071   6.470   4.468   6.819
21544SOL     OW66072   5.608   4.237   6.706
21544SOL    HW166073   5.685   4.253   6.650
21544SOL    HW266074   5.635   4.267   6.793
21545SOL     OW66075   5.780   4.244   7.308
21545SOL    HW166076   5.775   4.176   7.241
21545SOL    HW266077   5.737   4.320   7.268
21546SOL     OW66078   6.974   4.648   7.242
21546SOL    HW166079   6.989   4.743   7.237
21546SOL    HW266080   6.962   4.621   7.151
21547SOL     OW66081   6.409   4.307   5.941
21547SOL    HW166082   6.400   4.226   5.892
21547SOL    HW266083   6.330   4.357   5.920
21548SOL     OW66084   7.222   4.328   6.757
21548SOL    HW166085   7.207   4.271   6.833
21548SOL    HW266086   7.310   4.306   6.727
21549SOL     OW66087   5.829   5.267   7.323
21549SOL    HW166088   5.791   5.314   7.397
21549SOL    HW266089   5.833   5.176   7.350
21550SOL     OW66090   6.316   4.164   6.832
21550SOL    HW166091   6.249   4.097   6.817
21550SOL    HW266092   6.300   4.230   6.765
21551SOL     OW66093   6.516   5.402   7.053
21551SOL    HW166094   6.486   5.356   6.975
21551SOL    HW266095   6.496   5.494   7.036
21552SOL     OW66096   6.050   4.216   5.768
21552SOL    HW166097   6.099   4.292   5.797
21552SOL    HW266098   5.961   4.249   5.755
21553SOL     OW66099   5.736   4.867   7.068
21553SOL    HW166100   5.731   4.822   7.153
21553SOL    HW266101   5.745   4.797   7.004
21554SOL     OW66102   6.907   4.767   6.796
21554SOL    HW166103   6.916   4.700   6.728
21554SOL    HW266104   6.844   4.830   6.760
21555SOL     OW66105   6.914   4.573   5.890
21555SOL    HW166106   6.839   4.553   5.946
21555SOL    HW266107   6.880   4.567   5.800
21556SOL     OW66108   7.374   5.452   6.750
21556SOL    HW166109   7.433   5.478   6.679
21556SOL    HW266110   7.342   5.366   6.724
21557SOL     OW66111   6.825   5.459   6.690
21557SOL    HW166112   6.909   5.482   6.651
21557SOL    HW266113   6.833   5.366   6.712
21558SOL     OW66114   5.690   4.996   6.592
21558SOL    HW166115   5.670   5.008   6.685
21558SOL    HW266116   5.618   4.943   6.559
21559SOL     OW66117   6.263   5.403   7.329
21559SOL    HW166118   6.193   5.469   7.325
21559SOL    HW266119   6.317   5.422   7.252
21560SOL     OW66120   7.329   3.885   6.100
21560SOL    HW166121   7.388   3.869   6.026
21560SOL    HW266122   7.304   3.798   6.129
21561SOL     OW66123   6.984   5.293   6.083
21561SOL    HW166124   7.035   5.330   6.011
21561SOL    HW266125   6.926   5.365   6.110
21562SOL     OW66126   5.717   5.538   7.427
21562SOL    HW166127   5.673   5.462   7.463
21562SOL    HW266128   5.766   5.575   7.501
21563SOL     OW66129   6.865   4.649   6.248
21563SOL    HW166130   6.940   4.590   6.258
21563SOL    HW266131   6.900   4.724   6.201
21564SOL     OW66132   6.375   5.007   7.004
21564SOL    HW166133   6.348   5.049   7.085
21564SOL    HW266134   6.300   5.016   6.946
21565SOL     OW66135   6.256   5.350   5.742
21565SOL    HW166136   6.264   5.366   5.648
21565SOL    HW266137   6.200   5.273   5.748
21566SOL     OW66138   7.205   5.451   6.983
21566SOL    HW166139   7.259   5.453   6.904
21566SOL    HW266140   7.191   5.543   7.005
21567SOL     OW66141   7.431   3.891   6.551
21567SOL    HW166142   7.449   3.799   6.529
21567SOL    HW266143   7.343   3.907   6.519
21568SOL     OW66144   5.841   4.043   6.300
21568SOL    HW166145   5.755   4.075   6.271
21568SOL    HW266146   5.833   4.035   6.395
21569SOL     OW66147   6.798   5.320   5.622
21569SOL    HW166148   6.785   5.230   5.652
21569SOL    HW266149   6.730   5.334   5.556
21570SOL     OW66150   6.409   4.736   6.962
21570SOL    HW166151   6.422   4.732   6.867
21570SOL    HW266152   6.397   4.829   6.981
21571SOL     OW66153   6.515   4.648   5.884
21571SOL    HW166154   6.575   4.679   5.816
21571SOL    HW266155   6.558   4.571   5.921
21572SOL     OW66156   7.074   5.358   5.636
21572SOL    HW166157   6.980   5.343   5.622
21572SOL    HW266158   7.111   5.363   5.548
21573SOL     OW66159   5.955   5.038   7.077
21573SOL    HW166160   5.932   5.110   7.018
21573SOL    HW266161   5.883   4.976   7.067
21574SOL     OW66162   7.198   5.014   6.868
21574SOL    HW166163   7.243   4.989   6.949
21574SOL    HW266164   7.132   5.077   6.896
21575SOL     OW66165   6.658   4.836   6.307
21575SOL    HW166166   6.580   4.792   6.341
21575SOL    HW266167   6.713   4.764   6.274
21576SOL     OW66168   6.620   3.968   6.547
21576SOL    HW166169   6.612   3.923   6.463
21576SOL    HW266170   6.608   3.899   6.613
21577SOL     OW66171   6.187   5.213   6.063
21577SOL    HW166172   6.231   5.164   5.995
21577SOL    HW266173   6.094   5.208   6.040
21578SOL     OW66174   7.318   4.117   6.964
21578SOL    HW166175   7.390   4.181   6.962
21578SOL    HW266176   7.349   4.046   6.908
21579SOL     OW66177   5.863   5.068   5.893
21579SOL    HW166178   5.775   5.059   5.855
21579SOL    HW266179   5.849   5.107   5.979
21580SOL     OW66180   5.713   4.775   7.327
21580SOL    HW166181   5.630   4.745   7.365
21580SOL    HW266182   5.779   4.719   7.368
21581SOL     OW66183   6.265   3.906   7.085
21581SOL    HW166184   6.352   3.888   7.048
21581SOL    HW266185   6.284   3.947   7.170
21582SOL     OW66186   5.664   4.031   5.607
21582SOL    HW166187   5.577   3.999   5.584
21582SOL    HW266188   5.660   4.125   5.591
21583SOL     OW66189   7.006   4.580   6.978
21583SOL    HW166190   6.953   4.639   6.925
21583SOL    HW266191   7.093   4.584   6.939
21584SOL     OW66192   5.637   3.874   5.887
21584SOL    HW166193   5.611   3.959   5.850
21584SOL    HW266194   5.719   3.853   5.843
21585SOL     OW66195   6.760   5.057   5.704
21585SOL    HW166196   6.667   5.037   5.699
21585SOL    HW266197   6.781   5.051   5.797
21586SOL     OW66198   6.214   4.548   7.029
21586SOL    HW166199   6.270   4.623   7.013
21586SOL    HW266200   6.274   4.473   7.031
21587SOL     OW66201   7.068   5.520   6.576
21587SOL    HW166202   7.092   5.585   6.510
21587SOL    HW266203   7.151   5.478   6.599
21588SOL     OW66204   6.331   4.268   7.276
21588SOL    HW166205   6.348   4.321   7.353
21588SOL    HW266206   6.330   4.178   7.308
21589SOL     OW66207   7.057   4.911   7.212
21589SOL    HW166208   7.044   4.932   7.305
21589SOL    HW266209   7.148   4.936   7.195
21590SOL     OW66210   5.955   5.462   7.163
21590SOL    HW166211   5.875   5.507   7.137
21590SOL    HW266212   5.926   5.381   7.204
21591SOL     OW66213   7.248   4.603   6.839
21591SOL    HW166214   7.239   4.518   6.795
21591SOL    HW266215   7.235   4.667   6.769
21592SOL     OW66216   6.806   4.048   6.041
21592SOL    HW166217   6.861   3.970   6.041
21592SOL    HW266218   6.835   4.097   6.119
21593SOL     OW66219   6.185   4.452   6.260
21593SOL    HW166220   6.217   4.541   6.242
21593SOL    HW266221   6.115   4.438   6.196
21594SOL     OW66222   7.329   4.085   7.236
21594SOL    HW166223   7.316   4.103   7.143
21594SOL    HW266224   7.255   4.029   7.260
21595SOL     OW66225   7.345   4.652   7.092
21595SOL    HW166226   7.321   4.743   7.109
21595SOL    HW266227   7.319   4.637   7.001
21596SOL     OW66228   6.470   5.091   5.649
21596SOL    HW166229   6.423   5.093   5.732
21596SOL    HW266230   6.453   5.178   5.610
21597SOL     OW66231   6.254   5.506   6.527
21597SOL    HW166232   6.234   5.597   6.505
21597SOL    HW266233   6.348   5.498   6.509
21598SOL     OW66234   6.458   4.706   6.446
21598SOL    HW166235   6.501   4.628   6.482
21598SOL    HW266236   6.417   4.747   6.522
21599SOL     OW66237   6.682   4.730   5.685
21599SOL    HW166238   6.645   4.772   5.607
21599SOL    HW266239   6.743   4.664   5.650
21600SOL     OW66240   7.421   5.283   6.431
21600SOL    HW166241   7.345   5.272   6.374
21600SOL    HW266242   7.401   5.229   6.508
21601SOL     OW66243   5.800   5.013   7.428
21601SOL    HW166244   5.767   4.935   7.384
21601SOL    HW266245   5.738   5.027   7.500
21602SOL     OW66246   5.691   4.960   6.264
21602SOL    HW166247   5.651   4.913   6.336
21602SOL    HW266248   5.706   4.893   6.197
21603SOL     OW66249   6.278   5.136   7.229
21603SOL    HW166250   6.198   5.091   7.254
21603SOL    HW266251   6.268   5.225   7.262
21604SOL     OW66252   7.414   3.907   6.824
21604SOL    HW166253   7.389   3.816   6.839
21604SOL    HW266254   7.419   3.915   6.729
21605SOL     OW66255   6.033   4.146   6.126
21605SOL    HW166256   6.037   4.078   6.059
21605SOL    HW266257   5.967   4.115   6.188
21606SOL     OW66258   7.285   5.205   6.674
21606SOL    HW166259   7.205   5.186   6.623
21606SOL    HW266260   7.283   5.141   6.745
21607SOL     OW66261   5.946   4.292   6.878
21607SOL    HW166262   5.985   4.222   6.930
21607SOL    HW266263   5.942   4.257   6.789
21608SOL     OW66264   6.417   5.296   6.257
21608SOL    HW166265   6.378   5.354   6.192
21608SOL    HW266266   6.350   5.231   6.276
21609SOL     OW66267   7.009   3.943   6.706
21609SOL    HW166268   6.991   3.854   6.737
21609SOL    HW266269   6.963   3.999   6.768
21610SOL     OW66270   6.598   3.745   6.717
21610SOL    HW166271   6.534   3.683   6.680
21610SOL    HW266272   6.681   3.698   6.715
21611SOL     OW66273   6.365   5.058   5.903
21611SOL    HW166274   6.331   4.969   5.913
21611SOL    HW266275   6.440   5.062   5.961
21612SOL     OW66276   6.205   5.283   6.876
21612SOL    HW166277   6.205   5.361   6.931
21612SOL    HW266278   6.292   5.281   6.837
21613SOL     OW66279   6.945   3.777   5.759
21613SOL    HW166280   6.975   3.710   5.697
21613SOL    HW266281   6.857   3.751   5.783
21614SOL     OW66282   6.900   4.187   6.264
21614SOL    HW166283   6.845   4.266   6.260
21614SOL    HW266284   6.883   4.152   6.351
21615SOL     OW66285   7.172   3.919   6.481
21615SOL    HW166286   7.114   3.940   6.554
21615SOL    HW266287   7.164   3.994   6.422
21616SOL     OW66288   5.642   4.801   5.904
21616SOL    HW166289   5.734   4.788   5.880
21616SOL    HW266290   5.610   4.712   5.920
21617SOL     OW66291   6.479   5.394   5.919
21617SOL    HW166292   6.401   5.373   5.866
21617SOL    HW266293   6.449   5.461   5.980
21618SOL     OW66294   5.807   4.338   7.578
21618SOL    HW166295   5.720   4.333   7.616
21618SOL    HW266296   5.793   4.320   7.485
21619SOL     OW66297   5.799   4.014   8.443
21619SOL    HW166298   5.828   3.973   8.525
21619SOL    HW266299   5.712   3.978   8.427
21620SOL     OW66300   5.589   4.125   8.094
21620SOL    HW166301   5.508   4.159   8.133
21620SOL    HW266302   5.564   4.041   8.057
21621SOL     OW66303   6.162   5.021   8.644
21621SOL    HW166304   6.078   5.011   8.600
21621SOL    HW266305   6.167   5.114   8.667
21622SOL     OW66306   7.164   5.246   8.159
21622SOL    HW166307   7.118   5.215   8.237
21622SOL    HW266308   7.096   5.249   8.091
21623SOL     OW66309   6.733   4.415   8.140
21623SOL    HW166310   6.771   4.502   8.128
21623SOL    HW266311   6.678   4.424   8.218
21624SOL     OW66312   7.383   4.319   7.670
21624SOL    HW166313   7.351   4.316   7.580
21624SOL    HW266314   7.336   4.249   7.714
21625SOL     OW66315   6.365   4.876   8.520
21625SOL    HW166316   6.286   4.897   8.570
21625SOL    HW266317   6.385   4.955   8.471
21626SOL     OW66318   6.471   4.482   9.277
21626SOL    HW166319   6.429   4.550   9.330
21626SOL    HW266320   6.487   4.524   9.193
21627SOL     OW66321   6.275   4.720   8.090
21627SOL    HW166322   6.337   4.717   8.162
21627SOL    HW266323   6.204   4.776   8.122
21628SOL     OW66324   6.303   4.878   9.274
21628SOL    HW166325   6.349   4.958   9.301
21628SOL    HW266326   6.224   4.910   9.231
21629SOL     OW66327   5.924   5.134   8.514
21629SOL    HW166328   5.845   5.091   8.480
21629SOL    HW266329   5.957   5.185   8.440
21630SOL     OW66330   7.042   5.224   8.815
21630SOL    HW166331   7.093   5.304   8.826
21630SOL    HW266332   6.968   5.235   8.875
21631SOL     OW66333   6.033   4.103   8.923
21631SOL    HW166334   6.097   4.032   8.925
21631SOL    HW266335   5.949   4.060   8.940
21632SOL     OW66336   7.181   4.162   8.195
21632SOL    HW166337   7.103   4.166   8.140
21632SOL    HW266338   7.171   4.235   8.256
21633SOL     OW66339   5.801   5.446   7.913
21633SOL    HW166340   5.829   5.520   7.968
21633SOL    HW266341   5.873   5.433   7.852
21634SOL     OW66342   6.725   5.064   9.144
21634SOL    HW166343   6.758   5.057   9.233
21634SOL    HW266344   6.672   4.985   9.132
21635SOL     OW66345   5.833   5.169   8.002
21635SOL    HW166346   5.789   5.254   8.005
21635SOL    HW266347   5.779   5.113   8.057
21636SOL     OW66348   5.892   4.817   8.372
21636SOL    HW166349   5.865   4.728   8.392
21636SOL    HW266350   5.817   4.872   8.395
21637SOL     OW66351   6.193   5.512   8.895
21637SOL    HW166352   6.107   5.493   8.932
21637SOL    HW266353   6.207   5.605   8.912
21638SOL     OW66354   6.184   4.696   7.579
21638SOL    HW166355   6.228   4.753   7.516
21638SOL    HW266356   6.205   4.734   7.664
21639SOL     OW66357   7.186   3.851   8.913
21639SOL    HW166358   7.199   3.932   8.865
21639SOL    HW266359   7.154   3.879   8.999
21640SOL     OW66360   5.718   4.366   7.999
21640SOL    HW166361   5.671   4.285   8.018
21640SOL    HW266362   5.708   4.419   8.079
21641SOL     OW66363   7.429   5.474   7.771
21641SOL    HW166364   7.496   5.451   7.835
21641SOL    HW266365   7.446   5.566   7.751
21642SOL     OW66366   5.644   5.311   7.557
21642SOL    HW166367   5.616   5.221   7.571
21642SOL    HW266368   5.609   5.359   7.633
21643SOL     OW66369   7.286   4.652   8.091
21643SOL    HW166370   7.346   4.594   8.043
21643SOL    HW266371   7.248   4.708   8.024
21644SOL     OW66372   7.233   4.828   7.877
21644SOL    HW166373   7.319   4.827   7.835
21644SOL    HW266374   7.240   4.896   7.944
21645SOL     OW66375   5.701   4.467   9.031
21645SOL    HW166376   5.783   4.517   9.025
21645SOL    HW266377   5.633   4.531   9.012
21646SOL     OW66378   6.209   5.118   8.183
21646SOL    HW166379   6.164   5.034   8.193
21646SOL    HW266380   6.188   5.147   8.094
21647SOL     OW66381   6.866   4.957   8.866
21647SOL    HW166382   6.893   4.888   8.805
21647SOL    HW266383   6.926   4.948   8.941
21648SOL     OW66384   6.412   3.730   7.969
21648SOL    HW166385   6.449   3.813   7.939
21648SOL    HW266386   6.317   3.746   7.971
21649SOL     OW66387   5.770   4.682   8.741
21649SOL    HW166388   5.853   4.643   8.713
21649SOL    HW266389   5.705   4.643   8.683
21650SOL     OW66390   7.120   4.724   7.646
21650SOL    HW166391   7.050   4.666   7.675
21650SOL    HW266392   7.157   4.760   7.727
21651SOL     OW66393   6.785   5.544   9.078
21651SOL    HW166394   6.774   5.603   9.003
21651SOL    HW266395   6.788   5.456   9.040
21652SOL     OW66396   5.919   3.970   9.300
21652SOL    HW166397   5.951   4.057   9.275
21652SOL    HW266398   5.825   3.981   9.309
21653SOL     OW66399   7.057   5.140   8.390
21653SOL    HW166400   6.988   5.158   8.454
21653SOL    HW266401   7.041   5.050   8.361
21654SOL     OW66402   7.235   5.493   8.019
21654SOL    HW166403   7.213   5.458   7.933
21654SOL    HW266404   7.219   5.420   8.079
21655SOL     OW66405   6.179   4.444   7.728
21655SOL    HW166406   6.169   4.526   7.679
21655SOL    HW266407   6.110   4.449   7.795
21656SOL     OW66408   6.870   4.101   8.386
21656SOL    HW166409   6.779   4.071   8.390
21656SOL    HW266410   6.917   4.042   8.444
21657SOL     OW66411   7.160   5.406   7.761
21657SOL    HW166412   7.254   5.423   7.748
21657SOL    HW266413   7.127   5.388   7.673
21658SOL     OW66414   6.391   4.335   8.890
21658SOL    HW166415   6.362   4.309   8.978
21658SOL    HW266416   6.354   4.269   8.832
21659SOL     OW66417   6.978   4.204   9.123
21659SOL    HW166418   6.981   4.246   9.210
21659SOL    HW266419   7.028   4.124   9.134
21660SOL     OW66420   6.534   4.611   9.035
21660SOL    HW166421   6.587   4.542   8.995
21660SOL    HW266422   6.486   4.650   8.963
21661SOL     OW66423   6.587   4.123   8.673
21661SOL    HW166424   6.497   4.140   8.700
21661SOL    HW266425   6.579   4.088   8.584
21662SOL     OW66426   6.644   4.421   7.869
21662SOL    HW166427   6.660   4.411   7.963
21662SOL    HW266428   6.559   4.381   7.854
21663SOL     OW66429   5.695   4.528   8.211
21663SOL    HW166430   5.745   4.536   8.292
21663SOL    HW266431   5.619   4.585   8.223
21664SOL     OW66432   5.712   5.602   9.025
21664SOL    HW166433   5.707   5.580   9.118
21664SOL    HW266434   5.645   5.548   8.984
21665SOL     OW66435   6.474   4.073   7.647
21665SOL    HW166436   6.520   4.124   7.580
21665SOL    HW266437   6.422   4.010   7.597
21666SOL     OW66438   7.296   4.297   9.279
21666SOL    HW166439   7.260   4.371   9.231
21666SOL    HW266440   7.312   4.230   9.212
21667SOL     OW66441   6.972   4.871   7.996
21667SOL    HW166442   7.044   4.857   7.935
21667SOL    HW266443   6.912   4.930   7.949
21668SOL     OW66444   6.146   3.892   8.348
21668SOL    HW166445   6.140   3.936   8.433
21668SOL    HW266446   6.125   3.960   8.284
21669SOL     OW66447   6.589   5.179   7.917
21669SOL    HW166448   6.557   5.250   7.861
21669SOL    HW266449   6.550   5.197   8.003
21670SOL     OW66450   5.940   5.540   8.315
21670SOL    HW166451   5.978   5.452   8.323
21670SOL    HW266452   6.011   5.599   8.340
21671SOL     OW66453   7.392   4.781   8.314
21671SOL    HW166454   7.343   4.751   8.238
21671SOL    HW266455   7.327   4.785   8.384
21672SOL     OW66456   6.810   5.263   8.962
21672SOL    HW166457   6.799   5.192   9.025
21672SOL    HW266458   6.742   5.248   8.896
21673SOL     OW66459   5.889   4.676   7.706
21673SOL    HW166460   5.932   4.690   7.621
21673SOL    HW266461   5.849   4.590   7.699
21674SOL     OW66462   7.075   4.477   8.162
21674SOL    HW166463   7.066   4.436   8.248
21674SOL    HW266464   7.153   4.532   8.170
21675SOL     OW66465   6.054   4.999   9.188
21675SOL    HW166466   6.027   5.006   9.097
21675SOL    HW266467   5.972   4.984   9.236
21676SOL     OW66468   6.720   5.498   7.682
21676SOL    HW166469   6.638   5.467   7.720
21676SOL    HW266470   6.740   5.435   7.613
21677SOL     OW66471   5.769   4.007   8.969
21677SOL    HW166472   5.690   4.046   8.932
21677SOL    HW266473   5.746   3.916   8.987
21678SOL     OW66474   7.220   5.110   7.545
21678SOL    HW166475   7.177   5.194   7.529
21678SOL    HW266476   7.154   5.045   7.524
21679SOL     OW66477   6.046   5.472   7.758
21679SOL    HW166478   6.096   5.515   7.827
21679SOL    HW266479   6.111   5.420   7.710
21680SOL     OW66480   6.983   3.828   7.894
21680SOL    HW166481   6.970   3.804   7.802
21680SOL    HW266482   7.078   3.831   7.905
21681SOL     OW66483   5.858   5.521   8.659
21681SOL    HW166484   5.886   5.438   8.696
21681SOL    HW266485   5.808   5.497   8.580
21682SOL     OW66486   6.526   5.426   8.334
21682SOL    HW166487   6.596   5.368   8.366
21682SOL    HW266488   6.485   5.377   8.263
21683SOL     OW66489   5.989   4.407   7.929
21683SOL    HW166490   6.007   4.314   7.943
21683SOL    HW266491   5.894   4.415   7.940
21684SOL     OW66492   7.099   3.949   9.168
21684SOL    HW166493   7.111   3.965   9.262
21684SOL    HW266494   7.025   3.888   9.163
21685SOL     OW66495   6.246   3.842   7.541
21685SOL    HW166496   6.265   3.762   7.590
21685SOL    HW266497   6.179   3.816   7.477
21686SOL     OW66498   6.355   4.002   9.214
21686SOL    HW166499   6.434   3.948   9.207
21686SOL    HW266500   6.300   3.955   9.276
21687SOL     OW66501   6.463   5.257   8.644
21687SOL    HW166502   6.442   5.216   8.560
21687SOL    HW266503   6.528   5.199   8.683
21688SOL     OW66504   6.924   4.310   8.875
21688SOL    HW166505   6.951   4.284   8.963
21688SOL    HW266506   6.952   4.401   8.867
21689SOL     OW66507   6.408   5.120   8.398
21689SOL    HW166508   6.491   5.105   8.353
21689SOL    HW266509   6.342   5.121   8.329
21690SOL     OW66510   6.523   4.239   8.339
21690SOL    HW166511   6.495   4.230   8.248
21690SOL    HW266512   6.541   4.149   8.368
21691SOL     OW66513   6.148   3.789   7.947
21691SOL    HW166514   6.065   3.787   7.995
21691SOL    HW266515   6.138   3.861   7.885
21692SOL     OW66516   7.017   4.932   7.487
21692SOL    HW166517   7.040   4.853   7.537
21692SOL    HW266518   6.927   4.952   7.516
21693SOL     OW66519   5.868   3.783   7.622
21693SOL    HW166520   5.911   3.854   7.575
21693SOL    HW266521   5.940   3.730   7.657
21694SOL     OW66522   6.534   3.974   7.900
21694SOL    HW166523   6.505   4.006   7.815
21694SOL    HW266524   6.627   3.994   7.903
21695SOL     OW66525   6.660   4.411   8.904
21695SOL    HW166526   6.582   4.354   8.902
21695SOL    HW266527   6.733   4.350   8.892
21696SOL     OW66528   6.807   5.297   8.242
21696SOL    HW166529   6.815   5.362   8.172
21696SOL    HW266530   6.872   5.324   8.306
21697SOL     OW66531   6.068   4.882   8.174
21697SOL    HW166532   6.005   4.861   8.242
21697SOL    HW266533   6.020   4.870   8.092
21698SOL     OW66534   6.844   5.516   8.065
21698SOL    HW166535   6.887   5.579   8.008
21698SOL    HW266536   6.768   5.563   8.099
21699SOL     OW66537   6.613   4.252   7.473
21699SOL    HW166538   6.566   4.333   7.454
21699SOL    HW266539   6.669   4.273   7.548
21700SOL     OW66540   5.697   4.284   8.826
21700SOL    HW166541   5.790   4.294   8.805
21700SOL    HW266542   5.681   4.348   8.896
21701SOL     OW66543   6.143   3.956   8.624
21701SOL    HW166544   6.173   3.869   8.650
21701SOL    HW266545   6.051   3.959   8.648
21702SOL     OW66546   6.459   4.185   8.081
21702SOL    HW166547   6.400   4.238   8.028
21702SOL    HW266548   6.474   4.107   8.029
21703SOL     OW66549   6.613   3.777   8.186
21703SOL    HW166550   6.549   3.780   8.115
21703SOL    HW266551   6.584   3.705   8.242
21704SOL     OW66552   7.020   4.881   8.298
21704SOL    HW166553   6.947   4.821   8.309
21704SOL    HW266554   7.031   4.889   8.203
21705SOL     OW66555   7.050   4.335   8.404
21705SOL    HW166556   6.986   4.264   8.409
21705SOL    HW266557   7.102   4.327   8.484
21706SOL     OW66558   7.431   4.530   7.843
21706SOL    HW166559   7.488   4.477   7.899
21706SOL    HW266560   7.403   4.471   7.774
21707SOL     OW66561   6.076   5.147   7.596
21707SOL    HW166562   6.004   5.117   7.652
21707SOL    HW266563   6.061   5.102   7.513
21708SOL     OW66564   7.269   4.999   8.077
21708SOL    HW166565   7.363   5.000   8.099
21708SOL    HW266566   7.238   5.086   8.104
21709SOL     OW66567   6.979   4.292   7.520
21709SOL    HW166568   6.910   4.275   7.585
21709SOL    HW266569   7.058   4.256   7.559
21710SOL     OW66570   6.124   3.985   7.755
21710SOL    HW166571   6.161   3.938   7.681
21710SOL    HW266572   6.091   4.067   7.718
21711SOL     OW66573   7.328   4.968   8.996
21711SOL    HW166574   7.415   4.931   8.983
21711SOL    HW266575   7.344   5.056   9.031
21712SOL     OW66576   6.635   5.096   8.797
21712SOL    HW166577   6.556   5.054   8.833
21712SOL    HW266578   6.707   5.041   8.826
21713SOL     OW66579   7.201   5.358   9.117
21713SOL    HW166580   7.186   5.388   9.028
21713SOL    HW266581   7.280   5.304   9.111
21714SOL     OW66582   6.728   4.950   8.548
21714SOL    HW166583   6.645   4.948   8.596
21714SOL    HW266584   6.703   4.979   8.460
21715SOL     OW66585   7.210   4.821   8.519
21715SOL    HW166586   7.199   4.883   8.591
21715SOL    HW266587   7.133   4.835   8.463
21716SOL     OW66588   6.510   3.809   8.840
21716SOL    HW166589   6.526   3.796   8.747
21716SOL    HW266590   6.589   3.851   8.873
21717SOL     OW66591   6.569   4.836   9.178
21717SOL    HW166592   6.478   4.853   9.201
21717SOL    HW266593   6.566   4.759   9.121
21718SOL     OW66594   6.300   4.794   7.816
21718SOL    HW166595   6.277   4.768   7.905
21718SOL    HW266596   6.376   4.741   7.794
21719SOL     OW66597   6.015   4.554   8.703
21719SOL    HW166598   6.080   4.562   8.773
21719SOL    HW266599   5.984   4.463   8.710
21720SOL     OW66600   6.850   4.091   8.732
21720SOL    HW166601   6.879   4.172   8.774
21720SOL    HW266602   6.759   4.109   8.707
21721SOL     OW66603   5.661   5.326   8.829
21721SOL    HW166604   5.617   5.365   8.753
21721SOL    HW266605   5.746   5.297   8.795
21722SOL     OW66606   5.946   4.846   7.929
21722SOL    HW166607   5.926   4.919   7.870
21722SOL    HW266608   5.933   4.768   7.875
21723SOL     OW66609   6.144   4.253   8.313
21723SOL    HW166610   6.152   4.309   8.236
21723SOL    HW266611   6.208   4.288   8.375
21724SOL     OW66612   6.833   5.073   7.848
21724SOL    HW166613   6.888   5.145   7.879
21724SOL    HW266614   6.744   5.097   7.876
21725SOL     OW66615   6.878   5.187   8.591
21725SOL    HW166616   6.925   5.185   8.674
21725SOL    HW266617   6.819   5.112   8.594
21726SOL     OW66618   7.161   4.347   7.927
21726SOL    HW166619   7.116   4.379   8.005
21726SOL    HW266620   7.158   4.421   7.866
21727SOL     OW66621   5.926   5.263   8.748
21727SOL    HW166622   5.912   5.210   8.670
21727SOL    HW266623   6.022   5.271   8.755
21728SOL     OW66624   6.001   4.480   9.056
21728SOL    HW166625   6.072   4.510   8.999
21728SOL    HW266626   6.000   4.384   9.046
21729SOL     OW66627   7.204   4.510   9.140
21729SOL    HW166628   7.116   4.547   9.132
21729SOL    HW266629   7.252   4.547   9.066
21730SOL     OW66630   6.587   3.857   9.207
21730SOL    HW166631   6.642   3.932   9.185
21730SOL    HW266632   6.638   3.781   9.179
21731SOL     OW66633   6.068   3.757   9.213
21731SOL    HW166634   6.024   3.710   9.142
21731SOL    HW266635   6.012   3.833   9.230
21732SOL     OW66636   6.185   4.597   8.490
21732SOL    HW166637   6.162   4.680   8.450
21732SOL    HW266638   6.117   4.582   8.557
21733SOL     OW66639   6.915   4.579   8.464
21733SOL    HW166640   6.827   4.562   8.433
21733SOL    HW266641   6.963   4.498   8.447
21734SOL     OW66642   6.786   4.250   7.708
21734SOL    HW166643   6.789   4.172   7.762
21734SOL    HW266644   6.741   4.315   7.762
21735SOL     OW66645   5.884   3.919   8.695
21735SOL    HW166646   5.811   3.946   8.751
21735SOL    HW266647   5.873   3.824   8.685
21736SOL     OW66648   5.674   5.045   8.722
21736SOL    HW166649   5.686   4.976   8.787
21736SOL    HW266650   5.608   5.102   8.761
21737SOL     OW66651   6.320   4.360   8.509
21737SOL    HW166652   6.386   4.352   8.439
21737SOL    HW266653   6.281   4.446   8.494
21738SOL     OW66654   7.331   4.686   9.313
21738SOL    HW166655   7.291   4.618   9.259
21738SOL    HW266656   7.266   4.705   9.381
21739SOL     OW66657   5.905   3.795   8.069
21739SOL    HW166658   5.864   3.880   8.083
21739SOL    HW266659   5.902   3.752   8.154
21740SOL     OW66660   7.220   4.110   7.804
21740SOL    HW166661   7.243   4.045   7.870
21740SOL    HW266662   7.191   4.186   7.854
21741SOL     OW66663   6.629   4.481   8.405
21741SOL    HW166664   6.610   4.498   8.497
21741SOL    HW266665   6.596   4.393   8.389
21742SOL     OW66666   6.576   5.295   9.170
21742SOL    HW166667   6.551   5.337   9.088
21742SOL    HW266668   6.612   5.211   9.145
21743SOL     OW66669   7.435   5.221   9.056
21743SOL    HW166670   7.455   5.251   8.967
21743SOL    HW266671   7.517   5.233   9.104
21744SOL     OW66672   5.942   4.639   9.270
21744SOL    HW166673   6.029   4.649   9.309
21744SOL    HW266674   5.956   4.579   9.197
21745SOL     OW66675   7.119   3.990   7.573
21745SOL    HW166676   7.052   3.929   7.602
21745SOL    HW266677   7.151   4.031   7.653
21746SOL     OW66678   6.878   4.548   7.478
21746SOL    HW166679   6.913   4.459   7.480
21746SOL    HW266680   6.906   4.583   7.394
21747SOL     OW66681   6.659   5.069   8.306
21747SOL    HW166682   6.663   4.996   8.244
21747SOL    HW266683   6.713   5.137   8.266
21748SOL     OW66684   5.887   4.531   8.410
21748SOL    HW166685   5.970   4.526   8.362
21748SOL    HW266686   5.874   4.442   8.444
21749SOL     OW66687   5.928   4.248   8.473
21749SOL    HW166688   5.879   4.168   8.454
21749SOL    HW266689   6.000   4.249   8.409
21750SOL     OW66690   6.722   4.092   9.137
21750SOL    HW166691   6.670   4.145   9.197
21750SOL    HW266692   6.805   4.140   9.128
21751SOL     OW66693   6.752   3.916   8.924
21751SOL    HW166694   6.735   3.980   8.993
21751SOL    HW266695   6.789   3.968   8.852
21752SOL     OW66696   5.607   5.035   7.629
21752SOL    HW166697   5.517   5.054   7.602
21752SOL    HW266698   5.601   4.950   7.673
21753SOL     OW66699   5.682   5.496   8.403
21753SOL    HW166700   5.643   5.423   8.355
21753SOL    HW266701   5.767   5.510   8.361
21754SOL     OW66702   6.076   5.303   8.347
21754SOL    HW166703   6.147   5.360   8.376
21754SOL    HW266704   6.118   5.239   8.290
21755SOL     OW66705   6.556   4.506   8.663
21755SOL    HW166706   6.602   4.489   8.745
21755SOL    HW266707   6.471   4.463   8.675
21756SOL     OW66708   5.616   4.283   8.562
21756SOL    HW166709   5.674   4.226   8.511
21756SOL    HW266710   5.650   4.277   8.651
21757SOL     OW66711   5.778   4.236   9.171
21757SOL    HW166712   5.777   4.170   9.102
21757SOL    HW266713   5.740   4.314   9.130
21758SOL     OW66714   6.971   4.650   9.104
21758SOL    HW166715   6.989   4.744   9.098
21758SOL    HW266716   6.960   4.622   9.013
21759SOL     OW66717   6.406   4.305   7.809
21759SOL    HW166718   6.403   4.225   7.756
21759SOL    HW266719   6.328   4.353   7.785
21760SOL     OW66720   7.221   4.328   8.622
21760SOL    HW166721   7.208   4.267   8.695
21760SOL    HW266722   7.309   4.308   8.590
21761SOL     OW66723   5.829   5.268   9.183
21761SOL    HW166724   5.794   5.316   9.258
21761SOL    HW266725   5.833   5.177   9.212
21762SOL     OW66726   6.314   4.162   8.697
21762SOL    HW166727   6.250   4.094   8.677
21762SOL    HW266728   6.300   4.228   8.629
21763SOL     OW66729   6.506   5.404   8.922
21763SOL    HW166730   6.485   5.355   8.842
21763SOL    HW266731   6.490   5.495   8.900
21764SOL     OW66732   6.048   4.217   7.633
21764SOL    HW166733   6.099   4.293   7.660
21764SOL    HW266734   5.960   4.251   7.619
21765SOL     OW66735   5.728   4.867   8.933
21765SOL    HW166736   5.725   4.822   9.017
21765SOL    HW266737   5.740   4.797   8.869
21766SOL     OW66738   6.905   4.769   8.660
21766SOL    HW166739   6.915   4.702   8.593
21766SOL    HW266740   6.843   4.831   8.622
21767SOL     OW66741   6.911   4.575   7.753
21767SOL    HW166742   6.835   4.551   7.805
21767SOL    HW266743   6.881   4.567   7.662
21768SOL     OW66744   7.379   5.450   8.617
21768SOL    HW166745   7.435   5.477   8.544
21768SOL    HW266746   7.341   5.367   8.590
21769SOL     OW66747   6.826   5.461   8.560
21769SOL    HW166748   6.909   5.483   8.516
21769SOL    HW266749   6.833   5.367   8.577
21770SOL     OW66750   5.686   5.005   8.451
21770SOL    HW166751   5.667   5.011   8.544
21770SOL    HW266752   5.619   4.946   8.416
21771SOL     OW66753   6.266   5.403   9.191
21771SOL    HW166754   6.196   5.468   9.182
21771SOL    HW266755   6.324   5.419   9.116
21772SOL     OW66756   7.321   3.888   7.957
21772SOL    HW166757   7.385   3.871   7.887
21772SOL    HW266758   7.299   3.801   7.991
21773SOL     OW66759   6.986   5.293   7.948
21773SOL    HW166760   7.035   5.328   7.874
21773SOL    HW266761   6.926   5.364   7.972
21774SOL     OW66762   5.716   5.537   9.289
21774SOL    HW166763   5.673   5.460   9.326
21774SOL    HW266764   5.766   5.574   9.362
21775SOL     OW66765   6.866   4.652   8.116
21775SOL    HW166766   6.941   4.592   8.123
21775SOL    HW266767   6.900   4.725   8.065
21776SOL     OW66768   6.378   5.007   8.865
21776SOL    HW166769   6.349   5.049   8.946
21776SOL    HW266770   6.304   5.018   8.805
21777SOL     OW66771   6.255   5.351   7.604
21777SOL    HW166772   6.265   5.367   7.510
21777SOL    HW266773   6.200   5.274   7.609
21778SOL     OW66774   7.204   5.450   8.847
21778SOL    HW166775   7.259   5.450   8.768
21778SOL    HW266776   7.191   5.542   8.868
21779SOL     OW66777   7.433   3.889   8.414
21779SOL    HW166778   7.458   3.801   8.389
21779SOL    HW266779   7.345   3.901   8.378
21780SOL     OW66780   5.839   4.046   8.164
21780SOL    HW166781   5.754   4.079   8.134
21780SOL    HW266782   5.829   4.038   8.259
21781SOL     OW66783   6.797   5.321   7.484
21781SOL    HW166784   6.784   5.231   7.512
21781SOL    HW266785   6.730   5.335   7.417
21782SOL     OW66786   6.409   4.735   8.824
21782SOL    HW166787   6.424   4.728   8.730
21782SOL    HW266788   6.398   4.829   8.839
21783SOL     OW66789   6.518   4.651   7.750
21783SOL    HW166790   6.576   4.680   7.680
21783SOL    HW266791   6.559   4.572   7.784
21784SOL     OW66792   7.073   5.361   7.499
21784SOL    HW166793   6.980   5.345   7.483
21784SOL    HW266794   7.112   5.365   7.411
21785SOL     OW66795   5.950   5.038   8.942
21785SOL    HW166796   5.933   5.108   8.879
21785SOL    HW266797   5.878   4.977   8.929
21786SOL     OW66798   7.196   5.012   8.730
21786SOL    HW166799   7.243   4.988   8.810
21786SOL    HW266800   7.131   5.076   8.759
21787SOL     OW66801   6.656   4.837   8.170
21787SOL    HW166802   6.578   4.792   8.203
21787SOL    HW266803   6.712   4.767   8.136
21788SOL     OW66804   6.619   3.969   8.411
21788SOL    HW166805   6.612   3.925   8.326
21788SOL    HW266806   6.607   3.899   8.475
21789SOL     OW66807   6.190   5.215   7.927
21789SOL    HW166808   6.238   5.165   7.861
21789SOL    HW266809   6.099   5.213   7.896
21790SOL     OW66810   7.321   4.113   8.831
21790SOL    HW166811   7.391   4.177   8.825
21790SOL    HW266812   7.348   4.042   8.772
21791SOL     OW66813   5.865   5.065   7.756
21791SOL    HW166814   5.778   5.057   7.718
21791SOL    HW266815   5.850   5.105   7.842
21792SOL     OW66816   5.710   4.775   9.196
21792SOL    HW166817   5.628   4.743   9.233
21792SOL    HW266818   5.777   4.716   9.229
21793SOL     OW66819   6.265   3.908   8.951
21793SOL    HW166820   6.349   3.890   8.909
21793SOL    HW266821   6.288   3.955   9.031
21794SOL     OW66822   5.667   4.039   7.475
21794SOL    HW166823   5.580   4.014   7.444
21794SOL    HW266824   5.682   4.126   7.438
21795SOL     OW66825   7.005   4.580   8.841
21795SOL    HW166826   6.952   4.639   8.787
21795SOL    HW266827   7.092   4.583   8.801
21796SOL     OW66828   5.639   3.880   7.745
21796SOL    HW166829   5.617   3.960   7.699
21796SOL    HW266830   5.721   3.851   7.704
21797SOL     OW66831   6.759   5.058   7.565
21797SOL    HW166832   6.665   5.040   7.558
21797SOL    HW266833   6.778   5.048   7.658
21798SOL     OW66834   6.214   4.550   8.892
21798SOL    HW166835   6.271   4.625   8.874
21798SOL    HW266836   6.273   4.474   8.892
21799SOL     OW66837   7.066   5.520   8.437
21799SOL    HW166838   7.089   5.583   8.369
21799SOL    HW266839   7.145   5.469   8.451
21800SOL     OW66840   6.326   4.270   9.141
21800SOL    HW166841   6.356   4.326   9.212
21800SOL    HW266842   6.329   4.182   9.176
21801SOL     OW66843   7.059   4.912   9.074
21801SOL    HW166844   7.048   4.933   9.167
21801SOL    HW266845   7.149   4.936   9.055
21802SOL     OW66846   5.955   5.464   9.024
21802SOL    HW166847   5.875   5.508   8.997
21802SOL    HW266848   5.925   5.382   9.062
21803SOL     OW66849   7.246   4.601   8.702
21803SOL    HW166850   7.239   4.516   8.660
21803SOL    HW266851   7.235   4.664   8.631
21804SOL     OW66852   6.807   4.047   7.905
21804SOL    HW166853   6.863   3.969   7.902
21804SOL    HW266854   6.837   4.096   7.981
21805SOL     OW66855   6.176   4.458   8.127
21805SOL    HW166856   6.212   4.544   8.104
21805SOL    HW266857   6.110   4.442   8.060
21806SOL     OW66858   7.329   4.087   9.103
21806SOL    HW166859   7.321   4.104   9.010
21806SOL    HW266860   7.255   4.031   9.125
21807SOL     OW66861   7.346   4.652   8.953
21807SOL    HW166862   7.322   4.744   8.968
21807SOL    HW266863   7.320   4.635   8.863
21808SOL     OW66864   6.474   5.093   7.511
21808SOL    HW166865   6.421   5.102   7.591
21808SOL    HW266866   6.460   5.174   7.463
21809SOL     OW66867   6.257   5.506   8.395
21809SOL    HW166868   6.236   5.595   8.368
21809SOL    HW266869   6.350   5.496   8.373
21810SOL     OW66870   6.456   4.705   8.309
21810SOL    HW166871   6.500   4.627   8.342
21810SOL    HW266872   6.418   4.746   8.386
21811SOL     OW66873   6.681   4.728   7.546
21811SOL    HW166874   6.645   4.770   7.468
21811SOL    HW266875   6.743   4.663   7.513
21812SOL     OW66876   7.425   5.286   8.291
21812SOL    HW166877   7.348   5.274   8.236
21812SOL    HW266878   7.416   5.217   8.358
21813SOL     OW66879   5.797   5.014   9.292
21813SOL    HW166880   5.766   4.935   9.247
21813SOL    HW266881   5.734   5.028   9.362
21814SOL     OW66882   5.682   4.961   8.123
21814SOL    HW166883   5.645   4.912   8.196
21814SOL    HW266884   5.712   4.894   8.061
21815SOL     OW66885   6.279   5.133   9.093
21815SOL    HW166886   6.195   5.092   9.116
21815SOL    HW266887   6.270   5.223   9.122
21816SOL     OW66888   7.406   3.903   8.686
21816SOL    HW166889   7.394   3.809   8.698
21816SOL    HW266890   7.416   3.914   8.591
21817SOL     OW66891   6.033   4.147   7.988
21817SOL    HW166892   6.042   4.079   7.922
21817SOL    HW266893   5.966   4.113   8.048
21818SOL     OW66894   7.276   5.209   8.542
21818SOL    HW166895   7.201   5.190   8.486
21818SOL    HW266896   7.274   5.142   8.610
21819SOL     OW66897   5.953   4.295   8.742
21819SOL    HW166898   5.990   4.222   8.792
21819SOL    HW266899   5.950   4.263   8.652
21820SOL     OW66900   6.416   5.299   8.119
21820SOL    HW166901   6.381   5.358   8.052
21820SOL    HW266902   6.347   5.235   8.133
21821SOL     OW66903   7.010   3.947   8.566
21821SOL    HW166904   7.000   3.856   8.594
21821SOL    HW266905   6.961   3.998   8.631
21822SOL     OW66906   6.595   3.742   8.578
21822SOL    HW166907   6.536   3.680   8.535
21822SOL    HW266908   6.680   3.697   8.579
21823SOL     OW66909   6.362   5.060   7.769
21823SOL    HW166910   6.328   4.971   7.775
21823SOL    HW266911   6.442   5.059   7.820
21824SOL     OW66912   6.205   5.283   8.740
21824SOL    HW166913   6.206   5.363   8.793
21824SOL    HW266914   6.291   5.280   8.700
21825SOL     OW66915   6.946   3.776   7.624
21825SOL    HW166916   6.975   3.711   7.560
21825SOL    HW266917   6.858   3.748   7.648
21826SOL     OW66918   6.899   4.189   8.126
21826SOL    HW166919   6.844   4.267   8.121
21826SOL    HW266920   6.883   4.154   8.214
21827SOL     OW66921   7.173   3.917   8.340
21827SOL    HW166922   7.116   3.941   8.413
21827SOL    HW266923   7.168   3.992   8.280
21828SOL     OW66924   5.634   4.791   7.762
21828SOL    HW166925   5.726   4.777   7.738
21828SOL    HW266926   5.602   4.704   7.784
21829SOL     OW66927   6.477   5.394   7.782
21829SOL    HW166928   6.401   5.373   7.727
21829SOL    HW266929   6.446   5.462   7.841
21830SOL     OW66930   5.808   4.338   9.434
21830SOL    HW166931   5.716   4.338   9.463
21830SOL    HW266932   5.803   4.318   9.341
21831SOL     OW66933   5.808   4.013  10.304
21831SOL    HW166934   5.836   3.974  10.387
21831SOL    HW266935   5.720   3.978  10.290
21832SOL     OW66936   5.580   4.109   9.956
21832SOL    HW166937   5.497   4.137   9.994
21832SOL    HW266938   5.558   4.030   9.906
21833SOL     OW66939   6.158   5.025  10.505
21833SOL    HW166940   6.075   5.025  10.457
21833SOL    HW266941   6.171   5.117  10.530
21834SOL     OW66942   7.166   5.246  10.019
21834SOL    HW166943   7.120   5.216  10.097
21834SOL    HW266944   7.099   5.249   9.951
21835SOL     OW66945   6.728   4.420  10.003
21835SOL    HW166946   6.770   4.504   9.989
21835SOL    HW266947   6.675   4.432  10.082
21836SOL     OW66948   7.374   4.321   9.535
21836SOL    HW166949   7.344   4.319   9.444
21836SOL    HW266950   7.334   4.244   9.575
21837SOL     OW66951   6.340   4.866  10.371
21837SOL    HW166952   6.271   4.901  10.427
21837SOL    HW266953   6.373   4.941  10.323
21838SOL     OW66954   6.468   4.479  11.135
21838SOL    HW166955   6.443   4.550  11.194
21838SOL    HW266956   6.486   4.522  11.051
21839SOL     OW66957   6.274   4.718   9.953
21839SOL    HW166958   6.338   4.715  10.024
21839SOL    HW266959   6.205   4.775   9.985
21840SOL     OW66960   6.302   4.876  11.139
21840SOL    HW166961   6.352   4.953  11.168
21840SOL    HW266962   6.225   4.913  11.095
21841SOL     OW66963   5.919   5.133  10.376
21841SOL    HW166964   5.845   5.090  10.335
21841SOL    HW266965   5.959   5.185  10.306
21842SOL     OW66966   7.042   5.225  10.677
21842SOL    HW166967   7.095   5.304  10.687
21842SOL    HW266968   6.970   5.237  10.739
21843SOL     OW66969   6.039   4.112  10.786
21843SOL    HW166970   6.112   4.050  10.791
21843SOL    HW266971   5.961   4.059  10.803
21844SOL     OW66972   7.185   4.159  10.056
21844SOL    HW166973   7.112   4.167   9.994
21844SOL    HW266974   7.181   4.239  10.109
21845SOL     OW66975   5.803   5.445   9.775
21845SOL    HW166976   5.830   5.520   9.829
21845SOL    HW266977   5.874   5.435   9.711
21846SOL     OW66978   6.725   5.065  11.006
21846SOL    HW166979   6.763   5.056  11.093
21846SOL    HW266980   6.673   4.985  10.994
21847SOL     OW66981   5.829   5.177   9.856
21847SOL    HW166982   5.798   5.268   9.851
21847SOL    HW266983   5.767   5.134   9.914
21848SOL     OW66984   5.879   4.818  10.219
21848SOL    HW166985   5.861   4.728  10.245
21848SOL    HW266986   5.807   4.869  10.257
21849SOL     OW66987   6.186   5.516  10.747
21849SOL    HW166988   6.102   5.499  10.790
21849SOL    HW266989   6.207   5.607  10.769
21850SOL     OW66990   6.170   4.705   9.451
21850SOL    HW166991   6.215   4.755   9.383
21850SOL    HW266992   6.205   4.739   9.533
21851SOL     OW66993   7.181   3.851  10.773
21851SOL    HW166994   7.208   3.929  10.724
21851SOL    HW266995   7.154   3.885  10.858
21852SOL     OW66996   5.714   4.372   9.873
21852SOL    HW166997   5.672   4.287   9.887
21852SOL    HW266998   5.699   4.419   9.955
21853SOL     OW66999   7.429   5.473   9.634
21853SOL    HW167000   7.497   5.451   9.697
21853SOL    HW267001   7.444   5.566   9.614
21854SOL     OW67002   5.645   5.313   9.424
21854SOL    HW167003   5.615   5.222   9.435
21854SOL    HW267004   5.608   5.360   9.499
21855SOL     OW67005   7.285   4.649   9.954
21855SOL    HW167006   7.349   4.594   9.910
21855SOL    HW267007   7.249   4.705   9.885
21856SOL     OW67008   7.233   4.827   9.741
21856SOL    HW167009   7.319   4.826   9.698
21856SOL    HW267010   7.241   4.894   9.809
21857SOL     OW67011   5.703   4.469  10.894
21857SOL    HW167012   5.790   4.511  10.889
21857SOL    HW267013   5.642   4.541  10.876
21858SOL     OW67014   6.203   5.119  10.047
21858SOL    HW167015   6.160   5.033  10.052
21858SOL    HW267016   6.186   5.148   9.957
21859SOL     OW67017   6.865   4.955  10.731
21859SOL    HW167018   6.892   4.888  10.669
21859SOL    HW267019   6.927   4.948  10.803
21860SOL     OW67020   6.412   3.732   9.834
21860SOL    HW167021   6.452   3.813   9.802
21860SOL    HW267022   6.318   3.749   9.832
21861SOL     OW67023   5.770   4.681  10.604
21861SOL    HW167024   5.856   4.644  10.585
21861SOL    HW267025   5.715   4.652  10.532
21862SOL     OW67026   7.120   4.726   9.509
21862SOL    HW167027   7.050   4.667   9.538
21862SOL    HW267028   7.158   4.759   9.590
21863SOL     OW67029   6.772   5.541  10.940
21863SOL    HW167030   6.771   5.603  10.867
21863SOL    HW267031   6.785   5.455  10.899
21864SOL     OW67032   5.930   3.969  11.163
21864SOL    HW167033   5.968   4.056  11.167
21864SOL    HW267034   5.835   3.983  11.170
21865SOL     OW67035   7.055   5.143  10.249
21865SOL    HW167036   6.988   5.160  10.316
21865SOL    HW267037   7.040   5.052  10.222
21866SOL     OW67038   7.235   5.494   9.881
21866SOL    HW167039   7.213   5.458   9.795
21866SOL    HW267040   7.221   5.420   9.941
21867SOL     OW67041   6.181   4.447   9.589
21867SOL    HW167042   6.174   4.528   9.538
21867SOL    HW267043   6.113   4.455   9.656
21868SOL     OW67044   6.867   4.104  10.249
21868SOL    HW167045   6.778   4.069  10.252
21868SOL    HW267046   6.918   4.046  10.305
21869SOL     OW67047   7.161   5.403   9.623
21869SOL    HW167048   7.254   5.421   9.611
21869SOL    HW267049   7.128   5.387   9.535
21870SOL     OW67050   6.382   4.337  10.754
21870SOL    HW167051   6.353   4.310  10.841
21870SOL    HW267052   6.349   4.269  10.696
21871SOL     OW67053   6.976   4.202  10.984
21871SOL    HW167054   6.981   4.245  11.070
21871SOL    HW267055   7.029   4.123  10.994
21872SOL     OW67056   6.533   4.609  10.898
21872SOL    HW167057   6.587   4.541  10.857
21872SOL    HW267058   6.485   4.648  10.825
21873SOL     OW67059   6.585   4.126  10.534
21873SOL    HW167060   6.493   4.140  10.560
21873SOL    HW267061   6.580   4.091  10.446
21874SOL     OW67062   6.643   4.420   9.732
21874SOL    HW167063   6.660   4.412   9.826
21874SOL    HW267064   6.557   4.379   9.719
21875SOL     OW67065   5.673   4.525  10.096
21875SOL    HW167066   5.752   4.531  10.151
21875SOL    HW267067   5.624   4.604  10.116
21876SOL     OW67068   5.709   5.603  10.892
21876SOL    HW167069   5.709   5.580  10.985
21876SOL    HW267070   5.631   5.559  10.857
21877SOL     OW67071   6.479   4.079   9.510
21877SOL    HW167072   6.527   4.134   9.449
21877SOL    HW267073   6.436   4.013   9.455
21878SOL     OW67074   7.287   4.298  11.144
21878SOL    HW167075   7.255   4.372  11.093
21878SOL    HW267076   7.310   4.232  11.078
21879SOL     OW67077   6.970   4.869   9.854
21879SOL    HW167078   7.044   4.854   9.795
21879SOL    HW267079   6.913   4.929   9.806
21880SOL     OW67080   6.138   3.891  10.207
21880SOL    HW167081   6.139   3.934  10.293
21880SOL    HW267082   6.130   3.962  10.144
21881SOL     OW67083   6.590   5.179   9.779
21881SOL    HW167084   6.558   5.249   9.723
21881SOL    HW267085   6.551   5.198   9.865
21882SOL     OW67086   5.941   5.541  10.183
21882SOL    HW167087   5.983   5.455  10.189
21882SOL    HW267088   6.011   5.604  10.200
21883SOL     OW67089   7.392   4.778  10.179
21883SOL    HW167090   7.343   4.751  10.101
21883SOL    HW267091   7.326   4.782  10.248
21884SOL     OW67092   6.808   5.265  10.824
21884SOL    HW167093   6.798   5.192  10.886
21884SOL    HW267094   6.743   5.247  10.756
21885SOL     OW67095   5.893   4.680   9.568
21885SOL    HW167096   5.966   4.704   9.512
21885SOL    HW267097   5.857   4.601   9.529
21886SOL     OW67098   7.073   4.480  10.027
21886SOL    HW167099   7.068   4.439  10.114
21886SOL    HW267100   7.153   4.533  10.030
21887SOL     OW67101   6.054   5.000  11.054
21887SOL    HW167102   6.029   5.006  10.962
21887SOL    HW267103   5.971   4.989  11.101
21888SOL     OW67104   6.720   5.496   9.545
21888SOL    HW167105   6.637   5.464   9.581
21888SOL    HW267106   6.740   5.435   9.474
21889SOL     OW67107   5.790   3.993  10.814
21889SOL    HW167108   5.708   4.042  10.799
21889SOL    HW267109   5.761   3.908  10.846
21890SOL     OW67110   7.223   5.112   9.410
21890SOL    HW167111   7.180   5.195   9.392
21890SOL    HW267112   7.157   5.046   9.388
21891SOL     OW67113   6.046   5.467   9.622
21891SOL    HW167114   6.097   5.515   9.688
21891SOL    HW267115   6.112   5.422   9.569
21892SOL     OW67116   6.983   3.827   9.757
21892SOL    HW167117   6.972   3.804   9.664
21892SOL    HW267118   7.078   3.830   9.769
21893SOL     OW67119   5.849   5.517  10.527
21893SOL    HW167120   5.890   5.436  10.558
21893SOL    HW267121   5.816   5.495  10.440
21894SOL     OW67122   6.530   5.423  10.199
21894SOL    HW167123   6.613   5.377  10.213
21894SOL    HW267124   6.486   5.375  10.129
21895SOL     OW67125   5.989   4.411   9.791
21895SOL    HW167126   6.007   4.317   9.803
21895SOL    HW267127   5.894   4.418   9.801
21896SOL     OW67128   7.101   3.950  11.029
21896SOL    HW167129   7.111   3.966  11.123
21896SOL    HW267130   7.032   3.883  11.023
21897SOL     OW67131   6.242   3.833   9.408
21897SOL    HW167132   6.297   3.755   9.417
21897SOL    HW267133   6.176   3.808   9.343
21898SOL     OW67134   6.353   4.002  11.071
21898SOL    HW167135   6.434   3.951  11.065
21898SOL    HW267136   6.302   3.959  11.140
21899SOL     OW67137   6.459   5.251  10.508
21899SOL    HW167138   6.442   5.214  10.421
21899SOL    HW267139   6.529   5.197  10.544
21900SOL     OW67140   6.920   4.313  10.739
21900SOL    HW167141   6.951   4.284  10.825
21900SOL    HW267142   6.955   4.401  10.729
21901SOL     OW67143   6.405   5.113  10.260
21901SOL    HW167144   6.490   5.103  10.217
21901SOL    HW267145   6.342   5.121  10.188
21902SOL     OW67146   6.518   4.235  10.202
21902SOL    HW167147   6.491   4.227  10.110
21902SOL    HW267148   6.543   4.147  10.228
21903SOL     OW67149   6.147   3.787   9.803
21903SOL    HW167150   6.064   3.786   9.852
21903SOL    HW267151   6.138   3.862   9.744
21904SOL     OW67152   7.019   4.933   9.350
21904SOL    HW167153   7.044   4.854   9.399
21904SOL    HW267154   6.930   4.952   9.378
21905SOL     OW67155   5.866   3.778   9.497
21905SOL    HW167156   5.909   3.843   9.442
21905SOL    HW267157   5.936   3.720   9.527
21906SOL     OW67158   6.534   3.974   9.763
21906SOL    HW167159   6.507   4.008   9.677
21906SOL    HW267160   6.628   3.992   9.767
21907SOL     OW67161   6.662   4.411  10.765
21907SOL    HW167162   6.593   4.345  10.763
21907SOL    HW267163   6.743   4.361  10.754
21908SOL     OW67164   6.795   5.307  10.112
21908SOL    HW167165   6.809   5.367  10.038
21908SOL    HW267166   6.873   5.319  10.167
21909SOL     OW67167   6.065   4.880  10.031
21909SOL    HW167168   6.001   4.860  10.099
21909SOL    HW267169   6.017   4.870   9.949
21910SOL     OW67170   6.844   5.517   9.927
21910SOL    HW167171   6.890   5.578   9.869
21910SOL    HW267172   6.769   5.567   9.960
21911SOL     OW67173   6.613   4.254   9.338
21911SOL    HW167174   6.568   4.335   9.317
21911SOL    HW267175   6.676   4.279   9.406
21912SOL     OW67176   5.682   4.270  10.708
21912SOL    HW167177   5.773   4.277  10.678
21912SOL    HW267178   5.672   4.341  10.771
21913SOL     OW67179   6.144   3.956  10.482
21913SOL    HW167180   6.181   3.873  10.513
21913SOL    HW267181   6.052   3.952  10.507
21914SOL     OW67182   6.455   4.182   9.942
21914SOL    HW167183   6.409   4.238   9.880
21914SOL    HW267184   6.477   4.103   9.893
21915SOL     OW67185   6.605   3.783  10.054
21915SOL    HW167186   6.545   3.782   9.980
21915SOL    HW267187   6.579   3.706  10.106
21916SOL     OW67188   7.024   4.882  10.161
21916SOL    HW167189   6.950   4.822  10.165
21916SOL    HW267190   7.044   4.891  10.068
21917SOL     OW67191   7.050   4.339  10.269
21917SOL    HW167192   6.989   4.265  10.270
21917SOL    HW267193   7.104   4.327  10.347
21918SOL     OW67194   7.426   4.529   9.707
21918SOL    HW167195   7.485   4.477   9.761
21918SOL    HW267196   7.400   4.471   9.636
21919SOL     OW67197   6.077   5.145   9.457
21919SOL    HW167198   6.005   5.113   9.511
21919SOL    HW267199   6.065   5.102   9.372
21920SOL     OW67200   7.267   4.994   9.947
21920SOL    HW167201   7.362   4.994   9.964
21920SOL    HW267202   7.240   5.084   9.968
21921SOL     OW67203   6.980   4.294   9.381
21921SOL    HW167204   6.916   4.274   9.449
21921SOL    HW267205   7.061   4.254   9.413
21922SOL     OW67206   6.121   3.983   9.617
21922SOL    HW167207   6.163   3.938   9.544
21922SOL    HW267208   6.089   4.065   9.579
21923SOL     OW67209   7.328   4.968  10.861
21923SOL    HW167210   7.416   4.932  10.847
21923SOL    HW267211   7.345   5.057  10.894
21924SOL     OW67212   6.637   5.089  10.653
21924SOL    HW167213   6.559   5.051  10.695
21924SOL    HW267214   6.710   5.038  10.687
21925SOL     OW67215   7.198   5.356  10.976
21925SOL    HW167216   7.185   5.389  10.887
21925SOL    HW267217   7.278   5.303  10.971
21926SOL     OW67218   6.731   4.951  10.412
21926SOL    HW167219   6.655   4.969  10.467
21926SOL    HW267220   6.704   4.979  10.325
21927SOL     OW67221   7.207   4.818  10.381
21927SOL    HW167222   7.196   4.882  10.452
21927SOL    HW267223   7.133   4.834  10.323
21928SOL     OW67224   6.505   3.811  10.699
21928SOL    HW167225   6.524   3.794  10.607
21928SOL    HW267226   6.585   3.851  10.733
21929SOL     OW67227   6.570   4.837  11.037
21929SOL    HW167228   6.479   4.854  11.060
21929SOL    HW267229   6.567   4.759  10.981
21930SOL     OW67230   6.300   4.790   9.681
21930SOL    HW167231   6.281   4.764   9.772
21930SOL    HW267232   6.377   4.739   9.657
21931SOL     OW67233   6.008   4.550  10.566
21931SOL    HW167234   6.078   4.557  10.632
21931SOL    HW267235   5.976   4.460  10.576
21932SOL     OW67236   6.847   4.091  10.598
21932SOL    HW167237   6.878   4.172  10.638
21932SOL    HW267238   6.758   4.110  10.571
21933SOL     OW67239   5.661   5.298  10.674
21933SOL    HW167240   5.624   5.358  10.610
21933SOL    HW267241   5.755   5.299  10.655
21934SOL     OW67242   5.922   4.847   9.797
21934SOL    HW167243   5.917   4.920   9.735
21934SOL    HW267244   5.918   4.768   9.742
21935SOL     OW67245   6.132   4.255  10.178
21935SOL    HW167246   6.142   4.310  10.101
21935SOL    HW267247   6.204   4.281  10.236
21936SOL     OW67248   6.833   5.072   9.710
21936SOL    HW167249   6.889   5.144   9.739
21936SOL    HW267250   6.745   5.098   9.737
21937SOL     OW67251   6.881   5.188  10.454
21937SOL    HW167252   6.930   5.188  10.536
21937SOL    HW267253   6.826   5.110  10.459
21938SOL     OW67254   7.162   4.340   9.797
21938SOL    HW167255   7.111   4.382   9.866
21938SOL    HW267256   7.180   4.410   9.734
21939SOL     OW67257   5.931   5.259  10.611
21939SOL    HW167258   5.919   5.209  10.530
21939SOL    HW267259   6.025   5.270  10.620
21940SOL     OW67260   6.003   4.475  10.915
21940SOL    HW167261   6.070   4.513  10.858
21940SOL    HW267262   6.026   4.382  10.920
21941SOL     OW67263   7.201   4.511  11.001
21941SOL    HW167264   7.114   4.550  10.992
21941SOL    HW267265   7.252   4.548  10.929
21942SOL     OW67266   6.585   3.859  11.070
21942SOL    HW167267   6.641   3.933  11.047
21942SOL    HW267268   6.634   3.782  11.041
21943SOL     OW67269   6.076   3.755  11.071
21943SOL    HW167270   6.029   3.707  11.003
21943SOL    HW267271   6.021   3.832  11.088
21944SOL     OW67272   6.185   4.593  10.354
21944SOL    HW167273   6.199   4.687  10.340
21944SOL    HW267274   6.115   4.588  10.418
21945SOL     OW67275   6.919   4.581  10.328
21945SOL    HW167276   6.833   4.565  10.289
21945SOL    HW267277   6.968   4.500  10.312
21946SOL     OW67278   6.789   4.250   9.572
21946SOL    HW167279   6.792   4.171   9.626
21946SOL    HW267280   6.743   4.314   9.626
21947SOL     OW67281   5.885   3.918  10.556
21947SOL    HW167282   5.844   3.947  10.637
21947SOL    HW267283   5.867   3.825  10.551
21948SOL     OW67284   5.640   5.035  10.581
21948SOL    HW167285   5.668   4.979  10.654
21948SOL    HW267286   5.637   5.123  10.618
21949SOL     OW67287   6.316   4.353  10.367
21949SOL    HW167288   6.385   4.344  10.302
21949SOL    HW267289   6.280   4.441  10.352
21950SOL     OW67290   7.331   4.684  11.176
21950SOL    HW167291   7.289   4.617  11.122
21950SOL    HW267292   7.266   4.704  11.244
21951SOL     OW67293   5.904   3.784   9.932
21951SOL    HW167294   5.873   3.873   9.949
21951SOL    HW267295   5.906   3.742  10.019
21952SOL     OW67296   7.217   4.106   9.666
21952SOL    HW167297   7.246   4.040   9.729
21952SOL    HW267298   7.190   4.180   9.719
21953SOL     OW67299   6.619   4.482  10.265
21953SOL    HW167300   6.605   4.498  10.358
21953SOL    HW267301   6.590   4.392  10.251
21954SOL     OW67302   6.569   5.289  11.034
21954SOL    HW167303   6.548   5.333  10.952
21954SOL    HW267304   6.612   5.208  11.008
21955SOL     OW67305   7.434   5.222  10.916
21955SOL    HW167306   7.455   5.251  10.827
21955SOL    HW267307   7.515   5.234  10.965
21956SOL     OW67308   5.936   4.637  11.126
21956SOL    HW167309   6.020   4.654  11.170
21956SOL    HW267310   5.958   4.577  11.055
21957SOL     OW67311   7.110   3.995   9.434
21957SOL    HW167312   7.047   3.930   9.465
21957SOL    HW267313   7.148   4.032   9.514
21958SOL     OW67314   6.877   4.548   9.340
21958SOL    HW167315   6.915   4.460   9.342
21958SOL    HW267316   6.906   4.584   9.256
21959SOL     OW67317   6.658   5.069  10.172
21959SOL    HW167318   6.663   4.996  10.109
21959SOL    HW267319   6.709   5.139  10.131
21960SOL     OW67320   5.895   4.534  10.258
21960SOL    HW167321   5.984   4.543  10.224
21960SOL    HW267322   5.891   4.444  10.291
21961SOL     OW67323   5.912   4.257  10.330
21961SOL    HW167324   5.873   4.171  10.314
21961SOL    HW267325   5.989   4.259  10.273
21962SOL     OW67326   6.721   4.092  11.000
21962SOL    HW167327   6.672   4.147  11.061
21962SOL    HW267328   6.805   4.137  10.990
21963SOL     OW67329   6.747   3.915  10.787
21963SOL    HW167330   6.733   3.980  10.856
21963SOL    HW267331   6.788   3.964  10.716
21964SOL     OW67332   5.607   5.035   9.496
21964SOL    HW167333   5.518   5.056   9.467
21964SOL    HW267334   5.600   4.947   9.534
21965SOL     OW67335   5.683   5.498  10.266
21965SOL    HW167336   5.645   5.425  10.215
21965SOL    HW267337   5.768   5.514  10.225
21966SOL     OW67338   6.076   5.300  10.215
21966SOL    HW167339   6.147   5.359  10.240
21966SOL    HW267340   6.116   5.238  10.155
21967SOL     OW67341   6.552   4.508  10.528
21967SOL    HW167342   6.606   4.491  10.605
21967SOL    HW267343   6.470   4.463  10.545
21968SOL     OW67344   5.617   4.271  10.432
21968SOL    HW167345   5.691   4.266  10.371
21968SOL    HW267346   5.658   4.270  10.518
21969SOL     OW67347   5.780   4.248  11.042
21969SOL    HW167348   5.812   4.192  10.970
21969SOL    HW267349   5.745   4.325  10.998
21970SOL     OW67350   6.969   4.653  10.965
21970SOL    HW167351   6.989   4.746  10.959
21970SOL    HW267352   6.961   4.624  10.874
21971SOL     OW67353   6.403   4.300   9.681
21971SOL    HW167354   6.406   4.225   9.621
21971SOL    HW267355   6.327   4.351   9.651
21972SOL     OW67356   7.221   4.326  10.486
21972SOL    HW167357   7.211   4.264  10.558
21972SOL    HW267358   7.310   4.309  10.453
21973SOL     OW67359   5.823   5.269  11.036
21973SOL    HW167360   5.798   5.325  11.109
21973SOL    HW267361   5.828   5.181  11.074
21974SOL     OW67362   6.310   4.163  10.560
21974SOL    HW167363   6.248   4.094  10.536
21974SOL    HW267364   6.300   4.228  10.490
21975SOL     OW67365   6.499   5.403  10.788
21975SOL    HW167366   6.481   5.357  10.707
21975SOL    HW267367   6.492   5.496  10.765
21976SOL     OW67368   6.045   4.218   9.509
21976SOL    HW167369   6.099   4.295   9.525
21976SOL    HW267370   5.959   4.253   9.485
21977SOL     OW67371   5.724   4.870  10.792
21977SOL    HW167372   5.727   4.827  10.877
21977SOL    HW267373   5.740   4.800  10.728
21978SOL     OW67374   6.902   4.767  10.526
21978SOL    HW167375   6.916   4.701  10.457
21978SOL    HW267376   6.842   4.830  10.486
21979SOL     OW67377   6.908   4.577   9.614
21979SOL    HW167378   6.832   4.549   9.663
21979SOL    HW267379   6.882   4.567   9.522
21980SOL     OW67380   7.378   5.452  10.478
21980SOL    HW167381   7.435   5.478  10.406
21980SOL    HW267382   7.341   5.368  10.450
21981SOL     OW67383   6.828   5.461  10.422
21981SOL    HW167384   6.909   5.484  10.378
21981SOL    HW267385   6.835   5.366  10.437
21982SOL     OW67386   5.678   4.989  10.315
21982SOL    HW167387   5.655   5.003  10.407
21982SOL    HW267388   5.608   4.933  10.281
21983SOL     OW67389   6.269   5.401  11.053
21983SOL    HW167390   6.203   5.470  11.041
21983SOL    HW267391   6.334   5.417  10.984
21984SOL     OW67392   7.322   3.889   9.816
21984SOL    HW167393   7.385   3.872   9.747
21984SOL    HW267394   7.301   3.803   9.851
21985SOL     OW67395   6.985   5.293   9.811
21985SOL    HW167396   7.036   5.326   9.737
21985SOL    HW267397   6.926   5.365   9.833
21986SOL     OW67398   5.720   5.528  11.152
21986SOL    HW167399   5.675   5.455  11.194
21986SOL    HW267400   5.769   5.570  11.223
21987SOL     OW67401   6.866   4.654   9.982
21987SOL    HW167402   6.940   4.594   9.990
21987SOL    HW267403   6.899   4.726   9.927
21988SOL     OW67404   6.381   5.004  10.728
21988SOL    HW167405   6.353   5.047  10.809
21988SOL    HW267406   6.309   5.020  10.667
21989SOL     OW67407   6.254   5.351   9.465
21989SOL    HW167408   6.266   5.368   9.372
21989SOL    HW267409   6.198   5.273   9.469
21990SOL     OW67410   7.203   5.450  10.707
21990SOL    HW167411   7.259   5.452  10.630
21990SOL    HW267412   7.189   5.542  10.728
21991SOL     OW67413   7.431   3.889  10.277
21991SOL    HW167414   7.458   3.801  10.252
21991SOL    HW267415   7.344   3.899  10.238
21992SOL     OW67416   5.837   4.033  10.021
21992SOL    HW167417   5.751   4.067   9.995
21992SOL    HW267418   5.835   4.034  10.116
21993SOL     OW67419   6.796   5.322   9.346
21993SOL    HW167420   6.784   5.230   9.372
21993SOL    HW267421   6.730   5.336   9.278
21994SOL     OW67422   6.408   4.733  10.688
21994SOL    HW167423   6.436   4.724  10.597
21994SOL    HW267424   6.400   4.828  10.701
21995SOL     OW67425   6.517   4.648   9.613
21995SOL    HW167426   6.573   4.678   9.541
21995SOL    HW267427   6.561   4.570   9.647
21996SOL     OW67428   7.072   5.362   9.361
21996SOL    HW167429   6.980   5.345   9.345
21996SOL    HW267430   7.112   5.366   9.274
21997SOL     OW67431   5.951   5.037  10.807
21997SOL    HW167432   5.941   5.108  10.744
21997SOL    HW267433   5.877   4.979  10.790
21998SOL     OW67434   7.191   5.011  10.588
21998SOL    HW167435   7.246   4.990  10.663
21998SOL    HW267436   7.129   5.076  10.621
21999SOL     OW67437   6.655   4.838  10.032
21999SOL    HW167438   6.578   4.791  10.063
21999SOL    HW267439   6.714   4.771   9.999
22000SOL     OW67440   6.616   3.969  10.275
22000SOL    HW167441   6.611   3.925  10.190
22000SOL    HW267442   6.607   3.899  10.339
22001SOL     OW67443   6.193   5.216   9.793
22001SOL    HW167444   6.244   5.166   9.730
22001SOL    HW267445   6.107   5.226   9.751
22002SOL     OW67446   7.323   4.111  10.695
22002SOL    HW167447   7.393   4.175  10.689
22002SOL    HW267448   7.349   4.041  10.635
22003SOL     OW67449   5.867   5.060   9.618
22003SOL    HW167450   5.781   5.056   9.576
22003SOL    HW267451   5.852   5.107   9.700
22004SOL     OW67452   5.707   4.774  11.052
22004SOL    HW167453   5.628   4.742  11.095
22004SOL    HW267454   5.777   4.718  11.086
22005SOL     OW67455   6.263   3.915  10.812
22005SOL    HW167456   6.346   3.894  10.769
22005SOL    HW267457   6.289   3.953  10.896
22006SOL     OW67458   5.652   4.046   9.342
22006SOL    HW167459   5.566   4.027   9.304
22006SOL    HW267460   5.681   4.125   9.298
22007SOL     OW67461   7.006   4.580  10.704
22007SOL    HW167462   6.954   4.639  10.650
22007SOL    HW267463   7.093   4.582  10.665
22008SOL     OW67464   5.635   3.881   9.600
22008SOL    HW167465   5.612   3.947   9.534
22008SOL    HW267466   5.722   3.851   9.573
22009SOL     OW67467   6.760   5.057   9.426
22009SOL    HW167468   6.665   5.041   9.420
22009SOL    HW267469   6.779   5.048   9.520
22010SOL     OW67470   6.210   4.552  10.750
22010SOL    HW167471   6.267   4.627  10.733
22010SOL    HW267472   6.270   4.477  10.752
22011SOL     OW67473   7.067   5.520  10.298
22011SOL    HW167474   7.090   5.586  10.233
22011SOL    HW267475   7.148   5.473  10.315
22012SOL     OW67476   6.310   4.274  11.006
22012SOL    HW167477   6.353   4.331  11.070
22012SOL    HW267478   6.324   4.186  11.040
22013SOL     OW67479   7.060   4.912  10.936
22013SOL    HW167480   7.050   4.933  11.029
22013SOL    HW267481   7.151   4.935  10.915
22014SOL     OW67482   5.952   5.467  10.883
22014SOL    HW167483   5.871   5.514  10.861
22014SOL    HW267484   5.923   5.384  10.920
22015SOL     OW67485   7.245   4.601  10.564
22015SOL    HW167486   7.241   4.516  10.521
22015SOL    HW267487   7.235   4.664  10.493
22016SOL     OW67488   6.805   4.044   9.769
22016SOL    HW167489   6.864   3.969   9.764
22016SOL    HW267490   6.837   4.095   9.844
22017SOL     OW67491   6.167   4.461   9.996
22017SOL    HW167492   6.210   4.543   9.972
22017SOL    HW267493   6.106   4.445   9.923
22018SOL     OW67494   7.331   4.087  10.969
22018SOL    HW167495   7.325   4.104  10.875
22018SOL    HW267496   7.256   4.031  10.988
22019SOL     OW67497   7.344   4.652  10.816
22019SOL    HW167498   7.325   4.745  10.829
22019SOL    HW267499   7.319   4.635  10.725
22020SOL     OW67500   6.475   5.095   9.371
22020SOL    HW167501   6.417   5.118   9.444
22020SOL    HW267502   6.471   5.171   9.313
22021SOL     OW67503   6.256   5.502  10.254
22021SOL    HW167504   6.235   5.593  10.229
22021SOL    HW267505   6.350   5.494  10.237
22022SOL     OW67506   6.456   4.702  10.168
22022SOL    HW167507   6.503   4.625  10.201
22022SOL    HW267508   6.416   4.741  10.246
22023SOL     OW67509   6.675   4.723   9.407
22023SOL    HW167510   6.643   4.767   9.328
22023SOL    HW267511   6.741   4.661   9.374
22024SOL     OW67512   7.427   5.284  10.151
22024SOL    HW167513   7.350   5.274  10.096
22024SOL    HW267514   7.418   5.217  10.219
22025SOL     OW67515   5.797   5.014  11.154
22025SOL    HW167516   5.764   4.936  11.109
22025SOL    HW267517   5.736   5.028  11.226
22026SOL     OW67518   5.679   4.962   9.974
22026SOL    HW167519   5.670   4.901  10.048
22026SOL    HW267520   5.737   4.917   9.913
22027SOL     OW67521   6.277   5.132  10.950
22027SOL    HW167522   6.194   5.094  10.979
22027SOL    HW267523   6.274   5.223  10.982
22028SOL     OW67524   7.399   3.900  10.547
22028SOL    HW167525   7.397   3.805  10.558
22028SOL    HW267526   7.410   3.913  10.453
22029SOL     OW67527   6.030   4.149   9.847
22029SOL    HW167528   6.047   4.087   9.777
22029SOL    HW267529   5.965   4.105   9.902
22030SOL     OW67530   7.276   5.211  10.402
22030SOL    HW167531   7.200   5.192  10.346
22030SOL    HW267532   7.275   5.142  10.468
22031SOL     OW67533   5.931   4.289  10.604
22031SOL    HW167534   5.983   4.226  10.653
22031SOL    HW267535   5.940   4.262  10.513
22032SOL     OW67536   6.418   5.306   9.981
22032SOL    HW167537   6.394   5.372   9.915
22032SOL    HW267538   6.344   5.245   9.981
22033SOL     OW67539   7.010   3.952  10.426
22033SOL    HW167540   7.012   3.861  10.456
22033SOL    HW267541   6.961   3.998  10.494
22034SOL     OW67542   6.594   3.738  10.439
22034SOL    HW167543   6.540   3.676  10.390
22034SOL    HW267544   6.680   3.698  10.443
22035SOL     OW67545   6.358   5.060   9.639
22035SOL    HW167546   6.327   4.969   9.641
22035SOL    HW267547   6.445   5.057   9.678
22036SOL     OW67548   6.205   5.283  10.602
22036SOL    HW167549   6.206   5.365  10.652
22036SOL    HW267550   6.292   5.278  10.563
22037SOL     OW67551   6.945   3.774   9.489
22037SOL    HW167552   6.978   3.710   9.426
22037SOL    HW267553   6.857   3.745   9.510
22038SOL     OW67554   6.894   4.191   9.988
22038SOL    HW167555   6.839   4.269   9.984
22038SOL    HW267556   6.882   4.157  10.077
22039SOL     OW67557   7.171   3.916  10.199
22039SOL    HW167558   7.116   3.944  10.272
22039SOL    HW267559   7.171   3.991  10.139
22040SOL     OW67560   5.630   4.788   9.631
22040SOL    HW167561   5.721   4.775   9.602
22040SOL    HW267562   5.598   4.700   9.651
22041SOL     OW67563   6.475   5.392   9.645
22041SOL    HW167564   6.400   5.373   9.588
22041SOL    HW267565   6.445   5.463   9.701
22042SOL     OW67566   5.805   4.343  11.305
22042SOL    HW167567   5.714   4.340  11.336
22042SOL    HW267568   5.799   4.325  11.212
22043SOL     OW67569   5.808   4.013  12.166
22043SOL    HW167570   5.840   3.973  12.247
22043SOL    HW267571   5.722   3.975  12.153
22044SOL     OW67572   5.580   4.108  11.813
22044SOL    HW167573   5.499   4.137  11.855
22044SOL    HW267574   5.554   4.032  11.761
22045SOL     OW67575   6.130   4.977  12.330
22045SOL    HW167576   6.046   5.004  12.292
22045SOL    HW267577   6.165   5.058  12.368
22046SOL     OW67578   7.169   5.243  11.884
22046SOL    HW167579   7.125   5.218  11.965
22046SOL    HW267580   7.099   5.246  11.819
22047SOL     OW67581   6.728   4.418  11.865
22047SOL    HW167582   6.770   4.503  11.854
22047SOL    HW267583   6.671   4.429  11.941
22048SOL     OW67584   7.362   4.319  11.400
22048SOL    HW167585   7.336   4.321  11.308
22048SOL    HW267586   7.330   4.235  11.433
22049SOL     OW67587   6.352   4.859  12.238
22049SOL    HW167588   6.267   4.886  12.274
22049SOL    HW267589   6.381   4.934  12.186
22050SOL     OW67590   6.273   4.715  11.817
22050SOL    HW167591   6.338   4.713  11.887
22050SOL    HW267592   6.204   4.773  11.850
22051SOL     OW67593   5.918   5.135  12.231
22051SOL    HW167594   5.839   5.099  12.190
22051SOL    HW267595   5.958   5.188  12.162
22052SOL     OW67596   7.189   4.166  11.923
22052SOL    HW167597   7.145   4.193  11.842
22052SOL    HW267598   7.219   4.248  11.962
22053SOL     OW67599   5.804   5.444  11.636
22053SOL    HW167600   5.829   5.518  11.691
22053SOL    HW267601   5.876   5.434  11.574
22054SOL     OW67602   5.825   5.176  11.715
22054SOL    HW167603   5.798   5.268  11.711
22054SOL    HW267604   5.763   5.136  11.776
22055SOL     OW67605   5.865   4.818  12.070
22055SOL    HW167606   5.860   4.727  12.101
22055SOL    HW267607   5.803   4.865  12.126
22056SOL     OW67608   6.162   4.709  11.316
22056SOL    HW167609   6.210   4.755  11.247
22056SOL    HW267610   6.201   4.741  11.398
22057SOL     OW67611   5.711   4.378  11.736
22057SOL    HW167612   5.674   4.291  11.755
22057SOL    HW267613   5.699   4.427  11.818
22058SOL     OW67614   7.429   5.473  11.499
22058SOL    HW167615   7.499   5.451  11.561
22058SOL    HW267616   7.445   5.565  11.478
22059SOL     OW67617   5.638   5.311  11.290
22059SOL    HW167618   5.615   5.220  11.306
22059SOL    HW267619   5.605   5.359  11.366
22060SOL     OW67620   7.273   4.644  11.819
22060SOL    HW167621   7.354   4.600  11.792
22060SOL    HW267622   7.248   4.697  11.744
22061SOL     OW67623   7.234   4.827  11.606
22061SOL    HW167624   7.320   4.827  11.563
22061SOL    HW267625   7.243   4.892  11.676
22062SOL     OW67626   5.755   4.488   0.220
22062SOL    HW167627   5.733   4.445   0.303
22062SOL    HW267628   5.673   4.530   0.192
22063SOL     OW67629   6.196   5.120  11.901
22063SOL    HW167630   6.153   5.035  11.907
22063SOL    HW267631   6.181   5.148  11.811
22064SOL     OW67632   6.411   3.735  11.692
22064SOL    HW167633   6.450   3.818  11.662
22064SOL    HW267634   6.317   3.752  11.692
22065SOL     OW67635   5.782   4.729  12.423
22065SOL    HW167636   5.859   4.672  12.416
22065SOL    HW267637   5.708   4.669  12.431
22066SOL     OW67638   7.118   4.727  11.373
22066SOL    HW167639   7.049   4.668  11.404
22066SOL    HW267640   7.159   4.760  11.453
22067SOL     OW67641   7.056   5.139  12.116
22067SOL    HW167642   6.988   5.155  12.182
22067SOL    HW267643   7.041   5.050  12.087
22068SOL     OW67644   7.233   5.493  11.745
22068SOL    HW167645   7.214   5.455  11.659
22068SOL    HW267646   7.225   5.420  11.806
22069SOL     OW67647   6.180   4.442  11.449
22069SOL    HW167648   6.177   4.525  11.401
22069SOL    HW267649   6.114   4.451  11.517
22070SOL     OW67650   6.854   4.063  12.110
22070SOL    HW167651   6.767   4.026  12.094
22070SOL    HW267652   6.857   4.078  12.205
22071SOL     OW67653   7.162   5.398  11.486
22071SOL    HW167654   7.255   5.419  11.476
22071SOL    HW267655   7.131   5.383  11.397
22072SOL     OW67656   6.593   4.077  12.390
22072SOL    HW167657   6.589   4.150  12.451
22072SOL    HW267658   6.504   4.068  12.357
22073SOL     OW67659   6.643   4.419  11.594
22073SOL    HW167660   6.660   4.411  11.687
22073SOL    HW267661   6.558   4.377  11.582
22074SOL     OW67662   5.675   4.541  11.955
22074SOL    HW167663   5.756   4.539  12.005
22074SOL    HW267664   5.627   4.617  11.988
22075SOL     OW67665   6.483   4.078  11.370
22075SOL    HW167666   6.529   4.138  11.311
22075SOL    HW267667   6.459   4.003  11.315
22076SOL     OW67668   6.967   4.865  11.709
22076SOL    HW167669   7.046   4.854  11.656
22076SOL    HW267670   6.914   4.927  11.660
22077SOL     OW67671   6.141   3.905  12.065
22077SOL    HW167672   6.142   3.965  12.140
22077SOL    HW267673   6.132   3.962  11.989
22078SOL     OW67674   6.586   5.175  11.641
22078SOL    HW167675   6.555   5.247  11.587
22078SOL    HW267676   6.554   5.195  11.729
22079SOL     OW67677   5.942   5.541  12.042
22079SOL    HW167678   5.985   5.456  12.050
22079SOL    HW267679   6.011   5.604  12.063
22080SOL     OW67680   7.383   4.775  12.050
22080SOL    HW167681   7.332   4.757  11.971
22080SOL    HW267682   7.318   4.782  12.120
22081SOL     OW67683   5.894   4.683  11.429
22081SOL    HW167684   5.975   4.705  11.383
22081SOL    HW267685   5.863   4.603  11.387
22082SOL     OW67686   7.070   4.472  11.893
22082SOL    HW167687   7.068   4.439  11.982
22082SOL    HW267688   7.145   4.532  11.891
22083SOL     OW67689   6.717   5.498  11.404
22083SOL    HW167690   6.636   5.463  11.442
22083SOL    HW267691   6.739   5.436  11.334
22084SOL     OW67692   7.221   5.110  11.272
22084SOL    HW167693   7.180   5.195  11.254
22084SOL    HW267694   7.155   5.046  11.248
22085SOL     OW67695   6.047   5.465  11.486
22085SOL    HW167696   6.098   5.516  11.550
22085SOL    HW267697   6.114   5.424  11.430
22086SOL     OW67698   6.984   3.829  11.619
22086SOL    HW167699   6.969   3.805  11.528
22086SOL    HW267700   7.079   3.824  11.629
22087SOL     OW67701   5.828   5.503  12.388
22087SOL    HW167702   5.826   5.423  12.441
22087SOL    HW267703   5.785   5.478  12.306
22088SOL     OW67704   6.535   5.418  12.067
22088SOL    HW167705   6.619   5.372  12.071
22088SOL    HW267706   6.485   5.372  11.999
22089SOL     OW67707   5.988   4.413  11.650
22089SOL    HW167708   6.004   4.319  11.663
22089SOL    HW267709   5.893   4.423  11.663
22090SOL     OW67710   6.242   3.835  11.271
22090SOL    HW167711   6.298   3.758  11.286
22090SOL    HW267712   6.180   3.807  11.204
22091SOL     OW67713   6.394   5.088  12.103
22091SOL    HW167714   6.482   5.096  12.066
22091SOL    HW267715   6.336   5.104  12.029
22092SOL     OW67716   6.523   4.234  12.064
22092SOL    HW167717   6.495   4.224  11.973
22092SOL    HW267718   6.544   4.145  12.092
22093SOL     OW67719   6.145   3.788  11.666
22093SOL    HW167720   6.063   3.786  11.714
22093SOL    HW267721   6.136   3.863  11.606
22094SOL     OW67722   7.019   4.932  11.210
22094SOL    HW167723   7.045   4.855  11.261
22094SOL    HW267724   6.931   4.952  11.242
22095SOL     OW67725   5.868   3.774  11.358
22095SOL    HW167726   5.917   3.838  11.306
22095SOL    HW267727   5.936   3.717  11.395
22096SOL     OW67728   6.532   3.976  11.623
22096SOL    HW167729   6.506   4.011  11.537
22096SOL    HW267730   6.626   3.992  11.628
22097SOL     OW67731   6.798   5.312  11.975
22097SOL    HW167732   6.810   5.370  11.900
22097SOL    HW267733   6.879   5.320  12.025
22098SOL     OW67734   6.061   4.879  11.892
22098SOL    HW167735   5.997   4.858  11.959
22098SOL    HW267736   6.014   4.868  11.809
22099SOL     OW67737   6.844   5.516  11.786
22099SOL    HW167738   6.894   5.576  11.731
22099SOL    HW267739   6.773   5.570  11.821
22100SOL     OW67740   6.612   4.254  11.200
22100SOL    HW167741   6.567   4.336  11.178
22100SOL    HW267742   6.679   4.281  11.264
22101SOL     OW67743   6.149   3.929  12.359
22101SOL    HW167744   6.162   3.845  12.315
22101SOL    HW267745   6.055   3.933  12.375
22102SOL     OW67746   6.456   4.183  11.804
22102SOL    HW167747   6.410   4.239  11.741
22102SOL    HW267748   6.477   4.104  11.755
22103SOL     OW67749   6.605   3.761  11.900
22103SOL    HW167750   6.543   3.759  11.828
22103SOL    HW267751   6.581   3.687  11.956
22104SOL     OW67752   7.023   4.881  12.023
22104SOL    HW167753   6.952   4.819  12.013
22104SOL    HW267754   7.057   4.894  11.934
22105SOL     OW67755   7.038   4.338  12.149
22105SOL    HW167756   6.969   4.282  12.184
22105SOL    HW267757   7.108   4.334  12.214
22106SOL     OW67758   7.422   4.529  11.566
22106SOL    HW167759   7.485   4.480  11.619
22106SOL    HW267760   7.399   4.468  11.496
22107SOL     OW67761   6.077   5.146  11.320
22107SOL    HW167762   6.004   5.114  11.373
22107SOL    HW267763   6.071   5.098  11.238
22108SOL     OW67764   7.265   4.987  11.820
22108SOL    HW167765   7.360   4.983  11.835
22108SOL    HW267766   7.242   5.078  11.838
22109SOL     OW67767   6.980   4.297  11.240
22109SOL    HW167768   6.919   4.274  11.311
22109SOL    HW267769   7.065   4.264  11.270
22110SOL     OW67770   6.117   3.983  11.478
22110SOL    HW167771   6.164   3.939  11.408
22110SOL    HW267772   6.087   4.065  11.439
22111SOL     OW67773   6.692   4.964  12.286
22111SOL    HW167774   6.607   4.976  12.327
22111SOL    HW267775   6.679   4.993  12.195
22112SOL     OW67776   7.188   4.817  12.243
22112SOL    HW167777   7.153   4.854  12.325
22112SOL    HW267778   7.122   4.839  12.177
22113SOL     OW67779   6.299   4.788  11.545
22113SOL    HW167780   6.282   4.763  11.636
22113SOL    HW267781   6.375   4.736  11.519
22114SOL     OW67782   6.017   4.553  12.443
22114SOL    HW167783   6.065   4.585  12.520
22114SOL    HW267784   5.994   4.463  12.465
22115SOL     OW67785   6.862   4.112  12.373
22115SOL    HW167786   6.888   4.171  12.444
22115SOL    HW267787   6.767   4.104  12.381
22116SOL     OW67788   5.916   4.849  11.659
22116SOL    HW167789   5.914   4.922  11.597
22116SOL    HW267790   5.915   4.770  11.604
22117SOL     OW67791   6.128   4.247  12.037
22117SOL    HW167792   6.141   4.305  11.962
22117SOL    HW267793   6.193   4.276  12.101
22118SOL     OW67794   6.832   5.073  11.568
22118SOL    HW167795   6.888   5.144  11.598
22118SOL    HW267796   6.744   5.098  11.598
22119SOL     OW67797   6.874   5.171  12.318
22119SOL    HW167798   6.930   5.162  12.395
22119SOL    HW267799   6.815   5.096  12.323
22120SOL     OW67800   7.169   4.326  11.675
22120SOL    HW167801   7.115   4.382  11.730
22120SOL    HW267802   7.209   4.385  11.612
22121SOL     OW67803   5.955   5.251  12.473
22121SOL    HW167804   5.925   5.200  12.398
22121SOL    HW267805   6.010   5.319  12.435
22122SOL     OW67806   6.170   4.594  12.215
22122SOL    HW167807   6.184   4.688  12.206
22122SOL    HW267808   6.112   4.585  12.291
22123SOL     OW67809   6.909   4.584  12.169
22123SOL    HW167810   6.824   4.560  12.133
22123SOL    HW267811   6.961   4.504  12.164
22124SOL     OW67812   6.790   4.250  11.433
22124SOL    HW167813   6.792   4.170  11.487
22124SOL    HW267814   6.744   4.314  11.488
22125SOL     OW67815   5.883   3.905  12.409
22125SOL    HW167816   5.852   3.930  12.496
22125SOL    HW267817   5.868   3.810  12.404
22126SOL     OW67818   5.651   5.045  12.431
22126SOL    HW167819   5.677   4.963  12.472
22126SOL    HW267820   5.650   5.109  12.502
22127SOL     OW67821   6.303   4.352  12.223
22127SOL    HW167822   6.378   4.347  12.163
22127SOL    HW267823   6.269   4.440  12.211
22128SOL     OW67824   5.902   3.785  11.793
22128SOL    HW167825   5.871   3.873  11.812
22128SOL    HW267826   5.906   3.742  11.878
22129SOL     OW67827   7.213   4.098  11.527
22129SOL    HW167828   7.246   4.032  11.588
22129SOL    HW267829   7.188   4.172  11.583
22130SOL     OW67830   6.618   4.477  12.141
22130SOL    HW167831   6.607   4.486  12.235
22130SOL    HW267832   6.589   4.388  12.121
22131SOL     OW67833   7.105   3.994  11.294
22131SOL    HW167834   7.044   3.927  11.326
22131SOL    HW267835   7.144   4.030  11.374
22132SOL     OW67836   6.875   4.549  11.200
22132SOL    HW167837   6.915   4.462  11.202
22132SOL    HW267838   6.905   4.587  11.117
22133SOL     OW67839   6.658   5.072  12.032
22133SOL    HW167840   6.665   4.999  11.971
22133SOL    HW267841   6.713   5.141  11.994
22134SOL     OW67842   5.897   4.540  12.116
22134SOL    HW167843   5.992   4.551  12.108
22134SOL    HW267844   5.886   4.449  12.143
22135SOL     OW67845   5.891   4.268  12.164
22135SOL    HW167846   5.863   4.176  12.166
22135SOL    HW267847   5.975   4.266  12.118
22136SOL     OW67848   6.761   3.947   0.143
22136SOL    HW167849   6.736   4.005   0.215
22136SOL    HW267850   6.762   4.003   0.066
22137SOL     OW67851   5.606   5.035  11.358
22137SOL    HW167852   5.517   5.055  11.329
22137SOL    HW267853   5.599   4.948  11.397
22138SOL     OW67854   5.684   5.499  12.123
22138SOL    HW167855   5.651   5.423  12.075
22138SOL    HW267856   5.771   5.515  12.086
22139SOL     OW67857   6.081   5.304  12.077
22139SOL    HW167858   6.154   5.362  12.101
22139SOL    HW267859   6.121   5.241  12.016
22140SOL     OW67860   6.557   4.507  12.415
22140SOL    HW167861   6.598   4.580  12.460
22140SOL    HW267862   6.463   4.522  12.424
22141SOL     OW67863   5.657   4.298  12.310
22141SOL    HW167864   5.726   4.299  12.245
22141SOL    HW267865   5.643   4.205  12.329
22142SOL     OW67866   6.403   4.297  11.542
22142SOL    HW167867   6.408   4.224  11.481
22142SOL    HW267868   6.328   4.349  11.511
22143SOL     OW67869   7.234   4.322  12.331
22143SOL    HW167870   7.234   4.277  12.416
22143SOL    HW267871   7.323   4.313  12.299
22144SOL     OW67872   6.324   4.146  12.407
22144SOL    HW167873   6.248   4.089  12.396
22144SOL    HW267874   6.305   4.223  12.353
22145SOL     OW67875   6.472   5.374   0.038
22145SOL    HW167876   6.478   5.433  -0.037
22145SOL    HW267877   6.524   5.416   0.106
22146SOL     OW67878   6.043   4.216  11.360
22146SOL    HW167879   6.101   4.288  11.381
22146SOL    HW267880   5.957   4.257  11.347
22147SOL     OW67881   6.867   4.761  12.370
22147SOL    HW167882   6.890   4.704  12.296
22147SOL    HW267883   6.816   4.832  12.331
22148SOL     OW67884   6.907   4.576  11.474
22148SOL    HW167885   6.829   4.548  11.522
22148SOL    HW267886   6.883   4.566  11.382
22149SOL     OW67887   7.338   5.475  12.299
22149SOL    HW167888   7.413   5.492  12.241
22149SOL    HW267889   7.326   5.380  12.295
22150SOL     OW67890   6.835   5.442  12.286
22150SOL    HW167891   6.912   5.479  12.243
22150SOL    HW267892   6.849   5.348  12.285
22151SOL     OW67893   5.668   5.010  12.162
22151SOL    HW167894   5.655   5.022  12.256
22151SOL    HW267895   5.608   4.940  12.139
22152SOL     OW67896   7.321   3.889  11.680
22152SOL    HW167897   7.385   3.874  11.610
22152SOL    HW267898   7.301   3.802  11.713
22153SOL     OW67899   6.983   5.291  11.672
22153SOL    HW167900   7.038   5.323  11.601
22153SOL    HW267901   6.928   5.366  11.695
22154SOL     OW67902   6.866   4.654  11.843
22154SOL    HW167903   6.939   4.593  11.851
22154SOL    HW267904   6.898   4.724  11.787
22155SOL     OW67905   6.254   5.352  11.328
22155SOL    HW167906   6.268   5.368  11.234
22155SOL    HW267907   6.198   5.274  11.331
22156SOL     OW67908   7.208   5.518   0.036
22156SOL    HW167909   7.260   5.504  -0.043
22156SOL    HW267910   7.247   5.595   0.076
22157SOL     OW67911   7.405   3.871  12.148
22157SOL    HW167912   7.468   3.803  12.120
22157SOL    HW267913   7.324   3.823  12.163
22158SOL     OW67914   5.837   4.033  11.882
22158SOL    HW167915   5.751   4.067  11.857
22158SOL    HW267916   5.838   4.037  11.978
22159SOL     OW67917   6.794   5.322  11.208
22159SOL    HW167918   6.783   5.230  11.232
22159SOL    HW267919   6.729   5.336  11.139
22160SOL     OW67920   6.377   4.737  12.487
22160SOL    HW167921   6.376   4.780  12.402
22160SOL    HW267922   6.457   4.769  12.530
22161SOL     OW67923   6.512   4.642  11.473
22161SOL    HW167924   6.567   4.673  11.401
22161SOL    HW267925   6.559   4.568  11.510
22162SOL     OW67926   7.073   5.360  11.222
22162SOL    HW167927   6.980   5.345  11.205
22162SOL    HW267928   7.113   5.364  11.136
22163SOL     OW67929   6.655   4.840  11.895
22163SOL    HW167930   6.579   4.789  11.926
22163SOL    HW267931   6.715   4.774  11.860
22164SOL     OW67932   6.607   3.955  12.101
22164SOL    HW167933   6.600   3.895  12.027
22164SOL    HW267934   6.592   3.899  12.178
22165SOL     OW67935   6.192   5.219  11.649
22165SOL    HW167936   6.245   5.166  11.589
22165SOL    HW267937   6.111   5.236  11.601
22166SOL     OW67938   7.357   4.164   0.040
22166SOL    HW167939   7.452   4.172   0.052
22166SOL    HW267940   7.344   4.073   0.014
22167SOL     OW67941   5.864   5.060  11.478
22167SOL    HW167942   5.777   5.057  11.438
22167SOL    HW267943   5.852   5.107  11.560
22168SOL     OW67944   5.663   4.048  11.195
22168SOL    HW167945   5.584   4.028  11.146
22168SOL    HW267946   5.696   4.129  11.158
22169SOL     OW67947   5.639   3.879  11.464
22169SOL    HW167948   5.623   3.952  11.404
22169SOL    HW267949   5.725   3.846  11.438
22170SOL     OW67950   6.762   5.054  11.289
22170SOL    HW167951   6.669   5.033  11.285
22170SOL    HW267952   6.784   5.051  11.382
22171SOL     OW67953   7.073   5.512  12.160
22171SOL    HW167954   7.095   5.582  12.099
22171SOL    HW267955   7.157   5.490  12.201
22172SOL     OW67956   7.255   4.595  12.405
22172SOL    HW167957   7.240   4.510  12.364
22172SOL    HW267958   7.236   4.659  12.337
22173SOL     OW67959   6.803   4.043  11.630
22173SOL    HW167960   6.864   3.970  11.623
22173SOL    HW267961   6.832   4.092  11.708
22174SOL     OW67962   6.170   4.455  11.855
22174SOL    HW167963   6.211   4.539  11.836
22174SOL    HW267964   6.107   4.443  11.784
22175SOL     OW67965   7.411   4.628   0.120
22175SOL    HW167966   7.375   4.701   0.171
22175SOL    HW267967   7.348   4.615   0.049
22176SOL     OW67968   6.465   5.091  11.227
22176SOL    HW167969   6.415   5.122  11.302
22176SOL    HW267970   6.473   5.167  11.170
22177SOL     OW67971   6.255   5.516  12.126
22177SOL    HW167972   6.237   5.604  12.092
22177SOL    HW267973   6.348   5.503  12.108
22178SOL     OW67974   6.459   4.695  12.030
22178SOL    HW167975   6.506   4.621  12.067
22178SOL    HW267976   6.421   4.740  12.107
22179SOL     OW67977   6.667   4.715  11.265
22179SOL    HW167978   6.641   4.765  11.187
22179SOL    HW267979   6.738   4.659  11.235
22180SOL     OW67980   7.437   5.282  12.016
22180SOL    HW167981   7.355   5.271  11.969
22180SOL    HW267982   7.437   5.213  12.082
22181SOL     OW67983   5.680   4.957  11.836
22181SOL    HW167984   5.690   4.910  11.918
22181SOL    HW267985   5.742   4.916  11.776
22182SOL     OW67986   7.396   3.900  12.430
22182SOL    HW167987   7.454   3.825  12.441
22182SOL    HW267988   7.399   3.918  12.336
22183SOL     OW67989   6.022   4.151  11.703
22183SOL    HW167990   6.045   4.084  11.638
22183SOL    HW267991   5.962   4.106  11.763
22184SOL     OW67992   7.290   5.212  12.276
22184SOL    HW167993   7.211   5.176  12.235
22184SOL    HW267994   7.310   5.152  12.347
22185SOL     OW67995   6.413   5.313  11.846
22185SOL    HW167996   6.396   5.378  11.779
22185SOL    HW267997   6.339   5.252  11.840
22186SOL     OW67998   7.085   3.965  12.286
22186SOL    HW167999   7.123   3.903  12.347
22186SOL    HW268000   7.017   4.010  12.336
22187SOL     OW68001   6.591   3.712  12.296
22187SOL    HW168002   6.555   3.659  12.225
22187SOL    HW268003   6.683   3.686  12.301
22188SOL     OW68004   6.358   5.059  11.502
22188SOL    HW168005   6.331   4.967  11.505
22188SOL    HW268006   6.445   5.059  11.543
22189SOL     OW68007   6.944   3.772  11.353
22189SOL    HW168008   6.981   3.706  11.294
22189SOL    HW268009   6.855   3.742  11.371
22190SOL     OW68010   6.880   4.180  11.859
22190SOL    HW168011   6.838   4.265  11.847
22190SOL    HW268012   6.852   4.152  11.946
22191SOL     OW68013   5.629   4.786  11.487
22191SOL    HW168014   5.721   4.775  11.463
22191SOL    HW268015   5.599   4.698  11.508
22192SOL     OW68016   6.474   5.390  11.508
22192SOL    HW168017   6.399   5.373  11.451
22192SOL    HW268018   6.446   5.463  11.564
22193SOL     OW68019   5.859   6.185   0.025
22193SOL    HW168020   5.817   6.235   0.095
22193SOL    HW268021   5.791   6.175  -0.042
22194SOL     OW68022   5.810   5.869   0.991
22194SOL    HW168023   5.838   5.837   1.077
22194SOL    HW268024   5.722   5.834   0.980
22195SOL     OW68025   5.577   5.972   0.637
22195SOL    HW168026   5.501   6.003   0.686
22195SOL    HW268027   5.547   5.891   0.595
22196SOL     OW68028   6.157   6.888   1.191
22196SOL    HW168029   6.071   6.893   1.148
22196SOL    HW268030   6.174   6.977   1.221
22197SOL     OW68031   7.162   7.106   0.714
22197SOL    HW168032   7.119   7.079   0.795
22197SOL    HW268033   7.093   7.107   0.648
22198SOL     OW68034   6.713   6.293   0.694
22198SOL    HW168035   6.765   6.373   0.685
22198SOL    HW268036   6.672   6.301   0.780
22199SOL     OW68037   7.299   6.202   0.273
22199SOL    HW168038   7.313   6.208   0.178
22199SOL    HW268039   7.280   6.109   0.288
22200SOL     OW68040   6.321   6.719   1.045
22200SOL    HW168041   6.258   6.757   1.107
22200SOL    HW268042   6.364   6.795   1.005
22201SOL     OW68043   6.469   6.339   1.831
22201SOL    HW168044   6.459   6.406   1.898
22201SOL    HW268045   6.488   6.387   1.751
22202SOL     OW68046   6.288   6.592   0.643
22202SOL    HW168047   6.346   6.587   0.718
22202SOL    HW268048   6.216   6.648   0.672
22203SOL     OW68049   6.297   6.732   1.820
22203SOL    HW168050   6.343   6.809   1.853
22203SOL    HW268051   6.218   6.766   1.780
22204SOL     OW68052   5.920   6.998   1.067
22204SOL    HW168053   5.845   6.957   1.024
22204SOL    HW268054   5.961   7.050   0.998
22205SOL     OW68055   7.043   7.091   1.366
22205SOL    HW168056   7.099   7.169   1.375
22205SOL    HW268057   6.975   7.102   1.433
22206SOL     OW68058   6.039   5.968   1.463
22206SOL    HW168059   6.115   5.912   1.481
22206SOL    HW268060   5.964   5.917   1.496
22207SOL     OW68061   7.194   6.030   0.751
22207SOL    HW168062   7.159   6.068   0.671
22207SOL    HW268063   7.170   6.091   0.820
22208SOL     OW68064   5.795   7.310   0.473
22208SOL    HW168065   5.817   7.385   0.529
22208SOL    HW268066   5.873   7.295   0.420
22209SOL     OW68067   6.722   6.929   1.697
22209SOL    HW168068   6.766   6.920   1.782
22209SOL    HW268069   6.670   6.850   1.688
22210SOL     OW68070   5.813   7.039   0.547
22210SOL    HW168071   5.786   7.131   0.551
22210SOL    HW268072   5.758   6.996   0.612
22211SOL     OW68073   5.865   6.678   0.890
22211SOL    HW168074   5.857   6.589   0.924
22211SOL    HW268075   5.805   6.730   0.944
22212SOL     OW68076   6.177   7.384   1.415
22212SOL    HW168077   6.100   7.363   1.468
22212SOL    HW268078   6.207   7.468   1.448
22213SOL     OW68079   6.159   6.561   0.121
22213SOL    HW168080   6.118   6.642   0.090
22213SOL    HW268081   6.250   6.567   0.093
22214SOL     OW68082   7.177   5.718   1.459
22214SOL    HW168083   7.209   5.797   1.417
22214SOL    HW268084   7.154   5.745   1.548
22215SOL     OW68085   5.702   6.232   0.561
22215SOL    HW168086   5.668   6.146   0.585
22215SOL    HW268087   5.697   6.283   0.642
22216SOL     OW68088   7.435   7.326   0.319
22216SOL    HW168089   7.497   7.300   0.387
22216SOL    HW268090   7.456   7.417   0.301
22217SOL     OW68091   5.621   7.114   0.125
22217SOL    HW168092   5.534   7.073   0.122
22217SOL    HW268093   5.611   7.188   0.184
22218SOL     OW68094   7.267   6.519   0.653
22218SOL    HW168095   7.337   6.470   0.610
22218SOL    HW268096   7.236   6.580   0.586
22219SOL     OW68097   7.229   6.702   0.438
22219SOL    HW168098   7.316   6.699   0.398
22219SOL    HW268099   7.238   6.765   0.510
22220SOL     OW68100   5.709   6.329   1.578
22220SOL    HW168101   5.797   6.365   1.585
22220SOL    HW268102   5.652   6.407   1.573
22221SOL     OW68103   6.205   6.982   0.732
22221SOL    HW168104   6.163   6.896   0.743
22221SOL    HW268105   6.186   7.006   0.641
22222SOL     OW68106   6.868   6.820   1.417
22222SOL    HW168107   6.898   6.751   1.359
22222SOL    HW268108   6.927   6.815   1.493
22223SOL     OW68109   6.408   5.610   0.526
22223SOL    HW168110   6.444   5.695   0.500
22223SOL    HW268111   6.314   5.623   0.527
22224SOL     OW68112   5.775   6.544   1.287
22224SOL    HW168113   5.861   6.506   1.270
22224SOL    HW268114   5.714   6.491   1.235
22225SOL     OW68115   7.080   6.603   0.229
22225SOL    HW168116   7.019   6.541   0.269
22225SOL    HW268117   7.136   6.630   0.302
22226SOL     OW68118   6.767   7.398   1.632
22226SOL    HW168119   6.772   7.460   1.559
22226SOL    HW268120   6.786   7.313   1.593
22227SOL     OW68121   5.939   5.845   1.831
22227SOL    HW168122   5.976   5.923   1.873
22227SOL    HW268123   5.847   5.847   1.853
22228SOL     OW68124   7.050   7.007   0.942
22228SOL    HW168125   6.987   7.022   1.013
22228SOL    HW268126   7.038   6.915   0.919
22229SOL     OW68127   7.229   7.351   0.585
22229SOL    HW168128   7.211   7.312   0.499
22229SOL    HW268129   7.221   7.277   0.646
22230SOL     OW68130   6.178   6.350   0.312
22230SOL    HW168131   6.155   6.415   0.245
22230SOL    HW268132   6.095   6.326   0.352
22231SOL     OW68133   6.866   5.962   0.935
22231SOL    HW168134   6.777   5.926   0.943
22231SOL    HW268135   6.919   5.907   0.992
22232SOL     OW68136   7.173   7.258   0.330
22232SOL    HW168137   7.267   7.272   0.323
22232SOL    HW268138   7.142   7.259   0.240
22233SOL     OW68139   6.374   6.206   1.439
22233SOL    HW168140   6.354   6.178   1.529
22233SOL    HW268141   6.346   6.132   1.385
22234SOL     OW68142   6.980   6.059   1.679
22234SOL    HW168143   6.984   6.103   1.764
22234SOL    HW268144   7.033   5.980   1.690
22235SOL     OW68145   6.534   6.468   1.592
22235SOL    HW168146   6.590   6.402   1.551
22235SOL    HW268147   6.484   6.504   1.519
22236SOL     OW68148   6.586   5.995   1.222
22236SOL    HW168149   6.496   6.008   1.251
22236SOL    HW268150   6.578   5.941   1.143
22237SOL     OW68151   6.649   6.286   0.428
22237SOL    HW168152   6.666   6.280   0.522
22237SOL    HW268153   6.567   6.238   0.416
22238SOL     OW68154   5.684   6.403   0.772
22238SOL    HW168155   5.761   6.399   0.829
22238SOL    HW268156   5.632   6.476   0.807
22239SOL     OW68157   5.712   7.455   1.595
22239SOL    HW168158   5.715   7.429   1.687
22239SOL    HW268159   5.629   7.422   1.563
22240SOL     OW68160   6.471   5.954   0.223
22240SOL    HW168161   6.504   6.020   0.163
22240SOL    HW268162   6.465   5.874   0.170
22241SOL     OW68163   7.285   6.150   1.831
22241SOL    HW168164   7.253   6.227   1.783
22241SOL    HW268165   7.315   6.090   1.763
22242SOL     OW68166   6.964   6.727   0.533
22242SOL    HW168167   7.046   6.721   0.485
22242SOL    HW268168   6.911   6.789   0.483
22243SOL     OW68169   6.132   5.756   0.908
22243SOL    HW168170   6.137   5.782   1.000
22243SOL    HW268171   6.132   5.838   0.859
22244SOL     OW68172   6.576   7.021   0.477
22244SOL    HW168173   6.546   7.100   0.432
22244SOL    HW268174   6.557   7.037   0.570
22245SOL     OW68175   5.938   7.404   0.874
22245SOL    HW168176   5.984   7.319   0.879
22245SOL    HW268177   6.006   7.468   0.896
22246SOL     OW68178   7.387   6.632   0.882
22246SOL    HW168179   7.336   6.613   0.804
22246SOL    HW268180   7.322   6.640   0.952
22247SOL     OW68181   6.809   7.128   1.516
22247SOL    HW168182   6.799   7.057   1.580
22247SOL    HW268183   6.744   7.110   1.449
22248SOL     OW68184   5.905   6.550   0.268
22248SOL    HW168185   5.970   6.556   0.198
22248SOL    HW268186   5.854   6.472   0.247
22249SOL     OW68187   7.062   6.349   0.725
22249SOL    HW168188   7.066   6.302   0.808
22249SOL    HW268189   7.141   6.402   0.723
22250SOL     OW68190   6.061   6.861   1.738
22250SOL    HW168191   6.036   6.865   1.646
22250SOL    HW268192   5.978   6.856   1.785
22251SOL     OW68193   6.677   7.369   0.236
22251SOL    HW168194   6.625   7.322   0.301
22251SOL    HW268195   6.719   7.300   0.185
22252SOL     OW68196   5.784   5.851   1.506
22252SOL    HW168197   5.703   5.899   1.522
22252SOL    HW268198   5.768   5.763   1.541
22253SOL     OW68199   7.239   6.997   0.087
22253SOL    HW168200   7.172   7.060   0.058
22253SOL    HW268201   7.193   6.913   0.086
22254SOL     OW68202   6.037   7.311   0.335
22254SOL    HW168203   6.084   7.373   0.391
22254SOL    HW268204   6.104   7.275   0.278
22255SOL     OW68205   6.989   5.684   0.449
22255SOL    HW168206   6.986   5.653   0.359
22255SOL    HW268207   7.082   5.686   0.471
22256SOL     OW68208   5.842   7.374   1.225
22256SOL    HW168209   5.890   7.301   1.264
22256SOL    HW268210   5.836   7.351   1.132
22257SOL     OW68211   6.528   7.287   0.896
22257SOL    HW168212   6.610   7.243   0.916
22257SOL    HW268213   6.488   7.235   0.826
22258SOL     OW68214   5.971   6.273   0.482
22258SOL    HW168215   5.989   6.180   0.493
22258SOL    HW268216   5.878   6.283   0.502
22259SOL     OW68217   7.108   5.808   1.722
22259SOL    HW168218   7.120   5.830   1.814
22259SOL    HW268219   7.045   5.736   1.722
22260SOL     OW68220   6.205   5.711   0.123
22260SOL    HW168221   6.298   5.689   0.126
22260SOL    HW268222   6.193   5.747   0.035
22261SOL     OW68223   6.347   5.863   1.754
22261SOL    HW168224   6.429   5.815   1.750
22261SOL    HW268225   6.301   5.824   1.829
22262SOL     OW68226   6.461   7.111   1.196
22262SOL    HW168227   6.443   7.070   1.111
22262SOL    HW268228   6.529   7.056   1.235
22263SOL     OW68229   6.923   6.177   1.437
22263SOL    HW168230   6.955   6.144   1.521
22263SOL    HW268231   6.963   6.263   1.428
22264SOL     OW68232   6.407   6.970   0.951
22264SOL    HW168233   6.493   6.960   0.910
22264SOL    HW268234   6.347   6.983   0.878
22265SOL     OW68235   6.517   6.097   0.897
22265SOL    HW168236   6.492   6.085   0.806
22265SOL    HW268237   6.546   6.010   0.926
22266SOL     OW68238   6.133   5.642   0.501
22266SOL    HW168239   6.053   5.640   0.553
22266SOL    HW268240   6.127   5.722   0.448
22267SOL     OW68241   7.050   6.801   0.046
22267SOL    HW168242   7.064   6.724   0.100
22267SOL    HW268243   6.957   6.823   0.059
22268SOL     OW68244   5.901   5.660   0.205
22268SOL    HW168245   5.985   5.699   0.182
22268SOL    HW268246   5.924   5.573   0.238
22269SOL     OW68247   6.533   5.846   0.465
22269SOL    HW168248   6.507   5.880   0.379
22269SOL    HW268249   6.628   5.852   0.465
22270SOL     OW68250   6.667   6.274   1.453
22270SOL    HW168251   6.606   6.201   1.463
22270SOL    HW268252   6.754   6.233   1.451
22271SOL     OW68253   6.797   7.160   0.797
22271SOL    HW168254   6.812   7.225   0.729
22271SOL    HW268255   6.871   7.169   0.857
22272SOL     OW68256   6.071   6.741   0.724
22272SOL    HW168257   6.003   6.721   0.788
22272SOL    HW268258   6.027   6.732   0.639
22273SOL     OW68259   6.843   7.374   0.616
22273SOL    HW168260   6.896   7.438   0.569
22273SOL    HW268261   6.773   7.426   0.656
22274SOL     OW68262   6.594   6.170   0.107
22274SOL    HW168263   6.615   6.214   0.024
22274SOL    HW268264   6.679   6.158   0.150
22275SOL     OW68265   5.673   6.142   1.385
22275SOL    HW168266   5.766   6.138   1.362
22275SOL    HW268267   5.668   6.207   1.454
22276SOL     OW68268   6.143   5.810   1.179
22276SOL    HW168269   6.184   5.745   1.236
22276SOL    HW268270   6.051   5.810   1.206
22277SOL     OW68271   6.447   6.047   0.639
22277SOL    HW168272   6.406   6.099   0.569
22277SOL    HW268273   6.476   5.967   0.595
22278SOL     OW68274   6.605   5.639   0.740
22278SOL    HW168275   6.542   5.633   0.668
22278SOL    HW268276   6.581   5.568   0.799
22279SOL     OW68277   7.029   6.745   0.860
22279SOL    HW168278   6.961   6.678   0.853
22279SOL    HW268279   7.063   6.753   0.771
22280SOL     OW68280   7.053   6.194   0.958
22280SOL    HW168281   6.991   6.121   0.967
22280SOL    HW268282   7.108   6.187   1.036
22281SOL     OW68283   7.415   6.404   0.433
22281SOL    HW168284   7.464   6.337   0.481
22281SOL    HW268285   7.369   6.355   0.364
22282SOL     OW68286   6.085   6.977   0.186
22282SOL    HW168287   6.012   6.942   0.235
22282SOL    HW268288   6.046   7.014   0.107
22283SOL     OW68289   7.258   6.851   0.658
22283SOL    HW168290   7.353   6.844   0.670
22283SOL    HW268291   7.238   6.943   0.673
22284SOL     OW68292   6.983   6.129   0.077
22284SOL    HW168293   6.931   6.130   0.158
22284SOL    HW268294   7.039   6.051   0.085
22285SOL     OW68295   6.115   5.855   0.334
22285SOL    HW168296   6.159   5.804   0.266
22285SOL    HW268297   6.091   5.937   0.290
22286SOL     OW68298   7.327   6.832   1.550
22286SOL    HW168299   7.414   6.793   1.543
22286SOL    HW268300   7.343   6.920   1.584
22287SOL     OW68301   6.637   6.939   1.330
22287SOL    HW168302   6.561   6.907   1.378
22287SOL    HW268303   6.712   6.896   1.372
22288SOL     OW68304   7.192   7.220   1.662
22288SOL    HW168305   7.185   7.253   1.572
22288SOL    HW268306   7.272   7.167   1.661
22289SOL     OW68307   6.722   6.801   1.100
22289SOL    HW168308   6.664   6.842   1.164
22289SOL    HW268309   6.695   6.839   1.016
22290SOL     OW68310   7.203   6.680   1.078
22290SOL    HW168311   7.196   6.743   1.150
22290SOL    HW268312   7.130   6.701   1.020
22291SOL     OW68313   6.505   5.676   1.387
22291SOL    HW168314   6.529   5.658   1.296
22291SOL    HW268315   6.583   5.715   1.426
22292SOL     OW68316   6.567   6.703   1.721
22292SOL    HW168317   6.476   6.717   1.748
22292SOL    HW268318   6.564   6.622   1.670
22293SOL     OW68319   6.012   6.406   1.249
22293SOL    HW168320   6.076   6.418   1.319
22293SOL    HW268321   5.978   6.317   1.263
22294SOL     OW68322   6.851   5.963   1.282
22294SOL    HW168323   6.882   6.040   1.330
22294SOL    HW268324   6.760   5.983   1.260
22295SOL     OW68325   5.662   7.160   1.361
22295SOL    HW168326   5.633   7.229   1.301
22295SOL    HW268327   5.757   7.157   1.350
22296SOL     OW68328   5.957   6.711   0.481
22296SOL    HW168329   5.931   6.788   0.431
22296SOL    HW268330   5.944   6.638   0.420
22297SOL     OW68331   6.127   6.109   0.852
22297SOL    HW168332   6.162   6.140   0.768
22297SOL    HW268333   6.192   6.136   0.916
22298SOL     OW68334   6.827   6.935   0.396
22298SOL    HW168335   6.883   7.005   0.430
22298SOL    HW268336   6.740   6.955   0.430
22299SOL     OW68337   6.881   7.049   1.151
22299SOL    HW168338   6.937   7.057   1.229
22299SOL    HW268339   6.828   6.971   1.169
22300SOL     OW68340   7.144   6.179   0.514
22300SOL    HW168341   7.097   6.246   0.563
22300SOL    HW268342   7.181   6.225   0.438
22301SOL     OW68343   5.931   7.117   1.307
22301SOL    HW168344   5.920   7.070   1.224
22301SOL    HW268345   6.025   7.129   1.316
22302SOL     OW68346   6.002   6.336   1.606
22302SOL    HW168347   6.069   6.373   1.548
22302SOL    HW268348   6.036   6.249   1.628
22303SOL     OW68349   7.199   6.367   1.692
22303SOL    HW168350   7.113   6.408   1.687
22303SOL    HW268351   7.250   6.409   1.623
22304SOL     OW68352   6.581   5.724   1.746
22304SOL    HW168353   6.641   5.797   1.730
22304SOL    HW268354   6.632   5.646   1.727
22305SOL     OW68355   6.085   5.623   1.749
22305SOL    HW168356   6.031   5.569   1.691
22305SOL    HW268357   6.030   5.700   1.767
22306SOL     OW68358   6.168   6.463   1.028
22306SOL    HW168359   6.207   6.550   1.034
22306SOL    HW268360   6.118   6.453   1.109
22307SOL     OW68361   6.923   6.442   1.015
22307SOL    HW168362   6.835   6.419   0.984
22307SOL    HW268363   6.974   6.362   1.004
22308SOL     OW68364   6.804   6.111   0.282
22308SOL    HW168365   6.816   6.037   0.342
22308SOL    HW268366   6.760   6.177   0.336
22309SOL     OW68367   5.877   5.785   1.246
22309SOL    HW168368   5.841   5.816   1.329
22309SOL    HW268369   5.861   5.690   1.246
22310SOL     OW68370   5.643   6.898   1.268
22310SOL    HW168371   5.668   6.840   1.340
22310SOL    HW268372   5.640   6.985   1.307
22311SOL     OW68373   6.297   6.208   1.040
22311SOL    HW168374   6.382   6.197   0.996
22311SOL    HW268375   6.277   6.301   1.031
22312SOL     OW68376   7.324   6.550   1.862
22312SOL    HW168377   7.285   6.477   1.814
22312SOL    HW268378   7.264   6.567   1.935
22313SOL     OW68379   5.885   5.632   0.628
22313SOL    HW168380   5.860   5.724   0.641
22313SOL    HW268381   5.900   5.598   0.716
22314SOL     OW68382   7.203   5.951   0.370
22314SOL    HW168383   7.236   5.882   0.429
22314SOL    HW268384   7.171   6.019   0.430
22315SOL     OW68385   6.615   6.343   0.960
22315SOL    HW168386   6.602   6.359   1.053
22315SOL    HW268387   6.590   6.252   0.947
22316SOL     OW68388   6.566   7.152   1.728
22316SOL    HW168389   6.549   7.194   1.644
22316SOL    HW268390   6.608   7.069   1.706
22317SOL     OW68391   7.430   7.087   1.605
22317SOL    HW168392   7.455   7.114   1.517
22317SOL    HW268393   7.509   7.098   1.657
22318SOL     OW68394   5.936   6.517   1.801
22318SOL    HW168395   6.012   6.525   1.860
22318SOL    HW268396   5.962   6.450   1.738
22319SOL     OW68397   7.085   5.873   0.136
22319SOL    HW168398   7.044   5.789   0.156
22319SOL    HW268399   7.132   5.898   0.216
22320SOL     OW68400   6.880   6.387   0.061
22320SOL    HW168401   6.932   6.308   0.046
22320SOL    HW268402   6.914   6.451  -0.002
22321SOL     OW68403   6.655   6.926   0.857
22321SOL    HW168404   6.662   6.855   0.792
22321SOL    HW268405   6.711   6.995   0.822
22322SOL     OW68406   5.899   6.395   0.945
22322SOL    HW168407   5.991   6.418   0.960
22322SOL    HW268408   5.891   6.305   0.975
22323SOL     OW68409   5.906   6.118   1.007
22323SOL    HW168410   5.870   6.030   0.999
22323SOL    HW268411   5.983   6.118   0.951
22324SOL     OW68412   6.723   5.959   1.682
22324SOL    HW168413   6.676   6.009   1.749
22324SOL    HW268414   6.810   5.998   1.680
22325SOL     OW68415   6.745   5.783   1.468
22325SOL    HW168416   6.734   5.844   1.542
22325SOL    HW268417   6.791   5.834   1.402
22326SOL     OW68418   5.673   7.364   0.942
22326SOL    HW168419   5.643   7.287   0.894
22326SOL    HW268420   5.763   7.378   0.910
22327SOL     OW68421   6.074   7.162   0.901
22327SOL    HW168422   6.143   7.224   0.924
22327SOL    HW268423   6.117   7.098   0.843
22328SOL     OW68424   6.546   6.368   1.223
22328SOL    HW168425   6.612   6.353   1.291
22328SOL    HW268426   6.467   6.327   1.258
22329SOL     OW68427   5.625   6.149   1.113
22329SOL    HW168428   5.708   6.139   1.067
22329SOL    HW268429   5.647   6.143   1.206
22330SOL     OW68430   5.771   6.113   1.740
22330SOL    HW168431   5.820   6.059   1.678
22330SOL    HW268432   5.738   6.186   1.687
22331SOL     OW68433   6.969   6.515   1.656
22331SOL    HW168434   6.990   6.608   1.652
22331SOL    HW268435   6.966   6.487   1.564
22332SOL     OW68436   6.396   6.175   0.384
22332SOL    HW168437   6.418   6.099   0.331
22332SOL    HW268438   6.314   6.208   0.346
22333SOL     OW68439   7.224   6.186   1.172
22333SOL    HW168440   7.217   6.128   1.248
22333SOL    HW268441   7.313   6.173   1.140
22334SOL     OW68442   5.816   7.135   1.722
22334SOL    HW168443   5.801   7.200   1.791
22334SOL    HW268444   5.830   7.053   1.768
22335SOL     OW68445   6.309   6.027   1.244
22335SOL    HW168446   6.247   5.955   1.229
22335SOL    HW268447   6.292   6.088   1.173
22336SOL     OW68448   6.497   7.262   1.479
22336SOL    HW168449   6.477   7.219   1.396
22336SOL    HW268450   6.497   7.356   1.459
22337SOL     OW68451   6.054   6.077   0.192
22337SOL    HW168452   6.127   6.135   0.170
22337SOL    HW268453   5.984   6.103   0.132
22338SOL     OW68454   5.725   6.732   1.477
22338SOL    HW168455   5.730   6.690   1.563
22338SOL    HW268456   5.743   6.662   1.415
22339SOL     OW68457   6.901   6.627   1.215
22339SOL    HW168458   6.921   6.564   1.146
22339SOL    HW268459   6.838   6.687   1.175
22340SOL     OW68460   6.891   6.428   0.331
22340SOL    HW168461   6.812   6.391   0.372
22340SOL    HW268462   6.883   6.404   0.239
22341SOL     OW68463   7.371   7.321   1.158
22341SOL    HW168464   7.433   7.343   1.089
22341SOL    HW268465   7.341   7.233   1.137
22342SOL     OW68466   6.825   7.316   1.098
22342SOL    HW168467   6.909   7.344   1.061
22342SOL    HW268468   6.838   7.224   1.122
22343SOL     OW68469   5.679   6.852   1.004
22343SOL    HW168470   5.661   6.866   1.097
22343SOL    HW268471   5.609   6.792   0.976
22344SOL     OW68472   6.271   7.262   1.744
22344SOL    HW168473   6.213   7.336   1.729
22344SOL    HW268474   6.345   7.278   1.685
22345SOL     OW68475   6.481   5.690   0.103
22345SOL    HW168476   6.529   5.705   0.021
22345SOL    HW268477   6.543   5.644   0.159
22346SOL     OW68478   7.310   5.741   0.513
22346SOL    HW168479   7.380   5.718   0.451
22346SOL    HW268480   7.287   5.659   0.555
22347SOL     OW68481   6.977   7.151   0.500
22347SOL    HW168482   7.038   7.184   0.435
22347SOL    HW268483   6.928   7.228   0.528
22348SOL     OW68484   5.723   7.371   1.860
22348SOL    HW168485   5.641   7.372   1.909
22348SOL    HW268486   5.787   7.414   1.917
22349SOL     OW68487   6.860   6.523   0.675
22349SOL    HW168488   6.933   6.463   0.689
22349SOL    HW268489   6.894   6.590   0.616
22350SOL     OW68490   6.383   6.864   1.415
22350SOL    HW168491   6.357   6.909   1.496
22350SOL    HW268492   6.309   6.876   1.356
22351SOL     OW68493   6.248   7.195   0.197
22351SOL    HW168494   6.308   7.204   0.122
22351SOL    HW268495   6.203   7.112   0.181
22352SOL     OW68496   7.202   7.316   1.392
22352SOL    HW168497   7.260   7.319   1.316
22352SOL    HW268498   7.186   7.408   1.414
22353SOL     OW68499   7.430   5.753   0.961
22353SOL    HW168500   7.460   5.664   0.940
22353SOL    HW268501   7.342   5.758   0.924
22354SOL     OW68502   5.834   5.889   0.710
22354SOL    HW168503   5.748   5.926   0.690
22354SOL    HW268504   5.838   5.887   0.806
22355SOL     OW68505   6.779   7.191   0.065
22355SOL    HW168506   6.779   7.097   0.080
22355SOL    HW268507   6.762   7.201  -0.028
22356SOL     OW68508   6.410   6.592   1.380
22356SOL    HW168509   6.458   6.582   1.299
22356SOL    HW268510   6.405   6.687   1.394
22357SOL     OW68511   6.500   6.494   0.313
22357SOL    HW168512   6.532   6.539   0.235
22357SOL    HW268513   6.569   6.432   0.336
22358SOL     OW68514   7.046   7.166   0.012
22358SOL    HW168515   6.960   7.195   0.041
22358SOL    HW268516   7.099   7.246   0.012
22359SOL     OW68517   5.951   6.896   1.495
22359SOL    HW168518   5.939   6.970   1.434
22359SOL    HW268519   5.875   6.840   1.480
22360SOL     OW68520   7.188   6.871   1.281
22360SOL    HW168521   7.247   6.851   1.354
22360SOL    HW268522   7.129   6.938   1.315
22361SOL     OW68523   6.645   6.698   0.709
22361SOL    HW168524   6.578   6.646   0.753
22361SOL    HW268525   6.715   6.636   0.690
22362SOL     OW68526   6.613   5.830   0.962
22362SOL    HW168527   6.611   5.784   0.878
22362SOL    HW268528   6.608   5.760   1.028
22363SOL     OW68529   6.174   7.074   0.477
22363SOL    HW168530   6.205   7.054   0.389
22363SOL    HW268531   6.091   7.120   0.464
22364SOL     OW68532   7.314   5.979   1.375
22364SOL    HW168533   7.388   6.040   1.377
22364SOL    HW268534   7.343   5.908   1.318
22365SOL     OW68535   5.856   6.911   0.318
22365SOL    HW168536   5.775   6.921   0.269
22365SOL    HW268537   5.842   6.961   0.398
22366SOL     OW68538   5.702   6.647   1.744
22366SOL    HW168539   5.625   6.610   1.787
22366SOL    HW268540   5.775   6.592   1.773
22367SOL     OW68541   6.265   5.780   1.496
22367SOL    HW168542   6.349   5.754   1.460
22367SOL    HW268543   6.285   5.810   1.585
22368SOL     OW68544   7.007   6.443   1.395
22368SOL    HW168545   6.958   6.504   1.340
22368SOL    HW268546   7.096   6.445   1.359
22369SOL     OW68547   5.657   5.728   0.314
22369SOL    HW168548   5.651   5.822   0.303
22369SOL    HW268549   5.743   5.704   0.279
22370SOL     OW68550   6.780   6.922   0.118
22370SOL    HW168551   6.687   6.901   0.108
22370SOL    HW268552   6.797   6.913   0.211
22371SOL     OW68553   6.206   6.418   1.437
22371SOL    HW168554   6.265   6.493   1.425
22371SOL    HW268555   6.263   6.342   1.442
22372SOL     OW68556   7.071   7.379   0.991
22372SOL    HW168557   7.097   7.445   0.926
22372SOL    HW268558   7.154   7.340   1.019
22373SOL     OW68559   6.312   6.139   1.693
22373SOL    HW168560   6.355   6.194   1.759
22373SOL    HW268561   6.321   6.050   1.726
22374SOL     OW68562   7.057   6.778   1.625
22374SOL    HW168563   7.048   6.793   1.720
22374SOL    HW268564   7.149   6.797   1.607
22375SOL     OW68565   5.955   7.327   1.566
22375SOL    HW168566   5.872   7.373   1.554
22375SOL    HW268567   5.930   7.242   1.602
22376SOL     OW68568   7.245   6.463   1.254
22376SOL    HW168569   7.244   6.378   1.210
22376SOL    HW268570   7.236   6.527   1.183
22377SOL     OW68571   6.809   5.896   0.451
22377SOL    HW168572   6.871   5.822   0.452
22377SOL    HW268573   6.829   5.945   0.531
22378SOL     OW68574   6.199   6.321   0.628
22378SOL    HW168575   6.180   6.390   0.692
22378SOL    HW268576   6.114   6.300   0.589
22379SOL     OW68577   7.337   5.948   1.647
22379SOL    HW168578   7.321   5.967   1.555
22379SOL    HW268579   7.265   5.892   1.674
22380SOL     OW68580   7.332   6.517   1.509
22380SOL    HW168581   7.322   6.611   1.520
22380SOL    HW268582   7.312   6.502   1.416
22381SOL     OW68583   6.498   6.937   0.041
22381SOL    HW168584   6.454   6.928   0.125
22381SOL    HW268585   6.486   7.029   0.017
22382SOL     OW68586   6.249   7.368   0.927
22382SOL    HW168587   6.233   7.462   0.914
22382SOL    HW268588   6.345   7.360   0.927
22383SOL     OW68589   6.457   6.556   0.857
22383SOL    HW168590   6.509   6.485   0.895
22383SOL    HW268591   6.417   6.599   0.931
22384SOL     OW68592   6.675   6.565   0.090
22384SOL    HW168593   6.713   6.632   0.034
22384SOL    HW268594   6.743   6.498   0.098
22385SOL     OW68595   7.434   7.139   0.840
22385SOL    HW168596   7.352   7.125   0.793
22385SOL    HW268597   7.436   7.069   0.906
22386SOL     OW68598   5.812   6.884   1.849
22386SOL    HW168599   5.766   6.808   1.816
22386SOL    HW268600   5.810   6.874   1.944
22387SOL     OW68601   5.669   6.827   0.674
22387SOL    HW168602   5.680   6.778   0.756
22387SOL    HW268603   5.714   6.774   0.609
22388SOL     OW68604   6.272   7.001   1.624
22388SOL    HW168605   6.199   6.956   1.666
22388SOL    HW268606   6.276   7.086   1.668
22389SOL     OW68607   7.392   5.766   1.231
22389SOL    HW168608   7.398   5.672   1.247
22389SOL    HW268609   7.407   5.776   1.137
22390SOL     OW68610   6.016   6.017   0.539
22390SOL    HW168611   6.050   5.951   0.479
22390SOL    HW268612   5.961   5.968   0.600
22391SOL     OW68613   7.276   7.074   1.094
22391SOL    HW168614   7.200   7.052   1.041
22391SOL    HW268615   7.281   7.004   1.159
22392SOL     OW68616   5.929   6.148   1.291
22392SOL    HW168617   5.977   6.086   1.347
22392SOL    HW268618   5.941   6.114   1.203
22393SOL     OW68619   6.419   7.165   0.680
22393SOL    HW168620   6.396   7.235   0.619
22393SOL    HW268621   6.342   7.108   0.682
22394SOL     OW68622   7.013   5.819   1.115
22394SOL    HW168623   7.033   5.735   1.157
22394SOL    HW268624   6.965   5.868   1.181
22395SOL     OW68625   6.596   5.605   1.129
22395SOL    HW168626   6.538   5.539   1.090
22395SOL    HW268627   6.682   5.564   1.130
22396SOL     OW68628   6.395   6.914   0.291
22396SOL    HW168629   6.326   6.863   0.332
22396SOL    HW268630   6.457   6.931   0.361
22397SOL     OW68631   6.205   7.146   1.284
22397SOL    HW168632   6.203   7.229   1.330
22397SOL    HW268633   6.295   7.138   1.252
22398SOL     OW68634   6.956   5.625   0.184
22398SOL    HW168635   6.963   5.571   0.105
22398SOL    HW268636   6.872   5.669   0.176
22399SOL     OW68637   6.855   6.046   0.671
22399SOL    HW168638   6.814   6.131   0.681
22399SOL    HW268639   6.868   6.015   0.761
22400SOL     OW68640   7.168   5.776   0.885
22400SOL    HW168641   7.115   5.802   0.961
22400SOL    HW268642   7.168   5.853   0.828
22401SOL     OW68643   5.633   6.661   0.362
22401SOL    HW168644   5.718   6.656   0.319
22401SOL    HW268645   5.612   6.570   0.385
22402SOL     OW68646   6.465   7.242   0.363
22402SOL    HW168647   6.386   7.223   0.312
22402SOL    HW268648   6.442   7.316   0.419
22403SOL     OW68649   5.799   6.221   1.998
22403SOL    HW168650   5.713   6.206   2.038
22403SOL    HW268651   5.788   6.192   1.907
22404SOL     OW68652   5.809   5.873   2.855
22404SOL    HW168653   5.838   5.839   2.940
22404SOL    HW268654   5.722   5.835   2.842
22405SOL     OW68655   5.575   5.979   2.500
22405SOL    HW168656   5.496   6.005   2.547
22405SOL    HW268657   5.549   5.899   2.454
22406SOL     OW68658   6.159   6.888   3.055
22406SOL    HW168659   6.072   6.889   3.017
22406SOL    HW268660   6.174   6.978   3.084
22407SOL     OW68661   7.165   7.105   2.574
22407SOL    HW168662   7.121   7.077   2.654
22407SOL    HW268663   7.096   7.105   2.508
22408SOL     OW68664   6.721   6.285   2.551
22408SOL    HW168665   6.767   6.369   2.544
22408SOL    HW268666   6.672   6.291   2.633
22409SOL     OW68667   7.375   6.180   2.083
22409SOL    HW168668   7.343   6.174   1.993
22409SOL    HW268669   7.334   6.106   2.128
22410SOL     OW68670   6.323   6.720   2.909
22410SOL    HW168671   6.262   6.758   2.972
22410SOL    HW268672   6.367   6.796   2.870
22411SOL     OW68673   6.470   6.338   3.695
22411SOL    HW168674   6.451   6.405   3.761
22411SOL    HW268675   6.487   6.387   3.615
22412SOL     OW68676   6.271   6.583   2.505
22412SOL    HW168677   6.338   6.573   2.572
22412SOL    HW268678   6.204   6.637   2.546
22413SOL     OW68679   6.300   6.732   3.682
22413SOL    HW168680   6.345   6.809   3.716
22413SOL    HW268681   6.219   6.766   3.644
22414SOL     OW68682   5.917   7.000   2.930
22414SOL    HW168683   5.841   6.960   2.887
22414SOL    HW268684   5.960   7.050   2.861
22415SOL     OW68685   7.042   7.091   3.226
22415SOL    HW168686   7.097   7.168   3.238
22415SOL    HW268687   6.973   7.100   3.292
22416SOL     OW68688   6.037   5.968   3.327
22416SOL    HW168689   6.112   5.910   3.343
22416SOL    HW268690   5.961   5.918   3.358
22417SOL     OW68691   7.184   6.023   2.613
22417SOL    HW168692   7.111   6.036   2.552
22417SOL    HW268693   7.172   6.091   2.679
22418SOL     OW68694   5.809   7.314   2.322
22418SOL    HW168695   5.829   7.384   2.384
22418SOL    HW268696   5.890   7.301   2.273
22419SOL     OW68697   6.721   6.930   3.560
22419SOL    HW168698   6.763   6.921   3.646
22419SOL    HW268699   6.669   6.850   3.551
22420SOL     OW68700   5.788   7.028   2.377
22420SOL    HW168701   5.786   7.116   2.414
22420SOL    HW268702   5.755   6.972   2.447
22421SOL     OW68703   5.862   6.674   2.760
22421SOL    HW168704   5.864   6.584   2.790
22421SOL    HW268705   5.805   6.719   2.822
22422SOL     OW68706   6.174   7.384   3.279
22422SOL    HW168707   6.098   7.360   3.333
22422SOL    HW268708   6.203   7.468   3.313
22423SOL     OW68709   6.156   6.574   2.009
22423SOL    HW168710   6.208   6.613   1.939
22423SOL    HW268711   6.198   6.603   2.090
22424SOL     OW68712   7.182   5.716   3.323
22424SOL    HW168713   7.205   5.799   3.280
22424SOL    HW268714   7.154   5.742   3.411
22425SOL     OW68715   5.704   6.244   2.423
22425SOL    HW168716   5.673   6.156   2.443
22425SOL    HW268717   5.698   6.291   2.506
22426SOL     OW68718   7.434   7.335   2.191
22426SOL    HW168719   7.506   7.312   2.250
22426SOL    HW268720   7.450   7.427   2.168
22427SOL     OW68721   7.277   6.508   2.512
22427SOL    HW168722   7.359   6.462   2.494
22427SOL    HW268723   7.258   6.556   2.431
22428SOL     OW68724   7.238   6.688   2.291
22428SOL    HW168725   7.324   6.684   2.249
22428SOL    HW268726   7.248   6.754   2.360
22429SOL     OW68727   5.715   6.329   3.439
22429SOL    HW168728   5.805   6.357   3.451
22429SOL    HW268729   5.663   6.408   3.454
22430SOL     OW68730   6.208   6.981   2.595
22430SOL    HW168731   6.165   6.896   2.605
22430SOL    HW268732   6.191   7.005   2.504
22431SOL     OW68733   6.868   6.821   3.278
22431SOL    HW168734   6.898   6.751   3.220
22431SOL    HW268735   6.925   6.815   3.355
22432SOL     OW68736   6.412   5.596   2.374
22432SOL    HW168737   6.451   5.680   2.352
22432SOL    HW268738   6.318   5.612   2.379
22433SOL     OW68739   5.773   6.545   3.132
22433SOL    HW168740   5.860   6.507   3.122
22433SOL    HW268741   5.713   6.475   3.104
22434SOL     OW68742   7.116   6.591   2.062
22434SOL    HW168743   7.047   6.534   2.094
22434SOL    HW268744   7.160   6.622   2.141
22435SOL     OW68745   6.774   7.400   3.493
22435SOL    HW168746   6.775   7.459   3.417
22435SOL    HW268747   6.789   7.313   3.456
22436SOL     OW68748   5.940   5.845   3.700
22436SOL    HW168749   5.974   5.926   3.737
22436SOL    HW268750   5.846   5.846   3.719
22437SOL     OW68751   7.052   7.004   2.803
22437SOL    HW168752   6.989   7.020   2.872
22437SOL    HW268753   7.038   6.913   2.777
22438SOL     OW68754   7.229   7.353   2.436
22438SOL    HW168755   7.213   7.313   2.351
22438SOL    HW268756   7.221   7.281   2.499
22439SOL     OW68757   6.175   6.292   2.134
22439SOL    HW168758   6.180   6.380   2.095
22439SOL    HW268759   6.111   6.300   2.204
22440SOL     OW68760   6.865   5.961   2.796
22440SOL    HW168761   6.776   5.926   2.804
22440SOL    HW268762   6.918   5.906   2.854
22441SOL     OW68763   7.164   7.266   2.175
22441SOL    HW168764   7.258   7.283   2.167
22441SOL    HW268765   7.136   7.247   2.085
22442SOL     OW68766   6.379   6.204   3.302
22442SOL    HW168767   6.357   6.176   3.392
22442SOL    HW268768   6.349   6.132   3.247
22443SOL     OW68769   6.982   6.061   3.541
22443SOL    HW168770   6.985   6.104   3.626
22443SOL    HW268771   7.032   5.980   3.553
22444SOL     OW68772   6.535   6.469   3.455
22444SOL    HW168773   6.590   6.401   3.414
22444SOL    HW268774   6.483   6.504   3.383
22445SOL     OW68775   6.587   5.994   3.084
22445SOL    HW168776   6.497   6.008   3.113
22445SOL    HW268777   6.578   5.940   3.005
22446SOL     OW68778   6.641   6.288   2.283
22446SOL    HW168779   6.662   6.281   2.376
22446SOL    HW268780   6.558   6.242   2.274
22447SOL     OW68781   5.681   6.419   2.636
22447SOL    HW168782   5.760   6.402   2.687
22447SOL    HW268783   5.638   6.491   2.681
22448SOL     OW68784   5.713   7.460   3.448
22448SOL    HW168785   5.717   7.439   3.541
22448SOL    HW268786   5.626   7.429   3.421
22449SOL     OW68787   6.480   5.937   2.060
22449SOL    HW168788   6.526   5.994   1.998
22449SOL    HW268789   6.471   5.854   2.015
22450SOL     OW68790   7.290   6.151   3.692
22450SOL    HW168791   7.256   6.227   3.645
22450SOL    HW268792   7.315   6.089   3.623
22451SOL     OW68793   6.973   6.730   2.405
22451SOL    HW168794   7.053   6.717   2.353
22451SOL    HW268795   6.920   6.790   2.353
22452SOL     OW68796   6.146   5.764   2.769
22452SOL    HW168797   6.145   5.788   2.861
22452SOL    HW268798   6.137   5.847   2.722
22453SOL     OW68799   6.583   7.031   2.328
22453SOL    HW168800   6.558   7.108   2.277
22453SOL    HW268801   6.557   7.053   2.417
22454SOL     OW68802   5.937   7.399   2.736
22454SOL    HW168803   5.982   7.315   2.742
22454SOL    HW268804   6.003   7.464   2.761
22455SOL     OW68805   7.384   6.644   2.735
22455SOL    HW168806   7.332   6.619   2.660
22455SOL    HW268807   7.322   6.648   2.808
22456SOL     OW68808   6.809   7.127   3.378
22456SOL    HW168809   6.799   7.058   3.443
22456SOL    HW268810   6.741   7.110   3.313
22457SOL     OW68811   5.895   6.543   2.117
22457SOL    HW168812   5.980   6.558   2.076
22457SOL    HW268813   5.872   6.453   2.091
22458SOL     OW68814   7.067   6.341   2.579
22458SOL    HW168815   7.066   6.297   2.664
22458SOL    HW268816   7.146   6.395   2.580
22459SOL     OW68817   6.063   6.858   3.600
22459SOL    HW168818   6.036   6.861   3.508
22459SOL    HW268819   5.981   6.849   3.648
22460SOL     OW68820   6.717   7.370   2.080
22460SOL    HW168821   6.641   7.334   2.126
22460SOL    HW268822   6.741   7.303   2.017
22461SOL     OW68823   5.781   5.854   3.372
22461SOL    HW168824   5.695   5.894   3.379
22461SOL    HW268825   5.768   5.764   3.403
22462SOL     OW68826   7.216   6.972   1.955
22462SOL    HW168827   7.173   7.056   1.940
22462SOL    HW268828   7.150   6.907   1.933
22463SOL     OW68829   6.052   7.322   2.180
22463SOL    HW168830   6.098   7.375   2.246
22463SOL    HW268831   6.121   7.286   2.125
22464SOL     OW68832   6.985   5.695   2.308
22464SOL    HW168833   6.980   5.667   2.217
22464SOL    HW268834   7.078   5.695   2.329
22465SOL     OW68835   5.841   7.373   3.089
22465SOL    HW168836   5.889   7.305   3.136
22465SOL    HW268837   5.844   7.346   2.998
22466SOL     OW68838   6.524   7.288   2.755
22466SOL    HW168839   6.601   7.239   2.785
22466SOL    HW268840   6.488   7.235   2.685
22467SOL     OW68841   5.979   6.279   2.333
22467SOL    HW168842   5.996   6.186   2.347
22467SOL    HW268843   5.886   6.289   2.352
22468SOL     OW68844   7.105   5.807   3.583
22468SOL    HW168845   7.118   5.827   3.676
22468SOL    HW268846   7.038   5.739   3.582
22469SOL     OW68847   6.239   5.700   1.961
22469SOL    HW168848   6.280   5.621   1.996
22469SOL    HW268849   6.183   5.669   1.890
22470SOL     OW68850   6.349   5.862   3.617
22470SOL    HW168851   6.431   5.813   3.612
22470SOL    HW268852   6.300   5.821   3.689
22471SOL     OW68853   6.463   7.115   3.058
22471SOL    HW168854   6.443   7.072   2.975
22471SOL    HW268855   6.528   7.058   3.099
22472SOL     OW68856   6.923   6.176   3.298
22472SOL    HW168857   6.954   6.144   3.383
22472SOL    HW268858   6.961   6.264   3.291
22473SOL     OW68859   6.406   6.974   2.814
22473SOL    HW168860   6.492   6.961   2.773
22473SOL    HW268861   6.345   6.981   2.741
22474SOL     OW68862   6.519   6.100   2.757
22474SOL    HW168863   6.493   6.087   2.666
22474SOL    HW268864   6.544   6.013   2.788
22475SOL     OW68865   6.144   5.651   2.353
22475SOL    HW168866   6.067   5.650   2.410
22475SOL    HW268867   6.130   5.726   2.296
22476SOL     OW68868   7.016   6.790   1.899
22476SOL    HW168869   7.048   6.715   1.950
22476SOL    HW268870   6.931   6.811   1.937
22477SOL     OW68871   5.878   5.637   2.050
22477SOL    HW168872   5.941   5.707   2.032
22477SOL    HW268873   5.929   5.570   2.095
22478SOL     OW68874   6.532   5.841   2.316
22478SOL    HW168875   6.510   5.876   2.230
22478SOL    HW268876   6.627   5.854   2.323
22479SOL     OW68877   6.666   6.275   3.314
22479SOL    HW168878   6.601   6.205   3.323
22479SOL    HW268879   6.750   6.229   3.313
22480SOL     OW68880   6.802   7.156   2.656
22480SOL    HW168881   6.818   7.223   2.590
22480SOL    HW268882   6.872   7.167   2.719
22481SOL     OW68883   6.061   6.747   2.589
22481SOL    HW168884   6.000   6.722   2.658
22481SOL    HW268885   6.012   6.731   2.508
22482SOL     OW68886   6.845   7.374   2.477
22482SOL    HW168887   6.891   7.438   2.424
22482SOL    HW268888   6.775   7.423   2.519
22483SOL     OW68889   6.616   6.110   1.889
22483SOL    HW168890   6.572   6.194   1.873
22483SOL    HW268891   6.677   6.128   1.960
22484SOL     OW68892   5.674   6.147   3.242
22484SOL    HW168893   5.767   6.140   3.222
22484SOL    HW268894   5.670   6.211   3.314
22485SOL     OW68895   6.144   5.813   3.042
22485SOL    HW168896   6.183   5.744   3.095
22485SOL    HW268897   6.051   5.813   3.067
22486SOL     OW68898   6.456   6.045   2.498
22486SOL    HW168899   6.410   6.099   2.433
22486SOL    HW268900   6.477   5.965   2.450
22487SOL     OW68901   6.609   5.636   2.601
22487SOL    HW168902   6.546   5.629   2.529
22487SOL    HW268903   6.585   5.566   2.661
22488SOL     OW68904   7.019   6.743   2.717
22488SOL    HW168905   6.956   6.673   2.730
22488SOL    HW268906   7.032   6.747   2.622
22489SOL     OW68907   7.052   6.196   2.819
22489SOL    HW168908   6.989   6.124   2.828
22489SOL    HW268909   7.107   6.189   2.897
22490SOL     OW68910   7.421   6.390   2.252
22490SOL    HW168911   7.481   6.343   2.310
22490SOL    HW268912   7.402   6.328   2.182
22491SOL     OW68913   6.077   7.012   2.011
22491SOL    HW168914   5.998   6.980   2.055
22491SOL    HW268915   6.088   6.954   1.936
22492SOL     OW68916   7.274   6.858   2.492
22492SOL    HW168917   7.367   6.853   2.514
22492SOL    HW268918   7.247   6.945   2.522
22493SOL     OW68919   6.978   6.159   1.933
22493SOL    HW168920   6.916   6.136   2.003
22493SOL    HW268921   7.062   6.128   1.966
22494SOL     OW68922   6.107   5.846   2.162
22494SOL    HW168923   6.164   5.806   2.097
22494SOL    HW268924   6.078   5.928   2.122
22495SOL     OW68925   7.327   6.831   3.410
22495SOL    HW168926   7.414   6.792   3.404
22495SOL    HW268927   7.342   6.919   3.445
22496SOL     OW68928   6.636   6.941   3.194
22496SOL    HW168929   6.560   6.908   3.241
22496SOL    HW268930   6.711   6.898   3.235
22497SOL     OW68931   7.193   7.221   3.525
22497SOL    HW168932   7.185   7.253   3.435
22497SOL    HW268933   7.272   7.167   3.524
22498SOL     OW68934   6.728   6.807   2.963
22498SOL    HW168935   6.666   6.841   3.028
22498SOL    HW268936   6.696   6.840   2.879
22499SOL     OW68937   7.207   6.683   2.939
22499SOL    HW168938   7.200   6.744   3.012
22499SOL    HW268939   7.129   6.701   2.885
22500SOL     OW68940   6.504   5.677   3.251
22500SOL    HW168941   6.528   5.660   3.160
22500SOL    HW268942   6.583   5.716   3.289
22501SOL     OW68943   6.567   6.703   3.584
22501SOL    HW168944   6.477   6.717   3.612
22501SOL    HW268945   6.564   6.622   3.533
22502SOL     OW68946   6.298   6.651   2.235
22502SOL    HW168947   6.284   6.628   2.327
22502SOL    HW268948   6.372   6.596   2.208
22503SOL     OW68949   6.011   6.407   3.114
22503SOL    HW168950   6.076   6.417   3.184
22503SOL    HW268951   5.978   6.318   3.125
22504SOL     OW68952   6.852   5.963   3.143
22504SOL    HW168953   6.881   6.040   3.192
22504SOL    HW268954   6.760   5.982   3.121
22505SOL     OW68955   5.665   7.159   3.223
22505SOL    HW168956   5.643   7.234   3.168
22505SOL    HW268957   5.760   7.151   3.217
22506SOL     OW68958   5.913   6.705   2.359
22506SOL    HW168959   5.927   6.770   2.289
22506SOL    HW268960   5.910   6.621   2.313
22507SOL     OW68961   6.131   6.108   2.716
22507SOL    HW168962   6.147   6.168   2.643
22507SOL    HW268963   6.195   6.132   2.781
22508SOL     OW68964   6.834   6.939   2.254
22508SOL    HW168965   6.890   7.008   2.290
22508SOL    HW268966   6.747   6.958   2.288
22509SOL     OW68967   6.882   7.049   3.009
22509SOL    HW168968   6.935   7.056   3.089
22509SOL    HW268969   6.829   6.971   3.022
22510SOL     OW68970   7.160   6.207   2.346
22510SOL    HW168971   7.109   6.246   2.418
22510SOL    HW268972   7.206   6.281   2.307
22511SOL     OW68973   5.931   7.116   3.171
22511SOL    HW168974   5.922   7.069   3.088
22511SOL    HW268975   6.026   7.127   3.181
22512SOL     OW68976   6.000   6.336   3.469
22512SOL    HW168977   6.070   6.370   3.412
22512SOL    HW268978   6.027   6.247   3.489
22513SOL     OW68979   7.201   6.367   3.554
22513SOL    HW168980   7.114   6.407   3.549
22513SOL    HW268981   7.251   6.409   3.484
22514SOL     OW68982   6.583   5.724   3.608
22514SOL    HW168983   6.643   5.796   3.591
22514SOL    HW268984   6.635   5.645   3.592
22515SOL     OW68985   6.083   5.624   3.613
22515SOL    HW168986   6.029   5.570   3.556
22515SOL    HW268987   6.028   5.700   3.633
22516SOL     OW68988   6.170   6.462   2.894
22516SOL    HW168989   6.209   6.549   2.904
22516SOL    HW268990   6.117   6.451   2.973
22517SOL     OW68991   6.919   6.444   2.871
22517SOL    HW168992   6.830   6.419   2.846
22517SOL    HW268993   6.970   6.364   2.861
22518SOL     OW68994   6.779   6.113   2.120
22518SOL    HW168995   6.791   6.036   2.175
22518SOL    HW268996   6.739   6.177   2.178
22519SOL     OW68997   5.880   5.789   3.108
22519SOL    HW168998   5.839   5.815   3.191
22519SOL    HW268999   5.867   5.694   3.105
22520SOL     OW69000   5.628   6.898   3.133
22520SOL    HW169001   5.662   6.839   3.200
22520SOL    HW269002   5.636   6.985   3.171
22521SOL     OW69003   6.300   6.210   2.905
22521SOL    HW169004   6.380   6.200   2.853
22521SOL    HW269005   6.273   6.301   2.891
22522SOL     OW69006   7.325   6.550   3.724
22522SOL    HW169007   7.285   6.477   3.676
22522SOL    HW269008   7.264   6.568   3.796
22523SOL     OW69009   5.903   5.652   2.486
22523SOL    HW169010   5.873   5.740   2.508
22523SOL    HW269011   5.909   5.606   2.570
22524SOL     OW69012   7.216   5.973   2.214
22524SOL    HW169013   7.242   5.905   2.276
22524SOL    HW269014   7.188   6.046   2.269
22525SOL     OW69015   6.619   6.346   2.822
22525SOL    HW169016   6.603   6.361   2.915
22525SOL    HW269017   6.591   6.255   2.808
22526SOL     OW69018   6.568   7.157   3.588
22526SOL    HW169019   6.551   7.196   3.503
22526SOL    HW269020   6.605   7.071   3.568
22527SOL     OW69021   7.430   7.086   3.467
22527SOL    HW169022   7.455   7.114   3.379
22527SOL    HW269023   7.509   7.097   3.520
22528SOL     OW69024   5.934   6.522   3.661
22528SOL    HW169025   6.007   6.528   3.723
22528SOL    HW269026   5.961   6.453   3.600
22529SOL     OW69027   7.110   5.861   1.985
22529SOL    HW169028   7.052   5.791   2.016
22529SOL    HW269029   7.148   5.898   2.064
22530SOL     OW69030   6.866   6.408   1.887
22530SOL    HW169031   6.908   6.322   1.895
22530SOL    HW269032   6.902   6.445   1.806
22531SOL     OW69033   6.654   6.927   2.719
22531SOL    HW169034   6.662   6.855   2.657
22531SOL    HW269035   6.711   6.996   2.683
22532SOL     OW69036   5.899   6.395   2.804
22532SOL    HW169037   5.994   6.412   2.808
22532SOL    HW269038   5.889   6.306   2.836
22533SOL     OW69039   5.908   6.120   2.868
22533SOL    HW169040   5.872   6.032   2.862
22533SOL    HW269041   5.986   6.118   2.812
22534SOL     OW69042   6.724   5.959   3.543
22534SOL    HW169043   6.675   6.008   3.609
22534SOL    HW269044   6.810   6.000   3.542
22535SOL     OW69045   6.746   5.783   3.330
22535SOL    HW169046   6.734   5.844   3.403
22535SOL    HW269047   6.790   5.835   3.263
22536SOL     OW69048   5.574   6.881   2.079
22536SOL    HW169049   5.514   6.867   2.006
22536SOL    HW269050   5.591   6.793   2.114
22537SOL     OW69051   5.669   7.364   2.796
22537SOL    HW169052   5.642   7.283   2.752
22537SOL    HW269053   5.760   7.377   2.770
22538SOL     OW69054   6.074   7.160   2.761
22538SOL    HW169055   6.143   7.222   2.785
22538SOL    HW269056   6.119   7.095   2.706
22539SOL     OW69057   6.547   6.372   3.085
22539SOL    HW169058   6.609   6.353   3.155
22539SOL    HW269059   6.466   6.327   3.111
22540SOL     OW69060   5.624   6.161   2.973
22540SOL    HW169061   5.703   6.134   2.926
22540SOL    HW269062   5.645   6.149   3.065
22541SOL     OW69063   5.772   6.108   3.599
22541SOL    HW169064   5.806   6.045   3.536
22541SOL    HW269065   5.738   6.180   3.546
22542SOL     OW69066   6.971   6.514   3.518
22542SOL    HW169067   6.990   6.607   3.514
22542SOL    HW269068   6.966   6.486   3.427
22543SOL     OW69069   6.406   6.158   2.228
22543SOL    HW169070   6.413   6.081   2.171
22543SOL    HW269071   6.327   6.203   2.198
22544SOL     OW69072   7.223   6.189   3.034
22544SOL    HW169073   7.215   6.130   3.108
22544SOL    HW269074   7.313   6.174   3.002
22545SOL     OW69075   5.818   7.128   3.585
22545SOL    HW169076   5.799   7.185   3.660
22545SOL    HW269077   5.830   7.041   3.623
22546SOL     OW69078   6.311   6.027   3.108
22546SOL    HW169079   6.249   5.956   3.093
22546SOL    HW269080   6.294   6.089   3.037
22547SOL     OW69081   6.502   7.263   3.338
22547SOL    HW169082   6.479   7.220   3.255
22547SOL    HW269083   6.496   7.356   3.319
22548SOL     OW69084   6.034   6.074   2.026
22548SOL    HW169085   6.097   6.140   2.055
22548SOL    HW269086   5.950   6.120   2.027
22549SOL     OW69087   5.732   6.730   3.328
22549SOL    HW169088   5.731   6.686   3.413
22549SOL    HW269089   5.747   6.659   3.265
22550SOL     OW69090   6.905   6.627   3.074
22550SOL    HW169091   6.919   6.563   3.005
22550SOL    HW269092   6.842   6.689   3.036
22551SOL     OW69093   6.903   6.448   2.162
22551SOL    HW169094   6.835   6.410   2.218
22551SOL    HW269095   6.874   6.428   2.073
22552SOL     OW69096   7.368   7.322   3.019
22552SOL    HW169097   7.431   7.343   2.950
22552SOL    HW269098   7.340   7.233   2.998
22553SOL     OW69099   6.824   7.317   2.959
22553SOL    HW169100   6.909   7.344   2.924
22553SOL    HW269101   6.836   7.225   2.984
22554SOL     OW69102   5.670   6.867   2.865
22554SOL    HW169103   5.651   6.874   2.958
22554SOL    HW269104   5.609   6.800   2.833
22555SOL     OW69105   6.269   7.261   3.607
22555SOL    HW169106   6.211   7.337   3.595
22555SOL    HW269107   6.345   7.280   3.552
22556SOL     OW69108   7.311   5.751   2.361
22556SOL    HW169109   7.380   5.733   2.297
22556SOL    HW269110   7.293   5.666   2.402
22557SOL     OW69111   6.981   7.154   2.358
22557SOL    HW169112   7.037   7.191   2.289
22557SOL    HW269113   6.929   7.228   2.389
22558SOL     OW69114   5.724   7.388   3.706
22558SOL    HW169115   5.678   7.316   3.750
22558SOL    HW269116   5.774   7.430   3.776
22559SOL     OW69117   6.863   6.517   2.532
22559SOL    HW169118   6.936   6.457   2.545
22559SOL    HW269119   6.900   6.588   2.479
22560SOL     OW69120   6.381   6.865   3.276
22560SOL    HW169121   6.356   6.909   3.357
22560SOL    HW269122   6.304   6.872   3.220
22561SOL     OW69123   6.253   7.219   2.018
22561SOL    HW169124   6.270   7.232   1.924
22561SOL    HW269125   6.200   7.139   2.021
22562SOL     OW69126   7.201   7.316   3.254
22562SOL    HW169127   7.259   7.319   3.178
22562SOL    HW269128   7.186   7.408   3.276
22563SOL     OW69129   7.431   5.751   2.824
22563SOL    HW169130   7.461   5.662   2.802
22563SOL    HW269131   7.343   5.757   2.787
22564SOL     OW69132   5.835   5.903   2.574
22564SOL    HW169133   5.747   5.933   2.554
22564SOL    HW269134   5.837   5.895   2.670
22565SOL     OW69135   6.794   7.180   1.898
22565SOL    HW169136   6.783   7.089   1.927
22565SOL    HW269137   6.726   7.192   1.832
22566SOL     OW69138   6.409   6.592   3.244
22566SOL    HW169139   6.455   6.579   3.161
22566SOL    HW269140   6.405   6.687   3.255
22567SOL     OW69141   6.502   6.498   2.148
22567SOL    HW169142   6.565   6.533   2.085
22567SOL    HW269143   6.551   6.431   2.196
22568SOL     OW69144   7.070   7.228   1.911
22568SOL    HW169145   6.978   7.209   1.895
22568SOL    HW269146   7.110   7.230   1.824
22569SOL     OW69147   5.955   6.892   3.355
22569SOL    HW169148   5.938   6.968   3.299
22569SOL    HW269149   5.879   6.835   3.340
22570SOL     OW69150   7.192   6.872   3.145
22570SOL    HW169151   7.246   6.851   3.221
22570SOL    HW269152   7.130   6.938   3.177
22571SOL     OW69153   6.653   6.698   2.575
22571SOL    HW169154   6.580   6.648   2.612
22571SOL    HW269155   6.718   6.632   2.554
22572SOL     OW69156   6.614   5.829   2.824
22572SOL    HW169157   6.611   5.783   2.740
22572SOL    HW269158   6.608   5.759   2.890
22573SOL     OW69159   6.190   7.068   2.336
22573SOL    HW169160   6.246   7.019   2.277
22573SOL    HW269161   6.119   7.100   2.281
22574SOL     OW69162   7.313   5.980   3.236
22574SOL    HW169163   7.387   6.041   3.238
22574SOL    HW269164   7.343   5.908   3.180
22575SOL     OW69165   5.842   6.924   2.137
22575SOL    HW169166   5.750   6.903   2.122
22575SOL    HW269167   5.843   6.967   2.223
22576SOL     OW69168   5.696   6.639   3.589
22576SOL    HW169169   5.621   6.607   3.638
22576SOL    HW269170   5.771   6.591   3.625
22577SOL     OW69171   6.263   5.781   3.359
22577SOL    HW169172   6.348   5.754   3.322
22577SOL    HW269173   6.284   5.811   3.447
22578SOL     OW69174   5.673   5.908   1.899
22578SOL    HW169175   5.582   5.889   1.874
22578SOL    HW269176   5.694   5.989   1.851
22579SOL     OW69177   7.008   6.444   3.256
22579SOL    HW169178   6.958   6.504   3.201
22579SOL    HW269179   7.096   6.445   3.220
22580SOL     OW69180   5.644   5.736   2.158
22580SOL    HW169181   5.635   5.816   2.106
22580SOL    HW269182   5.730   5.700   2.132
22581SOL     OW69183   6.767   6.913   1.985
22581SOL    HW169184   6.686   6.863   1.989
22581SOL    HW269185   6.796   6.920   2.076
22582SOL     OW69186   6.207   6.415   3.301
22582SOL    HW169187   6.266   6.489   3.289
22582SOL    HW269188   6.264   6.339   3.306
22583SOL     OW69189   7.073   7.380   2.856
22583SOL    HW169190   7.101   7.442   2.789
22583SOL    HW269191   7.155   7.341   2.888
22584SOL     OW69192   6.316   6.137   3.555
22584SOL    HW169193   6.356   6.190   3.624
22584SOL    HW269194   6.322   6.047   3.587
22585SOL     OW69195   7.056   6.778   3.488
22585SOL    HW169196   7.045   6.793   3.582
22585SOL    HW269197   7.148   6.798   3.470
22586SOL     OW69198   5.951   7.322   3.430
22586SOL    HW169199   5.869   7.370   3.419
22586SOL    HW269200   5.926   7.240   3.472
22587SOL     OW69201   7.246   6.463   3.116
22587SOL    HW169202   7.244   6.377   3.073
22587SOL    HW269203   7.238   6.526   3.044
22588SOL     OW69204   6.806   5.910   2.316
22588SOL    HW169205   6.864   5.835   2.312
22588SOL    HW269206   6.834   5.959   2.393
22589SOL     OW69207   6.174   6.315   2.533
22589SOL    HW169208   6.212   6.402   2.520
22589SOL    HW269209   6.106   6.308   2.465
22590SOL     OW69210   7.335   5.949   3.508
22590SOL    HW169211   7.318   5.967   3.416
22590SOL    HW269212   7.263   5.891   3.535
22591SOL     OW69213   7.335   6.516   3.370
22591SOL    HW169214   7.321   6.610   3.383
22591SOL    HW269215   7.314   6.501   3.278
22592SOL     OW69216   6.430   6.952   1.906
22592SOL    HW169217   6.411   6.970   1.998
22592SOL    HW269218   6.461   7.035   1.871
22593SOL     OW69219   6.247   7.370   2.786
22593SOL    HW169220   6.233   7.464   2.777
22593SOL    HW269221   6.342   7.360   2.789
22594SOL     OW69222   6.457   6.559   2.714
22594SOL    HW169223   6.507   6.486   2.751
22594SOL    HW269224   6.414   6.599   2.789
22595SOL     OW69225   6.666   6.584   1.950
22595SOL    HW169226   6.643   6.628   1.868
22595SOL    HW269227   6.736   6.524   1.925
22596SOL     OW69228   7.431   7.139   2.700
22596SOL    HW169229   7.347   7.126   2.656
22596SOL    HW269230   7.432   7.073   2.769
22597SOL     OW69231   5.812   6.876   3.708
22597SOL    HW169232   5.763   6.802   3.673
22597SOL    HW269233   5.780   6.886   3.797
22598SOL     OW69234   5.691   6.811   2.528
22598SOL    HW169235   5.685   6.768   2.614
22598SOL    HW269236   5.757   6.762   2.480
22599SOL     OW69237   6.271   7.002   3.486
22599SOL    HW169238   6.199   6.954   3.527
22599SOL    HW269239   6.272   7.087   3.531
22600SOL     OW69240   7.396   5.768   3.094
22600SOL    HW169241   7.396   5.674   3.111
22600SOL    HW269242   7.410   5.776   3.000
22601SOL     OW69243   6.009   6.018   2.383
22601SOL    HW169244   6.041   5.944   2.331
22601SOL    HW269245   5.960   5.978   2.454
22602SOL     OW69246   7.278   7.073   2.955
22602SOL    HW169247   7.201   7.050   2.903
22602SOL    HW269248   7.282   7.005   3.022
22603SOL     OW69249   5.932   6.148   3.153
22603SOL    HW169250   5.977   6.086   3.209
22603SOL    HW269251   5.942   6.113   3.065
22604SOL     OW69252   6.422   7.165   2.534
22604SOL    HW169253   6.391   7.235   2.476
22604SOL    HW269254   6.347   7.106   2.542
22605SOL     OW69255   7.012   5.818   2.977
22605SOL    HW169256   7.023   5.731   3.016
22605SOL    HW269257   6.964   5.868   3.043
22606SOL     OW69258   6.597   5.606   2.993
22606SOL    HW169259   6.536   5.540   2.961
22606SOL    HW269260   6.682   5.563   2.991
22607SOL     OW69261   6.367   6.919   2.184
22607SOL    HW169262   6.342   6.827   2.196
22607SOL    HW269263   6.446   6.930   2.236
22608SOL     OW69264   6.204   7.148   3.144
22608SOL    HW169265   6.202   7.230   3.192
22608SOL    HW269266   6.295   7.141   3.114
22609SOL     OW69267   6.954   5.634   2.038
22609SOL    HW169268   6.992   5.558   1.994
22609SOL    HW269269   6.863   5.609   2.054
22610SOL     OW69270   6.887   6.053   2.538
22610SOL    HW169271   6.833   6.132   2.539
22610SOL    HW269272   6.878   6.017   2.626
22611SOL     OW69273   7.170   5.774   2.750
22611SOL    HW169274   7.116   5.801   2.825
22611SOL    HW269275   7.169   5.850   2.692
22612SOL     OW69276   5.638   6.636   2.171
22612SOL    HW169277   5.731   6.621   2.151
22612SOL    HW269278   5.604   6.549   2.194
22613SOL     OW69279   6.483   7.250   2.189
22613SOL    HW169280   6.405   7.234   2.135
22613SOL    HW269281   6.454   7.313   2.254
22614SOL     OW69282   5.800   6.219   3.857
22614SOL    HW169283   5.715   6.205   3.898
22614SOL    HW269284   5.788   6.188   3.767
22615SOL     OW69285   5.808   5.876   4.719
22615SOL    HW169286   5.837   5.841   4.803
22615SOL    HW269287   5.722   5.836   4.705
22616SOL     OW69288   5.575   5.979   4.363
22616SOL    HW169289   5.495   6.007   4.409
22616SOL    HW269290   5.549   5.899   4.317
22617SOL     OW69291   6.160   6.887   4.918
22617SOL    HW169292   6.073   6.887   4.878
22617SOL    HW269293   6.173   6.978   4.946
22618SOL     OW69294   7.164   7.105   4.436
22618SOL    HW169295   7.120   7.076   4.516
22618SOL    HW269296   7.095   7.106   4.370
22619SOL     OW69297   6.724   6.283   4.413
22619SOL    HW169298   6.767   6.368   4.407
22619SOL    HW269299   6.672   6.288   4.493
22620SOL     OW69300   7.376   6.181   3.946
22620SOL    HW169301   7.345   6.174   3.856
22620SOL    HW269302   7.335   6.107   3.991
22621SOL     OW69303   6.328   6.723   4.774
22621SOL    HW169304   6.264   6.759   4.836
22621SOL    HW269305   6.368   6.799   4.733
22622SOL     OW69306   6.473   6.339   5.557
22622SOL    HW169307   6.444   6.407   5.619
22622SOL    HW269308   6.488   6.386   5.475
22623SOL     OW69309   6.272   6.583   4.365
22623SOL    HW169310   6.338   6.574   4.434
22623SOL    HW269311   6.204   6.637   4.404
22624SOL     OW69312   6.301   6.734   5.547
22624SOL    HW169313   6.348   6.811   5.580
22624SOL    HW269314   6.221   6.769   5.508
22625SOL     OW69315   5.918   6.998   4.792
22625SOL    HW169316   5.843   6.956   4.751
22625SOL    HW269317   5.959   7.048   4.721
22626SOL     OW69318   7.042   7.090   5.089
22626SOL    HW169319   7.095   7.168   5.101
22626SOL    HW269320   6.971   7.099   5.153
22627SOL     OW69321   6.037   5.968   5.191
22627SOL    HW169322   6.110   5.908   5.204
22627SOL    HW269323   5.960   5.920   5.219
22628SOL     OW69324   7.183   6.024   4.474
22628SOL    HW169325   7.108   6.033   4.415
22628SOL    HW269326   7.169   6.091   4.541
22629SOL     OW69327   5.801   7.312   4.190
22629SOL    HW169328   5.827   7.383   4.249
22629SOL    HW269329   5.878   7.296   4.136
22630SOL     OW69330   6.722   6.928   5.421
22630SOL    HW169331   6.761   6.921   5.508
22630SOL    HW269332   6.669   6.849   5.412
22631SOL     OW69333   5.822   7.032   4.259
22631SOL    HW169334   5.793   7.122   4.274
22631SOL    HW269335   5.772   6.980   4.322
22632SOL     OW69336   5.869   6.676   4.624
22632SOL    HW169337   5.863   6.585   4.654
22632SOL    HW269338   5.805   6.723   4.678
22633SOL     OW69339   6.180   7.379   5.150
22633SOL    HW169340   6.100   7.359   5.199
22633SOL    HW269341   6.205   7.466   5.179
22634SOL     OW69342   6.155   6.572   3.870
22634SOL    HW169343   6.208   6.611   3.800
22634SOL    HW269344   6.196   6.603   3.951
22635SOL     OW69345   7.185   5.715   5.187
22635SOL    HW169346   7.200   5.799   5.143
22635SOL    HW269347   7.154   5.739   5.274
22636SOL     OW69348   5.706   6.243   4.284
22636SOL    HW169349   5.673   6.155   4.303
22636SOL    HW269350   5.698   6.290   4.367
22637SOL     OW69351   7.434   7.334   4.050
22637SOL    HW169352   7.505   7.312   4.111
22637SOL    HW269353   7.449   7.426   4.030
22638SOL     OW69354   5.628   7.172   3.836
22638SOL    HW169355   5.612   7.079   3.856
22638SOL    HW269356   5.602   7.217   3.916
22639SOL     OW69357   7.279   6.511   4.373
22639SOL    HW169358   7.356   6.461   4.346
22639SOL    HW269359   7.254   6.560   4.295
22640SOL     OW69360   7.237   6.688   4.152
22640SOL    HW169361   7.323   6.685   4.111
22640SOL    HW269362   7.246   6.755   4.220
22641SOL     OW69363   5.709   6.327   5.302
22641SOL    HW169364   5.798   6.361   5.312
22641SOL    HW269365   5.653   6.405   5.305
22642SOL     OW69366   6.208   6.981   4.458
22642SOL    HW169367   6.164   6.896   4.467
22642SOL    HW269368   6.191   7.006   4.367
22643SOL     OW69369   6.868   6.821   5.140
22643SOL    HW169370   6.897   6.750   5.082
22643SOL    HW269371   6.925   6.814   5.217
22644SOL     OW69372   6.414   5.597   4.238
22644SOL    HW169373   6.451   5.682   4.214
22644SOL    HW269374   6.320   5.612   4.243
22645SOL     OW69375   5.773   6.543   5.001
22645SOL    HW169376   5.860   6.505   4.988
22645SOL    HW269377   5.713   6.481   4.961
22646SOL     OW69378   7.117   6.590   3.924
22646SOL    HW169379   7.047   6.533   3.955
22646SOL    HW269380   7.160   6.622   4.003
22647SOL     OW69381   6.779   7.402   5.357
22647SOL    HW169382   6.775   7.462   5.283
22647SOL    HW269383   6.790   7.316   5.319
22648SOL     OW69384   5.937   5.840   5.572
22648SOL    HW169385   5.970   5.926   5.599
22648SOL    HW269386   5.843   5.845   5.586
22649SOL     OW69387   7.056   7.002   4.666
22649SOL    HW169388   6.990   7.019   4.733
22649SOL    HW269389   7.040   6.912   4.639
22650SOL     OW69390   7.234   7.350   4.298
22650SOL    HW169391   7.213   7.312   4.213
22650SOL    HW269392   7.221   7.278   4.360
22651SOL     OW69393   6.175   6.295   3.997
22651SOL    HW169394   6.175   6.382   3.957
22651SOL    HW269395   6.110   6.300   4.067
22652SOL     OW69396   6.866   5.961   4.659
22652SOL    HW169397   6.777   5.928   4.665
22652SOL    HW269398   6.917   5.905   4.717
22653SOL     OW69399   7.164   7.267   4.037
22653SOL    HW169400   7.257   7.283   4.028
22653SOL    HW269401   7.134   7.248   3.948
22654SOL     OW69402   6.382   6.202   5.165
22654SOL    HW169403   6.359   6.174   5.254
22654SOL    HW269404   6.351   6.131   5.109
22655SOL     OW69405   6.983   6.063   5.402
22655SOL    HW169406   6.985   6.105   5.488
22655SOL    HW269407   7.030   5.981   5.413
22656SOL     OW69408   6.535   6.469   5.316
22656SOL    HW169409   6.589   6.401   5.275
22656SOL    HW269410   6.483   6.505   5.244
22657SOL     OW69411   6.587   5.992   4.945
22657SOL    HW169412   6.497   6.007   4.975
22657SOL    HW269413   6.578   5.939   4.866
22658SOL     OW69414   6.642   6.288   4.145
22658SOL    HW169415   6.662   6.280   4.238
22658SOL    HW269416   6.558   6.243   4.134
22659SOL     OW69417   5.681   6.416   4.497
22659SOL    HW169418   5.758   6.401   4.551
22659SOL    HW269419   5.634   6.487   4.541
22660SOL     OW69420   5.710   7.458   5.308
22660SOL    HW169421   5.714   7.439   5.401
22660SOL    HW269422   5.628   7.419   5.278
22661SOL     OW69423   6.476   5.938   3.922
22661SOL    HW169424   6.524   5.990   3.858
22661SOL    HW269425   6.451   5.858   3.875
22662SOL     OW69426   7.296   6.154   5.554
22662SOL    HW169427   7.259   6.229   5.506
22662SOL    HW269428   7.314   6.090   5.485
22663SOL     OW69429   6.973   6.732   4.268
22663SOL    HW169430   7.051   6.718   4.214
22663SOL    HW269431   6.918   6.791   4.218
22664SOL     OW69432   6.151   5.765   4.630
22664SOL    HW169433   6.147   5.791   4.722
22664SOL    HW269434   6.137   5.846   4.581
22665SOL     OW69435   6.583   7.033   4.190
22665SOL    HW169436   6.557   7.109   4.137
22665SOL    HW269437   6.554   7.055   4.278
22666SOL     OW69438   5.938   7.399   4.597
22666SOL    HW169439   5.982   7.314   4.602
22666SOL    HW269440   6.005   7.463   4.622
22667SOL     OW69441   7.387   6.644   4.595
22667SOL    HW169442   7.335   6.617   4.519
22667SOL    HW269443   7.324   6.648   4.667
22668SOL     OW69444   6.810   7.127   5.239
22668SOL    HW169445   6.798   7.057   5.303
22668SOL    HW269446   6.740   7.113   5.175
22669SOL     OW69447   5.891   6.545   3.981
22669SOL    HW169448   5.976   6.559   3.938
22669SOL    HW269449   5.866   6.456   3.957
22670SOL     OW69450   7.068   6.342   4.440
22670SOL    HW169451   7.066   6.297   4.525
22670SOL    HW269452   7.148   6.395   4.444
22671SOL     OW69453   6.061   6.860   5.464
22671SOL    HW169454   6.034   6.865   5.372
22671SOL    HW269455   5.979   6.848   5.512
22672SOL     OW69456   6.716   7.368   3.943
22672SOL    HW169457   6.639   7.334   3.987
22672SOL    HW269458   6.739   7.301   3.879
22673SOL     OW69459   5.781   5.856   5.236
22673SOL    HW169460   5.692   5.891   5.228
22673SOL    HW269461   5.768   5.766   5.266
22674SOL     OW69462   7.216   6.972   3.816
22674SOL    HW169463   7.172   7.056   3.803
22674SOL    HW269464   7.150   6.906   3.795
22675SOL     OW69465   6.044   7.325   4.040
22675SOL    HW169466   6.092   7.374   4.108
22675SOL    HW269467   6.113   7.282   3.989
22676SOL     OW69468   6.984   5.695   4.169
22676SOL    HW169469   6.978   5.667   4.078
22676SOL    HW269470   7.078   5.692   4.189
22677SOL     OW69471   5.845   7.375   4.947
22677SOL    HW169472   5.889   7.301   4.989
22677SOL    HW269473   5.833   7.348   4.856
22678SOL     OW69474   6.524   7.287   4.617
22678SOL    HW169475   6.598   7.236   4.648
22678SOL    HW269476   6.487   7.235   4.546
22679SOL     OW69477   5.981   6.277   4.196
22679SOL    HW169478   5.998   6.183   4.211
22679SOL    HW269479   5.888   6.287   4.215
22680SOL     OW69480   7.101   5.807   5.445
22680SOL    HW169481   7.113   5.826   5.538
22680SOL    HW269482   7.033   5.740   5.443
22681SOL     OW69483   6.241   5.700   3.822
22681SOL    HW169484   6.277   5.620   3.860
22681SOL    HW269485   6.183   5.670   3.753
22682SOL     OW69486   6.351   5.862   5.482
22682SOL    HW169487   6.432   5.812   5.476
22682SOL    HW269488   6.300   5.817   5.550
22683SOL     OW69489   6.463   7.116   4.919
22683SOL    HW169490   6.442   7.073   4.836
22683SOL    HW269491   6.528   7.058   4.960
22684SOL     OW69492   6.923   6.175   5.158
22684SOL    HW169493   6.954   6.144   5.243
22684SOL    HW269494   6.958   6.264   5.151
22685SOL     OW69495   6.407   6.975   4.676
22685SOL    HW169496   6.492   6.962   4.633
22685SOL    HW269497   6.344   6.981   4.603
22686SOL     OW69498   6.521   6.101   4.618
22686SOL    HW169499   6.495   6.088   4.527
22686SOL    HW269500   6.543   6.014   4.649
22687SOL     OW69501   6.147   5.652   4.216
22687SOL    HW169502   6.069   5.650   4.272
22687SOL    HW269503   6.133   5.727   4.158
22688SOL     OW69504   7.016   6.790   3.761
22688SOL    HW169505   7.046   6.715   3.812
22688SOL    HW269506   6.930   6.811   3.798
22689SOL     OW69507   5.876   5.639   3.911
22689SOL    HW169508   5.939   5.706   3.884
22689SOL    HW269509   5.929   5.573   3.955
22690SOL     OW69510   6.533   5.842   4.178
22690SOL    HW169511   6.509   5.876   4.091
22690SOL    HW269512   6.628   5.856   4.183
22691SOL     OW69513   6.664   6.274   5.176
22691SOL    HW169514   6.595   6.208   5.183
22691SOL    HW269515   6.745   6.224   5.173
22692SOL     OW69516   6.804   7.157   4.517
22692SOL    HW169517   6.817   7.224   4.450
22692SOL    HW269518   6.871   7.175   4.583
22693SOL     OW69519   6.063   6.746   4.447
22693SOL    HW169520   6.001   6.722   4.516
22693SOL    HW269521   6.013   6.733   4.366
22694SOL     OW69522   6.845   7.375   4.340
22694SOL    HW169523   6.891   7.439   4.286
22694SOL    HW269524   6.774   7.424   4.380
22695SOL     OW69525   6.616   6.109   3.750
22695SOL    HW169526   6.571   6.192   3.735
22695SOL    HW269527   6.675   6.127   3.823
22696SOL     OW69528   5.677   6.145   5.104
22696SOL    HW169529   5.771   6.140   5.083
22696SOL    HW269530   5.672   6.208   5.176
22697SOL     OW69531   6.145   5.814   4.903
22697SOL    HW169532   6.182   5.739   4.949
22697SOL    HW269533   6.053   5.816   4.927
22698SOL     OW69534   6.458   6.047   4.359
22698SOL    HW169535   6.407   6.100   4.297
22698SOL    HW269536   6.478   5.967   4.311
22699SOL     OW69537   6.611   5.635   4.461
22699SOL    HW169538   6.547   5.629   4.390
22699SOL    HW269539   6.586   5.564   4.521
22700SOL     OW69540   7.020   6.742   4.578
22700SOL    HW169541   6.953   6.675   4.591
22700SOL    HW269542   7.030   6.748   4.483
22701SOL     OW69543   7.051   6.195   4.680
22701SOL    HW169544   6.988   6.124   4.688
22701SOL    HW269545   7.105   6.188   4.759
22702SOL     OW69546   7.424   6.391   4.115
22702SOL    HW169547   7.483   6.342   4.172
22702SOL    HW269548   7.402   6.329   4.045
22703SOL     OW69549   6.075   7.010   3.876
22703SOL    HW169550   5.998   6.982   3.924
22703SOL    HW269551   6.079   6.952   3.800
22704SOL     OW69552   7.274   6.860   4.351
22704SOL    HW169553   7.366   6.857   4.375
22704SOL    HW269554   7.245   6.946   4.383
22705SOL     OW69555   6.978   6.158   3.796
22705SOL    HW169556   6.913   6.137   3.864
22705SOL    HW269557   7.060   6.124   3.831
22706SOL     OW69558   6.112   5.848   4.026
22706SOL    HW169559   6.165   5.806   3.958
22706SOL    HW269560   6.081   5.929   3.985
22707SOL     OW69561   7.327   6.831   5.271
22707SOL    HW169562   7.414   6.792   5.263
22707SOL    HW269563   7.343   6.918   5.307
22708SOL     OW69564   6.634   6.943   5.057
22708SOL    HW169565   6.558   6.908   5.104
22708SOL    HW269566   6.709   6.899   5.098
22709SOL     OW69567   7.197   7.220   5.389
22709SOL    HW169568   7.186   7.252   5.300
22709SOL    HW269569   7.276   7.166   5.386
22710SOL     OW69570   6.730   6.810   4.825
22710SOL    HW169571   6.665   6.839   4.888
22710SOL    HW269572   6.698   6.840   4.740
22711SOL     OW69573   7.208   6.683   4.799
22711SOL    HW169574   7.200   6.745   4.872
22711SOL    HW269575   7.131   6.700   4.746
22712SOL     OW69576   6.503   5.679   5.113
22712SOL    HW169577   6.526   5.661   5.022
22712SOL    HW269578   6.582   5.717   5.151
22713SOL     OW69579   6.569   6.701   5.448
22713SOL    HW169580   6.478   6.716   5.475
22713SOL    HW269581   6.565   6.621   5.396
22714SOL     OW69582   6.299   6.652   4.095
22714SOL    HW169583   6.284   6.629   4.186
22714SOL    HW269584   6.373   6.597   4.068
22715SOL     OW69585   6.013   6.408   4.976
22715SOL    HW169586   6.077   6.417   5.046
22715SOL    HW269587   5.979   6.319   4.986
22716SOL     OW69588   6.852   5.961   5.004
22716SOL    HW169589   6.880   6.039   5.053
22716SOL    HW269590   6.761   5.980   4.981
22717SOL     OW69591   5.663   7.162   5.087
22717SOL    HW169592   5.635   7.230   5.027
22717SOL    HW269593   5.757   7.157   5.076
22718SOL     OW69594   5.913   6.711   4.216
22718SOL    HW169595   5.912   6.780   4.150
22718SOL    HW269596   5.911   6.629   4.165
22719SOL     OW69597   6.135   6.108   4.578
22719SOL    HW169598   6.150   6.168   4.505
22719SOL    HW269599   6.199   6.134   4.644
22720SOL     OW69600   6.834   6.939   4.117
22720SOL    HW169601   6.889   7.008   4.153
22720SOL    HW269602   6.746   6.959   4.150
22721SOL     OW69603   6.882   7.049   4.869
22721SOL    HW169604   6.933   7.053   4.951
22721SOL    HW269605   6.828   6.970   4.879
22722SOL     OW69606   7.160   6.207   4.207
22722SOL    HW169607   7.109   6.243   4.280
22722SOL    HW269608   7.198   6.283   4.164
22723SOL     OW69609   5.930   7.120   5.030
22723SOL    HW169610   5.919   7.070   4.949
22723SOL    HW269611   6.025   7.130   5.040
22724SOL     OW69612   5.997   6.339   5.330
22724SOL    HW169613   6.068   6.370   5.274
22724SOL    HW269614   6.016   6.246   5.343
22725SOL     OW69615   7.204   6.370   5.416
22725SOL    HW169616   7.116   6.408   5.410
22725SOL    HW269617   7.252   6.410   5.344
22726SOL     OW69618   6.584   5.723   5.471
22726SOL    HW169619   6.645   5.795   5.453
22726SOL    HW269620   6.635   5.644   5.457
22727SOL     OW69621   6.080   5.625   5.478
22727SOL    HW169622   6.028   5.570   5.420
22727SOL    HW269623   6.023   5.700   5.497
22728SOL     OW69624   6.173   6.459   4.757
22728SOL    HW169625   6.205   6.549   4.764
22728SOL    HW269626   6.116   6.448   4.833
22729SOL     OW69627   6.917   6.443   4.735
22729SOL    HW169628   6.828   6.419   4.709
22729SOL    HW269629   6.967   6.362   4.723
22730SOL     OW69630   6.780   6.113   3.982
22730SOL    HW169631   6.790   6.036   4.037
22730SOL    HW269632   6.738   6.178   4.039
22731SOL     OW69633   5.883   5.790   4.970
22731SOL    HW169634   5.837   5.813   5.051
22731SOL    HW269635   5.873   5.695   4.963
22732SOL     OW69636   5.642   6.899   4.993
22732SOL    HW169637   5.668   6.839   5.062
22732SOL    HW269638   5.639   6.985   5.035
22733SOL     OW69639   6.304   6.212   4.770
22733SOL    HW169640   6.381   6.204   4.714
22733SOL    HW269641   6.273   6.301   4.754
22734SOL     OW69642   7.328   6.551   5.586
22734SOL    HW169643   7.289   6.479   5.537
22734SOL    HW269644   7.265   6.568   5.657
22735SOL     OW69645   5.906   5.653   4.346
22735SOL    HW169646   5.873   5.740   4.368
22735SOL    HW269647   5.910   5.607   4.429
22736SOL     OW69648   7.218   5.973   4.077
22736SOL    HW169649   7.243   5.905   4.139
22736SOL    HW269650   7.189   6.046   4.131
22737SOL     OW69651   6.622   6.346   4.684
22737SOL    HW169652   6.604   6.362   4.777
22737SOL    HW269653   6.593   6.256   4.669
22738SOL     OW69654   6.571   7.157   5.450
22738SOL    HW169655   6.551   7.197   5.365
22738SOL    HW269656   6.607   7.071   5.428
22739SOL     OW69657   7.433   7.085   5.331
22739SOL    HW169658   7.455   7.113   5.242
22739SOL    HW269659   7.514   7.095   5.380
22740SOL     OW69660   5.937   6.519   5.527
22740SOL    HW169661   6.013   6.524   5.585
22740SOL    HW269662   5.959   6.452   5.463
22741SOL     OW69663   7.112   5.859   3.847
22741SOL    HW169664   7.052   5.792   3.878
22741SOL    HW269665   7.149   5.897   3.927
22742SOL     OW69666   6.868   6.408   3.750
22742SOL    HW169667   6.909   6.322   3.758
22742SOL    HW269668   6.903   6.444   3.669
22743SOL     OW69669   6.655   6.929   4.581
22743SOL    HW169670   6.662   6.856   4.520
22743SOL    HW269671   6.712   6.996   4.544
22744SOL     OW69672   5.897   6.394   4.668
22744SOL    HW169673   5.991   6.409   4.668
22744SOL    HW269674   5.886   6.305   4.700
22745SOL     OW69675   5.915   6.119   4.734
22745SOL    HW169676   5.876   6.032   4.725
22745SOL    HW269677   5.991   6.117   4.676
22746SOL     OW69678   6.725   5.959   5.405
22746SOL    HW169679   6.675   6.008   5.470
22746SOL    HW269680   6.810   6.002   5.403
22747SOL     OW69681   6.746   5.783   5.192
22747SOL    HW169682   6.734   5.844   5.265
22747SOL    HW269683   6.789   5.834   5.124
22748SOL     OW69684   5.596   6.897   3.912
22748SOL    HW169685   5.508   6.913   3.877
22748SOL    HW269686   5.592   6.809   3.949
22749SOL     OW69687   5.673   7.363   4.664
22749SOL    HW169688   5.643   7.285   4.618
22749SOL    HW269689   5.762   7.377   4.633
22750SOL     OW69690   6.075   7.161   4.624
22750SOL    HW169691   6.144   7.223   4.647
22750SOL    HW269692   6.118   7.096   4.568
22751SOL     OW69693   6.547   6.372   4.945
22751SOL    HW169694   6.606   6.353   5.018
22751SOL    HW269695   6.466   6.326   4.967
22752SOL     OW69696   5.621   6.162   4.836
22752SOL    HW169697   5.693   6.123   4.787
22752SOL    HW269698   5.645   6.149   4.927
22753SOL     OW69699   5.776   6.105   5.457
22753SOL    HW169700   5.796   6.038   5.392
22753SOL    HW269701   5.738   6.177   5.406
22754SOL     OW69702   6.972   6.513   5.381
22754SOL    HW169703   6.989   6.607   5.375
22754SOL    HW269704   6.964   6.485   5.289
22755SOL     OW69705   6.407   6.161   4.088
22755SOL    HW169706   6.412   6.083   4.033
22755SOL    HW269707   6.327   6.206   4.059
22756SOL     OW69708   7.222   6.190   4.897
22756SOL    HW169709   7.212   6.129   4.970
22756SOL    HW269710   7.311   6.174   4.865
22757SOL     OW69711   5.820   7.128   5.448
22757SOL    HW169712   5.798   7.184   5.523
22757SOL    HW269713   5.830   7.041   5.485
22758SOL     OW69714   6.312   6.027   4.971
22758SOL    HW169715   6.250   5.955   4.956
22758SOL    HW269716   6.295   6.088   4.899
22759SOL     OW69717   6.505   7.262   5.199
22759SOL    HW169718   6.480   7.218   5.118
22759SOL    HW269719   6.497   7.355   5.180
22760SOL     OW69720   6.036   6.075   3.889
22760SOL    HW169721   6.098   6.142   3.919
22760SOL    HW269722   5.951   6.119   3.888
22761SOL     OW69723   5.733   6.730   5.195
22761SOL    HW169724   5.731   6.686   5.279
22761SOL    HW269725   5.747   6.660   5.131
22762SOL     OW69726   6.906   6.628   4.936
22762SOL    HW169727   6.918   6.562   4.867
22762SOL    HW269728   6.843   6.690   4.898
22763SOL     OW69729   6.905   6.446   4.025
22763SOL    HW169730   6.836   6.410   4.081
22763SOL    HW269731   6.875   6.428   3.936
22764SOL     OW69732   7.374   7.319   4.887
22764SOL    HW169733   7.434   7.342   4.815
22764SOL    HW269734   7.341   7.232   4.863
22765SOL     OW69735   6.824   7.317   4.823
22765SOL    HW169736   6.908   7.343   4.786
22765SOL    HW269737   6.836   7.225   4.847
22766SOL     OW69738   5.675   6.861   4.727
22766SOL    HW169739   5.658   6.870   4.821
22766SOL    HW269740   5.610   6.797   4.697
22767SOL     OW69741   6.267   7.263   5.468
22767SOL    HW169742   6.205   7.334   5.457
22767SOL    HW269743   6.337   7.281   5.405
22768SOL     OW69744   7.314   5.751   4.225
22768SOL    HW169745   7.381   5.733   4.160
22768SOL    HW269746   7.295   5.665   4.265
22769SOL     OW69747   6.982   7.155   4.221
22769SOL    HW169748   7.036   7.192   4.151
22769SOL    HW269749   6.928   7.228   4.251
22770SOL     OW69750   5.723   7.388   5.567
22770SOL    HW169751   5.677   7.316   5.609
22770SOL    HW269752   5.772   7.431   5.638
22771SOL     OW69753   6.864   6.517   4.394
22771SOL    HW169754   6.936   6.456   4.406
22771SOL    HW269755   6.900   6.588   4.341
22772SOL     OW69756   6.380   6.866   5.138
22772SOL    HW169757   6.354   6.909   5.219
22772SOL    HW269758   6.303   6.873   5.081
22773SOL     OW69759   6.252   7.216   3.881
22773SOL    HW169760   6.265   7.230   3.787
22773SOL    HW269761   6.198   7.137   3.886
22774SOL     OW69762   7.202   7.315   5.119
22774SOL    HW169763   7.259   7.317   5.042
22774SOL    HW269764   7.187   7.407   5.141
22775SOL     OW69765   7.432   5.751   4.687
22775SOL    HW169766   7.460   5.662   4.665
22775SOL    HW269767   7.344   5.758   4.651
22776SOL     OW69768   5.834   5.904   4.436
22776SOL    HW169769   5.746   5.933   4.414
22776SOL    HW269770   5.834   5.896   4.532
22777SOL     OW69771   6.795   7.179   3.759
22777SOL    HW169772   6.782   7.089   3.789
22777SOL    HW269773   6.725   7.192   3.694
22778SOL     OW69774   6.408   6.593   5.106
22778SOL    HW169775   6.448   6.580   5.020
22778SOL    HW269776   6.403   6.688   5.117
22779SOL     OW69777   6.504   6.500   4.008
22779SOL    HW169778   6.569   6.535   3.947
22779SOL    HW269779   6.552   6.432   4.056
22780SOL     OW69780   7.070   7.227   3.774
22780SOL    HW169781   6.978   7.208   3.758
22780SOL    HW269782   7.109   7.229   3.686
22781SOL     OW69783   5.955   6.895   5.217
22781SOL    HW169784   5.938   6.970   5.160
22781SOL    HW269785   5.881   6.836   5.203
22782SOL     OW69786   7.194   6.874   5.007
22782SOL    HW169787   7.245   6.851   5.085
22782SOL    HW269788   7.131   6.939   5.038
22783SOL     OW69789   6.654   6.698   4.439
22783SOL    HW169790   6.580   6.650   4.475
22783SOL    HW269791   6.718   6.631   4.416
22784SOL     OW69792   6.616   5.829   4.686
22784SOL    HW169793   6.610   5.783   4.602
22784SOL    HW269794   6.608   5.759   4.751
22785SOL     OW69795   6.193   7.071   4.200
22785SOL    HW169796   6.245   7.022   4.136
22785SOL    HW269797   6.108   7.083   4.157
22786SOL     OW69798   7.314   5.980   5.100
22786SOL    HW169799   7.388   6.041   5.100
22786SOL    HW269800   7.343   5.907   5.044
22787SOL     OW69801   5.850   6.930   4.015
22787SOL    HW169802   5.758   6.921   3.990
22787SOL    HW269803   5.847   6.971   4.102
22788SOL     OW69804   5.699   6.642   5.457
22788SOL    HW169805   5.623   6.609   5.503
22788SOL    HW269806   5.772   6.590   5.492
22789SOL     OW69807   6.262   5.781   5.222
22789SOL    HW169808   6.346   5.755   5.184
22789SOL    HW269809   6.284   5.812   5.310
22790SOL     OW69810   5.672   5.906   3.763
22790SOL    HW169811   5.583   5.881   3.739
22790SOL    HW269812   5.688   5.987   3.714
22791SOL     OW69813   7.007   6.443   5.119
22791SOL    HW169814   6.956   6.503   5.064
22791SOL    HW269815   7.095   6.445   5.080
22792SOL     OW69816   5.645   5.736   4.021
22792SOL    HW169817   5.635   5.816   3.969
22792SOL    HW269818   5.729   5.700   3.994
22793SOL     OW69819   6.766   6.914   3.847
22793SOL    HW169820   6.683   6.866   3.849
22793SOL    HW269821   6.794   6.919   3.938
22794SOL     OW69822   6.208   6.413   5.164
22794SOL    HW169823   6.267   6.487   5.152
22794SOL    HW269824   6.266   6.337   5.168
22795SOL     OW69825   7.069   7.380   4.713
22795SOL    HW169826   7.094   7.447   4.649
22795SOL    HW269827   7.152   7.339   4.738
22796SOL     OW69828   6.320   6.135   5.417
22796SOL    HW169829   6.357   6.187   5.488
22796SOL    HW269830   6.324   6.044   5.449
22797SOL     OW69831   7.056   6.777   5.350
22797SOL    HW169832   7.046   6.793   5.444
22797SOL    HW269833   7.148   6.798   5.332
22798SOL     OW69834   5.952   7.324   5.294
22798SOL    HW169835   5.870   7.371   5.279
22798SOL    HW269836   5.925   7.241   5.335
22799SOL     OW69837   7.247   6.463   4.979
22799SOL    HW169838   7.242   6.377   4.937
22799SOL    HW269839   7.237   6.525   4.907
22800SOL     OW69840   6.807   5.912   4.177
22800SOL    HW169841   6.864   5.835   4.174
22800SOL    HW269842   6.836   5.960   4.255
22801SOL     OW69843   6.176   6.316   4.395
22801SOL    HW169844   6.213   6.403   4.380
22801SOL    HW269845   6.108   6.307   4.329
22802SOL     OW69846   7.331   5.949   5.373
22802SOL    HW169847   7.316   5.967   5.280
22802SOL    HW269848   7.259   5.891   5.398
22803SOL     OW69849   7.344   6.516   5.231
22803SOL    HW169850   7.321   6.608   5.245
22803SOL    HW269851   7.318   6.499   5.140
22804SOL     OW69852   6.436   6.950   3.771
22804SOL    HW169853   6.410   6.963   3.863
22804SOL    HW269854   6.458   7.038   3.740
22805SOL     OW69855   6.248   7.370   4.650
22805SOL    HW169856   6.233   7.464   4.638
22805SOL    HW269857   6.343   7.361   4.650
22806SOL     OW69858   6.458   6.561   4.577
22806SOL    HW169859   6.505   6.486   4.614
22806SOL    HW269860   6.413   6.600   4.653
22807SOL     OW69861   6.672   6.589   3.814
22807SOL    HW169862   6.645   6.630   3.732
22807SOL    HW269863   6.739   6.526   3.788
22808SOL     OW69864   7.429   7.141   4.563
22808SOL    HW169865   7.347   7.129   4.516
22808SOL    HW269866   7.426   7.075   4.633
22809SOL     OW69867   5.804   6.875   5.567
22809SOL    HW169868   5.766   6.799   5.524
22809SOL    HW269869   5.753   6.886   5.647
22810SOL     OW69870   5.687   6.818   4.391
22810SOL    HW169871   5.677   6.771   4.474
22810SOL    HW269872   5.752   6.767   4.343
22811SOL     OW69873   6.274   7.000   5.353
22811SOL    HW169874   6.199   6.954   5.390
22811SOL    HW269875   6.272   7.087   5.395
22812SOL     OW69876   7.401   5.769   4.958
22812SOL    HW169877   7.394   5.675   4.975
22812SOL    HW269878   7.413   5.775   4.863
22813SOL     OW69879   6.013   6.016   4.248
22813SOL    HW169880   6.041   5.942   4.194
22813SOL    HW269881   5.960   5.977   4.317
22814SOL     OW69882   7.278   7.073   4.817
22814SOL    HW169883   7.202   7.052   4.763
22814SOL    HW269884   7.279   7.005   4.885
22815SOL     OW69885   5.935   6.150   5.016
22815SOL    HW169886   5.980   6.085   5.070
22815SOL    HW269887   5.943   6.115   4.927
22816SOL     OW69888   6.422   7.165   4.395
22816SOL    HW169889   6.391   7.236   4.337
22816SOL    HW269890   6.347   7.106   4.402
22817SOL     OW69891   7.011   5.815   4.838
22817SOL    HW169892   7.012   5.725   4.872
22817SOL    HW269893   6.963   5.865   4.905
22818SOL     OW69894   6.596   5.607   4.856
22818SOL    HW169895   6.534   5.541   4.825
22818SOL    HW269896   6.681   5.562   4.854
22819SOL     OW69897   6.367   6.919   4.043
22819SOL    HW169898   6.340   6.828   4.056
22819SOL    HW269899   6.445   6.929   4.098
22820SOL     OW69900   6.205   7.147   5.009
22820SOL    HW169901   6.203   7.228   5.059
22820SOL    HW269902   6.295   7.141   4.976
22821SOL     OW69903   6.952   5.635   3.899
22821SOL    HW169904   6.988   5.561   3.851
22821SOL    HW269905   6.861   5.610   3.917
22822SOL     OW69906   6.891   6.053   4.401
22822SOL    HW169907   6.836   6.132   4.400
22822SOL    HW269908   6.880   6.016   4.488
22823SOL     OW69909   7.172   5.775   4.613
22823SOL    HW169910   7.116   5.800   4.687
22823SOL    HW269911   7.169   5.851   4.555
22824SOL     OW69912   5.629   6.645   4.028
22824SOL    HW169913   5.722   6.633   4.009
22824SOL    HW269914   5.598   6.557   4.052
22825SOL     OW69915   6.482   7.250   4.050
22825SOL    HW169916   6.403   7.233   3.998
22825SOL    HW269917   6.453   7.313   4.116
22826SOL     OW69918   5.802   6.217   5.716
22826SOL    HW169919   5.716   6.202   5.756
22826SOL    HW269920   5.792   6.186   5.626
22827SOL     OW69921   5.807   5.881   6.584
22827SOL    HW169922   5.838   5.842   6.665
22827SOL    HW269923   5.723   5.838   6.567
22828SOL     OW69924   5.576   5.980   6.226
22828SOL    HW169925   5.496   6.008   6.270
22828SOL    HW269926   5.550   5.900   6.180
22829SOL     OW69927   6.160   6.887   6.782
22829SOL    HW169928   6.075   6.884   6.739
22829SOL    HW269929   6.171   6.978   6.808
22830SOL     OW69930   7.164   7.107   6.297
22830SOL    HW169931   7.120   7.076   6.376
22830SOL    HW269932   7.095   7.109   6.230
22831SOL     OW69933   6.727   6.282   6.276
22831SOL    HW169934   6.768   6.368   6.269
22831SOL    HW269935   6.673   6.287   6.355
22832SOL     OW69936   7.375   6.182   5.809
22832SOL    HW169937   7.344   6.177   5.719
22832SOL    HW269938   7.334   6.108   5.853
22833SOL     OW69939   6.334   6.726   6.641
22833SOL    HW169940   6.268   6.761   6.701
22833SOL    HW269941   6.370   6.802   6.596
22834SOL     OW69942   6.474   6.341   7.418
22834SOL    HW169943   6.438   6.410   7.475
22834SOL    HW269944   6.489   6.385   7.335
22835SOL     OW69945   6.273   6.584   6.227
22835SOL    HW169946   6.338   6.576   6.297
22835SOL    HW269947   6.204   6.638   6.264
22836SOL     OW69948   6.302   6.736   7.411
22836SOL    HW169949   6.350   6.813   7.443
22836SOL    HW269950   6.223   6.772   7.371
22837SOL     OW69951   5.919   6.997   6.653
22837SOL    HW169952   5.844   6.954   6.612
22837SOL    HW269953   5.959   7.047   6.582
22838SOL     OW69954   7.042   7.088   6.953
22838SOL    HW169955   7.094   7.167   6.964
22838SOL    HW269956   6.970   7.098   7.015
22839SOL     OW69957   6.038   5.970   7.056
22839SOL    HW169958   6.109   5.907   7.065
22839SOL    HW269959   5.959   5.921   7.081
22840SOL     OW69960   7.183   6.024   6.335
22840SOL    HW169961   7.110   6.031   6.275
22840SOL    HW269962   7.168   6.093   6.400
22841SOL     OW69963   5.801   7.310   6.051
22841SOL    HW169964   5.828   7.382   6.109
22841SOL    HW269965   5.876   7.297   5.994
22842SOL     OW69966   6.723   6.927   7.282
22842SOL    HW169967   6.760   6.920   7.370
22842SOL    HW269968   6.670   6.848   7.272
22843SOL     OW69969   5.824   7.035   6.127
22843SOL    HW169970   5.793   7.125   6.135
22843SOL    HW269971   5.771   6.985   6.189
22844SOL     OW69972   5.874   6.677   6.491
22844SOL    HW169973   5.863   6.586   6.518
22844SOL    HW269974   5.806   6.724   6.538
22845SOL     OW69975   6.184   7.377   7.019
22845SOL    HW169976   6.102   7.358   7.065
22845SOL    HW269977   6.205   7.467   7.045
22846SOL     OW69978   6.157   6.571   5.731
22846SOL    HW169979   6.208   6.612   5.661
22846SOL    HW269980   6.196   6.602   5.812
22847SOL     OW69981   7.186   5.714   7.050
22847SOL    HW169982   7.195   5.797   7.003
22847SOL    HW269983   7.154   5.739   7.137
22848SOL     OW69984   5.707   6.240   6.146
22848SOL    HW169985   5.672   6.153   6.163
22848SOL    HW269986   5.699   6.287   6.229
22849SOL     OW69987   7.428   7.334   5.907
22849SOL    HW169988   7.495   7.311   5.971
22849SOL    HW269989   7.443   7.427   5.889
22850SOL     OW69990   5.633   7.172   5.700
22850SOL    HW169991   5.615   7.080   5.718
22850SOL    HW269992   5.603   7.218   5.778
22851SOL     OW69993   7.284   6.513   6.233
22851SOL    HW169994   7.351   6.457   6.195
22851SOL    HW269995   7.251   6.564   6.159
22852SOL     OW69996   7.235   6.689   6.015
22852SOL    HW169997   7.321   6.685   5.973
22852SOL    HW269998   7.243   6.756   6.082
22853SOL     OW69999   5.704   6.326   7.166
22853SOL    HW170000   5.791   6.366   7.171
22853SOL    HW270001   5.644   6.401   7.157
22854SOL     OW70002   6.206   6.981   6.321
22854SOL    HW170003   6.162   6.896   6.330
22854SOL    HW270004   6.190   7.007   6.231
22855SOL     OW70005   6.867   6.820   7.003
22855SOL    HW170006   6.894   6.750   6.944
22855SOL    HW270007   6.925   6.812   7.079
22856SOL     OW70008   6.416   5.599   6.104
22856SOL    HW170009   6.452   5.683   6.077
22856SOL    HW270010   6.321   5.613   6.107
22857SOL     OW70011   5.773   6.544   6.869
22857SOL    HW170012   5.859   6.505   6.853
22857SOL    HW270013   5.712   6.488   6.820
22858SOL     OW70014   7.118   6.589   5.785
22858SOL    HW170015   7.048   6.531   5.815
22858SOL    HW270016   7.158   6.621   5.865
22859SOL     OW70017   6.780   7.402   7.220
22859SOL    HW170018   6.774   7.462   7.146
22859SOL    HW270019   6.788   7.315   7.180
22860SOL     OW70020   5.931   5.835   7.437
22860SOL    HW170021   5.964   5.925   7.448
22860SOL    HW270022   5.837   5.843   7.448
22861SOL     OW70023   7.057   7.002   6.527
22861SOL    HW170024   6.990   7.019   6.593
22861SOL    HW270025   7.041   6.912   6.499
22862SOL     OW70026   7.237   7.347   6.159
22862SOL    HW170027   7.212   7.313   6.073
22862SOL    HW270028   7.221   7.275   6.219
22863SOL     OW70029   6.176   6.299   5.861
22863SOL    HW170030   6.171   6.384   5.818
22863SOL    HW270031   6.110   6.303   5.931
22864SOL     OW70032   6.866   5.964   6.522
22864SOL    HW170033   6.777   5.929   6.527
22864SOL    HW270034   6.917   5.906   6.579
22865SOL     OW70035   7.160   7.266   5.899
22865SOL    HW170036   7.253   7.283   5.888
22865SOL    HW270037   7.129   7.248   5.810
22866SOL     OW70038   6.384   6.200   7.029
22866SOL    HW170039   6.359   6.172   7.117
22866SOL    HW270040   6.351   6.131   6.972
22867SOL     OW70041   6.982   6.065   7.263
22867SOL    HW170042   6.985   6.106   7.349
22867SOL    HW270043   7.028   5.982   7.273
22868SOL     OW70044   6.536   6.469   7.177
22868SOL    HW170045   6.588   6.401   7.136
22868SOL    HW270046   6.484   6.506   7.105
22869SOL     OW70047   6.587   5.991   6.807
22869SOL    HW170048   6.497   6.004   6.836
22869SOL    HW270049   6.580   5.941   6.726
22870SOL     OW70050   6.643   6.288   6.007
22870SOL    HW170051   6.662   6.278   6.100
22870SOL    HW270052   6.559   6.244   5.995
22871SOL     OW70053   5.681   6.412   6.360
22871SOL    HW170054   5.758   6.398   6.416
22871SOL    HW270055   5.632   6.482   6.402
22872SOL     OW70056   5.711   7.461   7.169
22872SOL    HW170057   5.712   7.441   7.262
22872SOL    HW270058   5.635   7.415   7.135
22873SOL     OW70059   6.474   5.939   5.785
22873SOL    HW170060   6.523   5.987   5.718
22873SOL    HW270061   6.436   5.865   5.738
22874SOL     OW70062   7.301   6.159   7.415
22874SOL    HW170063   7.262   6.233   7.368
22874SOL    HW270064   7.313   6.091   7.349
22875SOL     OW70065   6.973   6.733   6.132
22875SOL    HW170066   7.048   6.718   6.074
22875SOL    HW270067   6.915   6.791   6.082
22876SOL     OW70068   6.151   5.761   6.488
22876SOL    HW170069   6.147   5.794   6.578
22876SOL    HW270070   6.134   5.838   6.434
22877SOL     OW70071   6.585   7.036   6.053
22877SOL    HW170072   6.557   7.109   5.998
22877SOL    HW270073   6.552   7.058   6.140
22878SOL     OW70074   5.939   7.401   6.459
22878SOL    HW170075   5.982   7.316   6.465
22878SOL    HW270076   6.008   7.464   6.481
22879SOL     OW70077   7.391   6.647   6.453
22879SOL    HW170078   7.341   6.616   6.377
22879SOL    HW270079   7.327   6.649   6.524
22880SOL     OW70080   6.809   7.126   7.100
22880SOL    HW170081   6.798   7.055   7.164
22880SOL    HW270082   6.741   7.110   7.034
22881SOL     OW70083   5.890   6.544   5.844
22881SOL    HW170084   5.972   6.560   5.797
22881SOL    HW270085   5.863   6.456   5.815
22882SOL     OW70086   7.070   6.344   6.303
22882SOL    HW170087   7.065   6.297   6.387
22882SOL    HW270088   7.151   6.395   6.308
22883SOL     OW70089   6.058   6.862   7.328
22883SOL    HW170090   6.031   6.867   7.237
22883SOL    HW270091   5.976   6.847   7.376
22884SOL     OW70092   6.717   7.365   5.809
22884SOL    HW170093   6.638   7.331   5.852
22884SOL    HW270094   6.739   7.298   5.744
22885SOL     OW70095   5.781   5.859   7.100
22885SOL    HW170096   5.694   5.892   7.079
22885SOL    HW270097   5.767   5.769   7.129
22886SOL     OW70098   7.221   6.973   5.681
22886SOL    HW170099   7.176   7.057   5.666
22886SOL    HW270100   7.155   6.907   5.660
22887SOL     OW70101   6.045   7.328   5.900
22887SOL    HW170102   6.093   7.375   5.968
22887SOL    HW270103   6.112   7.283   5.849
22888SOL     OW70104   6.982   5.693   6.030
22888SOL    HW170105   6.973   5.666   5.938
22888SOL    HW270106   7.076   5.685   6.048
22889SOL     OW70107   5.848   7.377   6.805
22889SOL    HW170108   5.889   7.298   6.842
22889SOL    HW270109   5.825   7.352   6.716
22890SOL     OW70110   6.524   7.287   6.477
22890SOL    HW170111   6.601   7.236   6.503
22890SOL    HW270112   6.485   7.237   6.406
22891SOL     OW70113   5.983   6.275   6.061
22891SOL    HW170114   6.000   6.182   6.075
22891SOL    HW270115   5.889   6.284   6.077
22892SOL     OW70116   7.099   5.808   7.308
22892SOL    HW170117   7.109   5.826   7.401
22892SOL    HW270118   7.031   5.741   7.303
22893SOL     OW70119   6.242   5.699   5.684
22893SOL    HW170120   6.277   5.618   5.720
22893SOL    HW270121   6.181   5.671   5.615
22894SOL     OW70122   6.353   5.863   7.348
22894SOL    HW170123   6.434   5.812   7.341
22894SOL    HW270124   6.301   5.816   7.413
22895SOL     OW70125   6.462   7.116   6.781
22895SOL    HW170126   6.442   7.075   6.698
22895SOL    HW270127   6.528   7.059   6.821
22896SOL     OW70128   6.922   6.174   7.018
22896SOL    HW170129   6.953   6.144   7.103
22896SOL    HW270130   6.956   6.264   7.010
22897SOL     OW70131   6.406   6.977   6.537
22897SOL    HW170132   6.491   6.964   6.494
22897SOL    HW270133   6.344   6.983   6.465
22898SOL     OW70134   6.521   6.102   6.478
22898SOL    HW170135   6.495   6.089   6.387
22898SOL    HW270136   6.542   6.013   6.509
22899SOL     OW70137   6.150   5.653   6.080
22899SOL    HW170138   6.070   5.649   6.132
22899SOL    HW270139   6.137   5.727   6.021
22900SOL     OW70140   7.018   6.792   5.624
22900SOL    HW170141   7.046   6.715   5.674
22900SOL    HW270142   6.931   6.812   5.658
22901SOL     OW70143   5.872   5.641   5.771
22901SOL    HW170144   5.931   5.701   5.725
22901SOL    HW270145   5.931   5.578   5.814
22902SOL     OW70146   6.534   5.844   6.039
22902SOL    HW170147   6.509   5.875   5.952
22902SOL    HW270148   6.629   5.858   6.043
22903SOL     OW70149   6.662   6.273   7.038
22903SOL    HW170150   6.590   6.209   7.042
22903SOL    HW270151   6.741   6.220   7.033
22904SOL     OW70152   6.802   7.161   6.382
22904SOL    HW170153   6.814   7.226   6.313
22904SOL    HW270154   6.871   7.180   6.445
22905SOL     OW70155   6.063   6.745   6.309
22905SOL    HW170156   6.002   6.721   6.378
22905SOL    HW270157   6.014   6.733   6.228
22906SOL     OW70158   6.845   7.376   6.203
22906SOL    HW170159   6.890   7.438   6.147
22906SOL    HW270160   6.773   7.426   6.242
22907SOL     OW70161   6.617   6.110   5.611
22907SOL    HW170162   6.571   6.193   5.596
22907SOL    HW270163   6.674   6.128   5.686
22908SOL     OW70164   5.681   6.141   6.968
22908SOL    HW170165   5.774   6.141   6.945
22908SOL    HW270166   5.674   6.205   7.039
22909SOL     OW70167   6.146   5.816   6.762
22909SOL    HW170168   6.181   5.734   6.797
22909SOL    HW270169   6.054   5.816   6.788
22910SOL     OW70170   6.459   6.049   6.219
22910SOL    HW170171   6.407   6.101   6.158
22910SOL    HW270172   6.479   5.968   6.172
22911SOL     OW70173   6.609   5.637   6.323
22911SOL    HW170174   6.546   5.632   6.251
22911SOL    HW270175   6.584   5.565   6.381
22912SOL     OW70176   7.020   6.743   6.438
22912SOL    HW170177   6.951   6.677   6.450
22912SOL    HW270178   7.031   6.749   6.343
22913SOL     OW70179   7.051   6.196   6.542
22913SOL    HW170180   6.987   6.124   6.547
22913SOL    HW270181   7.103   6.187   6.621
22914SOL     OW70182   7.425   6.391   5.980
22914SOL    HW170183   7.484   6.341   6.036
22914SOL    HW270184   7.400   6.331   5.910
22915SOL     OW70185   6.076   7.009   5.735
22915SOL    HW170186   6.001   6.980   5.787
22915SOL    HW270187   6.074   6.955   5.656
22916SOL     OW70188   7.273   6.862   6.213
22916SOL    HW170189   7.366   6.861   6.235
22916SOL    HW270190   7.242   6.948   6.242
22917SOL     OW70191   6.979   6.156   5.659
22917SOL    HW170192   6.912   6.137   5.725
22917SOL    HW270193   7.058   6.113   5.692
22918SOL     OW70194   6.119   5.850   5.891
22918SOL    HW170195   6.164   5.803   5.821
22918SOL    HW270196   6.085   5.929   5.849
22919SOL     OW70197   7.330   6.829   7.135
22919SOL    HW170198   7.417   6.790   7.130
22919SOL    HW270199   7.345   6.917   7.169
22920SOL     OW70200   6.635   6.949   6.925
22920SOL    HW170201   6.558   6.911   6.968
22920SOL    HW270202   6.709   6.900   6.962
22921SOL     OW70203   7.199   7.220   7.254
22921SOL    HW170204   7.186   7.251   7.164
22921SOL    HW270205   7.277   7.166   7.249
22922SOL     OW70206   6.731   6.812   6.687
22922SOL    HW170207   6.659   6.833   6.746
22922SOL    HW270208   6.701   6.840   6.601
22923SOL     OW70209   7.211   6.684   6.659
22923SOL    HW170210   7.201   6.745   6.731
22923SOL    HW270211   7.133   6.698   6.605
22924SOL     OW70212   6.502   5.680   6.975
22924SOL    HW170213   6.523   5.661   6.883
22924SOL    HW270214   6.582   5.716   7.011
22925SOL     OW70215   6.569   6.699   7.312
22925SOL    HW170216   6.478   6.715   7.338
22925SOL    HW270217   6.566   6.620   7.258
22926SOL     OW70218   6.299   6.653   5.956
22926SOL    HW170219   6.283   6.629   6.047
22926SOL    HW270220   6.374   6.599   5.930
22927SOL     OW70221   6.013   6.410   6.839
22927SOL    HW170222   6.078   6.418   6.908
22927SOL    HW270223   5.979   6.321   6.847
22928SOL     OW70224   6.851   5.958   6.868
22928SOL    HW170225   6.880   6.037   6.914
22928SOL    HW270226   6.760   5.976   6.843
22929SOL     OW70227   5.661   7.164   6.952
22929SOL    HW170228   5.627   7.225   6.887
22929SOL    HW270229   5.755   7.160   6.935
22930SOL     OW70230   5.916   6.711   6.076
22930SOL    HW170231   5.913   6.781   6.011
22930SOL    HW270232   5.913   6.630   6.025
22931SOL     OW70233   6.138   6.112   6.444
22931SOL    HW170234   6.151   6.171   6.370
22931SOL    HW270235   6.204   6.137   6.508
22932SOL     OW70236   6.833   6.938   5.981
22932SOL    HW170237   6.888   7.008   6.016
22932SOL    HW270238   6.745   6.959   6.012
22933SOL     OW70239   6.882   7.048   6.730
22933SOL    HW170240   6.930   7.049   6.813
22933SOL    HW270241   6.826   6.971   6.735
22934SOL     OW70242   7.159   6.205   6.071
22934SOL    HW170243   7.109   6.243   6.143
22934SOL    HW270244   7.182   6.280   6.016
22935SOL     OW70245   5.929   7.122   6.889
22935SOL    HW170246   5.918   7.071   6.809
22935SOL    HW270247   6.024   7.131   6.899
22936SOL     OW70248   5.996   6.340   7.191
22936SOL    HW170249   6.068   6.370   7.135
22936SOL    HW270250   6.009   6.245   7.197
22937SOL     OW70251   7.205   6.372   7.278
22937SOL    HW170252   7.117   6.409   7.270
22937SOL    HW270253   7.253   6.410   7.204
22938SOL     OW70254   6.586   5.722   7.337
22938SOL    HW170255   6.646   5.793   7.315
22938SOL    HW270256   6.635   5.642   7.318
22939SOL     OW70257   6.078   5.623   7.344
22939SOL    HW170258   6.028   5.569   7.282
22939SOL    HW270259   6.020   5.698   7.362
22940SOL     OW70260   6.176   6.457   6.621
22940SOL    HW170261   6.200   6.550   6.622
22940SOL    HW270262   6.115   6.446   6.694
22941SOL     OW70263   6.917   6.441   6.601
22941SOL    HW170264   6.828   6.421   6.571
22941SOL    HW270265   6.967   6.361   6.586
22942SOL     OW70266   6.781   6.114   5.844
22942SOL    HW170267   6.790   6.036   5.899
22942SOL    HW270268   6.738   6.178   5.900
22943SOL     OW70269   5.886   5.787   6.833
22943SOL    HW170270   5.836   5.810   6.912
22943SOL    HW270271   5.874   5.693   6.824
22944SOL     OW70272   5.650   6.900   6.855
22944SOL    HW170273   5.672   6.839   6.925
22944SOL    HW270274   5.640   6.984   6.899
22945SOL     OW70275   6.311   6.215   6.637
22945SOL    HW170276   6.384   6.205   6.575
22945SOL    HW270277   6.276   6.302   6.619
22946SOL     OW70278   7.329   6.551   7.449
22946SOL    HW170279   7.291   6.480   7.398
22946SOL    HW270280   7.265   6.568   7.519
22947SOL     OW70281   5.908   5.654   6.207
22947SOL    HW170282   5.872   5.740   6.229
22947SOL    HW270283   5.910   5.607   6.290
22948SOL     OW70284   7.220   5.972   5.940
22948SOL    HW170285   7.245   5.903   6.003
22948SOL    HW270286   7.190   6.044   5.995
22949SOL     OW70287   6.623   6.346   6.545
22949SOL    HW170288   6.604   6.362   6.638
22949SOL    HW270289   6.594   6.256   6.530
22950SOL     OW70290   6.572   7.156   7.311
22950SOL    HW170291   6.550   7.196   7.228
22950SOL    HW270292   6.609   7.071   7.288
22951SOL     OW70293   7.434   7.083   7.194
22951SOL    HW170294   7.455   7.113   7.106
22951SOL    HW270295   7.515   7.095   7.244
22952SOL     OW70296   5.939   6.515   7.394
22952SOL    HW170297   6.019   6.519   7.447
22952SOL    HW270298   5.958   6.449   7.327
22953SOL     OW70299   7.110   5.861   5.710
22953SOL    HW170300   7.050   5.792   5.739
22953SOL    HW270301   7.148   5.896   5.791
22954SOL     OW70302   6.873   6.409   5.615
22954SOL    HW170303   6.911   6.321   5.620
22954SOL    HW270304   6.905   6.444   5.532
22955SOL     OW70305   6.657   6.929   6.445
22955SOL    HW170306   6.662   6.857   6.382
22955SOL    HW270307   6.711   6.998   6.406
22956SOL     OW70308   5.895   6.393   6.532
22956SOL    HW170309   5.989   6.405   6.522
22956SOL    HW270310   5.885   6.304   6.566
22957SOL     OW70311   5.921   6.120   6.602
22957SOL    HW170312   5.878   6.035   6.590
22957SOL    HW270313   5.996   6.118   6.542
22958SOL     OW70314   6.724   5.958   7.268
22958SOL    HW170315   6.673   6.008   7.332
22958SOL    HW270316   6.808   6.004   7.264
22959SOL     OW70317   6.746   5.781   7.056
22959SOL    HW170318   6.733   5.844   7.127
22959SOL    HW270319   6.788   5.831   6.987
22960SOL     OW70320   5.604   6.895   5.772
22960SOL    HW170321   5.515   6.914   5.741
22960SOL    HW270322   5.598   6.808   5.811
22961SOL     OW70323   5.676   7.362   6.532
22961SOL    HW170324   5.644   7.285   6.485
22961SOL    HW270325   5.764   7.376   6.497
22962SOL     OW70326   6.075   7.162   6.487
22962SOL    HW170327   6.145   7.223   6.511
22962SOL    HW270328   6.118   7.098   6.430
22963SOL     OW70329   6.548   6.372   6.806
22963SOL    HW170330   6.603   6.352   6.881
22963SOL    HW270331   6.467   6.323   6.821
22964SOL     OW70332   5.618   6.158   6.700
22964SOL    HW170333   5.680   6.108   6.647
22964SOL    HW270334   5.647   6.146   6.790
22965SOL     OW70335   5.778   6.102   7.315
22965SOL    HW170336   5.792   6.035   7.248
22965SOL    HW270337   5.739   6.176   7.268
22966SOL     OW70338   6.971   6.513   7.243
22966SOL    HW170339   6.988   6.607   7.237
22966SOL    HW270340   6.963   6.484   7.152
22967SOL     OW70341   6.407   6.163   5.949
22967SOL    HW170342   6.411   6.084   5.895
22967SOL    HW270343   6.328   6.208   5.921
22968SOL     OW70344   7.221   6.191   6.761
22968SOL    HW170345   7.210   6.128   6.832
22968SOL    HW270346   7.309   6.174   6.728
22969SOL     OW70347   5.822   7.129   7.313
22969SOL    HW170348   5.796   7.181   7.389
22969SOL    HW270349   5.830   7.039   7.347
22970SOL     OW70350   6.313   6.026   6.834
22970SOL    HW170351   6.251   5.955   6.817
22970SOL    HW270352   6.297   6.088   6.763
22971SOL     OW70353   6.503   7.263   7.063
22971SOL    HW170354   6.481   7.217   6.982
22971SOL    HW270355   6.494   7.356   7.041
22972SOL     OW70356   6.039   6.077   5.756
22972SOL    HW170357   6.098   6.146   5.786
22972SOL    HW270358   5.953   6.120   5.751
22973SOL     OW70359   5.730   6.730   7.062
22973SOL    HW170360   5.730   6.686   7.146
22973SOL    HW270361   5.744   6.660   6.998
22974SOL     OW70362   6.906   6.630   6.798
22974SOL    HW170363   6.917   6.563   6.731
22974SOL    HW270364   6.844   6.692   6.760
22975SOL     OW70365   6.906   6.443   5.889
22975SOL    HW170366   6.835   6.409   5.943
22975SOL    HW270367   6.878   6.428   5.799
22976SOL     OW70368   7.378   7.314   6.754
22976SOL    HW170369   7.435   7.340   6.680
22976SOL    HW270370   7.341   7.230   6.727
22977SOL     OW70371   6.826   7.318   6.692
22977SOL    HW170372   6.908   7.343   6.651
22977SOL    HW270373   6.836   7.225   6.711
22978SOL     OW70374   5.675   6.862   6.588
22978SOL    HW170375   5.659   6.871   6.682
22978SOL    HW270376   5.610   6.798   6.559
22979SOL     OW70377   6.268   7.264   7.329
22979SOL    HW170378   6.202   7.333   7.316
22979SOL    HW270379   6.333   7.280   7.261
22980SOL     OW70380   7.320   5.752   6.091
22980SOL    HW170381   7.385   5.733   6.023
22980SOL    HW270382   7.298   5.666   6.128
22981SOL     OW70383   6.983   7.155   6.085
22981SOL    HW170384   7.034   7.191   6.013
22981SOL    HW270385   6.927   7.228   6.113
22982SOL     OW70386   5.720   7.393   7.429
22982SOL    HW170387   5.676   7.318   7.470
22982SOL    HW270388   5.769   7.433   7.500
22983SOL     OW70389   6.864   6.518   6.258
22983SOL    HW170390   6.937   6.457   6.269
22983SOL    HW270391   6.899   6.589   6.204
22984SOL     OW70392   6.379   6.867   7.000
22984SOL    HW170393   6.352   6.909   7.082
22984SOL    HW270394   6.304   6.876   6.942
22985SOL     OW70395   6.252   7.215   5.742
22985SOL    HW170396   6.265   7.230   5.648
22985SOL    HW270397   6.198   7.137   5.747
22986SOL     OW70398   7.203   7.313   6.984
22986SOL    HW170399   7.258   7.316   6.906
22986SOL    HW270400   7.187   7.405   7.005
22987SOL     OW70401   7.432   5.751   6.552
22987SOL    HW170402   7.460   5.662   6.529
22987SOL    HW270403   7.345   5.759   6.515
22988SOL     OW70404   5.834   5.904   6.299
22988SOL    HW170405   5.746   5.932   6.274
22988SOL    HW270406   5.831   5.897   6.394
22989SOL     OW70407   6.796   7.180   5.621
22989SOL    HW170408   6.783   7.089   5.650
22989SOL    HW270409   6.727   7.193   5.555
22990SOL     OW70410   6.408   6.593   6.968
22990SOL    HW170411   6.442   6.580   6.880
22990SOL    HW270412   6.401   6.688   6.977
22991SOL     OW70413   6.509   6.505   5.875
22991SOL    HW170414   6.571   6.538   5.811
22991SOL    HW270415   6.555   6.433   5.919
22992SOL     OW70416   7.071   7.226   5.636
22992SOL    HW170417   6.978   7.207   5.620
22992SOL    HW270418   7.110   7.228   5.549
22993SOL     OW70419   5.953   6.898   7.082
22993SOL    HW170420   5.937   6.970   7.021
22993SOL    HW270421   5.880   6.838   7.067
22994SOL     OW70422   7.197   6.875   6.869
22994SOL    HW170423   7.245   6.850   6.947
22994SOL    HW270424   7.132   6.939   6.899
22995SOL     OW70425   6.654   6.699   6.304
22995SOL    HW170426   6.579   6.651   6.338
22995SOL    HW270427   6.716   6.631   6.278
22996SOL     OW70428   6.616   5.829   6.548
22996SOL    HW170429   6.610   5.785   6.464
22996SOL    HW270430   6.607   5.758   6.613
22997SOL     OW70431   6.193   7.072   6.064
22997SOL    HW170432   6.245   7.023   6.000
22997SOL    HW270433   6.107   7.082   6.023
22998SOL     OW70434   7.316   5.979   6.965
22998SOL    HW170435   7.389   6.041   6.962
22998SOL    HW270436   7.344   5.906   6.909
22999SOL     OW70437   5.859   6.927   5.886
22999SOL    HW170438   5.769   6.919   5.854
22999SOL    HW270439   5.850   6.970   5.971
23000SOL     OW70440   5.704   6.640   7.323
23000SOL    HW170441   5.625   6.608   7.367
23000SOL    HW270442   5.775   6.586   7.358
23001SOL     OW70443   6.262   5.782   7.086
23001SOL    HW170444   6.344   5.756   7.046
23001SOL    HW270445   6.287   5.814   7.173
23002SOL     OW70446   5.669   5.907   5.625
23002SOL    HW170447   5.584   5.875   5.593
23002SOL    HW270448   5.684   5.987   5.575
23003SOL     OW70449   7.007   6.444   6.981
23003SOL    HW170450   6.955   6.502   6.926
23003SOL    HW270451   7.094   6.444   6.941
23004SOL     OW70452   5.645   5.739   5.884
23004SOL    HW170453   5.632   5.815   5.828
23004SOL    HW270454   5.729   5.703   5.856
23005SOL     OW70455   6.765   6.915   5.707
23005SOL    HW170456   6.678   6.875   5.706
23005SOL    HW270457   6.790   6.916   5.799
23006SOL     OW70458   6.209   6.412   7.027
23006SOL    HW170459   6.268   6.486   7.014
23006SOL    HW270460   6.267   6.336   7.030
23007SOL     OW70461   7.066   7.380   6.574
23007SOL    HW170462   7.087   7.448   6.509
23007SOL    HW270463   7.150   7.337   6.591
23008SOL     OW70464   6.321   6.133   7.280
23008SOL    HW170465   6.358   6.185   7.352
23008SOL    HW270466   6.326   6.043   7.312
23009SOL     OW70467   7.058   6.776   7.212
23009SOL    HW170468   7.046   6.794   7.305
23009SOL    HW270469   7.149   6.798   7.194
23010SOL     OW70470   5.953   7.326   7.160
23010SOL    HW170471   5.872   7.372   7.141
23010SOL    HW270472   5.925   7.243   7.199
23011SOL     OW70473   7.247   6.463   6.841
23011SOL    HW170474   7.242   6.376   6.800
23011SOL    HW270475   7.237   6.524   6.768
23012SOL     OW70476   6.809   5.912   6.040
23012SOL    HW170477   6.865   5.835   6.036
23012SOL    HW270478   6.839   5.960   6.117
23013SOL     OW70479   6.175   6.319   6.261
23013SOL    HW170480   6.212   6.405   6.241
23013SOL    HW270481   6.108   6.306   6.193
23014SOL     OW70482   7.328   5.951   7.238
23014SOL    HW170483   7.317   5.967   7.145
23014SOL    HW270484   7.256   5.892   7.261
23015SOL     OW70485   7.347   6.517   7.091
23015SOL    HW170486   7.320   6.608   7.105
23015SOL    HW270487   7.321   6.498   7.001
23016SOL     OW70488   6.448   6.949   5.637
23016SOL    HW170489   6.413   6.966   5.725
23016SOL    HW270490   6.460   7.037   5.600
23017SOL     OW70491   6.250   7.371   6.518
23017SOL    HW170492   6.234   7.464   6.501
23017SOL    HW270493   6.345   7.362   6.511
23018SOL     OW70494   6.457   6.562   6.441
23018SOL    HW170495   6.504   6.486   6.476
23018SOL    HW270496   6.414   6.601   6.517
23019SOL     OW70497   6.676   6.590   5.678
23019SOL    HW170498   6.646   6.630   5.597
23019SOL    HW270499   6.742   6.526   5.651
23020SOL     OW70500   7.427   7.143   6.427
23020SOL    HW170501   7.347   7.132   6.375
23020SOL    HW270502   7.422   7.075   6.494
23021SOL     OW70503   5.799   6.876   7.428
23021SOL    HW170504   5.765   6.798   7.384
23021SOL    HW270505   5.740   6.888   7.503
23022SOL     OW70506   5.684   6.820   6.254
23022SOL    HW170507   5.669   6.768   6.333
23022SOL    HW270508   5.748   6.770   6.204
23023SOL     OW70509   6.276   6.998   7.220
23023SOL    HW170510   6.198   6.954   7.253
23023SOL    HW270511   6.272   7.086   7.258
23024SOL     OW70512   7.405   5.768   6.823
23024SOL    HW170513   7.394   5.675   6.840
23024SOL    HW270514   7.415   5.775   6.728
23025SOL     OW70515   6.018   6.015   6.114
23025SOL    HW170516   6.044   5.943   6.056
23025SOL    HW270517   5.961   5.974   6.179
23026SOL     OW70518   7.276   7.073   6.680
23026SOL    HW170519   7.201   7.053   6.624
23026SOL    HW270520   7.275   7.005   6.747
23027SOL     OW70521   5.938   6.152   6.879
23027SOL    HW170522   5.982   6.085   6.931
23027SOL    HW270523   5.944   6.120   6.789
23028SOL     OW70524   6.421   7.169   6.255
23028SOL    HW170525   6.396   7.241   6.198
23028SOL    HW270526   6.345   7.111   6.256
23029SOL     OW70527   7.010   5.812   6.699
23029SOL    HW170528   7.005   5.720   6.725
23029SOL    HW270529   6.962   5.859   6.767
23030SOL     OW70530   6.594   5.606   6.718
23030SOL    HW170531   6.533   5.541   6.683
23030SOL    HW270532   6.679   5.561   6.718
23031SOL     OW70533   6.365   6.920   5.907
23031SOL    HW170534   6.336   6.830   5.916
23031SOL    HW270535   6.445   6.926   5.960
23032SOL     OW70536   6.205   7.146   6.874
23032SOL    HW170537   6.204   7.227   6.925
23032SOL    HW270538   6.293   7.141   6.838
23033SOL     OW70539   6.950   5.635   5.760
23033SOL    HW170540   6.986   5.563   5.709
23033SOL    HW270541   6.860   5.609   5.779
23034SOL     OW70542   6.895   6.054   6.264
23034SOL    HW170543   6.838   6.131   6.261
23034SOL    HW270544   6.881   6.017   6.351
23035SOL     OW70545   7.174   5.777   6.475
23035SOL    HW170546   7.117   5.801   6.548
23035SOL    HW270547   7.170   5.852   6.416
23036SOL     OW70548   5.629   6.644   5.894
23036SOL    HW170549   5.722   6.632   5.873
23036SOL    HW270550   5.598   6.557   5.917
23037SOL     OW70551   6.480   7.250   5.912
23037SOL    HW170552   6.402   7.232   5.859
23037SOL    HW270553   6.450   7.312   5.978
23038SOL     OW70554   5.805   6.213   7.575
23038SOL    HW170555   5.718   6.201   7.612
23038SOL    HW270556   5.797   6.185   7.484
23039SOL     OW70557   5.806   5.881   8.446
23039SOL    HW170558   5.838   5.841   8.527
23039SOL    HW270559   5.722   5.839   8.430
23040SOL     OW70560   5.579   5.974   8.088
23040SOL    HW170561   5.498   6.003   8.130
23040SOL    HW270562   5.553   5.896   8.039
23041SOL     OW70563   6.160   6.887   8.644
23041SOL    HW170564   6.075   6.884   8.599
23041SOL    HW270565   6.171   6.979   8.669
23042SOL     OW70566   7.164   7.107   8.158
23042SOL    HW170567   7.119   7.076   8.237
23042SOL    HW270568   7.096   7.109   8.091
23043SOL     OW70569   6.728   6.282   8.139
23043SOL    HW170570   6.769   6.368   8.130
23043SOL    HW270571   6.674   6.289   8.218
23044SOL     OW70572   7.374   6.183   7.673
23044SOL    HW170573   7.345   6.180   7.582
23044SOL    HW270574   7.334   6.107   7.714
23045SOL     OW70575   6.338   6.727   8.506
23045SOL    HW170576   6.271   6.763   8.565
23045SOL    HW270577   6.371   6.804   8.459
23046SOL     OW70578   6.473   6.341   9.278
23046SOL    HW170579   6.440   6.411   9.335
23046SOL    HW270580   6.489   6.384   9.194
23047SOL     OW70581   6.274   6.583   8.089
23047SOL    HW170582   6.338   6.576   8.160
23047SOL    HW270583   6.204   6.638   8.125
23048SOL     OW70584   6.302   6.737   9.275
23048SOL    HW170585   6.351   6.813   9.305
23048SOL    HW270586   6.224   6.773   9.233
23049SOL     OW70587   5.918   6.997   8.514
23049SOL    HW170588   5.844   6.954   8.473
23049SOL    HW270589   5.959   7.047   8.444
23050SOL     OW70590   7.041   7.087   8.815
23050SOL    HW170591   7.094   7.166   8.825
23050SOL    HW270592   6.970   7.098   8.877
23051SOL     OW70593   6.038   5.971   8.922
23051SOL    HW170594   6.110   5.909   8.928
23051SOL    HW270595   5.960   5.920   8.943
23052SOL     OW70596   7.186   6.025   8.196
23052SOL    HW170597   7.114   6.031   8.133
23052SOL    HW270598   7.171   6.097   8.257
23053SOL     OW70599   5.801   7.310   7.912
23053SOL    HW170600   5.829   7.382   7.969
23053SOL    HW270601   5.875   7.297   7.852
23054SOL     OW70602   6.724   6.927   9.145
23054SOL    HW170603   6.761   6.919   9.233
23054SOL    HW270604   6.672   6.848   9.133
23055SOL     OW70605   5.826   7.037   7.991
23055SOL    HW170606   5.794   7.127   7.994
23055SOL    HW270607   5.770   6.989   8.052
23056SOL     OW70608   5.877   6.678   8.356
23056SOL    HW170609   5.864   6.586   8.382
23056SOL    HW270610   5.805   6.725   8.399
23057SOL     OW70611   6.184   7.377   8.883
23057SOL    HW170612   6.102   7.359   8.928
23057SOL    HW270613   6.206   7.467   8.907
23058SOL     OW70614   6.160   6.570   7.591
23058SOL    HW170615   6.210   6.614   7.522
23058SOL    HW270616   6.198   6.602   7.673
23059SOL     OW70617   7.187   5.714   8.912
23059SOL    HW170618   7.191   5.796   8.863
23059SOL    HW270619   7.156   5.740   8.998
23060SOL     OW70620   5.711   6.238   8.008
23060SOL    HW170621   5.673   6.151   8.024
23060SOL    HW270622   5.699   6.284   8.091
23061SOL     OW70623   7.432   7.334   7.774
23061SOL    HW170624   7.502   7.313   7.836
23061SOL    HW270625   7.447   7.426   7.751
23062SOL     OW70626   5.637   7.173   7.563
23062SOL    HW170627   5.616   7.081   7.579
23062SOL    HW270628   5.605   7.219   7.640
23063SOL     OW70629   7.287   6.512   8.091
23063SOL    HW170630   7.347   6.454   8.045
23063SOL    HW270631   7.249   6.567   8.023
23064SOL     OW70632   7.233   6.690   7.878
23064SOL    HW170633   7.319   6.687   7.836
23064SOL    HW270634   7.241   6.757   7.945
23065SOL     OW70635   5.705   6.326   9.030
23065SOL    HW170636   5.792   6.365   9.030
23065SOL    HW270637   5.645   6.400   9.017
23066SOL     OW70638   6.203   6.980   8.185
23066SOL    HW170639   6.160   6.895   8.192
23066SOL    HW270640   6.188   7.008   8.094
23067SOL     OW70641   6.866   6.819   8.867
23067SOL    HW170642   6.893   6.750   8.806
23067SOL    HW270643   6.926   6.811   8.941
23068SOL     OW70644   6.416   5.600   7.969
23068SOL    HW170645   6.452   5.684   7.939
23068SOL    HW270646   6.321   5.614   7.970
23069SOL     OW70647   5.772   6.543   8.735
23069SOL    HW170648   5.858   6.506   8.718
23069SOL    HW270649   5.713   6.495   8.677
23070SOL     OW70650   7.118   6.589   7.647
23070SOL    HW170651   7.049   6.530   7.676
23070SOL    HW270652   7.157   6.622   7.728
23071SOL     OW70653   6.779   7.400   9.082
23071SOL    HW170654   6.774   7.461   9.007
23071SOL    HW270655   6.788   7.314   9.041
23072SOL     OW70656   5.928   5.832   9.302
23072SOL    HW170657   5.962   5.922   9.302
23072SOL    HW270658   5.833   5.843   9.311
23073SOL     OW70659   7.054   7.004   8.388
23073SOL    HW170660   6.988   7.020   8.455
23073SOL    HW270661   7.040   6.913   8.361
23074SOL     OW70662   7.236   7.347   8.021
23074SOL    HW170663   7.213   7.313   7.935
23074SOL    HW270664   7.220   7.274   8.081
23075SOL     OW70665   6.178   6.303   7.726
23075SOL    HW170666   6.171   6.387   7.679
23075SOL    HW270667   6.111   6.308   7.794
23076SOL     OW70668   6.866   5.965   8.386
23076SOL    HW170669   6.777   5.930   8.389
23076SOL    HW270670   6.917   5.907   8.442
23077SOL     OW70671   7.162   7.266   7.761
23077SOL    HW170672   7.256   7.283   7.750
23077SOL    HW270673   7.130   7.249   7.673
23078SOL     OW70674   6.383   6.199   8.892
23078SOL    HW170675   6.357   6.171   8.980
23078SOL    HW270676   6.351   6.130   8.834
23079SOL     OW70677   6.981   6.065   9.124
23079SOL    HW170678   6.984   6.106   9.211
23079SOL    HW270679   7.027   5.983   9.134
23080SOL     OW70680   6.536   6.469   9.038
23080SOL    HW170681   6.588   6.401   8.996
23080SOL    HW270682   6.484   6.507   8.966
23081SOL     OW70683   6.587   5.990   8.669
23081SOL    HW170684   6.496   6.002   8.697
23081SOL    HW270685   6.580   5.943   8.586
23082SOL     OW70686   6.643   6.286   7.870
23082SOL    HW170687   6.661   6.276   7.963
23082SOL    HW270688   6.558   6.243   7.857
23083SOL     OW70689   5.680   6.402   8.225
23083SOL    HW170690   5.756   6.395   8.283
23083SOL    HW270691   5.630   6.476   8.261
23084SOL     OW70692   5.712   7.463   9.030
23084SOL    HW170693   5.711   7.442   9.124
23084SOL    HW270694   5.636   7.416   8.995
23085SOL     OW70695   6.474   5.940   7.647
23085SOL    HW170696   6.523   5.989   7.581
23085SOL    HW270697   6.432   5.869   7.599
23086SOL     OW70698   7.301   6.159   9.278
23086SOL    HW170699   7.262   6.233   9.231
23086SOL    HW270700   7.313   6.092   9.210
23087SOL     OW70701   6.971   6.733   7.993
23087SOL    HW170702   7.045   6.717   7.934
23087SOL    HW270703   6.914   6.791   7.943
23088SOL     OW70704   6.146   5.758   8.347
23088SOL    HW170705   6.144   5.796   8.434
23088SOL    HW270706   6.131   5.832   8.288
23089SOL     OW70707   6.587   7.038   7.916
23089SOL    HW170708   6.558   7.109   7.860
23089SOL    HW270709   6.552   7.060   8.003
23090SOL     OW70710   5.941   7.402   8.322
23090SOL    HW170711   5.984   7.317   8.328
23090SOL    HW270712   6.010   7.465   8.342
23091SOL     OW70713   7.393   6.640   8.314
23091SOL    HW170714   7.344   6.611   8.238
23091SOL    HW270715   7.328   6.645   8.384
23092SOL     OW70716   6.808   7.126   8.963
23092SOL    HW170717   6.798   7.055   9.026
23092SOL    HW270718   6.744   7.107   8.895
23093SOL     OW70719   5.891   6.544   7.706
23093SOL    HW170720   5.970   6.561   7.655
23093SOL    HW270721   5.860   6.459   7.674
23094SOL     OW70722   7.070   6.346   8.166
23094SOL    HW170723   7.065   6.299   8.249
23094SOL    HW270724   7.152   6.394   8.170
23095SOL     OW70725   6.056   6.863   9.191
23095SOL    HW170726   6.030   6.868   9.100
23095SOL    HW270727   5.974   6.848   9.239
23096SOL     OW70728   6.718   7.362   7.675
23096SOL    HW170729   6.638   7.329   7.715
23096SOL    HW270730   6.740   7.297   7.608
23097SOL     OW70731   5.783   5.858   8.961
23097SOL    HW170732   5.698   5.893   8.935
23097SOL    HW270733   5.765   5.769   8.990
23098SOL     OW70734   7.220   6.973   7.546
23098SOL    HW170735   7.177   7.057   7.529
23098SOL    HW270736   7.154   6.907   7.524
23099SOL     OW70737   6.045   7.329   7.760
23099SOL    HW170738   6.094   7.373   7.829
23099SOL    HW270739   6.111   7.283   7.708
23100SOL     OW70740   6.981   5.691   7.891
23100SOL    HW170741   6.970   5.665   7.799
23100SOL    HW270742   7.075   5.679   7.908
23101SOL     OW70743   5.848   7.376   8.667
23101SOL    HW170744   5.890   7.297   8.700
23101SOL    HW270745   5.822   7.354   8.577
23102SOL     OW70746   6.527   7.286   8.338
23102SOL    HW170747   6.608   7.238   8.355
23102SOL    HW270748   6.485   7.236   8.268
23103SOL     OW70749   5.985   6.274   7.925
23103SOL    HW170750   6.003   6.181   7.938
23103SOL    HW270751   5.890   6.282   7.939
23104SOL     OW70752   7.100   5.809   9.169
23104SOL    HW170753   7.110   5.827   9.263
23104SOL    HW270754   7.032   5.742   9.164
23105SOL     OW70755   6.242   5.698   7.547
23105SOL    HW170756   6.283   5.616   7.576
23105SOL    HW270757   6.180   5.671   7.479
23106SOL     OW70758   6.354   5.864   9.212
23106SOL    HW170759   6.435   5.812   9.204
23106SOL    HW270760   6.301   5.816   9.276
23107SOL     OW70761   6.461   7.116   8.644
23107SOL    HW170762   6.443   7.076   8.560
23107SOL    HW270763   6.529   7.060   8.683
23108SOL     OW70764   6.922   6.174   8.879
23108SOL    HW170765   6.952   6.145   8.964
23108SOL    HW270766   6.955   6.263   8.870
23109SOL     OW70767   6.405   6.977   8.398
23109SOL    HW170768   6.490   6.965   8.355
23109SOL    HW270769   6.343   6.984   8.326
23110SOL     OW70770   6.519   6.100   8.339
23110SOL    HW170771   6.494   6.090   8.248
23110SOL    HW270772   6.541   6.012   8.369
23111SOL     OW70773   6.150   5.653   7.943
23111SOL    HW170774   6.068   5.649   7.993
23111SOL    HW270775   6.138   5.726   7.883
23112SOL     OW70776   7.019   6.793   7.486
23112SOL    HW170777   7.045   6.715   7.536
23112SOL    HW270778   6.930   6.812   7.518
23113SOL     OW70779   5.870   5.640   7.634
23113SOL    HW170780   5.923   5.699   7.582
23113SOL    HW270781   5.933   5.579   7.673
23114SOL     OW70782   6.535   5.843   7.901
23114SOL    HW170783   6.508   5.874   7.814
23114SOL    HW270784   6.629   5.858   7.904
23115SOL     OW70785   6.661   6.272   8.900
23115SOL    HW170786   6.590   6.208   8.902
23115SOL    HW270787   6.740   6.219   8.892
23116SOL     OW70788   6.796   7.166   8.247
23116SOL    HW170789   6.810   7.228   8.176
23116SOL    HW270790   6.872   7.178   8.305
23117SOL     OW70791   6.063   6.744   8.171
23117SOL    HW170792   6.001   6.721   8.240
23117SOL    HW270793   6.014   6.732   8.089
23118SOL     OW70794   6.845   7.377   8.066
23118SOL    HW170795   6.890   7.438   8.008
23118SOL    HW270796   6.772   7.428   8.102
23119SOL     OW70797   6.616   6.112   7.474
23119SOL    HW170798   6.571   6.194   7.457
23119SOL    HW270799   6.675   6.131   7.547
23120SOL     OW70800   5.683   6.137   8.834
23120SOL    HW170801   5.775   6.140   8.809
23120SOL    HW270802   5.675   6.204   8.903
23121SOL     OW70803   6.147   5.817   8.621
23121SOL    HW170804   6.181   5.731   8.647
23121SOL    HW270805   6.055   5.815   8.648
23122SOL     OW70806   6.458   6.049   8.080
23122SOL    HW170807   6.409   6.101   8.017
23122SOL    HW270808   6.479   5.968   8.033
23123SOL     OW70809   6.606   5.641   8.187
23123SOL    HW170810   6.545   5.636   8.113
23123SOL    HW270811   6.582   5.567   8.243
23124SOL     OW70812   7.022   6.743   8.299
23124SOL    HW170813   6.951   6.680   8.307
23124SOL    HW270814   7.037   6.751   8.205
23125SOL     OW70815   7.050   6.197   8.404
23125SOL    HW170816   6.987   6.125   8.407
23125SOL    HW270817   7.102   6.187   8.483
23126SOL     OW70818   7.426   6.391   7.845
23126SOL    HW170819   7.485   6.339   7.900
23126SOL    HW270820   7.399   6.332   7.775
23127SOL     OW70821   6.076   7.009   7.595
23127SOL    HW170822   6.003   6.978   7.648
23127SOL    HW270823   6.071   6.958   7.514
23128SOL     OW70824   7.269   6.859   8.080
23128SOL    HW170825   7.362   6.859   8.099
23128SOL    HW270826   7.239   6.947   8.105
23129SOL     OW70827   6.981   6.154   7.522
23129SOL    HW170828   6.913   6.136   7.587
23129SOL    HW270829   7.056   6.103   7.552
23130SOL     OW70830   6.121   5.850   7.755
23130SOL    HW170831   6.163   5.801   7.684
23130SOL    HW270832   6.087   5.929   7.713
23131SOL     OW70833   7.327   6.831   8.997
23131SOL    HW170834   7.414   6.794   8.983
23131SOL    HW270835   7.344   6.919   9.031
23132SOL     OW70836   6.636   6.954   8.793
23132SOL    HW170837   6.559   6.914   8.833
23132SOL    HW270838   6.710   6.902   8.825
23133SOL     OW70839   7.199   7.221   9.116
23133SOL    HW170840   7.185   7.252   9.026
23133SOL    HW270841   7.278   7.167   9.111
23134SOL     OW70842   6.731   6.813   8.549
23134SOL    HW170843   6.653   6.826   8.604
23134SOL    HW270844   6.703   6.841   8.462
23135SOL     OW70845   7.210   6.682   8.518
23135SOL    HW170846   7.199   6.744   8.590
23135SOL    HW270847   7.134   6.697   8.462
23136SOL     OW70848   6.501   5.680   8.836
23136SOL    HW170849   6.521   5.659   8.745
23136SOL    HW270850   6.583   5.715   8.872
23137SOL     OW70851   6.570   6.699   9.174
23137SOL    HW170852   6.479   6.715   9.199
23137SOL    HW270853   6.567   6.620   9.120
23138SOL     OW70854   6.299   6.653   7.818
23138SOL    HW170855   6.282   6.628   7.909
23138SOL    HW270856   6.375   6.601   7.792
23139SOL     OW70857   6.012   6.412   8.703
23139SOL    HW170858   6.079   6.419   8.771
23139SOL    HW270859   5.979   6.322   8.710
23140SOL     OW70860   6.850   5.955   8.732
23140SOL    HW170861   6.879   6.035   8.776
23140SOL    HW270862   6.760   5.973   8.706
23141SOL     OW70863   5.662   7.162   8.814
23141SOL    HW170864   5.627   7.223   8.748
23141SOL    HW270865   5.756   7.159   8.796
23142SOL     OW70866   5.918   6.711   7.937
23142SOL    HW170867   5.915   6.781   7.872
23142SOL    HW270868   5.914   6.630   7.886
23143SOL     OW70869   6.136   6.116   8.311
23143SOL    HW170870   6.148   6.174   8.235
23143SOL    HW270871   6.207   6.140   8.371
23144SOL     OW70872   6.833   6.936   7.844
23144SOL    HW170873   6.889   7.007   7.877
23144SOL    HW270874   6.745   6.959   7.874
23145SOL     OW70875   6.881   7.048   8.592
23145SOL    HW170876   6.929   7.048   8.674
23145SOL    HW270877   6.825   6.971   8.597
23146SOL     OW70878   7.160   6.204   7.935
23146SOL    HW170879   7.109   6.244   8.005
23146SOL    HW270880   7.171   6.274   7.870
23147SOL     OW70881   5.930   7.121   8.751
23147SOL    HW170882   5.919   7.071   8.670
23147SOL    HW270883   6.025   7.131   8.759
23148SOL     OW70884   5.997   6.338   9.052
23148SOL    HW170885   6.068   6.371   8.997
23148SOL    HW270886   6.012   6.244   9.056
23149SOL     OW70887   7.203   6.372   9.141
23149SOL    HW170888   7.115   6.409   9.133
23149SOL    HW270889   7.252   6.410   9.067
23150SOL     OW70890   6.586   5.721   9.203
23150SOL    HW170891   6.645   5.793   9.179
23150SOL    HW270892   6.634   5.642   9.179
23151SOL     OW70893   6.076   5.622   9.208
23151SOL    HW170894   6.029   5.569   9.144
23151SOL    HW270895   6.018   5.696   9.225
23152SOL     OW70896   6.180   6.456   8.486
23152SOL    HW170897   6.198   6.550   8.482
23152SOL    HW270898   6.115   6.447   8.556
23153SOL     OW70899   6.918   6.442   8.465
23153SOL    HW170900   6.830   6.423   8.432
23153SOL    HW270901   6.967   6.361   8.448
23154SOL     OW70902   6.784   6.114   7.707
23154SOL    HW170903   6.791   6.035   7.761
23154SOL    HW270904   6.739   6.177   7.763
23155SOL     OW70905   5.887   5.785   8.695
23155SOL    HW170906   5.838   5.808   8.774
23155SOL    HW270907   5.875   5.691   8.685
23156SOL     OW70908   5.645   6.899   8.717
23156SOL    HW170909   5.669   6.839   8.787
23156SOL    HW270910   5.639   6.985   8.759
23157SOL     OW70911   6.316   6.216   8.503
23157SOL    HW170912   6.385   6.205   8.438
23157SOL    HW270913   6.279   6.303   8.485
23158SOL     OW70914   7.330   6.549   9.313
23158SOL    HW170915   7.290   6.480   9.260
23158SOL    HW270916   7.266   6.567   9.381
23159SOL     OW70917   5.907   5.651   8.069
23159SOL    HW170918   5.873   5.738   8.090
23159SOL    HW270919   5.909   5.605   8.153
23160SOL     OW70920   7.221   5.970   7.804
23160SOL    HW170921   7.247   5.902   7.866
23160SOL    HW270922   7.192   6.042   7.859
23161SOL     OW70923   6.622   6.345   8.406
23161SOL    HW170924   6.604   6.361   8.499
23161SOL    HW270925   6.592   6.256   8.390
23162SOL     OW70926   6.571   7.154   9.174
23162SOL    HW170927   6.549   7.196   9.090
23162SOL    HW270928   6.610   7.070   9.149
23163SOL     OW70929   7.433   7.085   9.055
23163SOL    HW170930   7.455   7.113   8.966
23163SOL    HW270931   7.515   7.096   9.104
23164SOL     OW70932   5.938   6.509   9.258
23164SOL    HW170933   6.020   6.517   9.308
23164SOL    HW270934   5.958   6.445   9.190
23165SOL     OW70935   7.106   5.864   7.573
23165SOL    HW170936   7.047   5.794   7.601
23165SOL    HW270937   7.146   5.895   7.654
23166SOL     OW70938   6.877   6.409   7.479
23166SOL    HW170939   6.915   6.321   7.483
23166SOL    HW270940   6.907   6.444   7.395
23167SOL     OW70941   6.657   6.930   8.308
23167SOL    HW170942   6.661   6.857   8.246
23167SOL    HW270943   6.709   6.999   8.268
23168SOL     OW70944   5.895   6.394   8.397
23168SOL    HW170945   5.988   6.403   8.375
23168SOL    HW270946   5.886   6.305   8.430
23169SOL     OW70947   5.919   6.121   8.466
23169SOL    HW170948   5.877   6.036   8.453
23169SOL    HW270949   5.995   6.120   8.407
23170SOL     OW70950   6.723   5.957   9.132
23170SOL    HW170951   6.673   6.008   9.196
23170SOL    HW270952   6.807   6.003   9.126
23171SOL     OW70953   6.746   5.779   8.921
23171SOL    HW170954   6.732   5.843   8.991
23171SOL    HW270955   6.787   5.829   8.850
23172SOL     OW70956   5.606   6.896   7.633
23172SOL    HW170957   5.516   6.915   7.604
23172SOL    HW270958   5.600   6.809   7.673
23173SOL     OW70959   5.679   7.361   8.398
23173SOL    HW170960   5.645   7.285   8.350
23173SOL    HW270961   5.766   7.376   8.360
23174SOL     OW70962   6.076   7.163   8.352
23174SOL    HW170963   6.147   7.223   8.375
23174SOL    HW270964   6.117   7.099   8.293
23175SOL     OW70965   6.548   6.372   8.667
23175SOL    HW170966   6.602   6.352   8.744
23175SOL    HW270967   6.468   6.322   8.679
23176SOL     OW70968   5.617   6.154   8.564
23176SOL    HW170969   5.681   6.112   8.507
23176SOL    HW270970   5.651   6.141   8.652
23177SOL     OW70971   5.779   6.101   9.177
23177SOL    HW170972   5.794   6.036   9.108
23177SOL    HW270973   5.743   6.176   9.131
23178SOL     OW70974   6.970   6.514   9.105
23178SOL    HW170975   6.989   6.607   9.098
23178SOL    HW270976   6.962   6.484   9.014
23179SOL     OW70977   6.406   6.163   7.814
23179SOL    HW170978   6.410   6.085   7.758
23179SOL    HW270979   6.328   6.210   7.784
23180SOL     OW70980   7.219   6.191   8.624
23180SOL    HW170981   7.207   6.128   8.695
23180SOL    HW270982   7.307   6.173   8.590
23181SOL     OW70983   5.822   7.129   9.175
23181SOL    HW170984   5.796   7.181   9.252
23181SOL    HW270985   5.830   7.040   9.208
23182SOL     OW70986   6.313   6.025   8.698
23182SOL    HW170987   6.252   5.954   8.678
23182SOL    HW270988   6.299   6.088   8.627
23183SOL     OW70989   6.498   7.264   8.928
23183SOL    HW170990   6.481   7.216   8.846
23183SOL    HW270991   6.491   7.356   8.904
23184SOL     OW70992   6.042   6.079   7.627
23184SOL    HW170993   6.100   6.150   7.654
23184SOL    HW270994   5.957   6.120   7.616
23185SOL     OW70995   5.727   6.731   8.925
23185SOL    HW170996   5.728   6.687   9.010
23185SOL    HW270997   5.742   6.661   8.862
23186SOL     OW70998   6.904   6.630   8.661
23186SOL    HW170999   6.917   6.563   8.594
23186SOL    HW271000   6.843   6.692   8.622
23187SOL     OW71001   6.908   6.440   7.753
23187SOL    HW171002   6.834   6.408   7.804
23187SOL    HW271003   6.881   6.427   7.662
23188SOL     OW71004   7.378   7.315   8.615
23188SOL    HW171005   7.436   7.340   8.543
23188SOL    HW271006   7.342   7.231   8.589
23189SOL     OW71007   6.828   7.320   8.559
23189SOL    HW171008   6.910   7.345   8.517
23189SOL    HW271009   6.837   7.226   8.575
23190SOL     OW71010   5.673   6.861   8.449
23190SOL    HW171011   5.655   6.871   8.542
23190SOL    HW271012   5.609   6.798   8.418
23191SOL     OW71013   6.269   7.263   9.190
23191SOL    HW171014   6.203   7.332   9.176
23191SOL    HW271015   6.334   7.278   9.121
23192SOL     OW71016   7.326   5.753   7.956
23192SOL    HW171017   7.388   5.734   7.886
23192SOL    HW271018   7.301   5.667   7.990
23193SOL     OW71019   6.984   7.155   7.948
23193SOL    HW171020   7.035   7.189   7.875
23193SOL    HW271021   6.927   7.227   7.973
23194SOL     OW71022   5.718   7.394   9.291
23194SOL    HW171023   5.675   7.319   9.331
23194SOL    HW271024   5.768   7.434   9.362
23195SOL     OW71025   6.864   6.519   8.121
23195SOL    HW171026   6.937   6.458   8.131
23195SOL    HW271027   6.898   6.589   8.066
23196SOL     OW71028   6.380   6.867   8.862
23196SOL    HW171029   6.353   6.909   8.944
23196SOL    HW271030   6.306   6.877   8.803
23197SOL     OW71031   6.253   7.215   7.603
23197SOL    HW171032   6.266   7.230   7.509
23197SOL    HW271033   6.198   7.137   7.607
23198SOL     OW71034   7.202   7.312   8.846
23198SOL    HW171035   7.259   7.314   8.768
23198SOL    HW271036   7.187   7.404   8.866
23199SOL     OW71037   7.434   5.752   8.414
23199SOL    HW171038   7.460   5.663   8.392
23199SOL    HW271039   7.346   5.762   8.377
23200SOL     OW71040   5.836   5.901   8.161
23200SOL    HW171041   5.749   5.930   8.134
23200SOL    HW271042   5.832   5.897   8.256
23201SOL     OW71043   6.796   7.181   7.483
23201SOL    HW171044   6.783   7.090   7.511
23201SOL    HW271045   6.729   7.195   7.417
23202SOL     OW71046   6.408   6.593   8.830
23202SOL    HW171047   6.440   6.579   8.740
23202SOL    HW271048   6.402   6.688   8.838
23203SOL     OW71049   6.513   6.509   7.743
23203SOL    HW171050   6.573   6.539   7.675
23203SOL    HW271051   6.557   6.434   7.783
23204SOL     OW71052   7.071   7.227   7.499
23204SOL    HW171053   6.979   7.207   7.483
23204SOL    HW271054   7.111   7.229   7.412
23205SOL     OW71055   5.951   6.899   8.945
23205SOL    HW171056   5.939   6.970   8.882
23205SOL    HW271057   5.878   6.839   8.929
23206SOL     OW71058   7.193   6.873   8.727
23206SOL    HW171059   7.245   6.850   8.804
23206SOL    HW271060   7.129   6.937   8.759
23207SOL     OW71061   6.654   6.700   8.168
23207SOL    HW171062   6.578   6.652   8.200
23207SOL    HW271063   6.715   6.632   8.140
23208SOL     OW71064   6.616   5.829   8.411
23208SOL    HW171065   6.609   5.785   8.326
23208SOL    HW271066   6.606   5.758   8.475
23209SOL     OW71067   6.193   7.074   7.929
23209SOL    HW171068   6.246   7.025   7.866
23209SOL    HW271069   6.107   7.082   7.887
23210SOL     OW71070   7.320   5.979   8.827
23210SOL    HW171071   7.392   6.042   8.821
23210SOL    HW271072   7.347   5.907   8.771
23211SOL     OW71073   5.864   6.925   7.752
23211SOL    HW171074   5.775   6.918   7.715
23211SOL    HW271075   5.851   6.969   7.836
23212SOL     OW71076   5.705   6.639   9.187
23212SOL    HW171077   5.627   6.606   9.231
23212SOL    HW271078   5.776   6.584   9.221
23213SOL     OW71079   6.261   5.783   8.950
23213SOL    HW171080   6.343   5.758   8.907
23213SOL    HW271081   6.289   5.816   9.035
23214SOL     OW71082   5.663   5.907   7.483
23214SOL    HW171083   5.582   5.876   7.444
23214SOL    HW271084   5.684   5.988   7.436
23215SOL     OW71085   7.007   6.443   8.843
23215SOL    HW171086   6.954   6.501   8.788
23215SOL    HW271087   7.094   6.445   8.803
23216SOL     OW71088   5.643   5.741   7.743
23216SOL    HW171089   5.628   5.814   7.683
23216SOL    HW271090   5.728   5.706   7.717
23217SOL     OW71091   6.763   6.916   7.567
23217SOL    HW171092   6.673   6.884   7.564
23217SOL    HW271093   6.786   6.913   7.660
23218SOL     OW71094   6.209   6.413   8.890
23218SOL    HW171095   6.268   6.487   8.875
23218SOL    HW271096   6.267   6.336   8.892
23219SOL     OW71097   7.068   7.384   8.439
23219SOL    HW171098   7.089   7.447   8.370
23219SOL    HW271099   7.150   7.337   8.455
23220SOL     OW71100   6.318   6.134   9.144
23220SOL    HW171101   6.358   6.187   9.213
23220SOL    HW271102   6.326   6.044   9.176
23221SOL     OW71103   7.058   6.775   9.074
23221SOL    HW171104   7.049   6.794   9.167
23221SOL    HW271105   7.149   6.798   9.054
23222SOL     OW71106   5.953   7.327   9.023
23222SOL    HW171107   5.872   7.373   9.002
23222SOL    HW271108   5.925   7.244   9.061
23223SOL     OW71109   7.247   6.463   8.702
23223SOL    HW171110   7.240   6.377   8.661
23223SOL    HW271111   7.236   6.525   8.630
23224SOL     OW71112   6.809   5.912   7.903
23224SOL    HW171113   6.865   5.834   7.898
23224SOL    HW271114   6.840   5.959   7.980
23225SOL     OW71115   6.170   6.322   8.127
23225SOL    HW171116   6.210   6.406   8.105
23225SOL    HW271117   6.106   6.306   8.058
23226SOL     OW71118   7.329   5.952   9.100
23226SOL    HW171119   7.318   5.968   9.006
23226SOL    HW271120   7.257   5.893   9.123
23227SOL     OW71121   7.345   6.515   8.954
23227SOL    HW171122   7.323   6.607   8.968
23227SOL    HW271123   7.320   6.498   8.863
23228SOL     OW71124   6.457   6.951   7.502
23228SOL    HW171125   6.415   6.972   7.585
23228SOL    HW271126   6.464   7.034   7.456
23229SOL     OW71127   6.252   7.371   8.384
23229SOL    HW171128   6.235   7.464   8.364
23229SOL    HW271129   6.346   7.361   8.374
23230SOL     OW71130   6.456   6.563   8.304
23230SOL    HW171131   6.503   6.486   8.338
23230SOL    HW271132   6.415   6.601   8.381
23231SOL     OW71133   6.677   6.588   7.542
23231SOL    HW171134   6.646   6.629   7.461
23231SOL    HW271135   6.743   6.525   7.513
23232SOL     OW71136   7.428   7.144   8.289
23232SOL    HW171137   7.350   7.133   8.235
23232SOL    HW271138   7.419   7.077   8.357
23233SOL     OW71139   5.798   6.876   9.291
23233SOL    HW171140   5.765   6.798   9.246
23233SOL    HW271141   5.738   6.888   9.365
23234SOL     OW71142   5.682   6.822   8.115
23234SOL    HW171143   5.668   6.765   8.191
23234SOL    HW271144   5.744   6.774   8.059
23235SOL     OW71145   6.276   6.996   9.084
23235SOL    HW171146   6.197   6.954   9.116
23235SOL    HW271147   6.273   7.085   9.119
23236SOL     OW71148   7.410   5.768   8.686
23236SOL    HW171149   7.393   5.676   8.702
23236SOL    HW271150   7.418   5.775   8.591
23237SOL     OW71151   6.023   6.014   7.979
23237SOL    HW171152   6.047   5.945   7.917
23237SOL    HW271153   5.963   5.971   8.040
23238SOL     OW71154   7.276   7.073   8.540
23238SOL    HW171155   7.200   7.053   8.485
23238SOL    HW271156   7.275   7.005   8.607
23239SOL     OW71157   5.937   6.152   8.742
23239SOL    HW171158   5.984   6.086   8.793
23239SOL    HW271159   5.943   6.122   8.652
23240SOL     OW71160   6.420   7.171   8.116
23240SOL    HW171161   6.398   7.244   8.059
23240SOL    HW271162   6.343   7.113   8.112
23241SOL     OW71163   7.009   5.811   8.561
23241SOL    HW171164   7.002   5.718   8.582
23241SOL    HW271165   6.960   5.855   8.630
23242SOL     OW71166   6.593   5.604   8.579
23242SOL    HW171167   6.534   5.540   8.540
23242SOL    HW271168   6.678   5.560   8.582
23243SOL     OW71169   6.362   6.921   7.773
23243SOL    HW171170   6.333   6.831   7.778
23243SOL    HW271171   6.445   6.922   7.821
23244SOL     OW71172   6.205   7.146   8.737
23244SOL    HW171173   6.205   7.227   8.788
23244SOL    HW271174   6.293   7.141   8.700
23245SOL     OW71175   6.949   5.635   7.622
23245SOL    HW171176   6.985   5.564   7.568
23245SOL    HW271177   6.859   5.608   7.640
23246SOL     OW71178   6.896   6.055   8.126
23246SOL    HW171179   6.840   6.132   8.123
23246SOL    HW271180   6.882   6.018   8.213
23247SOL     OW71181   7.176   5.780   8.338
23247SOL    HW171182   7.117   5.803   8.410
23247SOL    HW271183   7.172   5.855   8.278
23248SOL     OW71184   5.631   6.648   7.761
23248SOL    HW171185   5.722   6.636   7.737
23248SOL    HW271186   5.600   6.560   7.783
23249SOL     OW71187   6.479   7.250   7.775
23249SOL    HW171188   6.402   7.232   7.721
23249SOL    HW271189   6.448   7.314   7.840
23250SOL     OW71190   5.807   6.211   9.436
23250SOL    HW171191   5.718   6.201   9.470
23250SOL    HW271192   5.801   6.185   9.344
23251SOL     OW71193   5.807   5.877  10.306
23251SOL    HW171194   5.837   5.838  10.387
23251SOL    HW271195   5.720   5.839  10.291
23252SOL     OW71196   5.581   5.971   9.950
23252SOL    HW171197   5.499   5.997   9.992
23252SOL    HW271198   5.558   5.895   9.898
23253SOL     OW71199   6.158   6.888  10.505
23253SOL    HW171200   6.075   6.889  10.458
23253SOL    HW271201   6.172   6.979  10.531
23254SOL     OW71202   7.166   7.108  10.020
23254SOL    HW171203   7.121   7.078  10.098
23254SOL    HW271204   7.098   7.111   9.952
23255SOL     OW71205   6.726   6.283  10.002
23255SOL    HW171206   6.769   6.368   9.991
23255SOL    HW271207   6.674   6.293  10.082
23256SOL     OW71208   7.374   6.183   9.535
23256SOL    HW171209   7.344   6.180   9.444
23256SOL    HW271210   7.333   6.106   9.575
23257SOL     OW71211   6.332   6.724  10.366
23257SOL    HW171212   6.266   6.762  10.425
23257SOL    HW271213   6.368   6.799  10.319
23258SOL     OW71214   6.470   6.340  11.137
23258SOL    HW171215   6.449   6.411  11.198
23258SOL    HW271216   6.488   6.384  11.054
23259SOL     OW71217   6.273   6.581   9.952
23259SOL    HW171218   6.338   6.576  10.022
23259SOL    HW271219   6.204   6.637   9.987
23260SOL     OW71220   6.301   6.736  11.137
23260SOL    HW171221   6.350   6.812  11.167
23260SOL    HW271222   6.224   6.773  11.094
23261SOL     OW71223   5.919   6.996  10.376
23261SOL    HW171224   5.844   6.954  10.333
23261SOL    HW271225   5.960   7.048  10.307
23262SOL     OW71226   7.041   7.087  10.677
23262SOL    HW171227   7.095   7.166  10.686
23262SOL    HW271228   6.970   7.099  10.740
23263SOL     OW71229   6.039   5.973  10.785
23263SOL    HW171230   6.113   5.913  10.791
23263SOL    HW271231   5.962   5.920  10.804
23264SOL     OW71232   7.187   6.023  10.057
23264SOL    HW171233   7.115   6.031   9.994
23264SOL    HW271234   7.176   6.098  10.115
23265SOL     OW71235   5.802   7.310   9.775
23265SOL    HW171236   5.829   7.382   9.831
23265SOL    HW271237   5.876   7.298   9.714
23266SOL     OW71238   6.724   6.928  11.007
23266SOL    HW171239   6.764   6.918  11.093
23266SOL    HW271240   6.672   6.848  10.995
23267SOL     OW71241   5.825   7.039   9.852
23267SOL    HW171242   5.796   7.130   9.853
23267SOL    HW271243   5.767   6.994   9.914
23268SOL     OW71244   5.871   6.679  10.212
23268SOL    HW171245   5.861   6.588  10.241
23268SOL    HW271246   5.803   6.726  10.259
23269SOL     OW71247   6.182   7.378  10.740
23269SOL    HW171248   6.100   7.360  10.787
23269SOL    HW271249   6.205   7.467  10.767
23270SOL     OW71250   6.160   6.570   9.454
23270SOL    HW171251   6.210   6.615   9.385
23270SOL    HW271252   6.199   6.602   9.535
23271SOL     OW71253   7.182   5.714  10.773
23271SOL    HW171254   7.202   5.794  10.724
23271SOL    HW271255   7.155   5.745  10.859
23272SOL     OW71256   5.710   6.239   9.871
23272SOL    HW171257   5.674   6.151   9.888
23272SOL    HW271258   5.698   6.285   9.954
23273SOL     OW71259   7.430   7.335   9.637
23273SOL    HW171260   7.501   7.312   9.698
23273SOL    HW271261   7.447   7.426   9.614
23274SOL     OW71262   5.638   7.173   9.425
23274SOL    HW171263   5.616   7.082   9.441
23274SOL    HW271264   5.605   7.220   9.502
23275SOL     OW71265   7.285   6.511   9.956
23275SOL    HW171266   7.350   6.455   9.914
23275SOL    HW271267   7.250   6.565   9.884
23276SOL     OW71268   7.233   6.689   9.741
23276SOL    HW171269   7.319   6.687   9.698
23276SOL    HW271270   7.241   6.756   9.808
23277SOL     OW71271   5.706   6.328  10.893
23277SOL    HW171272   5.794   6.367  10.892
23277SOL    HW271273   5.648   6.403  10.880
23278SOL     OW71274   6.201   6.980  10.048
23278SOL    HW171275   6.159   6.894  10.053
23278SOL    HW271276   6.187   7.008   9.958
23279SOL     OW71277   6.866   6.818  10.730
23279SOL    HW171278   6.893   6.750  10.669
23279SOL    HW271279   6.927   6.811  10.803
23280SOL     OW71280   6.414   5.598   9.833
23280SOL    HW171281   6.452   5.680   9.802
23280SOL    HW271282   6.319   5.614   9.832
23281SOL     OW71283   5.771   6.543  10.599
23281SOL    HW171284   5.858   6.506  10.582
23281SOL    HW271285   5.715   6.502  10.534
23282SOL     OW71286   7.119   6.589   9.509
23282SOL    HW171287   7.049   6.530   9.538
23282SOL    HW271288   7.158   6.621   9.590
23283SOL     OW71289   6.773   7.399  10.943
23283SOL    HW171290   6.772   7.461  10.870
23283SOL    HW271291   6.786   7.314  10.902
23284SOL     OW71292   5.930   5.832  11.164
23284SOL    HW171293   5.968   5.919  11.173
23284SOL    HW271294   5.836   5.846  11.172
23285SOL     OW71295   7.054   7.005  10.249
23285SOL    HW171296   6.989   7.021  10.316
23285SOL    HW271297   7.040   6.914  10.222
23286SOL     OW71298   7.232   7.354   9.882
23286SOL    HW171299   7.213   7.317   9.796
23286SOL    HW271300   7.220   7.282   9.943
23287SOL     OW71301   6.180   6.305   9.588
23287SOL    HW171302   6.174   6.388   9.540
23287SOL    HW271303   6.112   6.311   9.655
23288SOL     OW71304   6.866   5.966  10.248
23288SOL    HW171305   6.777   5.930  10.252
23288SOL    HW271306   6.918   5.908  10.304
23289SOL     OW71307   7.161   7.267   9.623
23289SOL    HW171308   7.255   7.283   9.612
23289SOL    HW271309   7.130   7.250   9.534
23290SOL     OW71310   6.379   6.200  10.754
23290SOL    HW171311   6.353   6.172  10.842
23290SOL    HW271312   6.348   6.131  10.697
23291SOL     OW71313   6.978   6.063  10.986
23291SOL    HW171314   6.983   6.105  11.072
23291SOL    HW271315   7.029   5.983  10.996
23292SOL     OW71316   6.534   6.469  10.899
23292SOL    HW171317   6.588   6.401  10.858
23292SOL    HW271318   6.484   6.507  10.827
23293SOL     OW71319   6.586   5.990  10.533
23293SOL    HW171320   6.494   6.003  10.559
23293SOL    HW271321   6.580   5.947  10.447
23294SOL     OW71322   6.642   6.285   9.732
23294SOL    HW171323   6.661   6.276   9.826
23294SOL    HW271324   6.558   6.242   9.720
23295SOL     OW71325   5.676   6.398  10.092
23295SOL    HW171326   5.756   6.396  10.146
23295SOL    HW271327   5.629   6.476  10.123
23296SOL     OW71328   5.710   7.460  10.892
23296SOL    HW171329   5.710   7.440  10.986
23296SOL    HW271330   5.633   7.414  10.859
23297SOL     OW71331   6.477   5.941   9.510
23297SOL    HW171332   6.525   5.993   9.446
23297SOL    HW271333   6.438   5.870   9.459
23298SOL     OW71334   7.290   6.157  11.142
23298SOL    HW171335   7.256   6.232  11.093
23298SOL    HW271336   7.311   6.092  11.074
23299SOL     OW71337   6.971   6.732   9.853
23299SOL    HW171338   7.046   6.716   9.796
23299SOL    HW271339   6.914   6.791   9.804
23300SOL     OW71340   6.140   5.754  10.208
23300SOL    HW171341   6.141   5.794  10.296
23300SOL    HW271342   6.132   5.828  10.148
23301SOL     OW71343   6.588   7.038   9.778
23301SOL    HW171344   6.558   7.109   9.721
23301SOL    HW271345   6.552   7.060   9.865
23302SOL     OW71346   5.941   7.403  10.184
23302SOL    HW171347   5.985   7.318  10.190
23302SOL    HW271348   6.010   7.467  10.203
23303SOL     OW71349   7.392   6.642  10.178
23303SOL    HW171350   7.343   6.613  10.102
23303SOL    HW271351   7.327   6.645  10.249
23304SOL     OW71352   6.808   7.126  10.824
23304SOL    HW171353   6.798   7.055  10.888
23304SOL    HW271354   6.744   7.107  10.756
23305SOL     OW71355   5.892   6.544   9.567
23305SOL    HW171356   5.972   6.564   9.519
23305SOL    HW271357   5.862   6.461   9.531
23306SOL     OW71358   7.070   6.345  10.028
23306SOL    HW171359   7.067   6.300  10.113
23306SOL    HW271360   7.151   6.395  10.031
23307SOL     OW71361   6.056   6.862  11.053
23307SOL    HW171362   6.030   6.868  10.961
23307SOL    HW271363   5.974   6.851  11.101
23308SOL     OW71364   6.719   7.362   9.538
23308SOL    HW171365   6.639   7.329   9.577
23308SOL    HW271366   6.741   7.298   9.470
23309SOL     OW71367   5.789   5.853  10.816
23309SOL    HW171368   5.705   5.897  10.802
23309SOL    HW271369   5.765   5.766  10.848
23310SOL     OW71370   7.221   6.974   9.410
23310SOL    HW171371   7.179   7.058   9.390
23310SOL    HW271372   7.156   6.908   9.387
23311SOL     OW71373   6.045   7.328   9.622
23311SOL    HW171374   6.095   7.374   9.690
23311SOL    HW271375   6.111   7.283   9.569
23312SOL     OW71376   6.982   5.691   9.754
23312SOL    HW171377   6.971   5.665   9.662
23312SOL    HW271378   7.076   5.683   9.770
23313SOL     OW71379   5.847   7.375  10.529
23313SOL    HW171380   5.891   7.297  10.562
23313SOL    HW271381   5.823   7.353  10.439
23314SOL     OW71382   6.528   7.285  10.200
23314SOL    HW171383   6.610   7.239  10.215
23314SOL    HW271384   6.485   7.236  10.130
23315SOL     OW71385   5.985   6.275   9.787
23315SOL    HW171386   6.003   6.182   9.799
23315SOL    HW271387   5.891   6.283   9.800
23316SOL     OW71388   7.103   5.811  11.031
23316SOL    HW171389   7.113   5.829  11.124
23316SOL    HW271390   7.037   5.741  11.027
23317SOL     OW71391   6.242   5.697   9.409
23317SOL    HW171392   6.291   5.617   9.429
23317SOL    HW271393   6.180   5.670   9.342
23318SOL     OW71394   6.352   5.864  11.071
23318SOL    HW171395   6.433   5.814  11.065
23318SOL    HW271396   6.302   5.821  11.140
23319SOL     OW71397   6.461   7.114  10.506
23319SOL    HW171398   6.443   7.075  10.421
23319SOL    HW271399   6.529   7.059  10.545
23320SOL     OW71400   6.920   6.175  10.742
23320SOL    HW171401   6.952   6.145  10.827
23320SOL    HW271402   6.957   6.263  10.733
23321SOL     OW71403   6.404   6.975  10.260
23321SOL    HW171404   6.489   6.964  10.218
23321SOL    HW271405   6.342   6.983  10.188
23322SOL     OW71406   6.517   6.099  10.202
23322SOL    HW171407   6.492   6.089  10.110
23322SOL    HW271408   6.542   6.010  10.230
23323SOL     OW71409   6.148   5.651   9.804
23323SOL    HW171410   6.066   5.648   9.853
23323SOL    HW271411   6.137   5.725   9.744
23324SOL     OW71412   7.020   6.794   9.349
23324SOL    HW171413   7.046   6.716   9.398
23324SOL    HW271414   6.931   6.812   9.380
23325SOL     OW71415   5.869   5.638   9.498
23325SOL    HW171416   5.919   5.698   9.443
23325SOL    HW271417   5.935   5.578   9.534
23326SOL     OW71418   6.534   5.840   9.763
23326SOL    HW171419   6.508   5.873   9.677
23326SOL    HW271420   6.629   5.856   9.766
23327SOL     OW71421   6.662   6.273  10.762
23327SOL    HW171422   6.595   6.205  10.764
23327SOL    HW271423   6.745   6.225  10.755
23328SOL     OW71424   6.795   7.168  10.111
23328SOL    HW171425   6.810   7.229  10.039
23328SOL    HW271426   6.871   7.178  10.167
23329SOL     OW71427   6.062   6.743  10.031
23329SOL    HW171428   5.999   6.720  10.099
23329SOL    HW271429   6.014   6.732   9.949
23330SOL     OW71430   6.845   7.378   9.927
23330SOL    HW171431   6.890   7.440   9.870
23330SOL    HW271432   6.772   7.428   9.964
23331SOL     OW71433   6.615   6.113   9.337
23331SOL    HW171434   6.571   6.196   9.318
23331SOL    HW271435   6.676   6.134   9.408
23332SOL     OW71436   5.681   6.134  10.703
23332SOL    HW171437   5.772   6.138  10.675
23332SOL    HW271438   5.672   6.203  10.768
23333SOL     OW71439   6.146   5.817  10.482
23333SOL    HW171440   6.183   5.735  10.514
23333SOL    HW271441   6.054   5.813  10.509
23334SOL     OW71442   6.456   6.046   9.942
23334SOL    HW171443   6.411   6.100   9.877
23334SOL    HW271444   6.478   5.966   9.895
23335SOL     OW71445   6.602   5.644  10.053
23335SOL    HW171446   6.542   5.638   9.978
23335SOL    HW271447   6.580   5.568  10.107
23336SOL     OW71448   7.023   6.744  10.162
23336SOL    HW171449   6.952   6.681  10.168
23336SOL    HW271450   7.041   6.752  10.068
23337SOL     OW71451   7.050   6.199  10.267
23337SOL    HW171452   6.989   6.125  10.271
23337SOL    HW271453   7.104   6.188  10.346
23338SOL     OW71454   7.426   6.391   9.705
23338SOL    HW171455   7.485   6.340   9.761
23338SOL    HW271456   7.400   6.332   9.635
23339SOL     OW71457   6.076   7.009   9.457
23339SOL    HW171458   6.003   6.977   9.510
23339SOL    HW271459   6.072   6.959   9.376
23340SOL     OW71460   7.267   6.858   9.944
23340SOL    HW171461   7.361   6.856   9.962
23340SOL    HW271462   7.240   6.947   9.967
23341SOL     OW71463   6.981   6.154   9.383
23341SOL    HW171464   6.914   6.136   9.450
23341SOL    HW271465   7.057   6.104   9.413
23342SOL     OW71466   6.120   5.848   9.617
23342SOL    HW171467   6.164   5.800   9.546
23342SOL    HW271468   6.088   5.928   9.576
23343SOL     OW71469   7.328   6.831  10.859
23343SOL    HW171470   7.415   6.793  10.848
23343SOL    HW271471   7.344   6.918  10.894
23344SOL     OW71472   6.637   6.950  10.652
23344SOL    HW171473   6.560   6.912  10.694
23344SOL    HW271474   6.711   6.900  10.686
23345SOL     OW71475   7.197   7.219  10.976
23345SOL    HW171476   7.185   7.251  10.887
23345SOL    HW271477   7.277   7.166  10.973
23346SOL     OW71478   6.731   6.813  10.412
23346SOL    HW171479   6.657   6.834  10.469
23346SOL    HW271480   6.703   6.841  10.325
23347SOL     OW71481   7.209   6.682  10.382
23347SOL    HW171482   7.198   6.744  10.454
23347SOL    HW271483   7.133   6.698  10.325
23348SOL     OW71484   6.502   5.676  10.698
23348SOL    HW171485   6.523   5.657  10.606
23348SOL    HW271486   6.583   5.714  10.733
23349SOL     OW71487   6.570   6.700  11.034
23349SOL    HW171488   6.478   6.716  11.059
23349SOL    HW271489   6.566   6.621  10.980
23350SOL     OW71490   6.299   6.652   9.681
23350SOL    HW171491   6.283   6.627   9.772
23350SOL    HW271492   6.375   6.600   9.655
23351SOL     OW71493   6.010   6.411  10.565
23351SOL    HW171494   6.078   6.419  10.632
23351SOL    HW271495   5.977   6.322  10.574
23352SOL     OW71496   6.849   5.954  10.597
23352SOL    HW171497   6.879   6.035  10.639
23352SOL    HW271498   6.759   5.974  10.570
23353SOL     OW71499   5.662   7.160  10.674
23353SOL    HW171500   5.628   7.223  10.610
23353SOL    HW271501   5.757   7.159  10.658
23354SOL     OW71502   5.916   6.711   9.798
23354SOL    HW171503   5.914   6.782   9.734
23354SOL    HW271504   5.913   6.631   9.746
23355SOL     OW71505   6.131   6.118  10.175
23355SOL    HW171506   6.143   6.174  10.099
23355SOL    HW271507   6.203   6.140  10.234
23356SOL     OW71508   6.833   6.936   9.707
23356SOL    HW171509   6.889   7.006   9.739
23356SOL    HW271510   6.745   6.959   9.737
23357SOL     OW71511   6.882   7.048  10.454
23357SOL    HW171512   6.931   7.049  10.536
23357SOL    HW271513   6.827   6.970  10.460
23358SOL     OW71514   7.160   6.203   9.798
23358SOL    HW171515   7.109   6.245   9.867
23358SOL    HW271516   7.179   6.273   9.735
23359SOL     OW71517   5.931   7.119  10.613
23359SOL    HW171518   5.920   7.070  10.531
23359SOL    HW271519   6.025   7.131  10.622
23360SOL     OW71520   6.001   6.336  10.915
23360SOL    HW171521   6.069   6.374  10.859
23360SOL    HW271522   6.025   6.244  10.923
23361SOL     OW71523   7.202   6.371  11.002
23361SOL    HW171524   7.115   6.410  10.994
23361SOL    HW271525   7.252   6.410  10.930
23362SOL     OW71526   6.584   5.722  11.067
23362SOL    HW171527   6.642   5.795  11.044
23362SOL    HW271528   6.633   5.644  11.040
23363SOL     OW71529   6.078   5.620  11.070
23363SOL    HW171530   6.031   5.568  11.004
23363SOL    HW271531   6.022   5.695  11.086
23364SOL     OW71532   6.181   6.457  10.349
23364SOL    HW171533   6.205   6.550  10.347
23364SOL    HW271534   6.116   6.451  10.418
23365SOL     OW71535   6.919   6.443  10.327
23365SOL    HW171536   6.833   6.425  10.291
23365SOL    HW271537   6.969   6.362  10.311
23366SOL     OW71538   6.785   6.114   9.570
23366SOL    HW171539   6.792   6.035   9.624
23366SOL    HW271540   6.740   6.177   9.626
23367SOL     OW71541   5.885   5.782  10.556
23367SOL    HW171542   5.845   5.809  10.639
23367SOL    HW271543   5.870   5.688  10.550
23368SOL     OW71544   5.638   6.898  10.580
23368SOL    HW171545   5.667   6.840  10.651
23368SOL    HW271546   5.638   6.985  10.619
23369SOL     OW71547   6.313   6.215  10.364
23369SOL    HW171548   6.384   6.204  10.301
23369SOL    HW271549   6.279   6.302  10.347
23370SOL     OW71550   7.329   6.549  11.174
23370SOL    HW171551   7.288   6.479  11.122
23370SOL    HW271552   7.266   6.567  11.244
23371SOL     OW71553   5.905   5.648   9.933
23371SOL    HW171554   5.874   5.736   9.952
23371SOL    HW271555   5.908   5.604  10.018
23372SOL     OW71556   7.219   5.969   9.666
23372SOL    HW171557   7.247   5.902   9.728
23372SOL    HW271558   7.191   6.042   9.721
23373SOL     OW71559   6.619   6.345  10.266
23373SOL    HW171560   6.603   6.360  10.360
23373SOL    HW271561   6.590   6.255  10.252
23374SOL     OW71562   6.568   7.151  11.036
23374SOL    HW171563   6.548   7.194  10.953
23374SOL    HW271564   6.610   7.069  11.011
23375SOL     OW71565   7.433   7.084  10.917
23375SOL    HW171566   7.455   7.113  10.829
23375SOL    HW271567   7.514   7.096  10.967
23376SOL     OW71568   5.937   6.505  11.122
23376SOL    HW171569   6.018   6.518  11.170
23376SOL    HW271570   5.959   6.442  11.053
23377SOL     OW71571   7.106   5.863   9.435
23377SOL    HW171572   7.047   5.793   9.463
23377SOL    HW271573   7.145   5.895   9.516
23378SOL     OW71574   6.877   6.409   9.340
23378SOL    HW171575   6.915   6.321   9.344
23378SOL    HW271576   6.906   6.445   9.257
23379SOL     OW71577   6.656   6.930  10.171
23379SOL    HW171578   6.662   6.858  10.108
23379SOL    HW271579   6.709   7.000  10.131
23380SOL     OW71580   5.896   6.396  10.258
23380SOL    HW171581   5.989   6.407  10.237
23380SOL    HW271582   5.889   6.306  10.290
23381SOL     OW71583   5.912   6.121  10.327
23381SOL    HW171584   5.873   6.034  10.314
23381SOL    HW271585   5.988   6.122  10.270
23382SOL     OW71586   6.722   5.956  10.997
23382SOL    HW171587   6.673   6.009  11.060
23382SOL    HW271588   6.807   6.000  10.989
23383SOL     OW71589   6.745   5.778  10.784
23383SOL    HW171590   6.732   5.842  10.855
23383SOL    HW271591   6.788   5.827  10.714
23384SOL     OW71592   5.606   6.897   9.496
23384SOL    HW171593   5.517   6.916   9.467
23384SOL    HW271594   5.600   6.810   9.535
23385SOL     OW71595   5.680   7.361  10.260
23385SOL    HW171596   5.646   7.286  10.211
23385SOL    HW271597   5.766   7.377  10.223
23386SOL     OW71598   6.076   7.163  10.215
23386SOL    HW171599   6.146   7.223  10.237
23386SOL    HW271600   6.117   7.099  10.156
23387SOL     OW71601   6.549   6.372  10.529
23387SOL    HW171602   6.604   6.353  10.605
23387SOL    HW271603   6.468   6.323  10.546
23388SOL     OW71604   5.619   6.145  10.428
23388SOL    HW171605   5.694   6.128  10.371
23388SOL    HW271606   5.654   6.138  10.517
23389SOL     OW71607   5.779   6.107  11.043
23389SOL    HW171608   5.811   6.049  10.973
23389SOL    HW271609   5.745   6.183  10.997
23390SOL     OW71610   6.970   6.514  10.966
23390SOL    HW171611   6.989   6.608  10.960
23390SOL    HW271612   6.963   6.486  10.875
23391SOL     OW71613   6.405   6.161   9.679
23391SOL    HW171614   6.410   6.085   9.621
23391SOL    HW271615   6.328   6.209   9.648
23392SOL     OW71616   7.221   6.189  10.485
23392SOL    HW171617   7.211   6.126  10.557
23392SOL    HW271618   7.310   6.173  10.452
23393SOL     OW71619   5.821   7.130  11.036
23393SOL    HW171620   5.797   7.183  11.112
23393SOL    HW271621   5.829   7.041  11.071
23394SOL     OW71622   6.310   6.026  10.559
23394SOL    HW171623   6.250   5.955  10.537
23394SOL    HW271624   6.299   6.090  10.489
23395SOL     OW71625   6.496   7.263  10.790
23395SOL    HW171626   6.479   7.217  10.708
23395SOL    HW271627   6.492   7.356  10.767
23396SOL     OW71628   6.043   6.079   9.496
23396SOL    HW171629   6.101   6.152   9.519
23396SOL    HW271630   5.958   6.120   9.481
23397SOL     OW71631   5.724   6.732  10.788
23397SOL    HW171632   5.728   6.688  10.873
23397SOL    HW271633   5.741   6.662  10.725
23398SOL     OW71634   6.903   6.629  10.525
23398SOL    HW171635   6.917   6.563  10.457
23398SOL    HW271636   6.842   6.692  10.485
23399SOL     OW71637   6.907   6.441   9.614
23399SOL    HW171638   6.833   6.408   9.664
23399SOL    HW271639   6.882   6.428   9.523
23400SOL     OW71640   7.378   7.316  10.478
23400SOL    HW171641   7.436   7.340  10.405
23400SOL    HW271642   7.341   7.232  10.452
23401SOL     OW71643   6.827   7.319  10.421
23401SOL    HW171644   6.909   7.344  10.378
23401SOL    HW271645   6.837   7.226  10.437
23402SOL     OW71646   5.673   6.856  10.313
23402SOL    HW171647   5.653   6.868  10.406
23402SOL    HW271648   5.607   6.795  10.282
23403SOL     OW71649   6.270   7.262  11.052
23403SOL    HW171650   6.206   7.332  11.038
23403SOL    HW271651   6.337   7.278  10.986
23404SOL     OW71652   7.323   5.753   9.817
23404SOL    HW171653   7.386   5.735   9.747
23404SOL    HW271654   7.300   5.667   9.852
23405SOL     OW71655   6.984   7.155   9.810
23405SOL    HW171656   7.035   7.189   9.737
23405SOL    HW271657   6.927   7.228   9.835
23406SOL     OW71658   5.719   7.393  11.153
23406SOL    HW171659   5.675   7.318  11.195
23406SOL    HW271660   5.769   7.433  11.224
23407SOL     OW71661   6.864   6.519   9.983
23407SOL    HW171662   6.938   6.458   9.993
23407SOL    HW271663   6.898   6.589   9.928
23408SOL     OW71664   6.381   6.866  10.725
23408SOL    HW171665   6.353   6.909  10.806
23408SOL    HW271666   6.308   6.879  10.665
23409SOL     OW71667   6.253   7.215   9.464
23409SOL    HW171668   6.266   7.230   9.371
23409SOL    HW271669   6.198   7.137   9.468
23410SOL     OW71670   7.201   7.313  10.707
23410SOL    HW171671   7.259   7.315  10.630
23410SOL    HW271672   7.186   7.405  10.728
23411SOL     OW71673   7.432   5.752  10.276
23411SOL    HW171674   7.460   5.663  10.253
23411SOL    HW271675   7.345   5.761  10.238
23412SOL     OW71676   5.838   5.897  10.022
23412SOL    HW171677   5.751   5.929   9.996
23412SOL    HW271678   5.835   5.896  10.118
23413SOL     OW71679   6.795   7.181   9.346
23413SOL    HW171680   6.784   7.090   9.372
23413SOL    HW271681   6.729   7.195   9.278
23414SOL     OW71682   6.408   6.594  10.691
23414SOL    HW171683   6.444   6.581  10.603
23414SOL    HW271684   6.402   6.689  10.700
23415SOL     OW71685   6.513   6.508   9.607
23415SOL    HW171686   6.572   6.538   9.538
23415SOL    HW271687   6.558   6.433   9.646
23416SOL     OW71688   7.071   7.229   9.360
23416SOL    HW171689   6.979   7.209   9.344
23416SOL    HW271690   7.111   7.231   9.274
23417SOL     OW71691   5.950   6.898  10.808
23417SOL    HW171692   5.941   6.969  10.745
23417SOL    HW271693   5.876   6.840  10.790
23418SOL     OW71694   7.193   6.873  10.590
23418SOL    HW171695   7.245   6.850  10.666
23418SOL    HW271696   7.130   6.938  10.622
23419SOL     OW71697   6.654   6.700  10.030
23419SOL    HW171698   6.578   6.652  10.062
23419SOL    HW271699   6.716   6.633  10.001
23420SOL     OW71700   6.614   5.830  10.275
23420SOL    HW171701   6.609   5.786  10.190
23420SOL    HW271702   6.607   5.759  10.339
23421SOL     OW71703   6.194   7.075   9.792
23421SOL    HW171704   6.246   7.025   9.730
23421SOL    HW271705   6.109   7.085   9.749
23422SOL     OW71706   7.320   5.976  10.690
23422SOL    HW171707   7.392   6.039  10.685
23422SOL    HW271708   7.347   5.904  10.632
23423SOL     OW71709   5.864   6.924   9.614
23423SOL    HW171710   5.776   6.919   9.576
23423SOL    HW271711   5.852   6.969   9.698
23424SOL     OW71712   5.706   6.638  11.049
23424SOL    HW171713   5.627   6.605  11.093
23424SOL    HW271714   5.777   6.583  11.083
23425SOL     OW71715   6.262   5.781  10.812
23425SOL    HW171716   6.344   5.757  10.769
23425SOL    HW271717   6.289   5.815  10.897
23426SOL     OW71718   5.660   5.909   9.342
23426SOL    HW171719   5.582   5.880   9.295
23426SOL    HW271720   5.687   5.989   9.297
23427SOL     OW71721   7.007   6.443  10.705
23427SOL    HW171722   6.955   6.502  10.650
23427SOL    HW271723   7.094   6.444  10.665
23428SOL     OW71724   5.641   5.743   9.601
23428SOL    HW171725   5.626   5.814   9.538
23428SOL    HW271726   5.727   5.708   9.577
23429SOL     OW71727   6.763   6.916   9.429
23429SOL    HW171728   6.672   6.887   9.425
23429SOL    HW271729   6.786   6.912   9.521
23430SOL     OW71730   6.209   6.415  10.750
23430SOL    HW171731   6.267   6.489  10.735
23430SOL    HW271732   6.267   6.339  10.753
23431SOL     OW71733   7.067   7.381  10.299
23431SOL    HW171734   7.089   7.446  10.232
23431SOL    HW271735   7.149   7.334  10.316
23432SOL     OW71736   6.311   6.137  11.007
23432SOL    HW171737   6.355   6.192  11.071
23432SOL    HW271738   6.324   6.047  11.039
23433SOL     OW71739   7.059   6.776  10.936
23433SOL    HW171740   7.049   6.794  11.029
23433SOL    HW271741   7.150   6.797  10.916
23434SOL     OW71742   5.953   7.326  10.883
23434SOL    HW171743   5.871   7.372  10.863
23434SOL    HW271744   5.924   7.243  10.921
23435SOL     OW71745   7.246   6.463  10.564
23435SOL    HW171746   7.241   6.377  10.522
23435SOL    HW271747   7.236   6.525  10.492
23436SOL     OW71748   6.807   5.909   9.766
23436SOL    HW171749   6.865   5.833   9.761
23436SOL    HW271750   6.839   5.958   9.842
23437SOL     OW71751   6.167   6.322   9.992
23437SOL    HW171752   6.209   6.405   9.970
23437SOL    HW271753   6.105   6.307   9.920
23438SOL     OW71754   7.332   5.951  10.963
23438SOL    HW171755   7.321   5.968  10.869
23438SOL    HW271756   7.259   5.893  10.986
23439SOL     OW71757   7.344   6.515  10.816
23439SOL    HW171758   7.324   6.607  10.830
23439SOL    HW271759   7.319   6.498  10.725
23440SOL     OW71760   6.460   6.951   9.364
23440SOL    HW171761   6.415   6.978   9.444
23440SOL    HW271762   6.468   7.032   9.313
23441SOL     OW71763   6.252   7.370  10.246
23441SOL    HW171764   6.235   7.462  10.225
23441SOL    HW271765   6.347   7.360  10.236
23442SOL     OW71766   6.456   6.562  10.166
23442SOL    HW171767   6.504   6.486  10.200
23442SOL    HW271768   6.414   6.600  10.243
23443SOL     OW71769   6.675   6.585   9.404
23443SOL    HW171770   6.645   6.628   9.324
23443SOL    HW271771   6.742   6.523   9.374
23444SOL     OW71772   7.429   7.144  10.150
23444SOL    HW171773   7.350   7.133  10.098
23444SOL    HW271774   7.426   7.074  10.215
23445SOL     OW71775   5.798   6.876  11.153
23445SOL    HW171776   5.765   6.798  11.109
23445SOL    HW271777   5.740   6.888  11.228
23446SOL     OW71778   5.682   6.821   9.974
23446SOL    HW171779   5.680   6.766  10.053
23446SOL    HW271780   5.744   6.777   9.916
23447SOL     OW71781   6.275   6.996  10.944
23447SOL    HW171782   6.196   6.955  10.978
23447SOL    HW271783   6.274   7.085  10.980
23448SOL     OW71784   7.401   5.764  10.547
23448SOL    HW171785   7.395   5.669  10.560
23448SOL    HW271786   7.413   5.774  10.453
23449SOL     OW71787   6.023   6.014   9.840
23449SOL    HW171788   6.048   5.947   9.777
23449SOL    HW271789   5.964   5.969   9.901
23450SOL     OW71790   7.274   7.075  10.405
23450SOL    HW171791   7.200   7.055  10.348
23450SOL    HW271792   7.274   7.005  10.470
23451SOL     OW71793   5.932   6.151  10.604
23451SOL    HW171794   5.982   6.088  10.655
23451SOL    HW271795   5.941   6.122  10.513
23452SOL     OW71796   6.420   7.173   9.977
23452SOL    HW171797   6.401   7.248   9.921
23452SOL    HW271798   6.343   7.117   9.968
23453SOL     OW71799   7.010   5.814  10.423
23453SOL    HW171800   7.010   5.721  10.449
23453SOL    HW271801   6.961   5.858  10.493
23454SOL     OW71802   6.593   5.601  10.440
23454SOL    HW171803   6.539   5.537  10.394
23454SOL    HW271804   6.680   5.560  10.444
23455SOL     OW71805   6.361   6.921   9.638
23455SOL    HW171806   6.332   6.830   9.641
23455SOL    HW271807   6.446   6.922   9.682
23456SOL     OW71808   6.205   7.146  10.599
23456SOL    HW171809   6.204   7.228  10.648
23456SOL    HW271810   6.293   7.140  10.562
23457SOL     OW71811   6.949   5.634   9.485
23457SOL    HW171812   6.985   5.564   9.431
23457SOL    HW271813   6.859   5.607   9.503
23458SOL     OW71814   6.894   6.054   9.988
23458SOL    HW171815   6.838   6.132   9.985
23458SOL    HW271816   6.881   6.019  10.076
23459SOL     OW71817   7.174   5.778  10.198
23459SOL    HW171818   7.117   5.804  10.271
23459SOL    HW271819   7.172   5.853  10.139
23460SOL     OW71820   5.630   6.648   9.624
23460SOL    HW171821   5.722   6.636   9.599
23460SOL    HW271822   5.599   6.560   9.645
23461SOL     OW71823   6.479   7.250   9.637
23461SOL    HW171824   6.402   7.232   9.582
23461SOL    HW271825   6.448   7.313   9.702
23462SOL     OW71826   5.805   6.210  11.304
23462SOL    HW171827   5.715   6.203  11.336
23462SOL    HW271828   5.799   6.188  11.211
23463SOL     OW71829   5.807   5.876  12.167
23463SOL    HW171830   5.840   5.835  12.246
23463SOL    HW271831   5.721   5.836  12.154
23464SOL     OW71832   5.581   5.971  11.813
23464SOL    HW171833   5.499   5.999  11.854
23464SOL    HW271834   5.555   5.895  11.760
23465SOL     OW71835   6.130   6.836  12.342
23465SOL    HW171836   6.049   6.864  12.300
23465SOL    HW271837   6.165   6.916  12.382
23466SOL     OW71838   7.168   7.106  11.885
23466SOL    HW171839   7.125   7.080  11.966
23466SOL    HW271840   7.097   7.108  11.820
23467SOL     OW71841   6.723   6.286  11.863
23467SOL    HW171842   6.768   6.369  11.852
23467SOL    HW271843   6.672   6.297  11.944
23468SOL     OW71844   7.372   6.181  11.396
23468SOL    HW171845   7.341   6.178  11.305
23468SOL    HW271846   7.333   6.103  11.437
23469SOL     OW71847   6.342   6.714  12.231
23469SOL    HW171848   6.263   6.745  12.275
23469SOL    HW271849   6.373   6.790  12.181
23470SOL     OW71850   6.272   6.579  11.814
23470SOL    HW171851   6.339   6.575  11.882
23470SOL    HW271852   6.204   6.637  11.849
23471SOL     OW71853   5.920   6.994  12.230
23471SOL    HW171854   5.842   6.959  12.188
23471SOL    HW271855   5.962   7.048  12.163
23472SOL     OW71856   7.190   6.022  11.919
23472SOL    HW171857   7.122   6.036  11.852
23472SOL    HW271858   7.181   6.097  11.978
23473SOL     OW71859   5.803   7.309  11.637
23473SOL    HW171860   5.829   7.384  11.692
23473SOL    HW271861   5.877   7.298  11.577
23474SOL     OW71862   5.822   7.038  11.713
23474SOL    HW171863   5.797   7.131  11.714
23474SOL    HW271864   5.764   6.996  11.776
23475SOL     OW71865   5.864   6.679  12.069
23475SOL    HW171866   5.863   6.589  12.101
23475SOL    HW271867   5.803   6.726  12.126
23476SOL     OW71868   6.160   6.571  11.317
23476SOL    HW171869   6.209   6.615  11.247
23476SOL    HW271870   6.200   6.603  11.398
23477SOL     OW71871   5.709   6.241  11.736
23477SOL    HW171872   5.675   6.154  11.754
23477SOL    HW271873   5.698   6.289  11.818
23478SOL     OW71874   7.432   7.333  11.498
23478SOL    HW171875   7.502   7.311  11.560
23478SOL    HW271876   7.445   7.425  11.477
23479SOL     OW71877   5.637   7.173  11.288
23479SOL    HW171878   5.616   7.082  11.304
23479SOL    HW271879   5.605   7.220  11.365
23480SOL     OW71880   7.277   6.509  11.823
23480SOL    HW171881   7.357   6.462  11.800
23480SOL    HW271882   7.254   6.558  11.743
23481SOL     OW71883   7.235   6.688  11.604
23481SOL    HW171884   7.321   6.688  11.562
23481SOL    HW271885   7.243   6.753  11.674
23482SOL     OW71886   5.747   6.334   0.219
23482SOL    HW171887   5.717   6.288   0.297
23482SOL    HW271888   5.670   6.382   0.188
23483SOL     OW71889   6.193   6.981  11.903
23483SOL    HW171890   6.151   6.896  11.908
23483SOL    HW271891   6.181   7.009  11.812
23484SOL     OW71892   6.412   5.597  11.694
23484SOL    HW171893   6.452   5.678  11.663
23484SOL    HW271894   6.318   5.614  11.692
23485SOL     OW71895   5.787   6.590  12.433
23485SOL    HW171896   5.860   6.529  12.420
23485SOL    HW271897   5.710   6.533  12.441
23486SOL     OW71898   7.118   6.590  11.373
23486SOL    HW171899   7.048   6.532  11.404
23486SOL    HW271900   7.160   6.622  11.453
23487SOL     OW71901   7.055   7.000  12.114
23487SOL    HW171902   6.989   7.016  12.182
23487SOL    HW271903   7.040   6.910  12.086
23488SOL     OW71904   7.233   7.351  11.745
23488SOL    HW171905   7.213   7.312  11.661
23488SOL    HW271906   7.224   7.280  11.808
23489SOL     OW71907   6.180   6.302  11.448
23489SOL    HW171908   6.178   6.386  11.401
23489SOL    HW271909   6.114   6.311  11.516
23490SOL     OW71910   6.865   5.960  12.109
23490SOL    HW171911   6.778   5.922  12.116
23490SOL    HW271912   6.920   5.906  12.166
23491SOL     OW71913   7.162   7.263  11.486
23491SOL    HW171914   7.256   7.280  11.477
23491SOL    HW271915   7.132   7.246  11.397
23492SOL     OW71916   6.570   5.966  12.380
23492SOL    HW171917   6.483   5.994  12.407
23492SOL    HW271918   6.558   5.928  12.293
23493SOL     OW71919   6.643   6.284  11.594
23493SOL    HW171920   6.662   6.278  11.687
23493SOL    HW271921   6.558   6.241  11.583
23494SOL     OW71922   5.673   6.403  11.956
23494SOL    HW171923   5.755   6.400  12.006
23494SOL    HW271924   5.627   6.480  11.989
23495SOL     OW71925   6.481   5.940  11.372
23495SOL    HW171926   6.528   5.998  11.311
23495SOL    HW271927   6.460   5.863  11.319
23496SOL     OW71928   6.969   6.728  11.709
23496SOL    HW171929   7.048   6.716  11.657
23496SOL    HW271930   6.916   6.790  11.658
23497SOL     OW71931   6.140   5.767  12.065
23497SOL    HW171932   6.140   5.834  12.134
23497SOL    HW271933   6.134   5.817  11.983
23498SOL     OW71934   6.585   7.035  11.640
23498SOL    HW171935   6.557   7.108  11.585
23498SOL    HW271936   6.554   7.058  11.728
23499SOL     OW71937   5.942   7.403  12.039
23499SOL    HW171938   5.986   7.319  12.049
23499SOL    HW271939   6.009   7.468  12.061
23500SOL     OW71940   7.383   6.644  12.048
23500SOL    HW171941   7.333   6.618  11.971
23500SOL    HW271942   7.318   6.647  12.119
23501SOL     OW71943   5.893   6.545  11.429
23501SOL    HW171944   5.975   6.566  11.384
23501SOL    HW271945   5.864   6.463  11.390
23502SOL     OW71946   7.067   6.342  11.888
23502SOL    HW171947   7.067   6.299  11.974
23502SOL    HW271948   7.146   6.395  11.889
23503SOL     OW71949   6.717   7.364  11.396
23503SOL    HW171950   6.638   7.329  11.438
23503SOL    HW271951   6.740   7.299  11.330
23504SOL     OW71952   7.220   6.973  11.270
23504SOL    HW171953   7.177   7.057  11.252
23504SOL    HW271954   7.154   6.908  11.247
23505SOL     OW71955   6.046   7.326  11.486
23505SOL    HW171956   6.095   7.373  11.553
23505SOL    HW271957   6.113   7.285  11.431
23506SOL     OW71958   6.984   5.691  11.618
23506SOL    HW171959   6.977   5.666  11.526
23506SOL    HW271960   7.078   5.691  11.635
23507SOL     OW71961   5.840   7.355  12.393
23507SOL    HW171962   5.812   7.288  12.455
23507SOL    HW271963   5.794   7.333  12.312
23508SOL     OW71964   6.534   7.279  12.065
23508SOL    HW171965   6.618   7.234  12.068
23508SOL    HW271966   6.484   7.233  11.997
23509SOL     OW71967   5.986   6.276  11.649
23509SOL    HW171968   6.002   6.182  11.661
23509SOL    HW271969   5.891   6.285  11.661
23510SOL     OW71970   6.242   5.697  11.272
23510SOL    HW171971   6.295   5.619  11.289
23510SOL    HW271972   6.181   5.669  11.204
23511SOL     OW71973   6.391   6.946  12.103
23511SOL    HW171974   6.480   6.955  12.068
23511SOL    HW271975   6.334   6.966  12.029
23512SOL     OW71976   6.515   6.096  12.064
23512SOL    HW171977   6.488   6.087  11.973
23512SOL    HW271978   6.545   6.008  12.088
23513SOL     OW71979   6.146   5.652  11.667
23513SOL    HW171980   6.062   5.649  11.714
23513SOL    HW271981   6.136   5.726  11.606
23514SOL     OW71982   7.019   6.793  11.210
23514SOL    HW171983   7.047   6.716  11.261
23514SOL    HW271984   6.931   6.813  11.243
23515SOL     OW71985   5.870   5.636  11.359
23515SOL    HW171986   5.920   5.698  11.307
23515SOL    HW271987   5.935   5.577  11.396
23516SOL     OW71988   6.534   5.838  11.625
23516SOL    HW171989   6.509   5.873  11.539
23516SOL    HW271990   6.628   5.853  11.630
23517SOL     OW71991   6.797   7.174  11.976
23517SOL    HW171992   6.810   7.233  11.902
23517SOL    HW271993   6.877   7.180  12.026
23518SOL     OW71994   6.060   6.740  11.892
23518SOL    HW171995   5.996   6.720  11.959
23518SOL    HW271996   6.013   6.730  11.809
23519SOL     OW71997   6.842   7.378  11.787
23519SOL    HW171998   6.892   7.437  11.730
23519SOL    HW271999   6.777   7.434  11.829
23520SOL     OW72000   6.614   6.114  11.201
23520SOL    HW172001   6.570   6.196  11.180
23520SOL    HW272002   6.678   6.136  11.268
23521SOL     OW72003   6.153   5.797  12.361
23521SOL    HW172004   6.171   5.717  12.311
23521SOL    HW272005   6.058   5.796  12.374
23522SOL     OW72006   6.451   6.042  11.804
23522SOL    HW172007   6.412   6.098  11.737
23522SOL    HW272008   6.477   5.963  11.757
23523SOL     OW72009   6.599   5.639  11.915
23523SOL    HW172010   6.541   5.634  11.838
23523SOL    HW272011   6.579   5.561  11.965
23524SOL     OW72012   7.021   6.742  12.023
23524SOL    HW172013   6.953   6.675  12.018
23524SOL    HW272014   7.051   6.753  11.933
23525SOL     OW72015   7.049   6.198  12.128
23525SOL    HW172016   6.991   6.122  12.134
23525SOL    HW272017   7.109   6.189  12.202
23526SOL     OW72018   7.422   6.390  11.564
23526SOL    HW172019   7.482   6.342  11.621
23526SOL    HW272020   7.401   6.329  11.494
23527SOL     OW72021   6.076   7.009  11.320
23527SOL    HW172022   6.002   6.976  11.372
23527SOL    HW272023   6.073   6.957  11.240
23528SOL     OW72024   7.267   6.853  11.813
23528SOL    HW172025   7.361   6.849  11.831
23528SOL    HW272026   7.243   6.943  11.835
23529SOL     OW72027   6.980   6.158  11.243
23529SOL    HW172028   6.917   6.136  11.312
23529SOL    HW272029   7.063   6.120  11.273
23530SOL     OW72030   6.116   5.846  11.479
23530SOL    HW172031   6.164   5.801  11.409
23530SOL    HW272032   6.086   5.928  11.438
23531SOL     OW72033   6.690   6.828  12.287
23531SOL    HW172034   6.607   6.845  12.331
23531SOL    HW272035   6.676   6.857  12.196
23532SOL     OW72036   7.189   6.680  12.244
23532SOL    HW172037   7.156   6.715  12.326
23532SOL    HW272038   7.122   6.701  12.179
23533SOL     OW72039   6.299   6.650  11.543
23533SOL    HW172040   6.283   6.626  11.635
23533SOL    HW272041   6.375   6.598  11.517
23534SOL     OW72042   6.001   6.405  12.427
23534SOL    HW172043   6.077   6.413  12.485
23534SOL    HW272044   5.964   6.319  12.448
23535SOL     OW72045   6.832   5.945  12.435
23535SOL    HW172046   6.870   6.028  12.467
23535SOL    HW272047   6.742   5.967  12.413
23536SOL     OW72048   5.913   6.711  11.660
23536SOL    HW172049   5.913   6.783  11.597
23536SOL    HW272050   5.913   6.632  11.606
23537SOL     OW72051   6.128   6.112  12.040
23537SOL    HW172052   6.140   6.170  11.965
23537SOL    HW272053   6.195   6.140  12.102
23538SOL     OW72054   6.832   6.937  11.565
23538SOL    HW172055   6.889   7.007  11.599
23538SOL    HW272056   6.745   6.959  11.597
23539SOL     OW72057   6.876   7.031  12.318
23539SOL    HW172058   6.932   7.024  12.396
23539SOL    HW272059   6.818   6.956  12.324
23540SOL     OW72060   7.161   6.201  11.661
23540SOL    HW172061   7.109   6.246  11.727
23540SOL    HW272062   7.200   6.271  11.608
23541SOL     OW72063   5.992   7.105  12.467
23541SOL    HW172064   5.954   7.059  12.392
23541SOL    HW272065   6.009   7.194  12.434
23542SOL     OW72066   6.185   6.458  12.215
23542SOL    HW172067   6.205   6.550  12.203
23542SOL    HW272068   6.107   6.457  12.271
23543SOL     OW72069   6.912   6.442  12.175
23543SOL    HW172070   6.828   6.418  12.135
23543SOL    HW272071   6.967   6.364  12.166
23544SOL     OW72072   6.785   6.112  11.432
23544SOL    HW172073   6.793   6.033  11.486
23544SOL    HW272074   6.742   6.176  11.489
23545SOL     OW72075   5.886   5.764  12.407
23545SOL    HW172076   5.849   5.790  12.492
23545SOL    HW272077   5.870   5.670  12.402
23546SOL     OW72078   5.638   6.911  12.429
23546SOL    HW172079   5.676   6.835  12.473
23546SOL    HW272080   5.644   6.982  12.493
23547SOL     OW72081   6.306   6.211  12.226
23547SOL    HW172082   6.381   6.203  12.168
23547SOL    HW272083   6.276   6.302  12.214
23548SOL     OW72084   5.902   5.647  11.793
23548SOL    HW172085   5.872   5.735  11.813
23548SOL    HW272086   5.907   5.603  11.879
23549SOL     OW72087   7.216   5.968  11.526
23549SOL    HW172088   7.245   5.902  11.588
23549SOL    HW272089   7.188   6.042  11.581
23550SOL     OW72090   6.616   6.342  12.129
23550SOL    HW172091   6.609   6.354  12.224
23550SOL    HW272092   6.587   6.252  12.115
23551SOL     OW72093   7.107   5.860  11.295
23551SOL    HW172094   7.048   5.791  11.326
23551SOL    HW272095   7.146   5.896  11.375
23552SOL     OW72096   6.873   6.409  11.200
23552SOL    HW172097   6.913   6.322  11.204
23552SOL    HW272098   6.904   6.446  11.117
23553SOL     OW72099   6.655   6.934  12.032
23553SOL    HW172100   6.663   6.861  11.971
23553SOL    HW272101   6.711   7.002  11.995
23554SOL     OW72102   5.901   6.401  12.109
23554SOL    HW172103   5.990   6.402  12.074
23554SOL    HW272104   5.890   6.313  12.145
23555SOL     OW72105   5.892   6.130  12.167
23555SOL    HW172106   5.863   6.039  12.166
23555SOL    HW272107   5.976   6.128  12.121
23556SOL     OW72108   6.756   5.801   0.154
23556SOL    HW172109   6.749   5.867   0.224
23556SOL    HW272110   6.782   5.851   0.077
23557SOL     OW72111   5.605   6.897  11.358
23557SOL    HW172112   5.515   6.917  11.329
23557SOL    HW272113   5.599   6.810  11.397
23558SOL     OW72114   5.681   7.364  12.118
23558SOL    HW172115   5.650   7.287  12.069
23558SOL    HW272116   5.769   7.380  12.083
23559SOL     OW72117   6.081   7.167  12.077
23559SOL    HW172118   6.153   7.225  12.102
23559SOL    HW272119   6.121   7.103  12.017
23560SOL     OW72120   6.569   6.375  12.400
23560SOL    HW172121   6.601   6.446  12.455
23560SOL    HW272122   6.480   6.359  12.430
23561SOL     OW72123   5.662   6.157  12.319
23561SOL    HW172124   5.731   6.157  12.253
23561SOL    HW272125   5.635   6.065  12.326
23562SOL     OW72126   6.403   6.158  11.544
23562SOL    HW172127   6.411   6.084  11.483
23562SOL    HW272128   6.329   6.208  11.511
23563SOL     OW72129   7.233   6.187  12.330
23563SOL    HW172130   7.232   6.136  12.411
23563SOL    HW272131   7.325   6.185  12.302
23564SOL     OW72132   6.307   6.026  12.426
23564SOL    HW172133   6.245   5.957  12.403
23564SOL    HW272134   6.294   6.093  12.359
23565SOL     OW72135   6.468   7.232   0.026
23565SOL    HW172136   6.481   7.292  -0.047
23565SOL    HW272137   6.514   7.273   0.099
23566SOL     OW72138   6.041   6.078  11.356
23566SOL    HW172139   6.101   6.148  11.378
23566SOL    HW272140   5.956   6.121  11.345
23567SOL     OW72141   6.857   6.621  12.374
23567SOL    HW172142   6.884   6.565  12.302
23567SOL    HW272143   6.808   6.692  12.333
23568SOL     OW72144   6.905   6.442  11.473
23568SOL    HW172145   6.832   6.408  11.524
23568SOL    HW272146   6.880   6.429  11.382
23569SOL     OW72147   7.342   7.338  12.302
23569SOL    HW172148   7.415   7.353  12.241
23569SOL    HW272149   7.327   7.244  12.299
23570SOL     OW72150   6.834   7.301  12.286
23570SOL    HW172151   6.911   7.340  12.244
23570SOL    HW272152   6.851   7.207  12.284
23571SOL     OW72153   5.668   6.870  12.163
23571SOL    HW172154   5.653   6.882  12.256
23571SOL    HW272155   5.609   6.799  12.138
23572SOL     OW72156   7.317   5.752  11.676
23572SOL    HW172157   7.383   5.734  11.608
23572SOL    HW272158   7.297   5.667  11.713
23573SOL     OW72159   6.981   7.154  11.672
23573SOL    HW172160   7.036   7.187  11.601
23573SOL    HW272161   6.927   7.229  11.698
23574SOL     OW72162   6.864   6.520  11.846
23574SOL    HW172163   6.937   6.459  11.855
23574SOL    HW272164   6.898   6.589  11.789
23575SOL     OW72165   6.252   7.215  11.327
23575SOL    HW172166   6.267   7.230  11.233
23575SOL    HW272167   6.197   7.136  11.330
23576SOL     OW72168   7.210   7.378   0.040
23576SOL    HW172169   7.262   7.362  -0.038
23576SOL    HW272170   7.238   7.464   0.071
23577SOL     OW72171   7.426   5.755  12.145
23577SOL    HW172172   7.459   5.668  12.121
23577SOL    HW272173   7.340   5.761  12.103
23578SOL     OW72174   5.838   5.896  11.883
23578SOL    HW172175   5.752   5.929  11.858
23578SOL    HW272176   5.837   5.899  11.979
23579SOL     OW72177   6.795   7.181  11.207
23579SOL    HW172178   6.784   7.090  11.233
23579SOL    HW272179   6.729   7.195  11.139
23580SOL     OW72180   6.390   6.634  12.496
23580SOL    HW172181   6.387   6.643  12.401
23580SOL    HW272182   6.441   6.709  12.526
23581SOL     OW72183   6.510   6.503  11.468
23581SOL    HW172184   6.568   6.535  11.399
23581SOL    HW272185   6.558   6.432  11.509
23582SOL     OW72186   7.071   7.227  11.222
23582SOL    HW172187   6.979   7.208  11.205
23582SOL    HW272188   7.111   7.229  11.135
23583SOL     OW72189   6.654   6.702  11.893
23583SOL    HW172190   6.579   6.651  11.924
23583SOL    HW272191   6.718   6.637  11.864
23584SOL     OW72192   6.609   5.822  12.133
23584SOL    HW172193   6.606   5.778  12.048
23584SOL    HW272194   6.608   5.751  12.197
23585SOL     OW72195   6.193   7.077  11.648
23585SOL    HW172196   6.247   7.026  11.588
23585SOL    HW272197   6.112   7.093  11.601
23586SOL     OW72198   7.361   6.022   0.036
23586SOL    HW172199   7.454   6.030   0.057
23586SOL    HW272200   7.352   5.931   0.007
23587SOL     OW72201   5.862   6.923  11.476
23587SOL    HW172202   5.774   6.919  11.438
23587SOL    HW272203   5.851   6.969  11.559
23588SOL     OW72204   5.663   5.910  11.200
23588SOL    HW172205   5.584   5.887  11.152
23588SOL    HW272206   5.694   5.991  11.159
23589SOL     OW72207   5.641   5.741  11.463
23589SOL    HW172208   5.625   5.813  11.402
23589SOL    HW272209   5.727   5.707  11.439
23590SOL     OW72210   6.764   6.915  11.291
23590SOL    HW172211   6.674   6.884  11.289
23590SOL    HW272212   6.788   6.915  11.383
23591SOL     OW72213   7.071   7.372  12.158
23591SOL    HW172214   7.091   7.448  12.102
23591SOL    HW272215   7.154   7.352  12.201
23592SOL     OW72216   7.253   6.457  12.407
23592SOL    HW172217   7.237   6.371  12.368
23592SOL    HW272218   7.235   6.519  12.337
23593SOL     OW72219   6.804   5.906  11.629
23593SOL    HW172220   6.865   5.832  11.623
23593SOL    HW272221   6.835   5.957  11.704
23594SOL     OW72222   6.156   6.325  11.861
23594SOL    HW172223   6.205   6.405  11.839
23594SOL    HW272224   6.099   6.310  11.786
23595SOL     OW72225   7.405   6.484   0.126
23595SOL    HW172226   7.377   6.564   0.170
23595SOL    HW272227   7.343   6.475   0.053
23596SOL     OW72228   6.456   6.951  11.223
23596SOL    HW172229   6.415   6.979  11.305
23596SOL    HW272230   6.469   7.031  11.173
23597SOL     OW72231   6.253   7.382  12.124
23597SOL    HW172232   6.236   7.469  12.088
23597SOL    HW272233   6.346   7.367  12.110
23598SOL     OW72234   6.457   6.557  12.024
23598SOL    HW172235   6.506   6.482  12.059
23598SOL    HW272236   6.421   6.599  12.102
23599SOL     OW72237   6.668   6.580  11.263
23599SOL    HW172238   6.642   6.627  11.184
23599SOL    HW272239   6.738   6.522  11.235
23600SOL     OW72240   7.439   7.139  12.013
23600SOL    HW172241   7.353   7.129  11.972
23600SOL    HW272242   7.446   7.067  12.076
23601SOL     OW72243   5.682   6.818  11.835
23601SOL    HW172244   5.693   6.771  11.918
23601SOL    HW272245   5.744   6.777  11.776
23602SOL     OW72246   7.395   5.764  12.420
23602SOL    HW172247   7.426   5.674  12.429
23602SOL    HW272248   7.397   5.781  12.326
23603SOL     OW72249   6.020   6.014  11.701
23603SOL    HW172250   6.046   5.947  11.637
23603SOL    HW272251   5.962   5.968  11.761
23604SOL     OW72252   7.288   7.077  12.279
23604SOL    HW172253   7.212   7.037  12.238
23604SOL    HW272254   7.314   7.015  12.347
23605SOL     OW72255   6.414   7.179  11.842
23605SOL    HW172256   6.403   7.256  11.785
23605SOL    HW272257   6.338   7.125  11.824
23606SOL     OW72258   7.025   5.824  12.289
23606SOL    HW172259   7.085   5.774  12.345
23606SOL    HW272260   6.961   5.861  12.349
23607SOL     OW72261   6.594   5.577  12.295
23607SOL    HW172262   6.556   5.523  12.225
23607SOL    HW272263   6.683   5.545  12.305
23608SOL     OW72264   6.361   6.921  11.499
23608SOL    HW172265   6.335   6.829  11.504
23608SOL    HW272266   6.445   6.924  11.545
23609SOL     OW72267   6.950   5.633  11.350
23609SOL    HW172268   6.986   5.563  11.296
23609SOL    HW272269   6.860   5.606  11.367
23610SOL     OW72270   6.885   6.052  11.849
23610SOL    HW172271   6.833   6.132  11.849
23610SOL    HW272272   6.878   6.018  11.938
23611SOL     OW72273   7.170   5.775  12.056
23611SOL    HW172274   7.113   5.802  12.128
23611SOL    HW272275   7.171   5.851  11.997
23612SOL     OW72276   5.628   6.648  11.485
23612SOL    HW172277   5.721   6.637  11.462
23612SOL    HW272278   5.599   6.559  11.506
23613SOL     OW72279   6.479   7.248  11.499
23613SOL    HW172280   6.402   7.231  11.444
23613SOL    HW272281   6.448   7.312  11.564
23614SOL     OW72282   5.819   7.724   0.992
23614SOL    HW172283   5.845   7.693   1.078
23614SOL    HW272284   5.729   7.693   0.981
23615SOL     OW72285   5.571   7.828   0.649
23615SOL    HW172286   5.489   7.868   0.676
23615SOL    HW272287   5.545   7.745   0.608
23616SOL     OW72288   7.205   8.024   0.197
23616SOL    HW172289   7.250   7.968   0.133
23616SOL    HW272290   7.211   7.976   0.279
23617SOL     OW72291   6.011   7.856   1.547
23617SOL    HW172292   6.088   7.816   1.505
23617SOL    HW272293   5.939   7.796   1.527
23618SOL     OW72294   7.180   7.930   0.702
23618SOL    HW172295   7.089   7.913   0.676
23618SOL    HW272296   7.174   7.962   0.792
23619SOL     OW72297   7.170   7.580   1.460
23619SOL    HW172298   7.213   7.655   1.419
23619SOL    HW272299   7.146   7.611   1.548
23620SOL     OW72300   5.647   0.108   0.580
23620SOL    HW172301   5.649   0.014   0.595
23620SOL    HW272302   5.724   0.142   0.626
23621SOL     OW72303   6.402   7.444   0.532
23621SOL    HW172304   6.446   7.523   0.502
23621SOL    HW272305   6.309   7.467   0.531
23622SOL     OW72306   5.924   7.690   1.831
23622SOL    HW172307   5.960   7.778   1.817
23622SOL    HW272308   5.831   7.705   1.850
23623SOL     OW72309   6.846   7.804   0.933
23623SOL    HW172310   6.759   7.767   0.945
23623SOL    HW272311   6.903   7.749   0.986
23624SOL     OW72312   6.998   7.939   1.704
23624SOL    HW172313   6.971   7.953   1.795
23624SOL    HW272314   7.045   7.855   1.705
23625SOL     OW72315   6.529   0.400   1.512
23625SOL    HW172316   6.552   0.320   1.466
23625SOL    HW272317   6.433   0.401   1.514
23626SOL     OW72318   6.580   7.813   1.243
23626SOL    HW172319   6.493   7.838   1.273
23626SOL    HW272320   6.564   7.754   1.169
23627SOL     OW72321   6.466   7.783   0.217
23627SOL    HW172322   6.539   7.811   0.162
23627SOL    HW272323   6.452   7.691   0.192
23628SOL     OW72324   7.343   0.040   1.789
23628SOL    HW172325   7.284   0.089   1.732
23628SOL    HW272326   7.359  -0.042   1.743
23629SOL     OW72327   6.136   7.628   0.905
23629SOL    HW172328   6.139   7.647   0.999
23629SOL    HW272329   6.135   7.714   0.863
23630SOL     OW72330   5.779   7.710   1.509
23630SOL    HW172331   5.718   7.763   1.560
23630SOL    HW272332   5.761   7.620   1.537
23631SOL     OW72333   6.996   7.542   0.455
23631SOL    HW172334   6.988   7.506   0.367
23631SOL    HW272335   7.090   7.541   0.473
23632SOL     OW72336   7.101   7.677   1.735
23632SOL    HW172337   7.106   7.698   1.828
23632SOL    HW272338   7.048   7.597   1.732
23633SOL     OW72339   6.209   7.574   0.118
23633SOL    HW172340   6.298   7.539   0.122
23633SOL    HW272341   6.199   7.606   0.029
23634SOL     OW72342   6.358   7.725   1.752
23634SOL    HW172343   6.438   7.673   1.748
23634SOL    HW272344   6.310   7.690   1.827
23635SOL     OW72345   6.936   0.008   1.434
23635SOL    HW172346   6.969  -0.015   1.521
23635SOL    HW272347   6.875   0.080   1.449
23636SOL     OW72348   6.136   7.506   0.499
23636SOL    HW172349   6.057   7.512   0.552
23636SOL    HW272350   6.138   7.587   0.448
23637SOL     OW72351   5.900   7.522   0.208
23637SOL    HW172352   5.980   7.563   0.176
23637SOL    HW272353   5.927   7.438   0.243
23638SOL     OW72354   6.538   7.665   0.459
23638SOL    HW172355   6.505   7.721   0.389
23638SOL    HW272356   6.630   7.688   0.468
23639SOL     OW72357   5.676  -0.007   1.384
23639SOL    HW172358   5.739  -0.037   1.449
23639SOL    HW272359   5.650   0.080   1.415
23640SOL     OW72360   6.142   7.668   1.179
23640SOL    HW172361   6.183   7.601   1.234
23640SOL    HW272362   6.050   7.667   1.205
23641SOL     OW72363   6.612   7.499   0.742
23641SOL    HW172364   6.549   7.502   0.669
23641SOL    HW272365   6.582   7.425   0.795
23642SOL     OW72366   7.086   7.950   0.957
23642SOL    HW172367   6.995   7.923   0.967
23642SOL    HW272368   7.111   7.983   1.044
23643SOL     OW72369   6.138   7.724   0.334
23643SOL    HW172370   6.165   7.675   0.257
23643SOL    HW272371   6.190   7.804   0.331
23644SOL     OW72372   6.506   7.531   1.392
23644SOL    HW172373   6.529   7.510   1.302
23644SOL    HW272374   6.585   7.571   1.428
23645SOL     OW72375   6.850   7.801   1.281
23645SOL    HW172376   6.880   7.879   1.328
23645SOL    HW272377   6.756   7.815   1.270
23646SOL     OW72378   6.137   7.920   0.863
23646SOL    HW172379   6.122   7.993   0.802
23646SOL    HW272380   6.207   7.951   0.921
23647SOL     OW72381   6.592   7.590   1.753
23647SOL    HW172382   6.655   7.659   1.732
23647SOL    HW272383   6.637   7.509   1.730
23648SOL     OW72384   6.082   7.481   1.751
23648SOL    HW172385   6.036   7.429   1.686
23648SOL    HW272386   6.024   7.555   1.768
23649SOL     OW72387   5.879   7.642   1.251
23649SOL    HW172388   5.836   7.673   1.331
23649SOL    HW272389   5.862   7.548   1.250
23650SOL     OW72390   6.335   0.051   1.017
23650SOL    HW172391   6.389   0.078   0.942
23650SOL    HW272392   6.282   0.129   1.037
23651SOL     OW72393   5.893   7.517   0.630
23651SOL    HW172394   5.871   7.608   0.653
23651SOL    HW272395   5.904   7.473   0.715
23652SOL     OW72396   7.192   7.820   0.387
23652SOL    HW172397   7.236   7.745   0.425
23652SOL    HW272398   7.137   7.855   0.457
23653SOL     OW72399   7.074   7.683   0.098
23653SOL    HW172400   7.035   7.621   0.160
23653SOL    HW272401   7.120   7.746   0.153
23654SOL     OW72402   5.885   7.987   1.033
23654SOL    HW172403   5.887   7.894   1.012
23654SOL    HW272404   5.963   8.023   0.991
23655SOL     OW72405   6.740   7.824   1.676
23655SOL    HW172406   6.689   7.901   1.700
23655SOL    HW272407   6.831   7.855   1.675
23656SOL     OW72408   6.749   7.632   1.476
23656SOL    HW172409   6.739   7.700   1.543
23656SOL    HW272410   6.795   7.675   1.404
23657SOL     OW72411   5.618   7.951   1.119
23657SOL    HW172412   5.703   7.948   1.074
23657SOL    HW272413   5.641   7.959   1.212
23658SOL     OW72414   5.779   7.967   1.679
23658SOL    HW172415   5.868   7.949   1.649
23658SOL    HW272416   5.787   8.047   1.732
23659SOL     OW72417   6.378   0.030   0.271
23659SOL    HW172418   6.413  -0.059   0.266
23659SOL    HW272419   6.334   0.034   0.355
23660SOL     OW72420   7.214   8.018   1.200
23660SOL    HW172421   7.204   7.959   1.275
23660SOL    HW272422   7.290   7.983   1.153
23661SOL     OW72423   6.312   7.882   1.235
23661SOL    HW172424   6.247   7.815   1.217
23661SOL    HW272425   6.307   7.941   1.159
23662SOL     OW72426   6.486   7.529   0.112
23662SOL    HW172427   6.529   7.571   0.038
23662SOL    HW272428   6.557   7.495   0.166
23663SOL     OW72429   7.307   7.602   0.511
23663SOL    HW172430   7.378   7.582   0.450
23663SOL    HW272431   7.288   7.518   0.553
23664SOL     OW72432   7.426   7.614   0.962
23664SOL    HW172433   7.454   7.526   0.937
23664SOL    HW272434   7.339   7.623   0.922
23665SOL     OW72435   5.836   7.777   0.716
23665SOL    HW172436   5.743   7.796   0.703
23665SOL    HW272437   5.844   7.761   0.810
23666SOL     OW72438   6.613   7.667   0.969
23666SOL    HW172439   6.609   7.626   0.883
23666SOL    HW272440   6.606   7.595   1.031
23667SOL     OW72441   7.320   7.818   1.389
23667SOL    HW172442   7.388   7.886   1.389
23667SOL    HW272443   7.354   7.751   1.330
23668SOL     OW72444   6.267   7.633   1.497
23668SOL    HW172445   6.352   7.610   1.458
23668SOL    HW272446   6.289   7.670   1.582
23669SOL     OW72447   5.652   7.594   0.305
23669SOL    HW172448   5.651   7.690   0.297
23669SOL    HW272449   5.740   7.569   0.276
23670SOL     OW72450   6.370   8.006   1.727
23670SOL    HW172451   6.276   8.022   1.721
23670SOL    HW272452   6.378   7.910   1.728
23671SOL     OW72453   6.807   7.741   0.452
23671SOL    HW172454   6.873   7.671   0.456
23671SOL    HW272455   6.835   7.804   0.518
23672SOL     OW72456   6.228   0.240   0.681
23672SOL    HW172457   6.232   0.330   0.648
23672SOL    HW272458   6.145   0.206   0.647
23673SOL     OW72459   7.342   7.796   1.662
23673SOL    HW172460   7.329   7.811   1.569
23673SOL    HW272461   7.266   7.744   1.688
23674SOL     OW72462   7.398   7.616   1.233
23674SOL    HW172463   7.402   7.521   1.241
23674SOL    HW272464   7.409   7.633   1.139
23675SOL     OW72465   5.916   7.846   0.448
23675SOL    HW172466   5.989   7.793   0.418
23675SOL    HW272467   5.901   7.818   0.538
23676SOL     OW72468   7.010   7.668   1.109
23676SOL    HW172469   7.029   7.582   1.147
23676SOL    HW272470   6.961   7.714   1.177
23677SOL     OW72471   6.592   7.451   1.139
23677SOL    HW172472   6.537   7.386   1.095
23677SOL    HW272473   6.680   7.413   1.137
23678SOL     OW72474   6.940   7.464   0.200
23678SOL    HW172475   6.953   7.443   0.108
23678SOL    HW272476   6.845   7.458   0.213
23679SOL     OW72477   6.907   7.891   0.673
23679SOL    HW172478   6.868   7.978   0.668
23679SOL    HW272479   6.883   7.860   0.760
23680SOL     OW72480   7.167   7.649   0.883
23680SOL    HW172481   7.116   7.667   0.962
23680SOL    HW272482   7.157   7.728   0.830
23681SOL     OW72483   5.817   7.718   2.859
23681SOL    HW172484   5.842   7.688   2.946
23681SOL    HW272485   5.727   7.688   2.848
23682SOL     OW72486   5.567   7.814   2.520
23682SOL    HW172487   5.483   7.854   2.544
23682SOL    HW272488   5.542   7.731   2.478
23683SOL     OW72489   7.244   0.063   2.040
23683SOL    HW172490   7.285   0.048   1.955
23683SOL    HW272491   7.314   0.046   2.104
23684SOL     OW72492   6.011   7.856   3.407
23684SOL    HW172493   6.088   7.810   3.373
23684SOL    HW272494   5.938   7.797   3.389
23685SOL     OW72495   7.176   7.925   2.564
23685SOL    HW172496   7.085   7.911   2.540
23685SOL    HW272497   7.172   7.968   2.650
23686SOL     OW72498   7.173   7.580   3.321
23686SOL    HW172499   7.208   7.659   3.280
23686SOL    HW272500   7.149   7.608   3.410
23687SOL     OW72501   5.649   0.079   2.479
23687SOL    HW172502   5.636  -0.015   2.493
23687SOL    HW272503   5.679   0.111   2.564
23688SOL     OW72504   6.406   7.436   2.377
23688SOL    HW172505   6.451   7.516   2.352
23688SOL    HW272506   6.314   7.461   2.382
23689SOL     OW72507   5.929   7.695   3.692
23689SOL    HW172508   5.967   7.781   3.707
23689SOL    HW272509   5.836   7.706   3.712
23690SOL     OW72510   6.852   7.793   2.790
23690SOL    HW172511   6.763   7.759   2.803
23690SOL    HW272512   6.906   7.739   2.848
23691SOL     OW72513   6.990   7.932   3.568
23691SOL    HW172514   6.969   7.957   3.658
23691SOL    HW272515   7.041   7.851   3.577
23692SOL     OW72516   6.508   0.384   3.346
23692SOL    HW172517   6.523   0.294   3.318
23692SOL    HW272518   6.416   0.387   3.371
23693SOL     OW72519   6.588   7.822   3.104
23693SOL    HW172520   6.501   7.843   3.137
23693SOL    HW272521   6.573   7.753   3.039
23694SOL     OW72522   6.486   7.785   2.052
23694SOL    HW172523   6.514   7.801   1.961
23694SOL    HW272524   6.514   7.696   2.070
23695SOL     OW72525   7.345   0.033   3.660
23695SOL    HW172526   7.276   0.087   3.621
23695SOL    HW272527   7.348  -0.045   3.605
23696SOL     OW72528   6.141   7.633   2.771
23696SOL    HW172529   6.142   7.648   2.865
23696SOL    HW272530   6.134   7.720   2.732
23697SOL     OW72531   5.776   7.715   3.372
23697SOL    HW172532   5.714   7.764   3.427
23697SOL    HW272533   5.762   7.623   3.397
23698SOL     OW72534   6.983   7.548   2.307
23698SOL    HW172535   6.980   7.523   2.215
23698SOL    HW272536   7.076   7.542   2.330
23699SOL     OW72537   7.107   7.672   3.592
23699SOL    HW172538   7.113   7.693   3.686
23699SOL    HW272539   7.049   7.595   3.589
23700SOL     OW72540   6.233   7.569   1.960
23700SOL    HW172541   6.286   7.494   1.988
23700SOL    HW272542   6.180   7.535   1.888
23701SOL     OW72543   6.356   7.723   3.610
23701SOL    HW172544   6.437   7.672   3.608
23701SOL    HW272545   6.312   7.694   3.690
23702SOL     OW72546   6.957   0.017   3.304
23702SOL    HW172547   6.971  -0.015   3.393
23702SOL    HW272548   6.890   0.085   3.313
23703SOL     OW72549   6.142   7.508   2.358
23703SOL    HW172550   6.065   7.511   2.415
23703SOL    HW272551   6.137   7.588   2.306
23704SOL     OW72552   5.881   7.495   2.047
23704SOL    HW172553   5.937   7.561   2.005
23704SOL    HW272554   5.943   7.437   2.092
23705SOL     OW72555   6.540   7.667   2.317
23705SOL    HW172556   6.498   7.747   2.285
23705SOL    HW272557   6.632   7.690   2.326
23706SOL     OW72558   5.675  -0.007   3.246
23706SOL    HW172559   5.734  -0.042   3.314
23706SOL    HW272560   5.648   0.078   3.279
23707SOL     OW72561   6.143   7.669   3.045
23707SOL    HW172562   6.183   7.606   3.105
23707SOL    HW272563   6.050   7.669   3.070
23708SOL     OW72564   6.613   7.496   2.601
23708SOL    HW172565   6.552   7.496   2.528
23708SOL    HW272566   6.585   7.423   2.657
23709SOL     OW72567   7.069   7.967   2.816
23709SOL    HW172568   6.986   7.922   2.829
23709SOL    HW272569   7.105   7.978   2.904
23710SOL     OW72570   6.131   7.718   2.182
23710SOL    HW172571   6.170   7.679   2.104
23710SOL    HW272572   6.165   7.808   2.183
23711SOL     OW72573   6.505   7.535   3.253
23711SOL    HW172574   6.530   7.512   3.163
23711SOL    HW272575   6.584   7.572   3.291
23712SOL     OW72576   6.860   7.809   3.148
23712SOL    HW172577   6.892   7.887   3.194
23712SOL    HW272578   6.767   7.826   3.135
23713SOL     OW72579   6.126   7.924   2.729
23713SOL    HW172580   6.092   7.983   2.661
23713SOL    HW272581   6.198   7.973   2.769
23714SOL     OW72582   6.591   7.588   3.610
23714SOL    HW172583   6.654   7.658   3.592
23714SOL    HW272584   6.639   7.507   3.591
23715SOL     OW72585   6.083   7.482   3.609
23715SOL    HW172586   6.033   7.427   3.549
23715SOL    HW272587   6.026   7.557   3.627
23716SOL     OW72588   5.879   7.642   3.117
23716SOL    HW172589   5.835   7.674   3.196
23716SOL    HW272590   5.861   7.548   3.117
23717SOL     OW72591   6.341   0.065   2.870
23717SOL    HW172592   6.387   0.086   2.788
23717SOL    HW272593   6.275   0.134   2.878
23718SOL     OW72594   5.899   7.511   2.491
23718SOL    HW172595   5.870   7.599   2.515
23718SOL    HW272596   5.908   7.465   2.574
23719SOL     OW72597   7.185   7.809   2.249
23719SOL    HW172598   7.231   7.735   2.288
23719SOL    HW272599   7.207   7.883   2.304
23720SOL     OW72600   7.076   7.746   2.001
23720SOL    HW172601   7.032   7.663   2.022
23720SOL    HW272602   7.124   7.768   2.081
23721SOL     OW72603   6.943   0.252   1.919
23721SOL    HW172604   6.909   0.163   1.925
23721SOL    HW272605   6.874   0.300   1.872
23722SOL     OW72606   5.886   7.976   2.892
23722SOL    HW172607   5.875   7.881   2.879
23722SOL    HW272608   5.966   7.998   2.843
23723SOL     OW72609   6.736   7.826   3.535
23723SOL    HW172610   6.684   7.904   3.555
23723SOL    HW272611   6.826   7.855   3.545
23724SOL     OW72612   6.749   7.635   3.335
23724SOL    HW172613   6.738   7.700   3.404
23724SOL    HW272614   6.799   7.680   3.267
23725SOL     OW72615   5.620   7.954   2.980
23725SOL    HW172616   5.705   7.951   2.936
23725SOL    HW272617   5.641   7.961   3.073
23726SOL     OW72618   5.774   7.974   3.539
23726SOL    HW172619   5.862   7.940   3.519
23726SOL    HW272620   5.790   8.051   3.594
23727SOL     OW72621   6.383   0.034   2.105
23727SOL    HW172622   6.426  -0.051   2.098
23727SOL    HW272623   6.333   0.029   2.186
23728SOL     OW72624   7.206   8.007   3.050
23728SOL    HW172625   7.203   7.949   3.126
23728SOL    HW272626   7.290   7.989   3.009
23729SOL     OW72627   6.318   7.886   3.091
23729SOL    HW172628   6.251   7.818   3.081
23729SOL    HW272629   6.305   7.944   3.016
23730SOL     OW72630   7.324   7.605   2.367
23730SOL    HW172631   7.391   7.587   2.301
23730SOL    HW272632   7.302   7.518   2.403
23731SOL     OW72633   7.428   7.614   2.824
23731SOL    HW172634   7.456   7.526   2.800
23731SOL    HW272635   7.341   7.623   2.785
23732SOL     OW72636   5.828   7.757   2.582
23732SOL    HW172637   5.735   7.780   2.571
23732SOL    HW272638   5.840   7.751   2.676
23733SOL     OW72639   6.615   7.666   2.826
23733SOL    HW172640   6.611   7.622   2.742
23733SOL    HW272641   6.605   7.595   2.891
23734SOL     OW72642   7.315   7.826   3.244
23734SOL    HW172643   7.385   7.891   3.247
23734SOL    HW272644   7.350   7.756   3.187
23735SOL     OW72645   6.265   7.636   3.356
23735SOL    HW172646   6.350   7.611   3.320
23735SOL    HW272647   6.285   7.669   3.444
23736SOL     OW72648   5.663   7.771   1.887
23736SOL    HW172649   5.594   7.762   1.822
23736SOL    HW272650   5.684   7.865   1.887
23737SOL     OW72651   5.638   7.584   2.143
23737SOL    HW172652   5.626   7.664   2.091
23737SOL    HW272653   5.729   7.558   2.127
23738SOL     OW72654   6.366   8.003   3.587
23738SOL    HW172655   6.271   8.018   3.588
23738SOL    HW272656   6.375   7.908   3.591
23739SOL     OW72657   6.805   7.761   2.326
23739SOL    HW172658   6.867   7.689   2.316
23739SOL    HW272659   6.837   7.810   2.403
23740SOL     OW72660   6.229   0.227   2.482
23740SOL    HW172661   6.212   0.321   2.484
23740SOL    HW272662   6.154   0.188   2.526
23741SOL     OW72663   7.340   7.801   3.515
23741SOL    HW172664   7.323   7.816   3.422
23741SOL    HW272665   7.269   7.745   3.544
23742SOL     OW72666   7.400   7.620   3.095
23742SOL    HW172667   7.402   7.525   3.106
23742SOL    HW272668   7.412   7.634   3.001
23743SOL     OW72669   5.948   7.860   2.356
23743SOL    HW172670   5.988   7.789   2.308
23743SOL    HW272671   5.908   7.818   2.433
23744SOL     OW72672   7.013   7.669   2.973
23744SOL    HW172673   7.029   7.581   3.009
23744SOL    HW272674   6.967   7.716   3.042
23745SOL     OW72675   6.593   7.454   3.001
23745SOL    HW172676   6.535   7.387   2.965
23745SOL    HW272677   6.680   7.415   2.998
23746SOL     OW72678   6.956   7.496   2.032
23746SOL    HW172679   6.997   7.419   1.993
23746SOL    HW272680   6.865   7.470   2.048
23747SOL     OW72681   6.894   7.910   2.545
23747SOL    HW172682   6.838   7.987   2.557
23747SOL    HW272683   6.885   7.861   2.626
23748SOL     OW72684   7.169   7.651   2.746
23748SOL    HW172685   7.118   7.666   2.825
23748SOL    HW272686   7.156   7.730   2.694
23749SOL     OW72687   5.816   7.721   4.720
23749SOL    HW172688   5.842   7.689   4.807
23749SOL    HW272689   5.726   7.689   4.709
23750SOL     OW72690   5.565   7.815   4.381
23750SOL    HW172691   5.483   7.857   4.406
23750SOL    HW272692   5.538   7.735   4.335
23751SOL     OW72693   7.214   0.025   3.910
23751SOL    HW172694   7.281   0.020   3.843
23751SOL    HW272695   7.245  -0.032   3.980
23752SOL     OW72696   6.009   7.855   5.272
23752SOL    HW172697   6.085   7.812   5.232
23752SOL    HW272698   5.936   7.796   5.252
23753SOL     OW72699   7.180   7.918   4.425
23753SOL    HW172700   7.088   7.910   4.399
23753SOL    HW272701   7.176   7.954   4.514
23754SOL     OW72702   7.176   7.578   5.186
23754SOL    HW172703   7.210   7.658   5.145
23754SOL    HW272704   7.148   7.606   5.273
23755SOL     OW72705   5.644   0.078   4.328
23755SOL    HW172706   5.634  -0.015   4.346
23755SOL    HW272707   5.685   0.114   4.408
23756SOL     OW72708   6.407   7.436   4.241
23756SOL    HW172709   6.450   7.517   4.212
23756SOL    HW272710   6.314   7.458   4.245
23757SOL     OW72711   5.927   7.692   5.562
23757SOL    HW172712   5.962   7.782   5.559
23757SOL    HW272713   5.833   7.703   5.579
23758SOL     OW72714   6.850   7.802   4.657
23758SOL    HW172715   6.762   7.766   4.668
23758SOL    HW272716   6.905   7.747   4.712
23759SOL     OW72717   6.987   7.933   5.427
23759SOL    HW172718   6.967   7.956   5.518
23759SOL    HW272719   7.038   7.852   5.434
23760SOL     OW72720   6.517   0.400   5.224
23760SOL    HW172721   6.558   0.320   5.193
23760SOL    HW272722   6.423   0.383   5.216
23761SOL     OW72723   6.587   7.820   4.966
23761SOL    HW172724   6.501   7.843   4.999
23761SOL    HW272725   6.570   7.755   4.898
23762SOL     OW72726   6.478   7.791   3.910
23762SOL    HW172727   6.537   7.787   3.834
23762SOL    HW272728   6.498   7.712   3.960
23763SOL     OW72729   7.359   0.029   5.532
23763SOL    HW172730   7.287   0.087   5.508
23763SOL    HW272731   7.347  -0.048   5.477
23764SOL     OW72732   6.143   7.633   4.631
23764SOL    HW172733   6.143   7.649   4.725
23764SOL    HW272734   6.135   7.720   4.592
23765SOL     OW72735   5.775   7.713   5.233
23765SOL    HW172736   5.714   7.763   5.287
23765SOL    HW272737   5.758   7.622   5.255
23766SOL     OW72738   6.985   7.547   4.167
23766SOL    HW172739   6.980   7.522   4.075
23766SOL    HW272740   7.079   7.541   4.189
23767SOL     OW72741   7.101   7.671   5.454
23767SOL    HW172742   7.106   7.691   5.547
23767SOL    HW272743   7.039   7.598   5.448
23768SOL     OW72744   6.230   7.570   3.822
23768SOL    HW172745   6.280   7.494   3.853
23768SOL    HW272746   6.179   7.536   3.748
23769SOL     OW72747   6.358   7.723   5.476
23769SOL    HW172748   6.439   7.672   5.473
23769SOL    HW272749   6.309   7.687   5.550
23770SOL     OW72750   6.947   0.018   5.163
23770SOL    HW172751   6.966  -0.011   5.252
23770SOL    HW272752   6.879   0.084   5.173
23771SOL     OW72753   6.144   7.507   4.219
23771SOL    HW172754   6.067   7.510   4.275
23771SOL    HW272755   6.138   7.586   4.166
23772SOL     OW72756   5.875   7.497   3.910
23772SOL    HW172757   5.936   7.560   3.870
23772SOL    HW272758   5.932   7.434   3.954
23773SOL     OW72759   6.532   7.672   4.174
23773SOL    HW172760   6.492   7.759   4.181
23773SOL    HW272761   6.626   7.689   4.182
23774SOL     OW72762   5.676  -0.007   5.106
23774SOL    HW172763   5.738  -0.043   5.171
23774SOL    HW272764   5.651   0.078   5.142
23775SOL     OW72765   6.143   7.668   4.905
23775SOL    HW172766   6.182   7.602   4.962
23775SOL    HW272767   6.050   7.668   4.929
23776SOL     OW72768   6.612   7.494   4.462
23776SOL    HW172769   6.550   7.493   4.390
23776SOL    HW272770   6.585   7.422   4.519
23777SOL     OW72771   7.087   7.950   4.681
23777SOL    HW172772   6.996   7.922   4.691
23777SOL    HW272773   7.111   7.985   4.767
23778SOL     OW72774   6.130   7.718   4.042
23778SOL    HW172775   6.168   7.678   3.964
23778SOL    HW272776   6.164   7.807   4.043
23779SOL     OW72777   6.505   7.534   5.116
23779SOL    HW172778   6.528   7.512   5.026
23779SOL    HW272779   6.585   7.572   5.153
23780SOL     OW72780   6.857   7.806   5.011
23780SOL    HW172781   6.888   7.886   5.055
23780SOL    HW272782   6.764   7.822   4.996
23781SOL     OW72783   6.126   7.923   4.591
23781SOL    HW172784   6.092   7.982   4.524
23781SOL    HW272785   6.198   7.972   4.631
23782SOL     OW72786   6.593   7.588   5.479
23782SOL    HW172787   6.653   7.659   5.457
23782SOL    HW272788   6.641   7.508   5.457
23783SOL     OW72789   6.080   7.482   5.476
23783SOL    HW172790   6.031   7.428   5.414
23783SOL    HW272791   6.023   7.556   5.494
23784SOL     OW72792   5.880   7.642   4.978
23784SOL    HW172793   5.835   7.673   5.056
23784SOL    HW272794   5.863   7.548   4.975
23785SOL     OW72795   6.342   0.063   4.733
23785SOL    HW172796   6.391   0.079   4.653
23785SOL    HW272797   6.277   0.133   4.736
23786SOL     OW72798   5.902   7.512   4.352
23786SOL    HW172799   5.871   7.599   4.376
23786SOL    HW272800   5.910   7.465   4.435
23787SOL     OW72801   7.197   7.810   4.105
23787SOL    HW172802   7.245   7.737   4.145
23787SOL    HW272803   7.168   7.864   4.179
23788SOL     OW72804   7.092   7.731   3.856
23788SOL    HW172805   7.038   7.656   3.879
23788SOL    HW272806   7.133   7.758   3.939
23789SOL     OW72807   6.898   0.247   3.740
23789SOL    HW172808   6.903   0.166   3.791
23789SOL    HW272809   6.805   0.261   3.724
23790SOL     OW72810   5.888   7.977   4.758
23790SOL    HW172811   5.876   7.883   4.743
23790SOL    HW272812   5.966   8.000   4.707
23791SOL     OW72813   6.734   7.823   5.399
23791SOL    HW172814   6.681   7.900   5.420
23791SOL    HW272815   6.824   7.854   5.404
23792SOL     OW72816   6.749   7.634   5.199
23792SOL    HW172817   6.737   7.700   5.267
23792SOL    HW272818   6.796   7.679   5.129
23793SOL     OW72819   5.618   7.953   4.841
23793SOL    HW172820   5.703   7.948   4.797
23793SOL    HW272821   5.640   7.961   4.934
23794SOL     OW72822   5.776   7.968   5.406
23794SOL    HW172823   5.864   7.943   5.376
23794SOL    HW272824   5.790   8.047   5.458
23795SOL     OW72825   6.386   0.043   3.965
23795SOL    HW172826   6.423  -0.044   3.951
23795SOL    HW272827   6.333   0.034   4.045
23796SOL     OW72828   7.214   8.020   4.922
23796SOL    HW172829   7.201   7.963   4.998
23796SOL    HW272830   7.290   7.984   4.877
23797SOL     OW72831   6.317   7.883   4.952
23797SOL    HW172832   6.250   7.816   4.939
23797SOL    HW272833   6.305   7.943   4.878
23798SOL     OW72834   7.327   7.603   4.231
23798SOL    HW172835   7.395   7.585   4.167
23798SOL    HW272836   7.304   7.517   4.267
23799SOL     OW72837   7.427   7.613   4.687
23799SOL    HW172838   7.453   7.524   4.662
23799SOL    HW272839   7.340   7.624   4.649
23800SOL     OW72840   5.826   7.757   4.443
23800SOL    HW172841   5.734   7.779   4.432
23800SOL    HW272842   5.839   7.751   4.537
23801SOL     OW72843   6.616   7.666   4.689
23801SOL    HW172844   6.612   7.622   4.604
23801SOL    HW272845   6.606   7.595   4.753
23802SOL     OW72846   7.320   7.817   5.112
23802SOL    HW172847   7.385   7.886   5.110
23802SOL    HW272848   7.353   7.751   5.051
23803SOL     OW72849   6.265   7.634   5.220
23803SOL    HW172850   6.350   7.611   5.182
23803SOL    HW272851   6.287   7.670   5.306
23804SOL     OW72852   5.670   7.775   3.750
23804SOL    HW172853   5.594   7.755   3.695
23804SOL    HW272854   5.687   7.868   3.734
23805SOL     OW72855   5.644   7.598   4.016
23805SOL    HW172856   5.634   7.677   3.963
23805SOL    HW272857   5.730   7.563   3.991
23806SOL     OW72858   6.369   8.004   5.449
23806SOL    HW172859   6.275   8.022   5.447
23806SOL    HW272860   6.375   7.909   5.451
23807SOL     OW72861   6.797   7.749   4.193
23807SOL    HW172862   6.862   7.680   4.182
23807SOL    HW272863   6.834   7.806   4.261
23808SOL     OW72864   6.231   0.227   4.343
23808SOL    HW172865   6.212   0.320   4.347
23808SOL    HW272866   6.156   0.186   4.387
23809SOL     OW72867   7.336   7.802   5.386
23809SOL    HW172868   7.323   7.817   5.293
23809SOL    HW272869   7.263   7.745   5.412
23810SOL     OW72870   7.408   7.616   4.959
23810SOL    HW172871   7.401   7.521   4.966
23810SOL    HW272872   7.416   7.633   4.865
23811SOL     OW72873   5.952   7.861   4.221
23811SOL    HW172874   5.989   7.789   4.171
23811SOL    HW272875   5.911   7.820   4.297
23812SOL     OW72876   7.010   7.667   4.835
23812SOL    HW172877   7.019   7.578   4.870
23812SOL    HW272878   6.964   7.715   4.904
23813SOL     OW72879   6.592   7.454   4.863
23813SOL    HW172880   6.534   7.387   4.826
23813SOL    HW272881   6.679   7.414   4.861
23814SOL     OW72882   6.954   7.494   3.895
23814SOL    HW172883   6.994   7.417   3.854
23814SOL    HW272884   6.863   7.469   3.911
23815SOL     OW72885   6.903   7.900   4.404
23815SOL    HW172886   6.858   7.984   4.406
23815SOL    HW272887   6.885   7.861   4.490
23816SOL     OW72888   7.168   7.650   4.610
23816SOL    HW172889   7.117   7.668   4.689
23816SOL    HW272890   7.158   7.728   4.556
23817SOL     OW72891   5.813   7.732   6.585
23817SOL    HW172892   5.843   7.694   6.668
23817SOL    HW272893   5.726   7.694   6.571
23818SOL     OW72894   5.566   7.812   6.245
23818SOL    HW172895   5.483   7.853   6.270
23818SOL    HW272896   5.540   7.734   6.195
23819SOL     OW72897   7.245   0.027   5.801
23819SOL    HW172898   7.303   0.039   5.726
23819SOL    HW272899   7.270  -0.058   5.837
23820SOL     OW72900   6.024   7.841   7.128
23820SOL    HW172901   6.098   7.794   7.091
23820SOL    HW272902   5.948   7.785   7.109
23821SOL     OW72903   7.183   7.906   6.300
23821SOL    HW172904   7.095   7.908   6.263
23821SOL    HW272905   7.173   7.946   6.387
23822SOL     OW72906   7.178   7.577   7.051
23822SOL    HW172907   7.212   7.656   7.008
23822SOL    HW272908   7.148   7.607   7.136
23823SOL     OW72909   5.650   0.073   6.204
23823SOL    HW172910   5.638  -0.022   6.213
23823SOL    HW272911   5.675   0.102   6.292
23824SOL     OW72912   6.406   7.432   6.106
23824SOL    HW172913   6.451   7.512   6.080
23824SOL    HW272914   6.313   7.456   6.109
23825SOL     OW72915   5.921   7.697   7.424
23825SOL    HW172916   5.936   7.783   7.385
23825SOL    HW272917   5.829   7.698   7.451
23826SOL     OW72918   6.851   7.804   6.520
23826SOL    HW172919   6.763   7.769   6.530
23826SOL    HW272920   6.906   7.748   6.575
23827SOL     OW72921   6.989   7.935   7.287
23827SOL    HW172922   6.972   7.956   7.379
23827SOL    HW272923   7.040   7.854   7.290
23828SOL     OW72924   6.519   0.393   7.093
23828SOL    HW172925   6.548   0.309   7.056
23828SOL    HW272926   6.426   0.397   7.074
23829SOL     OW72927   6.587   7.818   6.820
23829SOL    HW172928   6.499   7.839   6.851
23829SOL    HW272929   6.574   7.758   6.747
23830SOL     OW72930   6.486   7.781   5.782
23830SOL    HW172931   6.511   7.813   5.696
23830SOL    HW272932   6.504   7.687   5.778
23831SOL     OW72933   7.330   0.028   7.410
23831SOL    HW172934   7.269   0.087   7.366
23831SOL    HW272935   7.338  -0.046   7.351
23832SOL     OW72936   6.143   7.632   6.490
23832SOL    HW172937   6.145   7.653   6.584
23832SOL    HW272938   6.135   7.717   6.447
23833SOL     OW72939   5.780   7.713   7.088
23833SOL    HW172940   5.692   7.751   7.084
23833SOL    HW272941   5.766   7.625   7.121
23834SOL     OW72942   6.985   7.544   6.028
23834SOL    HW172943   6.975   7.521   5.936
23834SOL    HW272944   7.079   7.542   6.044
23835SOL     OW72945   7.099   7.672   7.315
23835SOL    HW172946   7.102   7.692   7.409
23835SOL    HW272947   7.038   7.599   7.308
23836SOL     OW72948   6.235   7.566   5.683
23836SOL    HW172949   6.280   7.487   5.714
23836SOL    HW272950   6.179   7.535   5.611
23837SOL     OW72951   6.363   7.728   7.341
23837SOL    HW172952   6.442   7.674   7.337
23837SOL    HW272953   6.310   7.686   7.410
23838SOL     OW72954   6.953   0.017   7.021
23838SOL    HW172955   6.971  -0.012   7.111
23838SOL    HW272956   6.885   0.084   7.030
23839SOL     OW72957   6.145   7.506   6.082
23839SOL    HW172958   6.066   7.509   6.136
23839SOL    HW272959   6.139   7.585   6.028
23840SOL     OW72960   5.872   7.499   5.772
23840SOL    HW172961   5.928   7.560   5.724
23840SOL    HW272962   5.933   7.438   5.813
23841SOL     OW72963   6.537   7.662   6.044
23841SOL    HW172964   6.499   7.731   5.991
23841SOL    HW272965   6.629   7.688   6.056
23842SOL     OW72966   5.677  -0.009   6.971
23842SOL    HW172967   5.769  -0.006   6.998
23842SOL    HW272968   5.641   0.076   6.997
23843SOL     OW72969   6.146   7.671   6.764
23843SOL    HW172970   6.183   7.597   6.811
23843SOL    HW272971   6.054   7.671   6.788
23844SOL     OW72972   6.615   7.499   6.327
23844SOL    HW172973   6.555   7.506   6.253
23844SOL    HW272974   6.582   7.425   6.378
23845SOL     OW72975   7.084   7.955   6.550
23845SOL    HW172976   6.994   7.920   6.548
23845SOL    HW272977   7.085   8.015   6.624
23846SOL     OW72978   6.131   7.713   5.903
23846SOL    HW172979   6.166   7.671   5.824
23846SOL    HW272980   6.163   7.803   5.898
23847SOL     OW72981   6.504   7.534   6.978
23847SOL    HW172982   6.525   7.512   6.887
23847SOL    HW272983   6.584   7.572   7.013
23848SOL     OW72984   6.856   7.803   6.874
23848SOL    HW172985   6.888   7.884   6.915
23848SOL    HW272986   6.764   7.820   6.855
23849SOL     OW72987   6.119   7.923   6.443
23849SOL    HW172988   6.081   7.977   6.373
23849SOL    HW272989   6.185   7.980   6.483
23850SOL     OW72990   6.594   7.588   7.344
23850SOL    HW172991   6.655   7.658   7.320
23850SOL    HW272992   6.640   7.508   7.320
23851SOL     OW72993   6.077   7.486   7.342
23851SOL    HW172994   6.029   7.432   7.280
23851SOL    HW272995   6.020   7.561   7.358
23852SOL     OW72996   5.885   7.642   6.837
23852SOL    HW172997   5.842   7.669   6.917
23852SOL    HW272998   5.869   7.547   6.832
23853SOL     OW72999   6.349   0.060   6.593
23853SOL    HW173000   6.401   0.061   6.512
23853SOL    HW273001   6.282   0.127   6.579
23854SOL     OW73002   5.902   7.510   6.212
23854SOL    HW173003   5.871   7.598   6.236
23854SOL    HW273004   5.910   7.464   6.296
23855SOL     OW73005   7.199   7.794   5.959
23855SOL    HW173006   7.243   7.730   6.015
23855SOL    HW273007   7.169   7.862   6.019
23856SOL     OW73008   7.082   7.734   5.718
23856SOL    HW173009   7.030   7.656   5.738
23856SOL    HW273010   7.129   7.753   5.799
23857SOL     OW73011   6.912   0.247   5.632
23857SOL    HW173012   6.887   0.158   5.657
23857SOL    HW273013   6.838   0.281   5.582
23858SOL     OW73014   5.892   7.986   6.631
23858SOL    HW173015   5.881   7.893   6.611
23858SOL    HW273016   5.962   8.016   6.574
23859SOL     OW73017   6.734   7.825   7.263
23859SOL    HW173018   6.681   7.902   7.285
23859SOL    HW273019   6.825   7.858   7.264
23860SOL     OW73020   6.747   7.634   7.063
23860SOL    HW173021   6.735   7.702   7.129
23860SOL    HW273022   6.793   7.678   6.992
23861SOL     OW73023   5.612   7.947   6.704
23861SOL    HW173024   5.694   7.931   6.658
23861SOL    HW273025   5.638   7.956   6.796
23862SOL     OW73026   5.797   7.943   7.316
23862SOL    HW173027   5.809   7.913   7.226
23862SOL    HW273028   5.742   8.021   7.309
23863SOL     OW73029   6.382   0.032   5.830
23863SOL    HW173030   6.427  -0.052   5.831
23863SOL    HW273031   6.328   0.032   5.909
23864SOL     OW73032   7.216   8.029   6.798
23864SOL    HW173033   7.196   7.962   6.864
23864SOL    HW273034   7.274   7.985   6.736
23865SOL     OW73035   6.319   7.885   6.815
23865SOL    HW173036   6.253   7.818   6.800
23865SOL    HW273037   6.310   7.944   6.740
23866SOL     OW73038   7.330   7.600   6.101
23866SOL    HW173039   7.395   7.584   6.033
23866SOL    HW273040   7.305   7.513   6.133
23867SOL     OW73041   7.429   7.613   6.550
23867SOL    HW173042   7.452   7.524   6.523
23867SOL    HW273043   7.342   7.627   6.512
23868SOL     OW73044   5.827   7.756   6.304
23868SOL    HW173045   5.735   7.777   6.291
23868SOL    HW273046   5.839   7.754   6.399
23869SOL     OW73047   6.618   7.666   6.557
23869SOL    HW173048   6.613   7.626   6.470
23869SOL    HW273049   6.607   7.593   6.618
23870SOL     OW73050   7.322   7.814   6.978
23870SOL    HW173051   7.385   7.886   6.973
23870SOL    HW273052   7.354   7.749   6.915
23871SOL     OW73053   6.265   7.637   7.086
23871SOL    HW173054   6.347   7.613   7.044
23871SOL    HW273055   6.290   7.674   7.170
23872SOL     OW73056   5.666   7.772   5.616
23872SOL    HW173057   5.594   7.755   5.555
23872SOL    HW273058   5.687   7.864   5.603
23873SOL     OW73059   5.642   7.600   5.876
23873SOL    HW173060   5.629   7.675   5.818
23873SOL    HW273061   5.728   7.566   5.853
23874SOL     OW73062   6.363   8.008   7.315
23874SOL    HW173063   6.270   8.021   7.298
23874SOL    HW273064   6.374   7.913   7.316
23875SOL     OW73065   6.800   7.747   6.059
23875SOL    HW173066   6.864   7.678   6.047
23875SOL    HW273067   6.839   7.805   6.124
23876SOL     OW73068   6.225   0.243   6.230
23876SOL    HW173069   6.188   0.328   6.205
23876SOL    HW273070   6.149   0.188   6.248
23877SOL     OW73071   7.336   7.803   7.253
23877SOL    HW173072   7.327   7.819   7.159
23877SOL    HW273073   7.262   7.746   7.275
23878SOL     OW73074   7.409   7.615   6.821
23878SOL    HW173075   7.400   7.520   6.827
23878SOL    HW273076   7.417   7.633   6.728
23879SOL     OW73077   5.962   7.863   6.086
23879SOL    HW173078   5.994   7.790   6.033
23879SOL    HW273079   5.918   7.821   6.160
23880SOL     OW73080   7.009   7.665   6.697
23880SOL    HW173081   7.011   7.574   6.726
23880SOL    HW273082   6.963   7.711   6.767
23881SOL     OW73083   6.590   7.451   6.726
23881SOL    HW173084   6.533   7.386   6.685
23881SOL    HW273085   6.677   7.411   6.725
23882SOL     OW73086   6.951   7.494   5.756
23882SOL    HW173087   6.989   7.418   5.711
23882SOL    HW273088   6.861   7.469   5.774
23883SOL     OW73089   6.907   7.901   6.266
23883SOL    HW173090   6.859   7.984   6.261
23883SOL    HW273091   6.884   7.865   6.351
23884SOL     OW73092   7.171   7.650   6.472
23884SOL    HW173093   7.118   7.671   6.549
23884SOL    HW273094   7.161   7.726   6.414
23885SOL     OW73095   5.809   7.738   8.450
23885SOL    HW173096   5.841   7.696   8.530
23885SOL    HW273097   5.725   7.696   8.433
23886SOL     OW73098   5.564   7.816   8.102
23886SOL    HW173099   5.480   7.855   8.126
23886SOL    HW273100   5.540   7.737   8.054
23887SOL     OW73101   7.284   0.032   7.690
23887SOL    HW173102   7.308   0.043   7.597
23887SOL    HW273103   7.279  -0.062   7.703
23888SOL     OW73104   6.028   7.837   8.993
23888SOL    HW173105   6.101   7.790   8.954
23888SOL    HW273106   5.951   7.785   8.971
23889SOL     OW73107   7.184   7.900   8.164
23889SOL    HW173108   7.096   7.901   8.126
23889SOL    HW273109   7.173   7.945   8.248
23890SOL     OW73110   7.176   7.575   8.913
23890SOL    HW173111   7.210   7.653   8.868
23890SOL    HW273112   7.147   7.608   8.998
23891SOL     OW73113   5.717   0.044   8.089
23891SOL    HW173114   5.661  -0.033   8.080
23891SOL    HW273115   5.659   0.110   8.128
23892SOL     OW73116   6.408   7.435   7.971
23892SOL    HW173117   6.452   7.515   7.942
23892SOL    HW273118   6.315   7.458   7.973
23893SOL     OW73119   5.921   7.697   9.287
23893SOL    HW173120   5.938   7.781   9.244
23893SOL    HW273121   5.829   7.701   9.313
23894SOL     OW73122   6.849   7.808   8.384
23894SOL    HW173123   6.761   7.770   8.395
23894SOL    HW273124   6.905   7.752   8.438
23895SOL     OW73125   6.991   7.930   9.146
23895SOL    HW173126   6.980   7.956   9.237
23895SOL    HW273127   7.038   7.846   9.150
23896SOL     OW73128   6.519   0.394   8.953
23896SOL    HW173129   6.533   0.307   8.914
23896SOL    HW273130   6.424   0.405   8.953
23897SOL     OW73131   6.590   7.820   8.677
23897SOL    HW173132   6.501   7.837   8.707
23897SOL    HW273133   6.579   7.762   8.601
23898SOL     OW73134   6.485   7.778   7.644
23898SOL    HW173135   6.504   7.819   7.560
23898SOL    HW273136   6.488   7.684   7.626
23899SOL     OW73137   7.333   0.029   9.264
23899SOL    HW173138   7.274   0.095   9.227
23899SOL    HW273139   7.326  -0.046   9.205
23900SOL     OW73140   6.144   7.632   8.351
23900SOL    HW173141   6.146   7.656   8.444
23900SOL    HW273142   6.138   7.715   8.305
23901SOL     OW73143   5.780   7.716   8.951
23901SOL    HW173144   5.692   7.751   8.936
23901SOL    HW273145   5.765   7.627   8.984
23902SOL     OW73146   6.985   7.544   7.890
23902SOL    HW173147   6.974   7.520   7.798
23902SOL    HW273148   7.079   7.539   7.905
23903SOL     OW73149   7.100   7.671   9.178
23903SOL    HW173150   7.100   7.691   9.272
23903SOL    HW273151   7.042   7.596   9.170
23904SOL     OW73152   6.241   7.561   7.543
23904SOL    HW173153   6.285   7.480   7.569
23904SOL    HW273154   6.181   7.535   7.473
23905SOL     OW73155   6.364   7.727   9.206
23905SOL    HW173156   6.442   7.673   9.201
23905SOL    HW273157   6.310   7.685   9.273
23906SOL     OW73158   6.966   0.022   8.884
23906SOL    HW173159   6.977  -0.012   8.972
23906SOL    HW273160   6.896   0.087   8.891
23907SOL     OW73161   6.146   7.504   7.947
23907SOL    HW173162   6.066   7.507   7.998
23907SOL    HW273163   6.140   7.580   7.888
23908SOL     OW73164   5.872   7.501   7.633
23908SOL    HW173165   5.927   7.562   7.584
23908SOL    HW273166   5.934   7.440   7.673
23909SOL     OW73167   6.538   7.664   7.902
23909SOL    HW173168   6.507   7.722   7.832
23909SOL    HW273169   6.628   7.691   7.917
23910SOL     OW73170   5.679  -0.009   8.834
23910SOL    HW173171   5.772  -0.006   8.858
23910SOL    HW273172   5.645   0.076   8.861
23911SOL     OW73173   6.147   7.673   8.625
23911SOL    HW173174   6.183   7.594   8.666
23911SOL    HW273175   6.055   7.672   8.650
23912SOL     OW73176   6.611   7.502   8.190
23912SOL    HW173177   6.552   7.506   8.116
23912SOL    HW273178   6.581   7.426   8.241
23913SOL     OW73179   7.078   7.969   8.404
23913SOL    HW173180   6.990   7.934   8.413
23913SOL    HW273181   7.099   8.004   8.491
23914SOL     OW73182   6.132   7.703   7.759
23914SOL    HW173183   6.166   7.660   7.681
23914SOL    HW273184   6.164   7.793   7.753
23915SOL     OW73185   6.503   7.535   8.839
23915SOL    HW173186   6.523   7.511   8.749
23915SOL    HW273187   6.584   7.572   8.873
23916SOL     OW73188   6.858   7.804   8.740
23916SOL    HW173189   6.891   7.887   8.775
23916SOL    HW273190   6.767   7.822   8.717
23917SOL     OW73191   6.118   7.933   8.299
23917SOL    HW173192   6.078   7.964   8.217
23917SOL    HW273193   6.153   8.013   8.340
23918SOL     OW73194   6.595   7.587   9.208
23918SOL    HW173195   6.655   7.657   9.182
23918SOL    HW273196   6.639   7.506   9.182
23919SOL     OW73197   6.077   7.486   9.206
23919SOL    HW173198   6.029   7.432   9.142
23919SOL    HW273199   6.019   7.561   9.220
23920SOL     OW73200   5.886   7.641   8.698
23920SOL    HW173201   5.843   7.668   8.779
23920SOL    HW273202   5.870   7.547   8.693
23921SOL     OW73203   6.361   0.058   8.470
23921SOL    HW173204   6.400   0.043   8.384
23921SOL    HW273205   6.288   0.118   8.452
23922SOL     OW73206   5.902   7.508   8.073
23922SOL    HW173207   5.871   7.596   8.096
23922SOL    HW273208   5.910   7.463   8.158
23923SOL     OW73209   7.197   7.794   7.818
23923SOL    HW173210   7.243   7.727   7.870
23923SOL    HW273211   7.166   7.857   7.883
23924SOL     OW73212   7.073   7.736   7.581
23924SOL    HW173213   7.024   7.656   7.599
23924SOL    HW273214   7.123   7.752   7.661
23925SOL     OW73215   6.901   0.254   7.511
23925SOL    HW173216   6.878   0.162   7.524
23925SOL    HW273217   6.834   0.286   7.450
23926SOL     OW73218   5.895   7.989   8.499
23926SOL    HW173219   5.881   7.897   8.477
23926SOL    HW273220   5.958   8.020   8.434
23927SOL     OW73221   6.733   7.826   9.125
23927SOL    HW173222   6.681   7.903   9.148
23927SOL    HW273223   6.823   7.859   9.122
23928SOL     OW73224   6.746   7.634   8.926
23928SOL    HW173225   6.733   7.702   8.992
23928SOL    HW273226   6.793   7.677   8.855
23929SOL     OW73227   5.607   7.943   8.567
23929SOL    HW173228   5.684   7.916   8.518
23929SOL    HW273229   5.639   7.957   8.656
23930SOL     OW73230   5.795   7.942   9.178
23930SOL    HW173231   5.799   7.904   9.090
23930SOL    HW273232   5.740   8.020   9.167
23931SOL     OW73233   6.377   0.031   7.691
23931SOL    HW173234   6.424  -0.053   7.697
23931SOL    HW273235   6.323   0.034   7.769
23932SOL     OW73236   7.216   8.017   8.650
23932SOL    HW173237   7.200   7.947   8.712
23932SOL    HW273238   7.290   7.985   8.597
23933SOL     OW73239   6.321   7.884   8.683
23933SOL    HW173240   6.254   7.818   8.666
23933SOL    HW273241   6.317   7.943   8.608
23934SOL     OW73242   7.328   7.599   7.958
23934SOL    HW173243   7.393   7.583   7.890
23934SOL    HW273244   7.305   7.512   7.990
23935SOL     OW73245   7.429   7.613   8.415
23935SOL    HW173246   7.454   7.524   8.389
23935SOL    HW273247   7.343   7.627   8.375
23936SOL     OW73248   5.828   7.752   8.165
23936SOL    HW173249   5.738   7.782   8.149
23936SOL    HW273250   5.837   7.756   8.261
23937SOL     OW73251   6.617   7.666   8.422
23937SOL    HW173252   6.610   7.628   8.335
23937SOL    HW273253   6.606   7.592   8.482
23938SOL     OW73254   7.324   7.812   8.843
23938SOL    HW173255   7.385   7.886   8.832
23938SOL    HW273256   7.353   7.748   8.779
23939SOL     OW73257   6.264   7.638   8.950
23939SOL    HW173258   6.346   7.615   8.905
23939SOL    HW273259   6.292   7.675   9.033
23940SOL     OW73260   5.657   7.769   7.499
23940SOL    HW173261   5.594   7.762   7.426
23940SOL    HW273262   5.697   7.855   7.488
23941SOL     OW73263   5.642   7.602   7.737
23941SOL    HW173264   5.626   7.672   7.674
23941SOL    HW273265   5.728   7.568   7.715
23942SOL     OW73266   6.363   8.007   9.179
23942SOL    HW173267   6.270   8.019   9.160
23942SOL    HW273268   6.375   7.912   9.180
23943SOL     OW73269   6.800   7.747   7.922
23943SOL    HW173270   6.864   7.677   7.908
23943SOL    HW273271   6.840   7.803   7.988
23944SOL     OW73272   6.212   0.267   8.122
23944SOL    HW173273   6.174   0.343   8.078
23944SOL    HW273274   6.151   0.196   8.105
23945SOL     OW73275   7.337   7.805   9.117
23945SOL    HW173276   7.332   7.816   9.022
23945SOL    HW273277   7.266   7.744   9.138
23946SOL     OW73278   7.409   7.612   8.688
23946SOL    HW173279   7.401   7.517   8.690
23946SOL    HW273280   7.417   7.633   8.595
23947SOL     OW73281   5.981   7.854   7.954
23947SOL    HW173282   6.000   7.778   7.898
23947SOL    HW273283   5.927   7.819   8.025
23948SOL     OW73284   7.010   7.669   8.557
23948SOL    HW173285   7.013   7.576   8.580
23948SOL    HW273286   6.965   7.710   8.630
23949SOL     OW73287   6.589   7.448   8.588
23949SOL    HW173288   6.535   7.383   8.544
23949SOL    HW273289   6.677   7.410   8.588
23950SOL     OW73290   6.950   7.493   7.617
23950SOL    HW173291   6.988   7.419   7.570
23950SOL    HW273292   6.860   7.467   7.636
23951SOL     OW73293   6.908   7.899   8.129
23951SOL    HW173294   6.861   7.982   8.123
23951SOL    HW273295   6.885   7.865   8.215
23952SOL     OW73296   7.174   7.653   8.331
23952SOL    HW173297   7.119   7.676   8.406
23952SOL    HW273298   7.165   7.727   8.271
23953SOL     OW73299   5.808   7.743  10.312
23953SOL    HW173300   5.842   7.700  10.391
23953SOL    HW273301   5.724   7.700  10.295
23954SOL     OW73302   5.571   7.810   9.970
23954SOL    HW173303   5.488   7.849   9.998
23954SOL    HW273304   5.546   7.733   9.919
23955SOL     OW73305   7.350   0.033   9.542
23955SOL    HW173306   7.332   0.038   9.448
23955SOL    HW273307   7.302  -0.044   9.572
23956SOL     OW73308   6.012   7.844  10.856
23956SOL    HW173309   6.091   7.806  10.817
23956SOL    HW273310   5.942   7.784  10.833
23957SOL     OW73311   7.184   7.911  10.023
23957SOL    HW173312   7.096   7.909   9.987
23957SOL    HW273313   7.174   7.949  10.110
23958SOL     OW73314   7.177   7.577  10.774
23958SOL    HW173315   7.210   7.656  10.731
23958SOL    HW273316   7.149   7.607  10.860
23959SOL     OW73317   5.622   0.083   9.945
23959SOL    HW173318   5.625  -0.013   9.945
23959SOL    HW273319   5.693   0.109  10.003
23960SOL     OW73320   6.407   7.434   9.834
23960SOL    HW173321   6.452   7.514   9.804
23960SOL    HW273322   6.314   7.458   9.834
23961SOL     OW73323   5.924   7.693  11.150
23961SOL    HW173324   5.947   7.778  11.112
23961SOL    HW273325   5.831   7.702  11.173
23962SOL     OW73326   6.850   7.806  10.245
23962SOL    HW173327   6.762   7.770  10.255
23962SOL    HW273328   6.905   7.750  10.299
23963SOL     OW73329   6.987   7.935  11.012
23963SOL    HW173330   6.969   7.956  11.103
23963SOL    HW273331   7.039   7.854  11.016
23964SOL     OW73332   6.516   0.398  10.817
23964SOL    HW173333   6.560   0.319  10.787
23964SOL    HW273334   6.426   0.388  10.786
23965SOL     OW73335   6.586   7.819  10.544
23965SOL    HW173336   6.497   7.838  10.576
23965SOL    HW273337   6.572   7.759  10.471
23966SOL     OW73338   6.486   7.775   9.505
23966SOL    HW173339   6.496   7.818   9.420
23966SOL    HW273340   6.497   7.682   9.487
23967SOL     OW73341   7.346   0.026  11.130
23967SOL    HW173342   7.283   0.090  11.098
23967SOL    HW273343   7.341  -0.046  11.067
23968SOL     OW73344   6.140   7.629  10.213
23968SOL    HW173345   6.144   7.651  10.306
23968SOL    HW273346   6.134   7.713  10.168
23969SOL     OW73347   5.779   7.708  10.807
23969SOL    HW173348   5.694   7.752  10.814
23969SOL    HW273349   5.764   7.620  10.840
23970SOL     OW73350   6.988   7.546   9.751
23970SOL    HW173351   6.978   7.520   9.660
23970SOL    HW273352   7.080   7.530   9.771
23971SOL     OW73353   7.102   7.673  11.040
23971SOL    HW173354   7.105   7.693  11.133
23971SOL    HW273355   7.043   7.599  11.033
23972SOL     OW73356   6.238   7.561   9.407
23972SOL    HW173357   6.285   7.481   9.431
23972SOL    HW273358   6.179   7.535   9.337
23973SOL     OW73359   6.360   7.726  11.065
23973SOL    HW173360   6.440   7.674  11.061
23973SOL    HW273361   6.310   7.687  11.137
23974SOL     OW73362   6.951   0.019  10.747
23974SOL    HW173363   6.968  -0.010  10.836
23974SOL    HW273364   6.882   0.085  10.756
23975SOL     OW73365   6.146   7.506   9.807
23975SOL    HW173366   6.065   7.508   9.859
23975SOL    HW273367   6.140   7.583   9.750
23976SOL     OW73368   5.873   7.501   9.495
23976SOL    HW173369   5.927   7.560   9.443
23976SOL    HW273370   5.935   7.440   9.533
23977SOL     OW73371   6.539   7.663   9.764
23977SOL    HW173372   6.508   7.720   9.694
23977SOL    HW273373   6.629   7.690   9.779
23978SOL     OW73374   5.685  -0.009  10.695
23978SOL    HW173375   5.777  -0.029  10.714
23978SOL    HW273376   5.671   0.078  10.731
23979SOL     OW73377   6.147   7.671  10.486
23979SOL    HW173378   6.184   7.595  10.530
23979SOL    HW273379   6.054   7.669  10.511
23980SOL     OW73380   6.612   7.501  10.052
23980SOL    HW173381   6.552   7.506   9.977
23980SOL    HW273382   6.581   7.426  10.102
23981SOL     OW73383   7.082   7.958  10.272
23981SOL    HW173384   6.993   7.922  10.271
23981SOL    HW273385   7.085   8.015  10.348
23982SOL     OW73386   6.133   7.710   9.623
23982SOL    HW173387   6.163   7.662   9.546
23982SOL    HW273388   6.176   7.795   9.616
23983SOL     OW73389   6.504   7.533  10.701
23983SOL    HW173390   6.525   7.510  10.611
23983SOL    HW273391   6.584   7.572  10.736
23984SOL     OW73392   6.855   7.803  10.600
23984SOL    HW173393   6.887   7.884  10.639
23984SOL    HW273394   6.763   7.820  10.579
23985SOL     OW73395   6.120   7.917  10.163
23985SOL    HW173396   6.080   7.965  10.091
23985SOL    HW273397   6.174   7.981  10.208
23986SOL     OW73398   6.593   7.589  11.069
23986SOL    HW173399   6.654   7.659  11.045
23986SOL    HW273400   6.639   7.508  11.043
23987SOL     OW73401   6.078   7.482  11.067
23987SOL    HW173402   6.031   7.429  11.003
23987SOL    HW273403   6.020   7.556  11.083
23988SOL     OW73404   5.885   7.640  10.558
23988SOL    HW173405   5.841   7.667  10.639
23988SOL    HW273406   5.870   7.546  10.552
23989SOL     OW73407   6.353   0.058  10.326
23989SOL    HW173408   6.400   0.057  10.243
23989SOL    HW273409   6.282   0.121  10.313
23990SOL     OW73410   5.903   7.510   9.936
23990SOL    HW173411   5.872   7.598   9.959
23990SOL    HW273412   5.910   7.464  10.020
23991SOL     OW73413   7.205   7.818   9.674
23991SOL    HW173414   7.246   7.745   9.721
23991SOL    HW273415   7.167   7.872   9.743
23992SOL     OW73416   7.070   7.740   9.443
23992SOL    HW173417   7.025   7.658   9.464
23992SOL    HW273418   7.123   7.758   9.522
23993SOL     OW73419   6.918   0.245   9.350
23993SOL    HW173420   6.884   0.162   9.385
23993SOL    HW273421   6.845   0.282   9.300
23994SOL     OW73422   5.899   7.995  10.358
23994SOL    HW173423   5.885   7.903  10.334
23994SOL    HW273424   5.967   8.025  10.298
23995SOL     OW73425   6.733   7.825  10.988
23995SOL    HW173426   6.681   7.903  11.010
23995SOL    HW273427   6.824   7.856  10.990
23996SOL     OW73428   6.746   7.634  10.789
23996SOL    HW173429   6.734   7.702  10.854
23996SOL    HW273430   6.793   7.677  10.717
23997SOL     OW73431   5.608   7.942  10.430
23997SOL    HW173432   5.685   7.910  10.383
23997SOL    HW273433   5.640   7.958  10.519
23998SOL     OW73434   5.789   7.944  11.032
23998SOL    HW173435   5.840   7.921  10.954
23998SOL    HW273436   5.761   8.034  11.016
23999SOL     OW73437   6.378   0.029   9.550
23999SOL    HW173438   6.427  -0.053   9.559
23999SOL    HW273439   6.326   0.034   9.631
24000SOL     OW73440   7.215   8.027  10.520
24000SOL    HW173441   7.193   7.960  10.585
24000SOL    HW273442   7.275   7.984  10.460
24001SOL     OW73443   6.315   7.886  10.543
24001SOL    HW173444   6.251   7.818  10.524
24001SOL    HW273445   6.312   7.944  10.466
24002SOL     OW73446   7.324   7.607   9.813
24002SOL    HW173447   7.391   7.589   9.747
24002SOL    HW273448   7.301   7.521   9.848
24003SOL     OW73449   7.430   7.615  10.276
24003SOL    HW173450   7.454   7.526  10.250
24003SOL    HW273451   7.343   7.628  10.237
24004SOL     OW73452   5.831   7.757  10.028
24004SOL    HW173453   5.739   7.777  10.012
24004SOL    HW273454   5.840   7.757  10.123
24005SOL     OW73455   6.617   7.667  10.282
24005SOL    HW173456   6.611   7.628  10.195
24005SOL    HW273457   6.607   7.593  10.342
24006SOL     OW73458   7.321   7.813  10.701
24006SOL    HW173459   7.382   7.887  10.694
24006SOL    HW273460   7.354   7.749  10.637
24007SOL     OW73461   6.265   7.635  10.811
24007SOL    HW173462   6.347   7.612  10.768
24007SOL    HW273463   6.291   7.672  10.895
24008SOL     OW73464   5.656   7.770   9.359
24008SOL    HW173465   5.593   7.759   9.288
24008SOL    HW273466   5.696   7.855   9.343
24009SOL     OW73467   5.642   7.602   9.599
24009SOL    HW173468   5.626   7.671   9.535
24009SOL    HW273469   5.728   7.568   9.576
24010SOL     OW73470   6.366   8.007  11.039
24010SOL    HW173471   6.273   8.022  11.023
24010SOL    HW273472   6.375   7.912  11.040
24011SOL     OW73473   6.802   7.749   9.782
24011SOL    HW173474   6.866   7.678   9.769
24011SOL    HW273475   6.841   7.804   9.849
24012SOL     OW73476   6.213   0.254   9.993
24012SOL    HW173477   6.187   0.336   9.951
24012SOL    HW273478   6.146   0.191   9.967
24013SOL     OW73479   7.341   7.803  10.976
24013SOL    HW173480   7.331   7.817  10.882
24013SOL    HW273481   7.268   7.746  10.999
24014SOL     OW73482   7.414   7.615  10.548
24014SOL    HW173483   7.403   7.520  10.553
24014SOL    HW273484   7.421   7.633  10.454
24015SOL     OW73485   5.973   7.861   9.812
24015SOL    HW173486   6.000   7.790   9.755
24015SOL    HW273487   5.927   7.818   9.884
24016SOL     OW73488   7.009   7.666  10.420
24016SOL    HW173489   7.012   7.574  10.446
24016SOL    HW273490   6.963   7.710  10.491
24017SOL     OW73491   6.590   7.449  10.449
24017SOL    HW173492   6.536   7.384  10.404
24017SOL    HW273493   6.678   7.411  10.450
24018SOL     OW73494   6.952   7.494   9.480
24018SOL    HW173495   6.990   7.419   9.433
24018SOL    HW273496   6.862   7.467   9.498
24019SOL     OW73497   6.909   7.900   9.990
24019SOL    HW173498   6.862   7.983   9.983
24019SOL    HW273499   6.884   7.866  10.075
24020SOL     OW73500   7.173   7.652  10.196
24020SOL    HW173501   7.119   7.672  10.272
24020SOL    HW273502   7.161   7.727  10.138
24021SOL     OW73503   5.822   7.721  12.159
24021SOL    HW173504   5.849   7.686  12.244
24021SOL    HW273505   5.730   7.695  12.152
24022SOL     OW73506   5.571   7.817  11.822
24022SOL    HW173507   5.489   7.858  11.848
24022SOL    HW273508   5.544   7.739  11.774
24023SOL     OW73509   7.267   0.032  11.403
24023SOL    HW173510   7.304   0.037  11.315
24023SOL    HW273511   7.272  -0.061  11.426
24024SOL     OW73512   7.183   7.925  11.873
24024SOL    HW173513   7.094   7.915  11.841
24024SOL    HW273514   7.173   7.957  11.963
24025SOL     OW73515   5.636   0.103  11.800
24025SOL    HW173516   5.646   0.008  11.791
24025SOL    HW273517   5.726   0.136  11.797
24026SOL     OW73518   6.405   7.430  11.696
24026SOL    HW173519   6.451   7.509  11.668
24026SOL    HW273520   6.312   7.456  11.696
24027SOL     OW73521   6.845   7.793  12.105
24027SOL    HW173522   6.756   7.763  12.123
24027SOL    HW273523   6.900   7.743  12.165
24028SOL     OW73524   6.549   7.790  12.425
24028SOL    HW173525   6.487   7.862  12.436
24028SOL    HW273526   6.550   7.774  12.331
24029SOL     OW73527   6.487   7.781  11.366
24029SOL    HW173528   6.510   7.816  11.280
24029SOL    HW273529   6.509   7.688  11.360
24030SOL     OW73530   6.141   7.633  12.065
24030SOL    HW173531   6.142   7.677  12.150
24030SOL    HW273532   6.138   7.704  12.001
24031SOL     OW73533   6.987   7.543  11.615
24031SOL    HW173534   6.980   7.521  11.522
24031SOL    HW273535   7.081   7.537  11.634
24032SOL     OW73536   6.238   7.563  11.269
24032SOL    HW173537   6.290   7.486  11.291
24032SOL    HW273538   6.180   7.534  11.199
24033SOL     OW73539   6.144   7.505  11.671
24033SOL    HW173540   6.062   7.509  11.720
24033SOL    HW273541   6.142   7.582  11.614
24034SOL     OW73542   5.873   7.500  11.358
24034SOL    HW173543   5.927   7.560  11.306
24034SOL    HW273544   5.936   7.439  11.396
24035SOL     OW73545   6.536   7.659  11.630
24035SOL    HW173546   6.500   7.727  11.573
24035SOL    HW273547   6.627   7.684  11.643
24036SOL     OW73548   5.690   0.000   0.065
24036SOL    HW173549   5.778  -0.015   0.100
24036SOL    HW273550   5.657   0.073   0.117
24037SOL     OW73551   6.153   7.647  12.352
24037SOL    HW173552   6.170   7.561  12.313
24037SOL    HW273553   6.059   7.647  12.371
24038SOL     OW73554   6.608   7.507  11.925
24038SOL    HW173555   6.554   7.514  11.846
24038SOL    HW273556   6.579   7.425  11.966
24039SOL     OW73557   7.080   7.948  12.124
24039SOL    HW173558   6.989   7.920  12.137
24039SOL    HW273559   7.109   7.978  12.210
24040SOL     OW73560   6.138   7.709  11.489
24040SOL    HW173561   6.170   7.665  11.410
24040SOL    HW273562   6.178   7.796  11.486
24041SOL     OW73563   6.825   7.844  12.427
24041SOL    HW173564   6.856   7.895  12.502
24041SOL    HW273565   6.735   7.820  12.449
24042SOL     OW73566   6.137   7.924  12.032
24042SOL    HW173567   6.112   7.992  11.969
24042SOL    HW273568   6.208   7.964  12.083
24043SOL     OW73569   5.889   7.622  12.411
24043SOL    HW173570   5.841   7.653  12.487
24043SOL    HW273571   5.873   7.528  12.408
24044SOL     OW73572   6.333   0.045  12.189
24044SOL    HW173573   6.425   0.055  12.168
24044SOL    HW273574   6.300   0.135  12.195
24045SOL     OW73575   5.899   7.515  11.795
24045SOL    HW173576   5.869   7.602  11.819
24045SOL    HW273577   5.907   7.469  11.879
24046SOL     OW73578   7.199   7.796  11.542
24046SOL    HW173579   7.244   7.730  11.595
24046SOL    HW273580   7.169   7.861  11.605
24047SOL     OW73581   7.076   7.736  11.305
24047SOL    HW173582   7.027   7.656  11.323
24047SOL    HW273583   7.125   7.754  11.386
24048SOL     OW73584   6.905   0.252  11.228
24048SOL    HW173585   6.881   0.160  11.245
24048SOL    HW273586   6.835   0.284  11.171
24049SOL     OW73587   5.888   7.986  12.199
24049SOL    HW173588   5.890   7.894  12.173
24049SOL    HW273589   5.964   8.025  12.156
24050SOL     OW73590   6.747   7.696   0.175
24050SOL    HW173591   6.765   7.721   0.265
24050SOL    HW273592   6.825   7.723   0.126
24051SOL     OW73593   5.635   7.951  12.300
24051SOL    HW173594   5.718   7.958  12.254
24051SOL    HW273595   5.656   7.966  12.392
24052SOL     OW73596   6.377   0.032  11.412
24052SOL    HW173597   6.426  -0.051  11.414
24052SOL    HW273598   6.330   0.034  11.495
24053SOL     OW73599   7.207   8.015  12.358
24053SOL    HW173600   7.210   7.950  12.428
24053SOL    HW273601   7.293   8.008  12.315
24054SOL     OW73602   6.251   7.906  12.410
24054SOL    HW173603   6.222   7.819  12.383
24054SOL    HW273604   6.277   7.949  12.328
24055SOL     OW73605   7.329   7.603  11.684
24055SOL    HW173606   7.394   7.585  11.617
24055SOL    HW273607   7.304   7.516  11.717
24056SOL     OW73608   7.421   7.616  12.138
24056SOL    HW173609   7.447   7.528  12.112
24056SOL    HW273610   7.332   7.626  12.103
24057SOL     OW73611   5.832   7.765  11.885
24057SOL    HW173612   5.739   7.785  11.871
24057SOL    HW273613   5.840   7.755  11.980
24058SOL     OW73614   6.604   7.667  12.159
24058SOL    HW173615   6.603   7.627  12.072
24058SOL    HW273616   6.598   7.593  12.220
24059SOL     OW73617   7.328   7.838   0.042
24059SOL    HW173618   7.410   7.886   0.043
24059SOL    HW273619   7.349   7.754   0.001
24060SOL     OW73620   5.659   7.773  11.210
24060SOL    HW173621   5.594   7.752  11.143
24060SOL    HW273622   5.701   7.853  11.179
24061SOL     OW73623   5.642   7.602  11.460
24061SOL    HW173624   5.627   7.673  11.398
24061SOL    HW273625   5.728   7.568  11.437
24062SOL     OW73626   6.797   7.742  11.648
24062SOL    HW173627   6.865   7.676  11.634
24062SOL    HW273628   6.835   7.802  11.713
24063SOL     OW73629   6.228   0.249  11.839
24063SOL    HW173630   6.199   0.333  11.804
24063SOL    HW273631   6.151   0.192  11.829
24064SOL     OW73632   7.408   7.610  12.415
24064SOL    HW173633   7.425   7.516  12.415
24064SOL    HW273634   7.411   7.634  12.322
24065SOL     OW73635   5.952   7.856  11.651
24065SOL    HW173636   5.996   7.786  11.603
24065SOL    HW273637   5.914   7.813  11.727
24066SOL     OW73638   7.016   7.691  12.305
24066SOL    HW173639   7.070   7.655  12.375
24066SOL    HW273640   6.951   7.745  12.350
24067SOL     OW73641   6.587   7.420  12.302
24067SOL    HW173642   6.554   7.371  12.226
24067SOL    HW273643   6.679   7.394  12.310
24068SOL     OW73644   6.952   7.494  11.342
24068SOL    HW173645   6.990   7.418  11.297
24068SOL    HW273646   6.861   7.468  11.360
24069SOL     OW73647   6.904   7.897  11.853
24069SOL    HW173648   6.858   7.981  11.854
24069SOL    HW273649   6.885   7.858  11.938
24070SOL     OW73650   7.159   7.648  12.068
24070SOL    HW173651   7.110   7.669  12.148
24070SOL    HW273652   7.147   7.725  12.012
24071SOL     OW73653   7.694   0.572   0.027
24071SOL    HW173654   7.661   0.631   0.095
24071SOL    HW273655   7.624   0.570  -0.038
24072SOL     OW73656   7.691   0.284   0.981
24072SOL    HW173657   7.710   0.258   1.071
24072SOL    HW273658   7.603   0.250   0.965
24073SOL     OW73659   7.465   0.380   0.643
24073SOL    HW173660   7.378   0.402   0.677
24073SOL    HW273661   7.461   0.285   0.628
24074SOL     OW73662   7.750   1.442   1.052
24074SOL    HW173663   7.676   1.383   1.040
24074SOL    HW273664   7.788   1.451   0.964
24075SOL     OW73665   7.861   0.414   1.529
24075SOL    HW173666   7.948   0.373   1.538
24075SOL    HW273667   7.802   0.341   1.509
24076SOL     OW73668   7.650   1.716   0.490
24076SOL    HW173669   7.681   1.792   0.539
24076SOL    HW273670   7.701   1.717   0.409
24077SOL     OW73671   7.659   1.443   0.534
24077SOL    HW173672   7.656   1.539   0.532
24077SOL    HW273673   7.601   1.419   0.606
24078SOL     OW73674   7.705   1.093   0.890
24078SOL    HW173675   7.697   1.005   0.926
24078SOL    HW273676   7.650   1.147   0.947
24079SOL     OW73677   7.562   0.637   0.576
24079SOL    HW173678   7.526   0.551   0.600
24079SOL    HW273679   7.552   0.690   0.654
24080SOL     OW73680   7.481   1.521   0.142
24080SOL    HW173681   7.393   1.486   0.127
24080SOL    HW273682   7.468   1.599   0.195
24081SOL     OW73683   7.561   0.749   1.583
24081SOL    HW173684   7.650   0.784   1.583
24081SOL    HW273685   7.505   0.827   1.580
24082SOL     OW73686   7.636   0.953   1.292
24082SOL    HW173687   7.725   0.917   1.284
24082SOL    HW273688   7.588   0.914   1.219
24083SOL     OW73689   7.751   0.241   1.776
24083SOL    HW173690   7.820   0.297   1.812
24083SOL    HW273691   7.680   0.246   1.840
24084SOL     OW73692   7.533   0.813   0.781
24084SOL    HW173693   7.610   0.813   0.837
24084SOL    HW273694   7.481   0.888   0.810
24085SOL     OW73695   7.570   1.870   1.586
24085SOL    HW173696   7.579   1.849   1.679
24085SOL    HW273697   7.487   1.830   1.561
24086SOL     OW73698   7.961   0.239   0.883
24086SOL    HW173699   7.885   0.240   0.940
24086SOL    HW273700   7.973   0.330   0.857
24087SOL     OW73701   7.818   1.835   0.871
24087SOL    HW173702   7.888   1.774   0.895
24087SOL    HW273703   7.860   1.921   0.876
24088SOL     OW73704   7.744   0.999   0.255
24088SOL    HW173705   7.833   1.024   0.231
24088SOL    HW273706   7.736   0.908   0.225
24089SOL     OW73707   7.955   1.243   1.739
24089SOL    HW173708   7.915   1.248   1.653
24089SOL    HW273709   7.884   1.265   1.800
24090SOL     OW73710   7.633   0.241   1.508
24090SOL    HW173711   7.569   0.310   1.491
24090SOL    HW273712   7.652   0.248   1.601
24091SOL     OW73713   7.699   1.787   1.229
24091SOL    HW173714   7.749   1.718   1.273
24091SOL    HW273715   7.695   1.759   1.137
24092SOL     OW73716   7.806   0.658   0.448
24092SOL    HW173717   7.868   0.621   0.512
24092SOL    HW273718   7.721   0.652   0.492
24093SOL     OW73719   7.788   0.020   0.104
24093SOL    HW173720   7.800   0.081   0.177
24093SOL    HW273721   7.818  -0.064   0.137
24094SOL     OW73722   7.923   1.100   0.732
24094SOL    HW173723   7.849   1.096   0.793
24094SOL    HW273724   7.881   1.105   0.646
24095SOL     OW73725   7.549   0.553   1.397
24095SOL    HW173726   7.639   0.557   1.366
24095SOL    HW273727   7.542   0.625   1.460
24096SOL     OW73728   7.882   0.826   1.271
24096SOL    HW173729   7.971   0.827   1.306
24096SOL    HW273730   7.853   0.736   1.282
24097SOL     OW73731   7.524   1.573   1.359
24097SOL    HW173732   7.504   1.649   1.305
24097SOL    HW273733   7.619   1.563   1.353
24098SOL     OW73734   7.802   1.130   0.490
24098SOL    HW173735   7.792   1.216   0.449
24098SOL    HW273736   7.776   1.068   0.422
24099SOL     OW73737  -0.012   0.538   0.867
24099SOL    HW173738   0.021   0.619   0.827
24099SOL    HW273739   0.023   0.540   0.956
24100SOL     OW73740   7.787   1.526   1.311
24100SOL    HW173741   7.784   1.486   1.224
24100SOL    HW273742   7.879   1.549   1.324
24101SOL     OW73743   7.849   0.735   1.602
24101SOL    HW173744   7.925   0.786   1.574
24101SOL    HW273745   7.875   0.644   1.587
24102SOL     OW73746   7.955   0.082   1.676
24102SOL    HW173747   7.909   0.013   1.628
24102SOL    HW273748   7.885   0.133   1.718
24103SOL     OW73749   7.986   0.921   1.033
24103SOL    HW173750   8.006   1.015   1.032
24103SOL    HW273751   7.947   0.906   1.119
24104SOL     OW73752   7.749   0.214   1.235
24104SOL    HW173753   7.704   0.213   1.320
24104SOL    HW273754   7.778   0.124   1.222
24105SOL     OW73755   7.487   1.313   1.278
24105SOL    HW173756   7.522   1.258   1.348
24105SOL    HW273757   7.496   1.402   1.311
24106SOL     OW73758   7.773   0.063   0.644
24106SOL    HW173759   7.793   0.150   0.680
24106SOL    HW273760   7.788   0.003   0.716
24107SOL     OW73761   7.800   0.917   1.811
24107SOL    HW173762   7.888   0.955   1.813
24107SOL    HW273763   7.810   0.839   1.755
24108SOL     OW73764   7.741   0.820   0.958
24108SOL    HW173765   7.832   0.848   0.970
24108SOL    HW273766   7.741   0.727   0.982
24109SOL     OW73767   7.750   0.545   0.999
24109SOL    HW173768   7.721   0.455   0.992
24109SOL    HW273769   7.830   0.549   0.947
24110SOL     OW73770   7.547   1.780   0.942
24110SOL    HW173771   7.516   1.703   0.894
24110SOL    HW273772   7.635   1.796   0.909
24111SOL     OW73773   7.488   0.556   1.121
24111SOL    HW173774   7.569   0.564   1.070
24111SOL    HW273775   7.518   0.548   1.212
24112SOL     OW73776   7.629   0.531   1.734
24112SOL    HW173777   7.708   0.506   1.686
24112SOL    HW273778   7.594   0.605   1.686
24113SOL     OW73779   7.685   1.548   1.711
24113SOL    HW173780   7.671   1.615   1.779
24113SOL    HW273781   7.706   1.469   1.760
24114SOL     OW73782   7.893   0.460   0.171
24114SOL    HW173783   7.920   0.533   0.225
24114SOL    HW273784   7.823   0.495   0.116
24115SOL     OW73785   7.578   1.142   1.478
24115SOL    HW173786   7.580   1.098   1.562
24115SOL    HW273787   7.599   1.074   1.414
24116SOL     OW73788   7.537   1.263   1.020
24116SOL    HW173789   7.513   1.278   1.111
24116SOL    HW273790   7.461   1.217   0.983
24117SOL     OW73791   7.595   1.793   1.844
24117SOL    HW173792   7.546   1.724   1.889
24117SOL    HW273793   7.642   1.838   1.914
24118SOL     OW73794   7.735   0.338   0.712
24118SOL    HW173795   7.650   0.362   0.677
24118SOL    HW273796   7.720   0.322   0.805
24119SOL     OW73797   7.815   1.291   1.511
24119SOL    HW173798   7.812   1.367   1.453
24119SOL    HW273799   7.733   1.245   1.494
24120SOL     OW73800  -0.015   1.524   0.422
24120SOL    HW173801   0.026   1.453   0.472
24120SOL    HW273802   0.028   1.604   0.453
24121SOL     OW73803   7.740   1.341   0.299
24121SOL    HW173804   7.670   1.368   0.240
24121SOL    HW273805   7.721   1.385   0.381
24122SOL     OW73806   7.560   1.028   1.724
24122SOL    HW173807   7.484   1.005   1.779
24122SOL    HW273808   7.634   0.989   1.770
24123SOL     OW73809   7.536   0.202   0.262
24123SOL    HW173810   7.493   0.258   0.327
24123SOL    HW273811   7.629   0.204   0.287
24124SOL     OW73812   7.829   1.758   1.566
24124SOL    HW173813   7.743   1.796   1.550
24124SOL    HW273814   7.810   1.669   1.598
24125SOL     OW73815   7.709   1.308   1.857
24125SOL    HW173816   7.635   1.252   1.832
24125SOL    HW273817   7.698   1.319   1.952
24126SOL     OW73818   7.527   1.227   0.678
24126SOL    HW173819   7.561   1.178   0.752
24126SOL    HW273820   7.583   1.203   0.605
24127SOL     OW73821   0.099   1.443   1.548
24127SOL    HW173822   0.052   1.380   1.603
24127SOL    HW273823   0.173   1.471   1.602
24128SOL     OW73824   7.797   0.564   1.292
24128SOL    HW173825   7.851   0.510   1.350
24128SOL    HW273826   7.817   0.532   1.204
24129SOL     OW73827   7.485   1.076   0.350
24129SOL    HW173828   7.571   1.074   0.309
24129SOL    HW273829   7.472   0.987   0.384
24130SOL     OW73830   7.656   0.622   1.998
24130SOL    HW173831   7.568   0.618   2.035
24130SOL    HW273832   7.643   0.606   1.904
24131SOL     OW73833   7.690   0.285   2.842
24131SOL    HW173834   7.710   0.258   2.932
24131SOL    HW273835   7.601   0.251   2.826
24132SOL     OW73836   7.466   0.384   2.501
24132SOL    HW173837   7.378   0.397   2.536
24132SOL    HW273838   7.474   0.289   2.491
24133SOL     OW73839   7.748   1.441   2.916
24133SOL    HW173840   7.673   1.382   2.905
24133SOL    HW273841   7.788   1.446   2.829
24134SOL     OW73842   7.857   0.409   3.383
24134SOL    HW173843   7.940   0.366   3.403
24134SOL    HW273844   7.795   0.338   3.370
24135SOL     OW73845   7.665   1.713   2.339
24135SOL    HW173846   7.680   1.794   2.389
24135SOL    HW273847   7.748   1.699   2.292
24136SOL     OW73848   7.672   1.441   2.393
24136SOL    HW173849   7.656   1.535   2.392
24136SOL    HW273850   7.612   1.408   2.460
24137SOL     OW73851   7.705   1.090   2.753
24137SOL    HW173852   7.700   1.001   2.787
24137SOL    HW273853   7.649   1.141   2.811
24138SOL     OW73854   7.567   0.649   2.426
24138SOL    HW173855   7.537   0.561   2.450
24138SOL    HW273856   7.557   0.700   2.507
24139SOL     OW73857   7.494   1.585   1.980
24139SOL    HW173858   7.477   1.493   2.002
24139SOL    HW273859   7.465   1.633   2.058
24140SOL     OW73860   7.560   0.748   3.441
24140SOL    HW173861   7.649   0.783   3.445
24140SOL    HW273862   7.505   0.826   3.430
24141SOL     OW73863   7.641   0.948   3.157
24141SOL    HW173864   7.729   0.911   3.152
24141SOL    HW273865   7.594   0.909   3.083
24142SOL     OW73866   7.748   0.251   3.637
24142SOL    HW173867   7.819   0.297   3.682
24142SOL    HW273868   7.675   0.253   3.698
24143SOL     OW73869   8.006   0.742   2.118
24143SOL    HW173870   8.023   0.836   2.121
24143SOL    HW273871   7.947   0.726   2.191
24144SOL     OW73872   7.530   0.824   2.637
24144SOL    HW173873   7.607   0.815   2.692
24144SOL    HW273874   7.482   0.898   2.674
24145SOL     OW73875   7.574   1.853   3.449
24145SOL    HW173876   7.579   1.832   3.542
24145SOL    HW273877   7.482   1.839   3.426
24146SOL     OW73878   7.962   0.249   2.751
24146SOL    HW173879   7.881   0.245   2.802
24146SOL    HW273880   7.967   0.339   2.720
24147SOL     OW73881   7.812   1.835   2.732
24147SOL    HW173882   7.878   1.768   2.747
24147SOL    HW273883   7.859   1.918   2.740
24148SOL     OW73884   7.746   0.964   2.122
24148SOL    HW173885   7.831   0.986   2.083
24148SOL    HW273886   7.728   0.875   2.092
24149SOL     OW73887   7.819   1.234   3.636
24149SOL    HW173888   7.823   1.260   3.544
24149SOL    HW273889   7.841   1.141   3.635
24150SOL     OW73890   7.630   0.232   3.380
24150SOL    HW173891   7.557   0.294   3.373
24150SOL    HW273892   7.657   0.237   3.472
24151SOL     OW73893   7.699   1.789   3.082
24151SOL    HW173894   7.747   1.711   3.113
24151SOL    HW273895   7.677   1.769   2.991
24152SOL     OW73896   7.828   0.690   2.320
24152SOL    HW173897   7.872   0.621   2.370
24152SOL    HW273898   7.736   0.683   2.346
24153SOL     OW73899   0.022   0.090   1.983
24153SOL    HW173900   0.108   0.051   1.998
24153SOL    HW273901   0.037   0.154   1.913
24154SOL     OW73902   7.755   0.058   2.065
24154SOL    HW173903   7.844   0.076   2.032
24154SOL    HW273904   7.767  -0.014   2.126
24155SOL     OW73905   7.919   1.120   2.592
24155SOL    HW173906   7.847   1.107   2.655
24155SOL    HW273907   7.877   1.114   2.506
24156SOL     OW73908   7.541   0.552   3.255
24156SOL    HW173909   7.632   0.552   3.224
24156SOL    HW273910   7.538   0.622   3.320
24157SOL     OW73911   7.885   0.819   3.139
24157SOL    HW173912   7.977   0.811   3.164
24157SOL    HW273913   7.852   0.729   3.142
24158SOL     OW73914   7.523   1.571   3.228
24158SOL    HW173915   7.491   1.643   3.174
24158SOL    HW273916   7.617   1.569   3.211
24159SOL     OW73917   7.789   1.121   2.349
24159SOL    HW173918   7.776   1.199   2.296
24159SOL    HW273919   7.773   1.048   2.290
24160SOL     OW73920  -0.018   0.546   2.730
24160SOL    HW173921   0.022   0.622   2.687
24160SOL    HW273922   0.019   0.547   2.819
24161SOL     OW73923   7.789   1.536   3.168
24161SOL    HW173924   7.781   1.492   3.084
24161SOL    HW273925   7.883   1.554   3.176
24162SOL     OW73926   7.847   0.747   3.468
24162SOL    HW173927   7.919   0.781   3.414
24162SOL    HW273928   7.861   0.653   3.470
24163SOL     OW73929   7.949   0.080   3.540
24163SOL    HW173930   7.905   0.008   3.494
24163SOL    HW273931   7.878   0.128   3.583
24164SOL     OW73932   7.983   0.922   2.898
24164SOL    HW173933   8.005   1.015   2.899
24164SOL    HW273934   7.946   0.905   2.985
24165SOL     OW73935   7.751   0.216   3.097
24165SOL    HW173936   7.703   0.212   3.180
24165SOL    HW273937   7.781   0.127   3.082
24166SOL     OW73938   7.489   1.312   3.141
24166SOL    HW173939   7.523   1.255   3.210
24166SOL    HW273940   7.495   1.401   3.177
24167SOL     OW73941   7.768   0.066   2.517
24167SOL    HW173942   7.830   0.138   2.530
24167SOL    HW273943   7.810  -0.010   2.558
24168SOL     OW73944   7.827   0.939   3.669
24168SOL    HW173945   7.826   0.891   3.752
24168SOL    HW273946   7.833   0.870   3.602
24169SOL     OW73947   7.738   0.820   2.820
24169SOL    HW173948   7.829   0.845   2.832
24169SOL    HW273949   7.736   0.726   2.841
24170SOL     OW73950   7.744   0.546   2.858
24170SOL    HW173951   7.717   0.455   2.851
24170SOL    HW273952   7.825   0.551   2.806
24171SOL     OW73953   7.461   1.312   2.054
24171SOL    HW173954   7.374   1.331   2.019
24171SOL    HW273955   7.454   1.223   2.089
24172SOL     OW73956   7.549   1.775   2.812
24172SOL    HW173957   7.517   1.701   2.761
24172SOL    HW273958   7.634   1.796   2.773
24173SOL     OW73959   7.488   0.575   2.975
24173SOL    HW173960   7.570   0.571   2.926
24173SOL    HW273961   7.512   0.551   3.065
24174SOL     OW73962   7.622   0.532   3.603
24174SOL    HW173963   7.690   0.491   3.550
24174SOL    HW273964   7.587   0.602   3.548
24175SOL     OW73965   0.216   0.513   2.160
24175SOL    HW173966   0.181   0.424   2.170
24175SOL    HW273967   0.183   0.560   2.236
24176SOL     OW73968   7.695   1.536   3.623
24176SOL    HW173969   7.666   1.622   3.654
24176SOL    HW273970   7.787   1.548   3.601
24177SOL     OW73971   7.909   0.507   1.998
24177SOL    HW173972   7.961   0.574   2.043
24177SOL    HW273973   7.818   0.536   2.008
24178SOL     OW73974   7.581   1.142   3.338
24178SOL    HW173975   7.585   1.102   3.425
24178SOL    HW273976   7.601   1.070   3.278
24179SOL     OW73977   7.537   1.260   2.883
24179SOL    HW173978   7.512   1.276   2.974
24179SOL    HW273979   7.460   1.218   2.844
24180SOL     OW73980   7.598   1.776   3.710
24180SOL    HW173981   7.542   1.717   3.761
24180SOL    HW273982   7.643   1.829   3.775
24181SOL     OW73983   7.743   0.361   2.574
24181SOL    HW173984   7.657   0.377   2.536
24181SOL    HW273985   7.725   0.328   2.662
24182SOL     OW73986   7.797   1.315   3.378
24182SOL    HW173987   7.812   1.374   3.304
24182SOL    HW273988   7.726   1.257   3.348
24183SOL     OW73989  -0.010   1.566   2.275
24183SOL    HW173990  -0.004   1.493   2.336
24183SOL    HW273991   0.057   1.628   2.304
24184SOL     OW73992   7.718   1.332   2.151
24184SOL    HW173993   7.626   1.328   2.124
24184SOL    HW273994   7.717   1.383   2.232
24185SOL     OW73995   7.566   1.048   3.594
24185SOL    HW173996   7.487   1.026   3.644
24185SOL    HW273997   7.637   1.007   3.643
24186SOL     OW73998   7.511   0.331   1.890
24186SOL    HW173999   7.438   0.315   1.830
24186SOL    HW274000   7.553   0.410   1.855
24187SOL     OW74001   7.500   0.175   2.131
24187SOL    HW174002   7.502   0.240   2.060
24187SOL    HW274003   7.588   0.136   2.129
24188SOL     OW74004   7.837   1.754   3.425
24188SOL    HW174005   7.747   1.786   3.414
24188SOL    HW274006   7.839   1.670   3.378
24189SOL     OW74007   7.540   1.224   2.533
24189SOL    HW174008   7.558   1.178   2.616
24189SOL    HW274009   7.606   1.190   2.472
24190SOL     OW74010   0.090   1.453   3.419
24190SOL    HW174011   0.059   1.371   3.459
24190SOL    HW274012   0.166   1.478   3.471
24191SOL     OW74013   7.792   0.561   3.152
24191SOL    HW174014   7.840   0.505   3.213
24191SOL    HW274015   7.812   0.525   3.066
24192SOL     OW74016   7.485   1.058   2.174
24192SOL    HW174017   7.577   1.047   2.149
24192SOL    HW274018   7.456   0.971   2.198
24193SOL     OW74019   7.651   0.651   3.852
24193SOL    HW174020   7.569   0.634   3.897
24193SOL    HW274021   7.640   0.613   3.765
24194SOL     OW74022   7.692   0.282   4.703
24194SOL    HW174023   7.711   0.259   4.793
24194SOL    HW274024   7.603   0.248   4.688
24195SOL     OW74025   7.467   0.391   4.364
24195SOL    HW174026   7.378   0.410   4.393
24195SOL    HW274027   7.466   0.298   4.344
24196SOL     OW74028   7.749   1.447   4.776
24196SOL    HW174029   7.672   1.391   4.765
24196SOL    HW274030   7.798   1.437   4.695
24197SOL     OW74031   7.855   0.412   5.252
24197SOL    HW174032   7.935   0.360   5.264
24197SOL    HW274033   7.786   0.347   5.238
24198SOL     OW74034   7.667   1.714   4.202
24198SOL    HW174035   7.675   1.790   4.259
24198SOL    HW274036   7.753   1.708   4.159
24199SOL     OW74037   7.671   1.432   4.238
24199SOL    HW174038   7.657   1.526   4.248
24199SOL    HW274039   7.619   1.392   4.307
24200SOL     OW74040   7.711   1.091   4.626
24200SOL    HW174041   7.699   1.002   4.659
24200SOL    HW274042   7.651   1.144   4.677
24201SOL     OW74043   7.567   0.650   4.290
24201SOL    HW174044   7.534   0.563   4.313
24201SOL    HW274045   7.555   0.702   4.369
24202SOL     OW74046   7.478   1.569   3.848
24202SOL    HW174047   7.406   1.507   3.853
24202SOL    HW274048   7.465   1.627   3.923
24203SOL     OW74049   7.560   0.747   5.303
24203SOL    HW174050   7.646   0.789   5.310
24203SOL    HW274051   7.498   0.821   5.301
24204SOL     OW74052   7.636   0.955   5.012
24204SOL    HW174053   7.722   0.917   4.999
24204SOL    HW274054   7.578   0.904   4.955
24205SOL     OW74055   7.761   0.244   5.519
24205SOL    HW174056   7.821   0.310   5.553
24205SOL    HW274057   7.678   0.262   5.563
24206SOL     OW74058   7.975   0.762   3.976
24206SOL    HW174059   8.062   0.773   4.013
24206SOL    HW274060   7.920   0.736   4.050
24207SOL     OW74061   7.531   0.833   4.493
24207SOL    HW174062   7.607   0.820   4.550
24207SOL    HW274063   7.484   0.906   4.532
24208SOL     OW74064   7.577   1.879   5.310
24208SOL    HW174065   7.583   1.856   5.403
24208SOL    HW274066   7.494   1.840   5.282
24209SOL     OW74067   7.965   0.241   4.608
24209SOL    HW174068   7.886   0.238   4.662
24209SOL    HW274069   7.971   0.332   4.579
24210SOL     OW74070   7.822   1.834   4.602
24210SOL    HW174071   7.889   1.772   4.631
24210SOL    HW274072   7.864   1.919   4.605
24211SOL     OW74073   7.758   0.957   3.984
24211SOL    HW174074   7.853   0.961   3.974
24211SOL    HW274075   7.738   0.863   3.983
24212SOL     OW74076   7.955   1.242   5.462
24212SOL    HW174077   7.914   1.248   5.376
24212SOL    HW274078   7.885   1.263   5.523
24213SOL     OW74079   7.630   0.250   5.232
24213SOL    HW174080   7.555   0.309   5.222
24213SOL    HW274081   7.639   0.239   5.327
24214SOL     OW74082   7.703   1.789   4.952
24214SOL    HW174083   7.749   1.717   4.997
24214SOL    HW274084   7.692   1.758   4.862
24215SOL     OW74085   7.820   0.689   4.182
24215SOL    HW174086   7.869   0.626   4.235
24215SOL    HW274087   7.729   0.680   4.212
24216SOL     OW74088   0.025   0.091   3.846
24216SOL    HW174089   0.111   0.051   3.859
24216SOL    HW274090   0.038   0.150   3.772
24217SOL     OW74091   7.761   0.056   3.928
24217SOL    HW174092   7.850   0.073   3.897
24217SOL    HW274093   7.770  -0.017   3.989
24218SOL     OW74094   7.918   1.130   4.461
24218SOL    HW174095   7.850   1.113   4.526
24218SOL    HW274096   7.875   1.115   4.376
24219SOL     OW74097   7.545   0.556   5.113
24219SOL    HW174098   7.637   0.558   5.087
24219SOL    HW274099   7.538   0.623   5.180
24220SOL     OW74100   7.877   0.823   4.986
24220SOL    HW174101   7.953   0.832   5.043
24220SOL    HW274102   7.849   0.732   4.998
24221SOL     OW74103   7.522   1.576   5.086
24221SOL    HW174104   7.500   1.650   5.030
24221SOL    HW274105   7.617   1.567   5.078
24222SOL     OW74106   7.786   1.114   4.221
24222SOL    HW174107   7.773   1.197   4.176
24222SOL    HW274108   7.771   1.047   4.154
24223SOL     OW74109  -0.012   0.540   4.595
24223SOL    HW174110   0.024   0.618   4.552
24223SOL    HW274111   0.023   0.543   4.684
24224SOL     OW74112   7.786   1.530   5.035
24224SOL    HW174113   7.782   1.490   4.949
24224SOL    HW274114   7.879   1.551   5.048
24225SOL     OW74115   7.856   0.734   5.328
24225SOL    HW174116   7.944   0.770   5.315
24225SOL    HW274117   7.866   0.640   5.310
24226SOL     OW74118   7.958   0.078   5.394
24226SOL    HW174119   7.916   0.003   5.352
24226SOL    HW274120   7.887   0.124   5.438
24227SOL     OW74121   7.985   0.918   4.752
24227SOL    HW174122   8.010   1.010   4.763
24227SOL    HW274123   7.948   0.893   4.837
24228SOL     OW74124   7.749   0.221   4.959
24228SOL    HW174125   7.703   0.224   5.043
24228SOL    HW274126   7.778   0.131   4.951
24229SOL     OW74127   7.503   1.314   5.000
24229SOL    HW174128   7.529   1.257   5.072
24229SOL    HW274129   7.502   1.402   5.038
24230SOL     OW74130   7.776   0.066   4.360
24230SOL    HW174131   7.791   0.152   4.399
24230SOL    HW274132   7.794   0.004   4.431
24231SOL     OW74133   7.802   0.917   5.535
24231SOL    HW174134   7.891   0.954   5.537
24231SOL    HW274135   7.809   0.840   5.479
24232SOL     OW74136   7.737   0.815   4.674
24232SOL    HW174137   7.827   0.843   4.690
24232SOL    HW274138   7.735   0.723   4.701
24233SOL     OW74139   7.748   0.543   4.724
24233SOL    HW174140   7.720   0.452   4.716
24233SOL    HW274141   7.829   0.548   4.673
24234SOL     OW74142   7.463   1.273   3.870
24234SOL    HW174143   7.373   1.301   3.854
24234SOL    HW274144   7.454   1.192   3.921
24235SOL     OW74145   7.546   1.777   4.666
24235SOL    HW174146   7.515   1.700   4.618
24235SOL    HW274147   7.635   1.791   4.635
24236SOL     OW74148   7.488   0.564   4.841
24236SOL    HW174149   7.571   0.563   4.794
24236SOL    HW274150   7.512   0.552   4.933
24237SOL     OW74151   7.629   0.525   5.455
24237SOL    HW174152   7.703   0.501   5.399
24237SOL    HW274153   7.588   0.599   5.409
24238SOL     OW74154   0.197   0.526   4.017
24238SOL    HW174155   0.172   0.434   4.022
24238SOL    HW274156   0.179   0.561   4.104
24239SOL     OW74157   7.687   1.549   5.437
24239SOL    HW174158   7.668   1.611   5.507
24239SOL    HW274159   7.706   1.467   5.483
24240SOL     OW74160   7.905   0.516   3.851
24240SOL    HW174161   7.954   0.588   3.891
24240SOL    HW274162   7.814   0.538   3.867
24241SOL     OW74163   7.580   1.142   5.202
24241SOL    HW174164   7.581   1.097   5.287
24241SOL    HW274165   7.600   1.074   5.138
24242SOL     OW74166   7.536   1.265   4.741
24242SOL    HW174167   7.520   1.280   4.834
24242SOL    HW274168   7.456   1.223   4.710
24243SOL     OW74169   7.598   1.799   5.567
24243SOL    HW174170   7.548   1.730   5.611
24243SOL    HW274171   7.642   1.845   5.638
24244SOL     OW74172   7.738   0.340   4.436
24244SOL    HW174173   7.653   0.364   4.399
24244SOL    HW274174   7.720   0.322   4.528
24245SOL     OW74175   7.815   1.292   5.234
24245SOL    HW174176   7.808   1.369   5.177
24245SOL    HW274177   7.734   1.244   5.219
24246SOL     OW74178  -0.003   1.550   4.128
24246SOL    HW174179  -0.001   1.487   4.200
24246SOL    HW274180   0.049   1.624   4.160
24247SOL     OW74181   7.713   1.347   3.984
24247SOL    HW174182   7.621   1.319   3.989
24247SOL    HW274183   7.727   1.397   4.065
24248SOL     OW74184   7.561   1.031   5.450
24248SOL    HW174185   7.483   1.009   5.503
24248SOL    HW274186   7.634   0.990   5.497
24249SOL     OW74187   7.513   0.330   3.769
24249SOL    HW174188   7.417   0.324   3.769
24249SOL    HW274189   7.532   0.406   3.714
24250SOL     OW74190   7.518   0.180   4.009
24250SOL    HW174191   7.515   0.244   3.938
24250SOL    HW274192   7.602   0.134   3.997
24251SOL     OW74193   7.832   1.758   5.295
24251SOL    HW174194   7.747   1.797   5.276
24251SOL    HW274195   7.812   1.670   5.327
24252SOL     OW74196   7.707   1.306   5.578
24252SOL    HW174197   7.635   1.248   5.552
24252SOL    HW274198   7.695   1.318   5.672
24253SOL     OW74199   7.544   1.226   4.397
24253SOL    HW174200   7.528   1.186   4.483
24253SOL    HW274201   7.617   1.176   4.360
24254SOL     OW74202   0.100   1.443   5.269
24254SOL    HW174203   0.052   1.379   5.322
24254SOL    HW274204   0.172   1.471   5.325
24255SOL     OW74205   7.799   0.562   5.018
24255SOL    HW174206   7.846   0.505   5.078
24255SOL    HW274207   7.815   0.524   4.931
24256SOL     OW74208   7.496   1.050   4.026
24256SOL    HW174209   7.588   1.034   4.005
24256SOL    HW274210   7.463   0.966   4.056
24257SOL     OW74211   7.655   0.615   5.720
24257SOL    HW174212   7.569   0.611   5.761
24257SOL    HW274213   7.639   0.595   5.628
24258SOL     OW74214   7.695   0.283   6.562
24258SOL    HW174215   7.715   0.261   6.652
24258SOL    HW274216   7.607   0.246   6.547
24259SOL     OW74217   7.470   0.397   6.216
24259SOL    HW174218   7.381   0.412   6.249
24259SOL    HW274219   7.461   0.320   6.159
24260SOL     OW74220   7.752   1.439   6.637
24260SOL    HW174221   7.677   1.380   6.628
24260SOL    HW274222   7.784   1.450   6.547
24261SOL     OW74223   7.853   0.413   7.119
24261SOL    HW174224   7.933   0.362   7.128
24261SOL    HW274225   7.784   0.349   7.100
24262SOL     OW74226   7.667   1.715   6.065
24262SOL    HW174227   7.679   1.795   6.116
24262SOL    HW274228   7.753   1.695   6.029
24263SOL     OW74229   7.673   1.439   6.117
24263SOL    HW174230   7.652   1.533   6.120
24263SOL    HW274231   7.615   1.400   6.181
24264SOL     OW74232   7.714   1.093   6.483
24264SOL    HW174233   7.702   1.004   6.517
24264SOL    HW274234   7.654   1.146   6.536
24265SOL     OW74235   7.574   0.653   6.152
24265SOL    HW174236   7.538   0.566   6.172
24265SOL    HW274237   7.560   0.704   6.232
24266SOL     OW74238   7.499   1.586   5.701
24266SOL    HW174239   7.479   1.495   5.720
24266SOL    HW274240   7.469   1.634   5.778
24267SOL     OW74241   7.552   0.745   7.168
24267SOL    HW174242   7.639   0.785   7.173
24267SOL    HW274243   7.492   0.818   7.157
24268SOL     OW74244   7.634   0.953   6.882
24268SOL    HW174245   7.723   0.918   6.872
24268SOL    HW274246   7.586   0.918   6.807
24269SOL     OW74247   7.759   0.242   7.380
24269SOL    HW174248   7.819   0.310   7.410
24269SOL    HW274249   7.678   0.257   7.428
24270SOL     OW74250   8.006   0.740   5.845
24270SOL    HW174251   8.022   0.835   5.843
24270SOL    HW274252   7.945   0.728   5.918
24271SOL     OW74253   7.534   0.821   6.364
24271SOL    HW174254   7.611   0.818   6.421
24271SOL    HW274255   7.484   0.896   6.395
24272SOL     OW74256   7.571   1.871   7.172
24272SOL    HW174257   7.579   1.849   7.264
24272SOL    HW274258   7.488   1.833   7.145
24273SOL     OW74259   7.972   0.255   6.487
24273SOL    HW174260   7.884   0.246   6.522
24273SOL    HW274261   7.973   0.341   6.445
24274SOL     OW74262   7.820   1.834   6.461
24274SOL    HW174263   7.888   1.773   6.489
24274SOL    HW274264   7.862   1.920   6.464
24275SOL     OW74265   7.743   0.963   5.845
24275SOL    HW174266   7.824   0.983   5.797
24275SOL    HW274267   7.722   0.874   5.819
24276SOL     OW74268   7.953   1.240   7.327
24276SOL    HW174269   7.914   1.247   7.240
24276SOL    HW274270   7.883   1.262   7.388
24277SOL     OW74271   7.627   0.251   7.090
24277SOL    HW174272   7.559   0.314   7.066
24277SOL    HW274273   7.628   0.253   7.186
24278SOL     OW74274   7.702   1.789   6.813
24278SOL    HW174275   7.749   1.715   6.852
24278SOL    HW274276   7.687   1.762   6.722
24279SOL     OW74277   7.828   0.693   6.044
24279SOL    HW174278   7.869   0.621   6.093
24279SOL    HW274279   7.736   0.689   6.071
24280SOL     OW74280   0.047   0.064   5.693
24280SOL    HW174281   0.137   0.053   5.723
24280SOL    HW274282   0.050   0.143   5.638
24281SOL     OW74283   7.746   0.049   5.778
24281SOL    HW174284   7.778   0.088   5.697
24281SOL    HW274285   7.823   0.011   5.819
24282SOL     OW74286   7.923   1.107   6.314
24282SOL    HW174287   7.852   1.101   6.378
24282SOL    HW274288   7.880   1.105   6.229
24283SOL     OW74289   7.552   0.551   6.979
24283SOL    HW174290   7.643   0.559   6.951
24283SOL    HW274291   7.540   0.620   7.044
24284SOL     OW74292   7.881   0.830   6.861
24284SOL    HW174293   7.974   0.831   6.884
24284SOL    HW274294   7.856   0.738   6.868
24285SOL     OW74295   7.522   1.573   6.946
24285SOL    HW174296   7.497   1.646   6.889
24285SOL    HW274297   7.617   1.568   6.937
24286SOL     OW74298   7.795   1.118   6.071
24286SOL    HW174299   7.777   1.198   6.022
24286SOL    HW274300   7.775   1.047   6.010
24287SOL     OW74301  -0.017   0.548   6.458
24287SOL    HW174302   0.020   0.625   6.414
24287SOL    HW274303   0.023   0.549   6.545
24288SOL     OW74304   7.787   1.529   6.894
24288SOL    HW174305   7.784   1.487   6.808
24288SOL    HW274306   7.879   1.551   6.908
24289SOL     OW74307   7.841   0.742   7.191
24289SOL    HW174308   7.907   0.795   7.146
24289SOL    HW274309   7.870   0.652   7.177
24290SOL     OW74310   7.951   0.087   7.247
24290SOL    HW174311   7.905   0.011   7.212
24290SOL    HW274312   7.885   0.134   7.298
24291SOL     OW74313   7.987   0.922   6.621
24291SOL    HW174314   8.005   1.016   6.616
24291SOL    HW274315   7.942   0.911   6.705
24292SOL     OW74316   7.748   0.218   6.819
24292SOL    HW174317   7.699   0.218   6.901
24292SOL    HW274318   7.764   0.126   6.800
24293SOL     OW74319   7.494   1.313   6.865
24293SOL    HW174320   7.526   1.258   6.936
24293SOL    HW274321   7.499   1.402   6.898
24294SOL     OW74322   7.834   0.049   6.276
24294SOL    HW174323   7.797   0.137   6.263
24294SOL    HW274324   7.763  -0.010   6.252
24295SOL     OW74325   7.808   0.922   7.404
24295SOL    HW174326   7.893   0.963   7.391
24295SOL    HW274327   7.810   0.844   7.350
24296SOL     OW74328   7.741   0.819   6.545
24296SOL    HW174329   7.833   0.844   6.553
24296SOL    HW274330   7.740   0.726   6.568
24297SOL     OW74331   7.749   0.544   6.591
24297SOL    HW174332   7.720   0.454   6.578
24297SOL    HW274333   7.829   0.551   6.539
24298SOL     OW74334   7.462   1.311   5.775
24298SOL    HW174335   7.375   1.331   5.741
24298SOL    HW274336   7.454   1.223   5.812
24299SOL     OW74337   7.549   1.776   6.533
24299SOL    HW174338   7.516   1.701   6.483
24299SOL    HW274339   7.636   1.793   6.497
24300SOL     OW74340   7.487   0.553   6.706
24300SOL    HW174341   7.568   0.562   6.656
24300SOL    HW274342   7.516   0.547   6.797
24301SOL     OW74343   7.633   0.525   7.316
24301SOL    HW174344   7.708   0.503   7.261
24301SOL    HW274345   7.590   0.597   7.271
24302SOL     OW74346   0.215   0.509   5.882
24302SOL    HW174347   0.178   0.422   5.897
24302SOL    HW274348   0.186   0.561   5.956
24303SOL     OW74349   7.687   1.549   7.297
24303SOL    HW174350   7.672   1.615   7.364
24303SOL    HW274351   7.706   1.469   7.346
24304SOL     OW74352   7.909   0.505   5.727
24304SOL    HW174353   7.959   0.575   5.769
24304SOL    HW274354   7.818   0.534   5.733
24305SOL     OW74355   7.579   1.143   7.067
24305SOL    HW174356   7.581   1.099   7.152
24305SOL    HW274357   7.597   1.074   7.004
24306SOL     OW74358   7.538   1.260   6.606
24306SOL    HW174359   7.516   1.277   6.698
24306SOL    HW274360   7.459   1.219   6.570
24307SOL     OW74361   7.597   1.792   7.429
24307SOL    HW174362   7.548   1.724   7.475
24307SOL    HW274363   7.644   1.838   7.499
24308SOL     OW74364   7.731   0.310   6.286
24308SOL    HW174365   7.650   0.346   6.251
24308SOL    HW274366   7.718   0.309   6.381
24309SOL     OW74367   7.816   1.291   7.099
24309SOL    HW174368   7.814   1.367   7.041
24309SOL    HW274369   7.733   1.245   7.081
24310SOL     OW74370  -0.007   1.565   5.996
24310SOL    HW174371  -0.005   1.495   6.062
24310SOL    HW274372   0.055   1.630   6.029
24311SOL     OW74373   7.717   1.333   5.873
24311SOL    HW174374   7.625   1.329   5.847
24311SOL    HW274375   7.716   1.383   5.955
24312SOL     OW74376   7.565   1.036   7.319
24312SOL    HW174377   7.487   1.010   7.368
24312SOL    HW274378   7.637   0.993   7.364
24313SOL     OW74379   7.517   0.327   5.621
24313SOL    HW174380   7.422   0.324   5.627
24313SOL    HW274381   7.536   0.404   5.567
24314SOL     OW74382   7.529   0.200   5.882
24314SOL    HW174383   7.526   0.259   5.806
24314SOL    HW274384   7.603   0.142   5.864
24315SOL     OW74385   7.830   1.758   7.153
24315SOL    HW174386   7.745   1.798   7.134
24315SOL    HW274387   7.809   1.670   7.184
24316SOL     OW74388   7.701   1.302   7.437
24316SOL    HW174389   7.638   1.241   7.399
24316SOL    HW274390   7.670   1.316   7.527
24317SOL     OW74391   7.539   1.229   6.259
24317SOL    HW174392   7.540   1.182   6.342
24317SOL    HW274393   7.605   1.184   6.206
24318SOL     OW74394   0.100   1.442   7.134
24318SOL    HW174395   0.051   1.381   7.190
24318SOL    HW274396   0.174   1.470   7.188
24319SOL     OW74397   7.803   0.568   6.877
24319SOL    HW174398   7.850   0.503   6.929
24319SOL    HW274399   7.812   0.536   6.787
24320SOL     OW74400   7.485   1.060   5.898
24320SOL    HW174401   7.576   1.048   5.873
24320SOL    HW274402   7.455   0.972   5.923
24321SOL     OW74403   7.655   0.617   7.581
24321SOL    HW174404   7.566   0.613   7.617
24321SOL    HW274405   7.643   0.596   7.488
24322SOL     OW74406   7.696   0.283   8.425
24322SOL    HW174407   7.718   0.261   8.516
24322SOL    HW274408   7.607   0.250   8.413
24323SOL     OW74409   7.467   0.400   8.080
24323SOL    HW174410   7.380   0.414   8.117
24323SOL    HW274411   7.457   0.324   8.023
24324SOL     OW74412   7.756   1.435   8.499
24324SOL    HW174413   7.681   1.375   8.489
24324SOL    HW274414   7.780   1.458   8.410
24325SOL     OW74415   7.841   0.419   8.958
24325SOL    HW174416   7.936   0.405   8.959
24325SOL    HW274417   7.804   0.331   8.946
24326SOL     OW74418   7.666   1.713   7.923
24326SOL    HW174419   7.680   1.793   7.974
24326SOL    HW274420   7.746   1.702   7.872
24327SOL     OW74421   7.668   1.444   7.985
24327SOL    HW174422   7.660   1.539   7.976
24327SOL    HW274423   7.605   1.421   8.054
24328SOL     OW74424   7.706   1.092   8.334
24328SOL    HW174425   7.699   1.004   8.370
24328SOL    HW274426   7.651   1.146   8.392
24329SOL     OW74427   7.572   0.653   8.016
24329SOL    HW174428   7.537   0.565   8.035
24329SOL    HW274429   7.557   0.702   8.097
24330SOL     OW74430   7.497   1.586   7.568
24330SOL    HW174431   7.478   1.494   7.589
24330SOL    HW274432   7.466   1.634   7.645
24331SOL     OW74433   7.567   0.729   9.069
24331SOL    HW174434   7.651   0.775   9.069
24331SOL    HW274435   7.501   0.798   9.063
24332SOL     OW74436   7.633   0.946   8.748
24332SOL    HW174437   7.721   0.909   8.746
24332SOL    HW274438   7.597   0.925   8.661
24333SOL     OW74439   7.732   0.331   9.231
24333SOL    HW174440   7.806   0.331   9.291
24333SOL    HW274441   7.656   0.317   9.287
24334SOL     OW74442   8.003   0.735   7.713
24334SOL    HW174443   8.021   0.828   7.696
24334SOL    HW274444   7.943   0.735   7.787
24335SOL     OW74445   7.529   0.813   8.232
24335SOL    HW174446   7.609   0.816   8.285
24335SOL    HW274447   7.478   0.888   8.262
24336SOL     OW74448   7.569   1.872   9.034
24336SOL    HW174449   7.578   1.849   9.126
24336SOL    HW274450   7.484   1.835   9.008
24337SOL     OW74451   7.978   0.253   8.354
24337SOL    HW174452   7.888   0.245   8.387
24337SOL    HW274453   7.978   0.334   8.303
24338SOL     OW74454   7.813   1.834   8.320
24338SOL    HW174455   7.883   1.770   8.335
24338SOL    HW274456   7.858   1.919   8.326
24339SOL     OW74457   7.741   0.963   7.703
24339SOL    HW174458   7.811   0.989   7.644
24339SOL    HW274459   7.721   0.873   7.679
24340SOL     OW74460   7.950   1.235   9.192
24340SOL    HW174461   7.913   1.243   9.104
24340SOL    HW274462   7.879   1.262   9.250
24341SOL     OW74463   7.620   0.240   8.949
24341SOL    HW174464   7.532   0.276   8.943
24341SOL    HW274465   7.622   0.194   9.033
24342SOL     OW74466   7.698   1.787   8.674
24342SOL    HW174467   7.748   1.713   8.709
24342SOL    HW274468   7.686   1.765   8.582
24343SOL     OW74469   7.826   0.699   7.917
24343SOL    HW174470   7.863   0.614   7.942
24343SOL    HW274471   7.735   0.694   7.943
24344SOL     OW74472   0.030   0.090   7.569
24344SOL    HW174473   0.119   0.057   7.583
24344SOL    HW274474   0.041   0.160   7.505
24345SOL     OW74475   7.751   0.051   7.654
24345SOL    HW174476   7.802   0.098   7.588
24345SOL    HW274477   7.811  -0.015   7.689
24346SOL     OW74478   7.925   1.090   8.174
24346SOL    HW174479   7.852   1.092   8.235
24346SOL    HW274480   7.884   1.094   8.087
24347SOL     OW74481   7.558   0.548   8.861
24347SOL    HW174482   7.639   0.561   8.812
24347SOL    HW274483   7.539   0.634   8.899
24348SOL     OW74484   7.882   0.822   8.761
24348SOL    HW174485   7.977   0.828   8.751
24348SOL    HW274486   7.861   0.732   8.735
24349SOL     OW74487   7.523   1.572   8.806
24349SOL    HW174488   7.499   1.647   8.751
24349SOL    HW274489   7.618   1.567   8.798
24350SOL     OW74490   7.798   1.116   7.930
24350SOL    HW174491   7.783   1.195   7.879
24350SOL    HW274492   7.779   1.044   7.870
24351SOL     OW74493  -0.013   0.553   8.315
24351SOL    HW174494   0.022   0.632   8.273
24351SOL    HW274495   0.026   0.555   8.403
24352SOL     OW74496   7.788   1.527   8.756
24352SOL    HW174497   7.787   1.485   8.670
24352SOL    HW274498   7.880   1.550   8.770
24353SOL     OW74499   7.849   0.741   9.042
24353SOL    HW174500   7.855   0.784   8.957
24353SOL    HW274501   7.937   0.706   9.057
24354SOL     OW74502   7.935   0.066   9.145
24354SOL    HW174503   7.914  -0.011   9.091
24354SOL    HW274504   7.850   0.104   9.166
24355SOL     OW74505   7.986   0.929   8.498
24355SOL    HW174506   8.010   1.019   8.478
24355SOL    HW274507   7.931   0.935   8.576
24356SOL     OW74508   7.749   0.218   8.682
24356SOL    HW174509   7.697   0.215   8.763
24356SOL    HW274510   7.762   0.126   8.659
24357SOL     OW74511   7.486   1.312   8.730
24357SOL    HW174512   7.523   1.259   8.801
24357SOL    HW274513   7.496   1.402   8.760
24358SOL     OW74514   7.830   0.052   8.141
24358SOL    HW174515   7.791   0.139   8.131
24358SOL    HW274516   7.755  -0.008   8.138
24359SOL     OW74517   7.794   0.903   9.262
24359SOL    HW174518   7.868   0.963   9.266
24359SOL    HW274519   7.820   0.836   9.199
24360SOL     OW74520   7.743   0.822   8.409
24360SOL    HW174521   7.836   0.844   8.411
24360SOL    HW274522   7.741   0.727   8.424
24361SOL     OW74523   7.750   0.545   8.439
24361SOL    HW174524   7.724   0.454   8.430
24361SOL    HW274525   7.831   0.552   8.387
24362SOL     OW74526   7.465   1.311   7.640
24362SOL    HW174527   7.379   1.332   7.605
24362SOL    HW274528   7.457   1.223   7.676
24363SOL     OW74529   7.550   1.775   8.397
24363SOL    HW174530   7.518   1.701   8.346
24363SOL    HW274531   7.635   1.796   8.360
24364SOL     OW74532   7.489   0.555   8.563
24364SOL    HW174533   7.553   0.564   8.492
24364SOL    HW274534   7.541   0.529   8.639
24365SOL     OW74535   0.213   0.509   7.742
24365SOL    HW174536   0.176   0.422   7.757
24365SOL    HW274537   0.183   0.562   7.816
24366SOL     OW74538   7.686   1.550   9.158
24366SOL    HW174539   7.672   1.619   9.222
24366SOL    HW274540   7.709   1.473   9.211
24367SOL     OW74541   7.910   0.505   7.590
24367SOL    HW174542   7.960   0.575   7.632
24367SOL    HW274543   7.819   0.534   7.594
24368SOL     OW74544   7.576   1.140   8.929
24368SOL    HW174545   7.578   1.095   9.014
24368SOL    HW274546   7.594   1.071   8.866
24369SOL     OW74547   7.541   1.257   8.473
24369SOL    HW174548   7.515   1.274   8.564
24369SOL    HW274549   7.461   1.224   8.432
24370SOL     OW74550   7.599   1.789   9.291
24370SOL    HW174551   7.549   1.721   9.338
24370SOL    HW274552   7.645   1.836   9.359
24371SOL     OW74553   7.733   0.316   8.150
24371SOL    HW174554   7.650   0.347   8.115
24371SOL    HW274555   7.718   0.306   8.244
24372SOL     OW74556   7.815   1.288   8.963
24372SOL    HW174557   7.816   1.364   8.905
24372SOL    HW274558   7.731   1.245   8.943
24373SOL     OW74559  -0.012   1.570   7.862
24373SOL    HW174560   0.003   1.492   7.916
24373SOL    HW274561   0.054   1.632   7.892
24374SOL     OW74562   7.720   1.327   7.749
24374SOL    HW174563   7.630   1.327   7.716
24374SOL    HW274564   7.717   1.380   7.828
24375SOL     OW74565   7.559   1.023   9.175
24375SOL    HW174566   7.483   1.004   9.230
24375SOL    HW274567   7.633   0.985   9.223
24376SOL     OW74568   7.520   0.327   7.484
24376SOL    HW174569   7.425   0.319   7.481
24376SOL    HW274570   7.540   0.403   7.430
24377SOL     OW74571   7.555   0.191   7.788
24377SOL    HW174572   7.521   0.249   7.720
24377SOL    HW274573   7.621   0.138   7.744
24378SOL     OW74574   7.829   1.759   9.014
24378SOL    HW174575   7.744   1.799   8.994
24378SOL    HW274576   7.807   1.670   9.043
24379SOL     OW74577   7.706   1.307   9.307
24379SOL    HW174578   7.627   1.261   9.276
24379SOL    HW274579   7.689   1.322   9.400
24380SOL     OW74580   7.531   1.220   8.120
24380SOL    HW174581   7.565   1.173   8.196
24380SOL    HW274582   7.595   1.201   8.051
24381SOL     OW74583   0.099   1.439   8.999
24381SOL    HW174584   0.050   1.381   9.057
24381SOL    HW274585   0.174   1.468   9.051
24382SOL     OW74586   7.785   0.568   8.717
24382SOL    HW174587   7.833   0.499   8.762
24382SOL    HW274588   7.796   0.548   8.624
24383SOL     OW74589   7.483   1.061   7.766
24383SOL    HW174590   7.574   1.051   7.738
24383SOL    HW274591   7.454   0.972   7.788
24384SOL     OW74592   7.644   0.623   9.422
24384SOL    HW174593   7.569   0.606   9.479
24384SOL    HW274594   7.626   0.709   9.384
24385SOL     OW74595   7.696   0.283  10.283
24385SOL    HW174596   7.717   0.260  10.374
24385SOL    HW274597   7.610   0.244  10.268
24386SOL     OW74598   7.472   0.396   9.938
24386SOL    HW174599   7.382   0.404   9.967
24386SOL    HW274600   7.472   0.320   9.879
24387SOL     OW74601   7.756   1.435  10.362
24387SOL    HW174602   7.681   1.376  10.353
24387SOL    HW274603   7.779   1.458  10.272
24388SOL     OW74604   7.850   0.408  10.851
24388SOL    HW174605   7.932   0.359  10.840
24388SOL    HW274606   7.781   0.346  10.828
24389SOL     OW74607   7.665   1.713   9.785
24389SOL    HW174608   7.680   1.793   9.836
24389SOL    HW274609   7.743   1.704   9.731
24390SOL     OW74610   7.671   1.444   9.845
24390SOL    HW174611   7.662   1.539   9.838
24390SOL    HW274612   7.608   1.418   9.912
24391SOL     OW74613   7.713   1.093  10.205
24391SOL    HW174614   7.702   1.004  10.239
24391SOL    HW274615   7.655   1.147  10.259
24392SOL     OW74616   7.572   0.653   9.878
24392SOL    HW174617   7.538   0.565   9.897
24392SOL    HW274618   7.558   0.702   9.959
24393SOL     OW74619   7.497   1.585   9.433
24393SOL    HW174620   7.476   1.494   9.453
24393SOL    HW274621   7.465   1.634   9.508
24394SOL     OW74622   7.550   0.742  10.892
24394SOL    HW174623   7.635   0.784  10.901
24394SOL    HW274624   7.488   0.814  10.880
24395SOL     OW74625   7.634   0.955  10.608
24395SOL    HW174626   7.721   0.915  10.603
24395SOL    HW274627   7.588   0.922  10.531
24396SOL     OW74628   7.771   0.237  11.129
24396SOL    HW174629   7.818   0.319  11.138
24396SOL    HW274630   7.682   0.255  11.161
24397SOL     OW74631   7.993   0.736   9.566
24397SOL    HW174632   8.027   0.825   9.565
24397SOL    HW274633   7.939   0.731   9.645
24398SOL     OW74634   7.533   0.817  10.092
24398SOL    HW174635   7.612   0.817  10.147
24398SOL    HW274636   7.482   0.892  10.123
24399SOL     OW74637   7.569   1.872  10.896
24399SOL    HW174638   7.578   1.850  10.989
24399SOL    HW274639   7.485   1.834  10.870
24400SOL     OW74640   7.977   0.260  10.208
24400SOL    HW174641   7.888   0.247  10.241
24400SOL    HW274642   7.973   0.341  10.158
24401SOL     OW74643   7.811   1.834  10.182
24401SOL    HW174644   7.880   1.768  10.189
24401SOL    HW274645   7.857   1.917  10.189
24402SOL     OW74646   7.753   0.971   9.572
24402SOL    HW174647   7.841   0.995   9.543
24402SOL    HW274648   7.743   0.879   9.546
24403SOL     OW74649   7.925   1.199  11.057
24403SOL    HW174650   7.900   1.227  10.969
24403SOL    HW274651   7.861   1.242  11.114
24404SOL     OW74652   7.621   0.258  10.808
24404SOL    HW174653   7.561   0.326  10.777
24404SOL    HW274654   7.602   0.250  10.901
24405SOL     OW74655   7.700   1.786  10.536
24405SOL    HW174656   7.748   1.710  10.568
24405SOL    HW274657   7.683   1.767  10.443
24406SOL     OW74658   7.824   0.698   9.774
24406SOL    HW174659   7.867   0.623   9.813
24406SOL    HW274660   7.733   0.691   9.803
24407SOL     OW74661   0.020   0.085   9.435
24407SOL    HW174662   0.110   0.058   9.452
24407SOL    HW274663   0.021   0.117   9.345
24408SOL     OW74664   7.758   0.059   9.510
24408SOL    HW174665   7.847   0.082   9.484
24408SOL    HW274666   7.764  -0.032   9.540
24409SOL     OW74667   7.927   1.087  10.038
24409SOL    HW174668   7.855   1.090  10.102
24409SOL    HW274669   7.883   1.095   9.953
24410SOL     OW74670   7.553   0.547  10.704
24410SOL    HW174671   7.643   0.556  10.675
24410SOL    HW274672   7.541   0.616  10.769
24411SOL     OW74673   7.880   0.827  10.606
24411SOL    HW174674   7.976   0.829  10.606
24411SOL    HW274675   7.858   0.734  10.596
24412SOL     OW74676   7.526   1.571  10.669
24412SOL    HW174677   7.497   1.643  10.613
24412SOL    HW274678   7.621   1.569  10.659
24413SOL     OW74679   7.794   1.123   9.800
24413SOL    HW174680   7.781   1.204   9.750
24413SOL    HW274681   7.775   1.053   9.738
24414SOL     OW74682  -0.019   0.561  10.183
24414SOL    HW174683   0.019   0.637  10.140
24414SOL    HW274684   0.023   0.559  10.270
24415SOL     OW74685   7.796   1.530  10.617
24415SOL    HW174686   7.793   1.487  10.532
24415SOL    HW274687   7.890   1.545  10.633
24416SOL     OW74688   7.835   0.759  10.911
24416SOL    HW174689   7.870   0.806  10.835
24416SOL    HW274690   7.873   0.671  10.904
24417SOL     OW74691   7.946   0.073  10.980
24417SOL    HW174692   7.886  -0.000  10.968
24417SOL    HW274693   7.895   0.138  11.030
24418SOL     OW74694   7.990   0.926  10.355
24418SOL    HW174695   8.009   1.019  10.340
24418SOL    HW274696   7.932   0.926  10.432
24419SOL     OW74697   7.745   0.218  10.542
24419SOL    HW174698   7.696   0.214  10.624
24419SOL    HW274699   7.761   0.126  10.520
24420SOL     OW74700   7.487   1.311  10.593
24420SOL    HW174701   7.525   1.258  10.663
24420SOL    HW274702   7.496   1.401  10.622
24421SOL     OW74703   7.827   0.060  10.002
24421SOL    HW174704   7.792   0.147   9.983
24421SOL    HW274705   7.765  -0.000   9.961
24422SOL     OW74706   7.809   0.929  11.135
24422SOL    HW174707   7.872   0.996  11.106
24422SOL    HW274708   7.820   0.857  11.073
24423SOL     OW74709   7.744   0.819  10.269
24423SOL    HW174710   7.838   0.841  10.269
24423SOL    HW274711   7.741   0.726  10.291
24424SOL     OW74712   7.749   0.544  10.316
24424SOL    HW174713   7.721   0.453  10.302
24424SOL    HW274714   7.828   0.553  10.264
24425SOL     OW74715   7.463   1.311   9.502
24425SOL    HW174716   7.376   1.331   9.468
24425SOL    HW274717   7.455   1.222   9.538
24426SOL     OW74718   7.550   1.775  10.262
24426SOL    HW174719   7.517   1.702  10.209
24426SOL    HW274720   7.635   1.796  10.223
24427SOL     OW74721   7.486   0.552  10.430
24427SOL    HW174722   7.566   0.560  10.377
24427SOL    HW274723   7.517   0.545  10.520
24428SOL     OW74724   7.641   0.522  11.040
24428SOL    HW174725   7.711   0.498  10.980
24428SOL    HW274726   7.595   0.594  10.996
24429SOL     OW74727   0.211   0.512   9.608
24429SOL    HW174728   0.174   0.424   9.620
24429SOL    HW274729   0.180   0.561   9.683
24430SOL     OW74730   7.689   1.551  11.022
24430SOL    HW174731   7.671   1.618  11.088
24430SOL    HW274732   7.705   1.471  11.073
24431SOL     OW74733   7.900   0.508   9.441
24431SOL    HW174734   7.946   0.578   9.486
24431SOL    HW274735   7.808   0.535   9.442
24432SOL     OW74736   7.586   1.146  10.794
24432SOL    HW174737   7.584   1.100  10.878
24432SOL    HW274738   7.601   1.077  10.730
24433SOL     OW74739   7.540   1.258  10.334
24433SOL    HW174740   7.513   1.275  10.425
24433SOL    HW274741   7.462   1.219  10.293
24434SOL     OW74742   7.598   1.789  11.153
24434SOL    HW174743   7.548   1.722  11.200
24434SOL    HW274744   7.645   1.837  11.222
24435SOL     OW74745   7.737   0.325  10.009
24435SOL    HW174746   7.654   0.356   9.973
24435SOL    HW274747   7.721   0.317  10.103
24436SOL     OW74748   7.821   1.305  10.823
24436SOL    HW174749   7.811   1.376  10.760
24436SOL    HW274750   7.742   1.252  10.812
24437SOL     OW74751  -0.011   1.568   9.725
24437SOL    HW174752   0.007   1.491   9.779
24437SOL    HW274753   0.053   1.633   9.753
24438SOL     OW74754   7.718   1.331   9.605
24438SOL    HW174755   7.627   1.328   9.577
24438SOL    HW274756   7.717   1.384   9.685
24439SOL     OW74757   7.563   1.034  11.043
24439SOL    HW174758   7.484   1.009  11.090
24439SOL    HW274759   7.634   0.991  11.091
24440SOL     OW74760   7.486   0.339   9.343
24440SOL    HW174761   7.418   0.282   9.378
24440SOL    HW274762   7.453   0.428   9.360
24441SOL     OW74763   7.548   0.210   9.633
24441SOL    HW174764   7.481   0.156   9.591
24441SOL    HW274765   7.631   0.177   9.596
24442SOL     OW74766   7.826   1.753  10.877
24442SOL    HW174767   7.745   1.799  10.854
24442SOL    HW274768   7.797   1.670  10.915
24443SOL     OW74769   7.690   1.305  11.162
24443SOL    HW174770   7.624   1.247  11.126
24443SOL    HW274771   7.662   1.322  11.252
24444SOL     OW74772   7.535   1.226   9.983
24444SOL    HW174773   7.554   1.174  10.062
24444SOL    HW274774   7.603   1.200   9.921
24445SOL     OW74775   0.098   1.426  10.926
24445SOL    HW174776   0.016   1.381  10.906
24445SOL    HW274777   0.084   1.515  10.895
24446SOL     OW74778   7.801   0.564  10.595
24446SOL    HW174779   7.850   0.493  10.637
24446SOL    HW274780   7.804   0.543  10.502
24447SOL     OW74781   7.487   1.060   9.624
24447SOL    HW174782   7.579   1.050   9.599
24447SOL    HW274783   7.459   0.972   9.648
24448SOL     OW74784   7.657   0.615  11.309
24448SOL    HW174785   7.569   0.608  11.346
24448SOL    HW274786   7.645   0.596  11.216
24449SOL     OW74787   7.695   0.280  12.148
24449SOL    HW174788   7.717   0.249  12.236
24449SOL    HW274789   7.614   0.233  12.126
24450SOL     OW74790   7.472   0.402  11.796
24450SOL    HW174791   7.384   0.411  11.831
24450SOL    HW274792   7.468   0.325  11.739
24451SOL     OW74793   7.779   1.415  12.215
24451SOL    HW174794   7.698   1.364  12.213
24451SOL    HW274795   7.783   1.457  12.129
24452SOL     OW74796   7.665   1.714  11.647
24452SOL    HW174797   7.680   1.792  11.699
24452SOL    HW274798   7.746   1.703  11.597
24453SOL     OW74799   7.670   1.443  11.709
24453SOL    HW174800   7.659   1.538  11.704
24453SOL    HW274801   7.607   1.414  11.775
24454SOL     OW74802   7.711   1.094  12.067
24454SOL    HW174803   7.701   1.008  12.109
24454SOL    HW274804   7.658   1.153  12.120
24455SOL     OW74805   7.586   0.657  11.740
24455SOL    HW174806   7.546   0.571  11.758
24455SOL    HW274807   7.565   0.710  11.817
24456SOL     OW74808   7.495   1.585  11.293
24456SOL    HW174809   7.476   1.494  11.315
24456SOL    HW274810   7.466   1.634  11.370
24457SOL     OW74811   7.598   0.742   0.209
24457SOL    HW174812   7.588   0.740   0.304
24457SOL    HW274813   7.527   0.799   0.179
24458SOL     OW74814   7.642   0.976  12.383
24458SOL    HW174815   7.717   0.921  12.406
24458SOL    HW274816   7.572   0.946  12.440
24459SOL     OW74817   8.005   0.757  11.419
24459SOL    HW174818   8.014   0.852  11.413
24459SOL    HW274819   7.954   0.742  11.498
24460SOL     OW74820   7.533   0.832  11.944
24460SOL    HW174821   7.614   0.824  11.995
24460SOL    HW274822   7.485   0.904  11.986
24461SOL     OW74823   7.983   0.247  12.068
24461SOL    HW174824   7.905   0.220  12.116
24461SOL    HW274825   7.955   0.324  12.018
24462SOL     OW74826   7.816   1.830  12.044
24462SOL    HW174827   7.878   1.769  12.084
24462SOL    HW274828   7.863   1.914  12.042
24463SOL     OW74829   7.742   0.950  11.421
24463SOL    HW174830   7.797   0.973  11.347
24463SOL    HW274831   7.707   0.863  11.398
24464SOL     OW74832   7.673   1.799  12.399
24464SOL    HW174833   7.714   1.717  12.429
24464SOL    HW274834   7.637   1.778  12.313
24465SOL     OW74835   7.856   0.645  11.656
24465SOL    HW174836   7.831   0.569  11.604
24465SOL    HW274837   7.773   0.678  11.692
24466SOL     OW74838   0.055   0.059  11.276
24466SOL    HW174839   0.145   0.058  11.309
24466SOL    HW274840   0.049   0.140  11.225
24467SOL     OW74841   7.738   0.046  11.356
24467SOL    HW174842   7.776   0.095  11.282
24467SOL    HW274843   7.813   0.003  11.397
24468SOL     OW74844   7.924   1.081  11.896
24468SOL    HW174845   7.852   1.086  11.959
24468SOL    HW274846   7.882   1.088  11.810
24469SOL     OW74847   7.860   0.799  12.443
24469SOL    HW174848   7.891   0.810  12.533
24469SOL    HW274849   7.813   0.715  12.444
24470SOL     OW74850   7.815   1.108  11.642
24470SOL    HW174851   7.789   1.191  11.601
24470SOL    HW274852   7.789   1.041  11.578
24471SOL     OW74853   0.001   0.564  12.038
24471SOL    HW174854   0.028   0.655  12.028
24471SOL    HW274855   0.033   0.539  12.124
24472SOL     OW74856   7.791   1.563  12.461
24472SOL    HW174857   7.791   1.499  12.390
24472SOL    HW274858   7.876   1.552  12.503
24473SOL     OW74859   7.900   0.758   0.212
24473SOL    HW174860   7.993   0.761   0.237
24473SOL    HW274861   7.855   0.732   0.293
24474SOL     OW74862   7.996   0.902  12.225
24474SOL    HW174863   7.999   0.998  12.219
24474SOL    HW274864   7.947   0.884  12.305
24475SOL     OW74865   7.756   0.218  12.404
24475SOL    HW174866   7.738   0.280  12.475
24475SOL    HW274867   7.785   0.139  12.448
24476SOL     OW74868   7.519   1.335  12.440
24476SOL    HW174869   7.544   1.261  12.496
24476SOL    HW274870   7.518   1.411  12.498
24477SOL     OW74871   7.826   0.059  11.863
24477SOL    HW174872   7.768   0.132  11.842
24477SOL    HW274873   7.770  -0.019  11.856
24478SOL     OW74874   7.755   0.812  12.103
24478SOL    HW174875   7.842   0.839  12.134
24478SOL    HW274876   7.744   0.724  12.138
24479SOL     OW74877   7.750   0.543  12.162
24479SOL    HW174878   7.730   0.450  12.161
24479SOL    HW274879   7.834   0.551  12.116
24480SOL     OW74880   7.465   1.310  11.362
24480SOL    HW174881   7.379   1.331  11.328
24480SOL    HW274882   7.456   1.223  11.400
24481SOL     OW74883   7.552   1.782  12.123
24481SOL    HW174884   7.520   1.706  12.074
24481SOL    HW274885   7.639   1.798  12.087
24482SOL     OW74886   7.515   0.543  12.317
24482SOL    HW174887   7.588   0.552  12.255
24482SOL    HW274888   7.501   0.449  12.324
24483SOL     OW74889   0.164   0.554  11.580
24483SOL    HW174890   0.168   0.459  11.569
24483SOL    HW274891   0.172   0.589  11.492
24484SOL     OW74892   7.909   0.509  11.322
24484SOL    HW174893   7.954   0.587  11.353
24484SOL    HW274894   7.817   0.533  11.320
24485SOL     OW74895   7.537   1.273  12.181
24485SOL    HW174896   7.523   1.296  12.272
24485SOL    HW274897   7.464   1.215  12.159
24486SOL     OW74898   7.734   0.341  11.880
24486SOL    HW174899   7.648   0.364  11.844
24486SOL    HW274900   7.717   0.319  11.972
24487SOL     OW74901  -0.008   1.561  11.585
24487SOL    HW174902  -0.001   1.491  11.650
24487SOL    HW274903   0.053   1.628  11.616
24488SOL     OW74904   7.720   1.323  11.474
24488SOL    HW174905   7.630   1.323  11.442
24488SOL    HW274906   7.718   1.377  11.553
24489SOL     OW74907   7.520   0.326  11.205
24489SOL    HW174908   7.424   0.322  11.207
24489SOL    HW274909   7.539   0.401  11.149
24490SOL     OW74910   7.544   0.218  11.474
24490SOL    HW174911   7.530   0.265  11.392
24490SOL    HW274912   7.607   0.150  11.453
24491SOL     OW74913   7.766   1.720   0.245
24491SOL    HW174914   7.733   1.693   0.159
24491SOL    HW274915   7.847   1.670   0.256
24492SOL     OW74916   7.528   1.228  11.849
24492SOL    HW174917   7.536   1.185  11.934
24492SOL    HW274918   7.602   1.194  11.798
24493SOL     OW74919   7.485   1.060  11.486
24493SOL    HW174920   7.577   1.049  11.461
24493SOL    HW274921   7.457   0.972  11.509
24494SOL     OW74922   7.644   2.381   0.052
24494SOL    HW174923   7.627   2.451   0.114
24494SOL    HW274924   7.682   2.424  -0.024
24495SOL     OW74925   7.672   2.144   0.993
24495SOL    HW174926   7.698   2.111   1.079
24495SOL    HW274927   7.583   2.112   0.980
24496SOL     OW74928   7.445   2.244   0.645
24496SOL    HW174929   7.368   2.272   0.696
24496SOL    HW274930   7.417   2.165   0.601
24497SOL     OW74931   7.749   3.307   1.051
24497SOL    HW174932   7.674   3.249   1.040
24497SOL    HW274933   7.792   3.308   0.966
24498SOL     OW74934   7.855   2.272   1.527
24498SOL    HW174935   7.931   2.213   1.532
24498SOL    HW274936   7.780   2.213   1.518
24499SOL     OW74937   7.647   3.581   0.489
24499SOL    HW174938   7.679   3.656   0.540
24499SOL    HW274939   7.701   3.580   0.411
24500SOL     OW74940   7.660   3.307   0.532
24500SOL    HW174941   7.651   3.403   0.535
24500SOL    HW274942   7.603   3.276   0.603
24501SOL     OW74943   7.708   2.953   0.897
24501SOL    HW174944   7.698   2.864   0.932
24501SOL    HW274945   7.651   3.007   0.951
24502SOL     OW74946   7.558   2.497   0.575
24502SOL    HW174947   7.519   2.413   0.601
24502SOL    HW274948   7.550   2.552   0.652
24503SOL     OW74949   7.479   3.392   0.133
24503SOL    HW174950   7.391   3.353   0.125
24503SOL    HW274951   7.467   3.467   0.191
24504SOL     OW74952   7.560   2.606   1.581
24504SOL    HW174953   7.649   2.641   1.583
24504SOL    HW274954   7.504   2.683   1.581
24505SOL     OW74955   7.638   2.817   1.289
24505SOL    HW174956   7.726   2.779   1.281
24505SOL    HW274957   7.585   2.770   1.225
24506SOL     OW74958   7.761   2.122   1.853
24506SOL    HW174959   7.806   2.201   1.880
24506SOL    HW274960   7.668   2.143   1.864
24507SOL     OW74961   7.534   2.677   0.778
24507SOL    HW174962   7.611   2.674   0.835
24507SOL    HW274963   7.483   2.752   0.809
24508SOL     OW74964   7.571   3.731   1.586
24508SOL    HW174965   7.580   3.711   1.679
24508SOL    HW274966   7.488   3.690   1.561
24509SOL     OW74967   7.961   2.074   0.881
24509SOL    HW174968   7.962   2.069   0.977
24509SOL    HW274969   7.957   2.168   0.862
24510SOL     OW74970   7.819   3.698   0.870
24510SOL    HW174971   7.887   3.636   0.895
24510SOL    HW274972   7.861   3.784   0.876
24511SOL     OW74973   7.748   2.853   0.256
24511SOL    HW174974   7.838   2.880   0.236
24511SOL    HW274975   7.741   2.764   0.220
24512SOL     OW74976   7.955   3.104   1.738
24512SOL    HW174977   7.913   3.110   1.652
24512SOL    HW274978   7.885   3.126   1.800
24513SOL     OW74979   7.628   2.123   1.502
24513SOL    HW174980   7.550   2.173   1.527
24513SOL    HW274981   7.612   2.035   1.535
24514SOL     OW74982   7.701   3.650   1.229
24514SOL    HW174983   7.749   3.582   1.277
24514SOL    HW274984   7.697   3.618   1.139
24515SOL     OW74985   7.803   2.524   0.449
24515SOL    HW174986   7.869   2.505   0.516
24515SOL    HW274987   7.719   2.513   0.494
24516SOL     OW74988   0.064   1.956   0.051
24516SOL    HW174989   0.141   1.963   0.107
24516SOL    HW274990   0.065   1.865   0.020
24517SOL     OW74991   7.990   1.879   0.513
24517SOL    HW174992   7.905   1.902   0.550
24517SOL    HW274993   8.020   1.959   0.469
24518SOL     OW74994   7.921   2.971   0.734
24518SOL    HW174995   7.849   2.962   0.797
24518SOL    HW274996   7.878   2.972   0.648
24519SOL     OW74997   7.534   2.417   1.386
24519SOL    HW174998   7.627   2.416   1.363
24519SOL    HW274999   7.527   2.485   1.453
24520SOL     OW75000   7.986   2.049   1.146
24520SOL    HW175001   8.043   2.006   1.210
24520SOL    HW275002   7.902   2.058   1.191
24521SOL     OW75003   7.880   2.683   1.268
24521SOL    HW175004   7.968   2.682   1.307
24521SOL    HW275005   7.847   2.594   1.281
24522SOL     OW75006   7.524   3.435   1.361
24522SOL    HW175007   7.504   3.511   1.306
24522SOL    HW275008   7.619   3.425   1.354
24523SOL     OW75009   7.797   2.989   0.492
24523SOL    HW175010   7.788   3.073   0.447
24523SOL    HW275011   7.773   2.923   0.427
24524SOL     OW75012  -0.023   2.416   0.866
24524SOL    HW175013   0.015   2.494   0.827
24524SOL    HW275014   0.015   2.412   0.954
24525SOL     OW75015   7.787   3.388   1.312
24525SOL    HW175016   7.784   3.349   1.224
24525SOL    HW275017   7.879   3.411   1.324
24526SOL     OW75018   7.849   2.596   1.605
24526SOL    HW175019   7.932   2.636   1.580
24526SOL    HW275020   7.863   2.502   1.589
24527SOL     OW75021   7.936   1.955   1.733
24527SOL    HW175022   7.892   1.887   1.681
24527SOL    HW275023   7.864   2.011   1.764
24528SOL     OW75024   7.987   2.783   1.033
24528SOL    HW175025   8.007   2.876   1.036
24528SOL    HW275026   7.947   2.764   1.118
24529SOL     OW75027   7.734   2.056   1.251
24529SOL    HW175028   7.691   2.088   1.330
24529SOL    HW275029   7.717   1.962   1.250
24530SOL     OW75030   7.494   3.175   1.276
24530SOL    HW175031   7.525   3.119   1.347
24530SOL    HW275032   7.498   3.263   1.312
24531SOL     OW75033   7.745   1.938   0.624
24531SOL    HW175034   7.733   2.030   0.646
24531SOL    HW275035   7.763   1.895   0.707
24532SOL     OW75036   7.803   2.779   1.812
24532SOL    HW175037   7.889   2.820   1.808
24532SOL    HW275038   7.810   2.703   1.755
24533SOL     OW75039   7.742   2.676   0.956
24533SOL    HW175040   7.832   2.704   0.969
24533SOL    HW275041   7.741   2.584   0.983
24534SOL     OW75042   7.746   2.401   1.005
24534SOL    HW175043   7.719   2.310   0.999
24534SOL    HW275044   7.824   2.406   0.950
24535SOL     OW75045   7.545   3.642   0.940
24535SOL    HW175046   7.515   3.565   0.893
24535SOL    HW275047   7.634   3.657   0.908
24536SOL     OW75048   7.484   2.418   1.115
24536SOL    HW175049   7.567   2.420   1.068
24536SOL    HW275050   7.509   2.417   1.208
24537SOL     OW75051   7.625   2.386   1.735
24537SOL    HW175052   7.690   2.347   1.677
24537SOL    HW275053   7.591   2.461   1.687
24538SOL     OW75054   7.685   3.411   1.713
24538SOL    HW175055   7.669   3.475   1.782
24538SOL    HW275056   7.706   3.330   1.760
24539SOL     OW75057   7.909   2.301   0.179
24539SOL    HW175058   7.931   2.386   0.217
24539SOL    HW275059   7.819   2.311   0.148
24540SOL     OW75060   7.579   3.004   1.478
24540SOL    HW175061   7.580   2.958   1.562
24540SOL    HW275062   7.600   2.936   1.414
24541SOL     OW75063   7.535   3.127   1.017
24541SOL    HW175064   7.515   3.141   1.109
24541SOL    HW275065   7.460   3.079   0.982
24542SOL     OW75066   7.595   3.658   1.844
24542SOL    HW175067   7.547   3.589   1.889
24542SOL    HW275068   7.641   3.704   1.914
24543SOL     OW75069   7.716   2.194   0.716
24543SOL    HW175070   7.629   2.224   0.693
24543SOL    HW275071   7.712   2.179   0.811
24544SOL     OW75072   7.815   3.154   1.510
24544SOL    HW175073   7.810   3.230   1.453
24544SOL    HW275074   7.733   3.106   1.495
24545SOL     OW75075  -0.013   3.393   0.419
24545SOL    HW175076   0.006   3.318   0.475
24545SOL    HW275077   0.034   3.466   0.460
24546SOL     OW75078   7.743   3.197   0.303
24546SOL    HW175079   7.668   3.212   0.245
24546SOL    HW275080   7.721   3.246   0.383
24547SOL     OW75081   7.560   2.888   1.724
24547SOL    HW175082   7.483   2.867   1.777
24547SOL    HW275083   7.634   2.850   1.772
24548SOL     OW75084   7.513   2.007   0.323
24548SOL    HW175085   7.502   2.092   0.280
24548SOL    HW275086   7.607   2.001   0.340
24549SOL     OW75087   7.828   3.619   1.566
24549SOL    HW175088   7.742   3.657   1.552
24549SOL    HW275089   7.810   3.531   1.600
24550SOL     OW75090   7.708   3.169   1.856
24550SOL    HW175091   7.634   3.114   1.833
24550SOL    HW275092   7.700   3.182   1.951
24551SOL     OW75093   7.530   3.092   0.677
24551SOL    HW175094   7.552   3.043   0.756
24551SOL    HW275095   7.589   3.058   0.610
24552SOL     OW75096   0.101   3.304   1.547
24552SOL    HW175097   0.052   3.241   1.601
24552SOL    HW275098   0.173   3.332   1.602
24553SOL     OW75099   7.790   2.423   1.295
24553SOL    HW175100   7.844   2.372   1.354
24553SOL    HW275101   7.812   2.391   1.207
24554SOL     OW75102   7.488   2.935   0.350
24554SOL    HW175103   7.574   2.929   0.308
24554SOL    HW275104   7.472   2.846   0.383
24555SOL     OW75105   7.654   2.474   1.999
24555SOL    HW175106   7.566   2.472   2.037
24555SOL    HW275107   7.640   2.460   1.906
24556SOL     OW75108   7.674   2.142   2.854
24556SOL    HW175109   7.699   2.112   2.941
24556SOL    HW275110   7.585   2.111   2.841
24557SOL     OW75111   7.448   2.252   2.505
24557SOL    HW175112   7.369   2.279   2.550
24557SOL    HW275113   7.422   2.175   2.454
24558SOL     OW75114   7.754   3.301   2.912
24558SOL    HW175115   7.679   3.242   2.903
24558SOL    HW275116   7.783   3.316   2.822
24559SOL     OW75117   7.871   2.247   3.384
24559SOL    HW175118   7.918   2.180   3.433
24559SOL    HW275119   7.784   2.209   3.370
24560SOL     OW75120   7.668   3.576   2.340
24560SOL    HW175121   7.680   3.656   2.392
24560SOL    HW275122   7.753   3.558   2.301
24561SOL     OW75123   7.672   3.301   2.392
24561SOL    HW175124   7.654   3.395   2.394
24561SOL    HW275125   7.614   3.264   2.458
24562SOL     OW75126   7.714   2.953   2.760
24562SOL    HW175127   7.701   2.865   2.794
24562SOL    HW275128   7.655   3.008   2.811
24563SOL     OW75129   7.572   2.510   2.428
24563SOL    HW175130   7.531   2.427   2.451
24563SOL    HW275131   7.560   2.565   2.506
24564SOL     OW75132   7.496   3.448   1.979
24564SOL    HW175133   7.478   3.356   1.999
24564SOL    HW275134   7.467   3.495   2.056
24565SOL     OW75135   7.555   2.606   3.441
24565SOL    HW175136   7.642   2.646   3.445
24565SOL    HW275137   7.495   2.681   3.436
24566SOL     OW75138   7.633   2.817   3.155
24566SOL    HW175139   7.721   2.779   3.144
24566SOL    HW275140   7.581   2.777   3.086
24567SOL     OW75141   7.765   2.120   3.709
24567SOL    HW175142   7.811   2.198   3.740
24567SOL    HW275143   7.672   2.140   3.723
24568SOL     OW75144   8.009   2.599   2.119
24568SOL    HW175145   8.023   2.694   2.115
24568SOL    HW275146   7.947   2.587   2.191
24569SOL     OW75147   7.535   2.684   2.636
24569SOL    HW175148   7.612   2.679   2.693
24569SOL    HW275149   7.484   2.758   2.670
24570SOL     OW75150   7.574   3.736   3.447
24570SOL    HW175151   7.580   3.715   3.540
24570SOL    HW275152   7.492   3.695   3.419
24571SOL     OW75153   7.968   2.063   2.748
24571SOL    HW175154   7.965   2.070   2.843
24571SOL    HW275155   7.956   2.152   2.717
24572SOL     OW75156   7.820   3.694   2.738
24572SOL    HW175157   7.890   3.634   2.764
24572SOL    HW275158   7.860   3.781   2.740
24573SOL     OW75159   7.745   2.828   2.120
24573SOL    HW175160   7.827   2.849   2.074
24573SOL    HW275161   7.724   2.739   2.092
24574SOL     OW75162   7.952   3.103   3.599
24574SOL    HW175163   7.911   3.110   3.513
24574SOL    HW275164   7.882   3.125   3.661
24575SOL     OW75165   7.625   2.133   3.365
24575SOL    HW175166   7.548   2.188   3.375
24575SOL    HW275167   7.603   2.052   3.410
24576SOL     OW75168   7.702   3.652   3.090
24576SOL    HW175169   7.750   3.580   3.132
24576SOL    HW275170   7.692   3.624   2.999
24577SOL     OW75171   7.827   2.555   2.317
24577SOL    HW175172   7.875   2.505   2.383
24577SOL    HW275173   7.735   2.547   2.343
24578SOL     OW75174   0.013   1.949   2.003
24578SOL    HW175175   0.107   1.932   2.012
24578SOL    HW275176  -0.001   1.955   1.908
24579SOL     OW75177   7.990   1.881   2.376
24579SOL    HW175178   7.903   1.903   2.409
24579SOL    HW275179   8.017   1.958   2.327
24580SOL     OW75180   7.739   1.923   2.042
24580SOL    HW175181   7.753   1.996   1.981
24580SOL    HW275182   7.827   1.892   2.062
24581SOL     OW75183   7.924   2.962   2.590
24581SOL    HW175184   7.853   2.958   2.655
24581SOL    HW275185   7.880   2.962   2.506
24582SOL     OW75186   7.538   2.414   3.250
24582SOL    HW175187   7.631   2.416   3.227
24582SOL    HW275188   7.528   2.484   3.315
24583SOL     OW75189   7.987   2.053   3.015
24583SOL    HW175190   8.032   1.989   3.070
24583SOL    HW275191   7.902   2.066   3.058
24584SOL     OW75192   7.876   2.686   3.131
24584SOL    HW175193   7.966   2.689   3.164
24584SOL    HW275194   7.848   2.596   3.145
24585SOL     OW75195   7.523   3.437   3.223
24585SOL    HW175196   7.499   3.510   3.166
24585SOL    HW275197   7.618   3.430   3.213
24586SOL     OW75198   7.795   2.980   2.348
24586SOL    HW175199   7.778   3.061   2.301
24586SOL    HW275200   7.775   2.911   2.285
24587SOL     OW75201  -0.025   2.424   2.730
24587SOL    HW175202   0.013   2.501   2.689
24587SOL    HW275203   0.016   2.420   2.817
24588SOL     OW75204   7.787   3.391   3.170
24588SOL    HW175205   7.785   3.349   3.084
24588SOL    HW275206   7.879   3.413   3.184
24589SOL     OW75207   7.845   2.602   3.467
24589SOL    HW175208   7.923   2.648   3.434
24589SOL    HW275209   7.868   2.509   3.459
24590SOL     OW75210   7.941   1.964   3.574
24590SOL    HW175211   7.896   1.889   3.535
24590SOL    HW275212   7.871   2.013   3.618
24591SOL     OW75213   7.989   2.783   2.897
24591SOL    HW175214   8.003   2.877   2.894
24591SOL    HW275215   7.941   2.768   2.979
24592SOL     OW75216   7.733   2.058   3.114
24592SOL    HW175217   7.689   2.089   3.193
24592SOL    HW275218   7.715   1.964   3.113
24593SOL     OW75219   7.502   3.176   3.139
24593SOL    HW175220   7.529   3.120   3.212
24593SOL    HW275221   7.502   3.265   3.175
24594SOL     OW75222   7.740   1.934   2.484
24594SOL    HW175223   7.727   2.027   2.501
24594SOL    HW275224   7.757   1.895   2.570
24595SOL     OW75225   7.803   2.779   3.678
24595SOL    HW175226   7.889   2.821   3.673
24595SOL    HW275227   7.808   2.704   3.619
24596SOL     OW75228   7.742   2.676   2.816
24596SOL    HW175229   7.834   2.701   2.825
24596SOL    HW275230   7.741   2.584   2.844
24597SOL     OW75231   7.747   2.400   2.872
24597SOL    HW175232   7.720   2.309   2.863
24597SOL    HW275233   7.824   2.408   2.816
24598SOL     OW75234   7.461   3.173   2.051
24598SOL    HW175235   7.374   3.193   2.017
24598SOL    HW275236   7.453   3.085   2.088
24599SOL     OW75237   7.548   3.639   2.806
24599SOL    HW175238   7.516   3.563   2.757
24599SOL    HW275239   7.636   3.654   2.772
24600SOL     OW75240   7.483   2.413   2.980
24600SOL    HW175241   7.565   2.418   2.931
24600SOL    HW275242   7.509   2.413   3.072
24601SOL     OW75243   7.622   2.389   3.597
24601SOL    HW175244   7.683   2.350   3.535
24601SOL    HW275245   7.586   2.465   3.550
24602SOL     OW75246   0.212   2.366   2.164
24602SOL    HW175247   0.165   2.284   2.183
24602SOL    HW275248   0.186   2.425   2.235
24603SOL     OW75249   7.686   3.411   3.576
24603SOL    HW175250   7.668   3.474   3.647
24603SOL    HW275251   7.706   3.329   3.621
24604SOL     OW75252   7.906   2.363   2.007
24604SOL    HW175253   7.959   2.432   2.047
24604SOL    HW275254   7.816   2.395   2.014
24605SOL     OW75255   7.579   3.005   3.343
24605SOL    HW175256   7.580   2.959   3.427
24605SOL    HW275257   7.598   2.936   3.279
24606SOL     OW75258   7.539   3.122   2.881
24606SOL    HW175259   7.521   3.139   2.973
24606SOL    HW275260   7.457   3.085   2.847
24607SOL     OW75261   7.593   3.667   3.706
24607SOL    HW175262   7.548   3.595   3.751
24607SOL    HW275263   7.643   3.710   3.775
24608SOL     OW75264   7.719   2.191   2.577
24608SOL    HW175265   7.634   2.226   2.550
24608SOL    HW275266   7.710   2.179   2.672
24609SOL     OW75267   7.815   3.154   3.371
24609SOL    HW175268   7.810   3.230   3.314
24609SOL    HW275269   7.733   3.107   3.357
24610SOL     OW75270  -0.008   3.426   2.273
24610SOL    HW175271  -0.003   3.357   2.338
24610SOL    HW275272   0.051   3.494   2.304
24611SOL     OW75273   7.717   3.195   2.149
24611SOL    HW175274   7.625   3.191   2.122
24611SOL    HW275275   7.717   3.245   2.230
24612SOL     OW75276   7.560   2.889   3.589
24612SOL    HW175277   7.483   2.868   3.641
24612SOL    HW275278   7.633   2.851   3.637
24613SOL     OW75279   7.504   2.195   1.901
24613SOL    HW175280   7.417   2.176   1.865
24613SOL    HW275281   7.532   2.274   1.855
24614SOL     OW75282   7.504   2.013   2.157
24614SOL    HW175283   7.489   2.089   2.100
24614SOL    HW275284   7.592   1.983   2.134
24615SOL     OW75285   7.829   3.620   3.430
24615SOL    HW175286   7.744   3.658   3.411
24615SOL    HW275287   7.809   3.532   3.464
24616SOL     OW75288   7.707   3.169   3.718
24616SOL    HW175289   7.632   3.115   3.694
24616SOL    HW275290   7.698   3.182   3.812
24617SOL     OW75291   7.539   3.090   2.536
24617SOL    HW175292   7.540   3.043   2.620
24617SOL    HW275293   7.607   3.047   2.484
24618SOL     OW75294   0.102   3.299   3.409
24618SOL    HW175295   0.052   3.241   3.465
24618SOL    HW275296   0.173   3.331   3.465
24619SOL     OW75297   7.796   2.421   3.161
24619SOL    HW175298   7.854   2.364   3.212
24619SOL    HW275299   7.810   2.395   3.070
24620SOL     OW75300   7.485   2.921   2.173
24620SOL    HW175301   7.577   2.910   2.148
24620SOL    HW275302   7.456   2.833   2.197
24621SOL     OW75303   7.656   2.470   3.861
24621SOL    HW175304   7.569   2.470   3.901
24621SOL    HW275305   7.640   2.458   3.768
24622SOL     OW75306   7.673   2.144   4.716
24622SOL    HW175307   7.698   2.111   4.803
24622SOL    HW275308   7.584   2.111   4.704
24623SOL     OW75309   7.446   2.254   4.367
24623SOL    HW175310   7.366   2.281   4.413
24623SOL    HW275311   7.420   2.176   4.318
24624SOL     OW75312   7.752   3.302   4.776
24624SOL    HW175313   7.677   3.244   4.761
24624SOL    HW275314   7.789   3.316   4.688
24625SOL     OW75315   7.906   2.199   5.245
24625SOL    HW175316   7.927   2.144   5.321
24625SOL    HW275317   7.812   2.187   5.231
24626SOL     OW75318   7.675   3.576   4.200
24626SOL    HW175319   7.682   3.656   4.253
24626SOL    HW275320   7.765   3.555   4.175
24627SOL     OW75321   7.670   3.301   4.253
24627SOL    HW175322   7.655   3.395   4.255
24627SOL    HW275323   7.612   3.266   4.320
24628SOL     OW75324   7.711   2.951   4.621
24628SOL    HW175325   7.703   2.863   4.658
24628SOL    HW275326   7.654   3.005   4.675
24629SOL     OW75327   7.573   2.510   4.289
24629SOL    HW175328   7.532   2.427   4.313
24629SOL    HW275329   7.561   2.565   4.367
24630SOL     OW75330   7.503   3.449   3.840
24630SOL    HW175331   7.481   3.357   3.857
24630SOL    HW275332   7.472   3.496   3.917
24631SOL     OW75333   7.554   2.606   5.299
24631SOL    HW175334   7.640   2.647   5.306
24631SOL    HW275335   7.493   2.680   5.297
24632SOL     OW75336   7.635   2.820   5.007
24632SOL    HW175337   7.722   2.780   5.000
24632SOL    HW275338   7.579   2.764   4.954
24633SOL     OW75339   7.764   2.135   5.574
24633SOL    HW175340   7.801   2.217   5.609
24633SOL    HW275341   7.670   2.142   5.593
24634SOL     OW75342   8.013   2.599   3.978
24634SOL    HW175343   8.024   2.694   3.977
24634SOL    HW275344   7.951   2.583   4.049
24635SOL     OW75345   7.537   2.687   4.497
24635SOL    HW175346   7.614   2.679   4.553
24635SOL    HW275347   7.487   2.760   4.534
24636SOL     OW75348   7.571   3.739   5.309
24636SOL    HW175349   7.579   3.715   5.402
24636SOL    HW275350   7.484   3.708   5.284
24637SOL     OW75351   7.966   2.072   4.607
24637SOL    HW175352   7.964   2.070   4.703
24637SOL    HW275353   7.955   2.164   4.585
24638SOL     OW75354   7.822   3.695   4.601
24638SOL    HW175355   7.894   3.637   4.625
24638SOL    HW275356   7.861   3.783   4.602
24639SOL     OW75357   7.745   2.829   3.983
24639SOL    HW175358   7.827   2.850   3.939
24639SOL    HW275359   7.724   2.740   3.953
24640SOL     OW75360   7.953   3.110   5.465
24640SOL    HW175361   7.912   3.114   5.379
24640SOL    HW275362   7.881   3.128   5.527
24641SOL     OW75363   7.632   2.138   5.234
24641SOL    HW175364   7.545   2.178   5.236
24641SOL    HW275365   7.618   2.049   5.266
24642SOL     OW75366   7.698   3.649   4.954
24642SOL    HW175367   7.749   3.578   4.991
24642SOL    HW275368   7.689   3.626   4.861
24643SOL     OW75369   7.830   2.550   4.175
24643SOL    HW175370   7.878   2.506   4.245
24643SOL    HW275371   7.738   2.543   4.201
24644SOL     OW75372   0.017   1.949   3.860
24644SOL    HW175373   0.110   1.935   3.873
24644SOL    HW275374   0.008   1.966   3.766
24645SOL     OW75375   7.950   1.865   4.190
24645SOL    HW175376   7.882   1.893   4.252
24645SOL    HW275377   7.999   1.945   4.172
24646SOL     OW75378   7.738   1.921   3.901
24646SOL    HW175379   7.758   1.993   3.840
24646SOL    HW275380   7.824   1.893   3.933
24647SOL     OW75381   7.922   2.966   4.454
24647SOL    HW175382   7.850   2.959   4.517
24647SOL    HW275383   7.878   2.965   4.368
24648SOL     OW75384   7.538   2.417   5.106
24648SOL    HW175385   7.632   2.411   5.088
24648SOL    HW275386   7.530   2.486   5.172
24649SOL     OW75387   7.987   2.048   4.873
24649SOL    HW175388   8.035   1.987   4.929
24649SOL    HW275389   7.904   2.061   4.917
24650SOL     OW75390   7.875   2.681   4.992
24650SOL    HW175391   7.963   2.688   5.031
24650SOL    HW275392   7.848   2.591   5.010
24651SOL     OW75393   7.528   3.439   5.084
24651SOL    HW175394   7.513   3.522   5.040
24651SOL    HW275395   7.623   3.425   5.078
24652SOL     OW75396   7.796   2.981   4.210
24652SOL    HW175397   7.778   3.062   4.163
24652SOL    HW275398   7.775   2.912   4.147
24653SOL     OW75399  -0.024   2.421   4.596
24653SOL    HW175400   0.015   2.498   4.554
24653SOL    HW275401   0.016   2.419   4.683
24654SOL     OW75402   7.789   3.389   5.034
24654SOL    HW175403   7.787   3.348   4.948
24654SOL    HW275404   7.881   3.412   5.047
24655SOL     OW75405   7.841   2.606   5.332
24655SOL    HW175406   7.933   2.627   5.317
24655SOL    HW275407   7.838   2.511   5.338
24656SOL     OW75408   7.930   1.972   5.443
24656SOL    HW175409   7.890   1.896   5.401
24656SOL    HW275410   7.856   2.018   5.484
24657SOL     OW75411   7.988   2.781   4.758
24657SOL    HW175412   8.004   2.875   4.758
24657SOL    HW275413   7.943   2.765   4.842
24658SOL     OW75414   7.734   2.059   4.975
24658SOL    HW175415   7.692   2.091   5.054
24658SOL    HW275416   7.717   1.965   4.975
24659SOL     OW75417   7.487   3.183   4.996
24659SOL    HW175418   7.516   3.121   5.063
24659SOL    HW275419   7.500   3.269   5.035
24660SOL     OW75420   7.741   1.931   4.356
24660SOL    HW175421   7.729   2.024   4.374
24660SOL    HW275422   7.762   1.893   4.441
24661SOL     OW75423   7.804   2.785   5.542
24661SOL    HW175424   7.893   2.820   5.538
24661SOL    HW275425   7.804   2.713   5.479
24662SOL     OW75426   7.744   2.674   4.677
24662SOL    HW175427   7.835   2.701   4.688
24662SOL    HW275428   7.741   2.583   4.707
24663SOL     OW75429   7.748   2.400   4.739
24663SOL    HW175430   7.720   2.309   4.729
24663SOL    HW275431   7.825   2.407   4.683
24664SOL     OW75432   7.461   3.174   3.912
24664SOL    HW175433   7.374   3.194   3.879
24664SOL    HW275434   7.453   3.086   3.949
24665SOL     OW75435   7.550   3.641   4.670
24665SOL    HW175436   7.521   3.563   4.622
24665SOL    HW275437   7.639   3.657   4.636
24666SOL     OW75438   7.482   2.420   4.838
24666SOL    HW175439   7.565   2.419   4.791
24666SOL    HW275440   7.507   2.417   4.931
24667SOL     OW75441   7.618   2.390   5.461
24667SOL    HW175442   7.636   2.322   5.396
24667SOL    HW275443   7.584   2.463   5.409
24668SOL     OW75444   0.210   2.361   4.023
24668SOL    HW175445   0.168   2.280   4.052
24668SOL    HW275446   0.189   2.425   4.091
24669SOL     OW75447   7.688   3.409   5.437
24669SOL    HW175448   7.668   3.472   5.506
24669SOL    HW275449   7.705   3.327   5.482
24670SOL     OW75450   7.907   2.360   3.868
24670SOL    HW175451   7.961   2.427   3.908
24670SOL    HW275452   7.818   2.392   3.875
24671SOL     OW75453   7.578   3.006   5.197
24671SOL    HW175454   7.581   2.961   5.281
24671SOL    HW275455   7.599   2.938   5.133
24672SOL     OW75456   7.534   3.125   4.738
24672SOL    HW175457   7.514   3.138   4.830
24672SOL    HW275458   7.462   3.071   4.705
24673SOL     OW75459   7.597   3.659   5.566
24673SOL    HW175460   7.549   3.589   5.610
24673SOL    HW275461   7.642   3.705   5.637
24674SOL     OW75462   7.717   2.192   4.441
24674SOL    HW175463   7.631   2.226   4.414
24674SOL    HW275464   7.709   2.179   4.535
24675SOL     OW75465   7.815   3.153   5.236
24675SOL    HW175466   7.814   3.229   5.177
24675SOL    HW275467   7.733   3.107   5.217
24676SOL     OW75468  -0.010   3.427   4.137
24676SOL    HW175469   0.004   3.356   4.199
24676SOL    HW275470   0.049   3.497   4.167
24677SOL     OW75471   7.717   3.195   4.010
24677SOL    HW175472   7.625   3.191   3.984
24677SOL    HW275473   7.716   3.245   4.092
24678SOL     OW75474   7.562   2.899   5.450
24678SOL    HW175475   7.484   2.875   5.499
24678SOL    HW275476   7.634   2.857   5.498
24679SOL     OW75477   7.508   2.192   3.760
24679SOL    HW175478   7.415   2.181   3.741
24679SOL    HW275479   7.534   2.271   3.713
24680SOL     OW75480   7.505   2.013   4.022
24680SOL    HW175481   7.491   2.093   3.970
24680SOL    HW275482   7.593   1.984   3.997
24681SOL     OW75483   7.829   3.621   5.297
24681SOL    HW175484   7.744   3.660   5.276
24681SOL    HW275485   7.809   3.533   5.329
24682SOL     OW75486   7.701   3.165   5.576
24682SOL    HW175487   7.636   3.103   5.542
24682SOL    HW275488   7.674   3.180   5.666
24683SOL     OW75489   7.532   3.093   4.398
24683SOL    HW175490   7.537   3.047   4.482
24683SOL    HW275491   7.599   3.052   4.344
24684SOL     OW75492   0.097   3.306   5.272
24684SOL    HW175493   0.048   3.245   5.327
24684SOL    HW275494   0.172   3.332   5.326
24685SOL     OW75495   7.800   2.411   5.026
24685SOL    HW175496   7.867   2.356   5.066
24685SOL    HW275497   7.807   2.392   4.932
24686SOL     OW75498   7.485   2.922   4.037
24686SOL    HW175499   7.576   2.911   4.012
24686SOL    HW275500   7.455   2.834   4.061
24687SOL     OW75501   7.651   2.483   5.722
24687SOL    HW175502   7.564   2.478   5.762
24687SOL    HW275503   7.636   2.465   5.629
24688SOL     OW75504   7.674   2.143   6.578
24688SOL    HW175505   7.699   2.111   6.665
24688SOL    HW275506   7.584   2.111   6.566
24689SOL     OW75507   7.446   2.252   6.228
24689SOL    HW175508   7.366   2.280   6.273
24689SOL    HW275509   7.419   2.174   6.179
24690SOL     OW75510   7.747   3.313   6.633
24690SOL    HW175511   7.668   3.260   6.625
24690SOL    HW275512   7.803   3.285   6.561
24691SOL     OW75513   7.859   2.265   7.109
24691SOL    HW175514   7.932   2.203   7.110
24691SOL    HW275515   7.781   2.210   7.102
24692SOL     OW75516   7.669   3.582   6.068
24692SOL    HW175517   7.742   3.618   6.118
24692SOL    HW275518   7.710   3.532   5.998
24693SOL     OW75519   7.666   3.300   6.123
24693SOL    HW175520   7.632   3.386   6.144
24693SOL    HW275521   7.619   3.240   6.181
24694SOL     OW75522   7.720   2.955   6.496
24694SOL    HW175523   7.702   2.866   6.526
24694SOL    HW275524   7.654   3.009   6.539
24695SOL     OW75525   7.572   2.508   6.152
24695SOL    HW175526   7.530   2.425   6.174
24695SOL    HW275527   7.560   2.563   6.229
24696SOL     OW75528   7.506   3.445   5.703
24696SOL    HW175529   7.479   3.355   5.719
24696SOL    HW275530   7.469   3.495   5.776
24697SOL     OW75531   7.554   2.605   7.167
24697SOL    HW175532   7.640   2.646   7.168
24697SOL    HW275533   7.493   2.678   7.156
24698SOL     OW75534   7.638   2.814   6.882
24698SOL    HW175535   7.725   2.776   6.868
24698SOL    HW275536   7.583   2.774   6.814
24699SOL     OW75537   7.757   2.121   7.437
24699SOL    HW175538   7.803   2.202   7.458
24699SOL    HW275539   7.664   2.143   7.448
24700SOL     OW75540   8.012   2.605   5.844
24700SOL    HW175541   8.017   2.701   5.841
24700SOL    HW275542   7.950   2.587   5.915
24701SOL     OW75543   7.538   2.684   6.357
24701SOL    HW175544   7.610   2.678   6.419
24701SOL    HW275545   7.485   2.757   6.389
24702SOL     OW75546   7.571   3.734   7.170
24702SOL    HW175547   7.578   3.712   7.263
24702SOL    HW275548   7.485   3.700   7.144
24703SOL     OW75549   7.965   2.070   6.467
24703SOL    HW175550   7.964   2.069   6.562
24703SOL    HW275551   7.954   2.162   6.444
24704SOL     OW75552   7.742   2.821   5.845
24704SOL    HW175553   7.809   2.840   5.780
24704SOL    HW275554   7.718   2.730   5.829
24705SOL     OW75555   7.954   3.108   7.327
24705SOL    HW175556   7.913   3.114   7.241
24705SOL    HW275557   7.883   3.125   7.389
24706SOL     OW75558   7.628   2.125   7.088
24706SOL    HW175559   7.545   2.172   7.101
24706SOL    HW275560   7.611   2.037   7.121
24707SOL     OW75561   7.713   3.653   6.803
24707SOL    HW175562   7.754   3.583   6.853
24707SOL    HW275563   7.676   3.608   6.726
24708SOL     OW75564   7.828   2.550   6.040
24708SOL    HW175565   7.875   2.501   6.107
24708SOL    HW275566   7.736   2.543   6.065
24709SOL     OW75567   0.028   1.996   5.704
24709SOL    HW175568   0.110   1.950   5.721
24709SOL    HW275569   0.004   1.971   5.615
24710SOL     OW75570   7.967   1.874   6.066
24710SOL    HW175571   7.892   1.898   6.121
24710SOL    HW275572   8.011   1.957   6.047
24711SOL     OW75573   7.745   1.918   5.773
24711SOL    HW175574   7.793   1.988   5.727
24711SOL    HW275575   7.814   1.865   5.813
24712SOL     OW75576   7.920   2.984   6.319
24712SOL    HW175577   7.850   2.970   6.383
24712SOL    HW275578   7.877   2.975   6.234
24713SOL     OW75579   7.536   2.415   6.973
24713SOL    HW175580   7.628   2.415   6.950
24713SOL    HW275581   7.528   2.483   7.040
24714SOL     OW75582   7.988   2.051   6.732
24714SOL    HW175583   8.042   2.002   6.794
24714SOL    HW275584   7.903   2.060   6.776
24715SOL     OW75585   7.881   2.681   6.853
24715SOL    HW175586   7.968   2.678   6.892
24715SOL    HW275587   7.847   2.592   6.864
24716SOL     OW75588   7.519   3.436   6.950
24716SOL    HW175589   7.487   3.504   6.891
24716SOL    HW275590   7.613   3.434   6.936
24717SOL     OW75591   7.800   2.976   6.070
24717SOL    HW175592   7.778   3.055   6.021
24717SOL    HW275593   7.779   2.905   6.010
24718SOL     OW75594  -0.025   2.419   6.452
24718SOL    HW175595   0.015   2.495   6.410
24718SOL    HW275596   0.015   2.416   6.539
24719SOL     OW75597   7.785   3.396   6.894
24719SOL    HW175598   7.780   3.354   6.808
24719SOL    HW275599   7.878   3.415   6.906
24720SOL     OW75600   7.845   2.600   7.195
24720SOL    HW175601   7.928   2.638   7.163
24720SOL    HW275602   7.856   2.506   7.182
24721SOL     OW75603   7.935   1.952   7.324
24721SOL    HW175604   7.892   1.885   7.269
24721SOL    HW275605   7.863   2.009   7.351
24722SOL     OW75606   7.987   2.781   6.618
24722SOL    HW175607   8.007   2.874   6.624
24722SOL    HW275608   7.947   2.759   6.703
24723SOL     OW75609   7.736   2.057   6.838
24723SOL    HW175610   7.691   2.089   6.916
24723SOL    HW275611   7.719   1.963   6.836
24724SOL     OW75612   7.515   3.175   6.861
24724SOL    HW175613   7.535   3.117   6.934
24724SOL    HW275614   7.504   3.261   6.900
24725SOL     OW75615   7.744   1.933   6.214
24725SOL    HW175616   7.729   2.026   6.232
24725SOL    HW275617   7.761   1.894   6.299
24726SOL     OW75618   7.811   2.784   7.408
24726SOL    HW175619   7.898   2.822   7.393
24726SOL    HW275620   7.809   2.706   7.352
24727SOL     OW75621   7.738   2.675   6.544
24727SOL    HW175622   7.829   2.702   6.554
24727SOL    HW275623   7.737   2.583   6.569
24728SOL     OW75624   7.747   2.400   6.593
24728SOL    HW175625   7.719   2.309   6.586
24728SOL    HW275626   7.824   2.406   6.537
24729SOL     OW75627   7.464   3.171   5.772
24729SOL    HW175628   7.376   3.191   5.738
24729SOL    HW275629   7.455   3.084   5.811
24730SOL     OW75630   7.526   3.634   6.518
24730SOL    HW175631   7.488   3.554   6.480
24730SOL    HW275632   7.599   3.656   6.460
24731SOL     OW75633   7.482   2.415   6.703
24731SOL    HW175634   7.565   2.417   6.654
24731SOL    HW275635   7.508   2.414   6.795
24732SOL     OW75636   7.626   2.388   7.323
24732SOL    HW175637   7.679   2.341   7.259
24732SOL    HW275638   7.590   2.462   7.275
24733SOL     OW75639   0.208   2.371   5.879
24733SOL    HW175640   0.172   2.288   5.909
24733SOL    HW275641   0.184   2.434   5.947
24734SOL     OW75642   7.692   3.410   7.300
24734SOL    HW175643   7.671   3.471   7.371
24734SOL    HW275644   7.705   3.326   7.344
24735SOL     OW75645   7.899   2.370   5.727
24735SOL    HW175646   7.954   2.432   5.774
24735SOL    HW275647   7.811   2.404   5.735
24736SOL     OW75648   7.582   3.003   7.068
24736SOL    HW175649   7.582   2.959   7.153
24736SOL    HW275650   7.600   2.934   7.005
24737SOL     OW75651   7.536   3.129   6.600
24737SOL    HW175652   7.522   3.143   6.694
24737SOL    HW275653   7.456   3.086   6.570
24738SOL     OW75654   7.598   3.661   7.430
24738SOL    HW175655   7.549   3.590   7.473
24738SOL    HW275656   7.643   3.706   7.502
24739SOL     OW75657   7.716   2.192   6.302
24739SOL    HW175658   7.631   2.226   6.274
24739SOL    HW275659   7.708   2.179   6.396
24740SOL     OW75660   7.814   3.157   7.098
24740SOL    HW175661   7.807   3.233   7.040
24740SOL    HW275662   7.735   3.107   7.082
24741SOL     OW75663  -0.009   3.442   6.005
24741SOL    HW175664  -0.004   3.360   6.053
24741SOL    HW275665   0.071   3.489   6.029
24742SOL     OW75666   7.716   3.195   5.881
24742SOL    HW175667   7.626   3.190   5.850
24742SOL    HW275668   7.710   3.242   5.964
24743SOL     OW75669   7.567   2.904   7.324
24743SOL    HW175670   7.487   2.877   7.369
24743SOL    HW275671   7.636   2.855   7.368
24744SOL     OW75672   7.503   2.191   5.634
24744SOL    HW175673   7.412   2.173   5.609
24744SOL    HW275674   7.524   2.274   5.591
24745SOL     OW75675   7.507   2.012   5.880
24745SOL    HW175676   7.491   2.088   5.825
24745SOL    HW275677   7.594   1.982   5.857
24746SOL     OW75678   7.824   3.614   7.147
24746SOL    HW175679   7.738   3.654   7.130
24746SOL    HW275680   7.803   3.527   7.183
24747SOL     OW75681   7.689   3.159   7.431
24747SOL    HW175682   7.641   3.090   7.386
24747SOL    HW275683   7.639   3.175   7.511
24748SOL     OW75684   7.544   3.092   6.261
24748SOL    HW175685   7.521   3.048   6.344
24748SOL    HW275686   7.602   3.030   6.217
24749SOL     OW75687   0.099   3.312   7.132
24749SOL    HW175688   0.050   3.248   7.184
24749SOL    HW275689   0.173   3.335   7.188
24750SOL     OW75690   7.791   2.423   6.881
24750SOL    HW175691   7.846   2.369   6.936
24750SOL    HW275692   7.808   2.392   6.792
24751SOL     OW75693   7.486   2.922   5.898
24751SOL    HW175694   7.578   2.909   5.873
24751SOL    HW275695   7.455   2.835   5.924
24752SOL     OW75696   7.654   2.476   7.586
24752SOL    HW175697   7.566   2.474   7.623
24752SOL    HW275698   7.642   2.461   7.493
24753SOL     OW75699   7.673   2.143   8.440
24753SOL    HW175700   7.698   2.111   8.526
24753SOL    HW275701   7.583   2.112   8.428
24754SOL     OW75702   7.448   2.250   8.091
24754SOL    HW175703   7.367   2.278   8.135
24754SOL    HW275704   7.422   2.173   8.040
24755SOL     OW75705   7.753   3.299   8.495
24755SOL    HW175706   7.677   3.240   8.491
24755SOL    HW275707   7.782   3.307   8.404
24756SOL     OW75708   7.852   2.272   8.993
24756SOL    HW175709   7.929   2.219   8.971
24756SOL    HW275710   7.778   2.215   8.973
24757SOL     OW75711   7.656   3.581   7.929
24757SOL    HW175712   7.681   3.657   7.982
24757SOL    HW275713   7.707   3.591   7.848
24758SOL     OW75714   7.684   3.310   7.988
24758SOL    HW175715   7.658   3.402   7.987
24758SOL    HW275716   7.622   3.269   8.048
24759SOL     OW75717   7.723   2.954   8.351
24759SOL    HW175718   7.706   2.865   8.381
24759SOL    HW275719   7.658   3.008   8.398
24760SOL     OW75720   7.571   2.507   8.016
24760SOL    HW175721   7.529   2.424   8.037
24760SOL    HW275722   7.559   2.561   8.094
24761SOL     OW75723   7.507   3.447   7.566
24761SOL    HW175724   7.479   3.357   7.581
24761SOL    HW275725   7.468   3.496   7.639
24762SOL     OW75726   7.552   2.604   9.031
24762SOL    HW175727   7.639   2.643   9.032
24762SOL    HW275728   7.492   2.677   9.018
24763SOL     OW75729   7.636   2.813   8.747
24763SOL    HW175730   7.724   2.777   8.735
24763SOL    HW275731   7.587   2.783   8.670
24764SOL     OW75732   7.755   2.117   9.295
24764SOL    HW175733   7.802   2.200   9.304
24764SOL    HW275734   7.663   2.141   9.305
24765SOL     OW75735   8.003   2.599   7.708
24765SOL    HW175736   8.015   2.693   7.691
24765SOL    HW275737   7.942   2.595   7.781
24766SOL     OW75738   7.537   2.678   8.225
24766SOL    HW175739   7.611   2.677   8.285
24766SOL    HW275740   7.485   2.753   8.254
24767SOL     OW75741   7.572   3.734   9.032
24767SOL    HW175742   7.578   3.712   9.125
24767SOL    HW275743   7.491   3.692   9.003
24768SOL     OW75744   7.965   2.064   8.331
24768SOL    HW175745   7.964   2.072   8.427
24768SOL    HW275746   7.957   2.153   8.299
24769SOL     OW75747   7.820   3.694   8.322
24769SOL    HW175748   7.882   3.632   8.360
24769SOL    HW275749   7.866   3.779   8.326
24770SOL     OW75750   7.740   2.818   7.699
24770SOL    HW175751   7.786   2.834   7.616
24770SOL    HW275752   7.724   2.724   7.700
24771SOL     OW75753   7.953   3.103   9.190
24771SOL    HW175754   7.913   3.110   9.103
24771SOL    HW275755   7.881   3.124   9.250
24772SOL     OW75756   7.630   2.124   8.945
24772SOL    HW175757   7.551   2.175   8.958
24772SOL    HW275758   7.609   2.038   8.981
24773SOL     OW75759   7.706   3.654   8.670
24773SOL    HW175760   7.748   3.576   8.707
24773SOL    HW275761   7.677   3.627   8.583
24774SOL     OW75762   7.823   2.563   7.909
24774SOL    HW175763   7.873   2.499   7.960
24774SOL    HW275764   7.732   2.551   7.936
24775SOL     OW75765   0.013   1.945   7.592
24775SOL    HW175766   0.107   1.930   7.601
24775SOL    HW275767  -0.002   1.952   7.498
24776SOL     OW75768   7.992   1.881   7.966
24776SOL    HW175769   7.904   1.903   7.996
24776SOL    HW275770   8.019   1.957   7.914
24777SOL     OW75771   7.740   1.926   7.628
24777SOL    HW175772   7.748   1.998   7.565
24777SOL    HW275773   7.830   1.899   7.645
24778SOL     OW75774   7.925   2.985   8.174
24778SOL    HW175775   7.855   2.973   8.238
24778SOL    HW275776   7.881   2.976   8.089
24779SOL     OW75777   7.539   2.413   8.837
24779SOL    HW175778   7.632   2.415   8.813
24779SOL    HW275779   7.530   2.482   8.903
24780SOL     OW75780   7.988   2.056   8.599
24780SOL    HW175781   8.038   1.999   8.656
24780SOL    HW275782   7.902   2.063   8.640
24781SOL     OW75783   7.882   2.687   8.722
24781SOL    HW175784   7.975   2.683   8.744
24781SOL    HW275785   7.852   2.597   8.729
24782SOL     OW75786   7.520   3.436   8.810
24782SOL    HW175787   7.489   3.504   8.750
24782SOL    HW275788   7.615   3.433   8.796
24783SOL     OW75789   7.802   2.975   7.926
24783SOL    HW175790   7.783   3.054   7.875
24783SOL    HW275791   7.784   2.903   7.866
24784SOL     OW75792  -0.026   2.425   8.316
24784SOL    HW175793   0.014   2.500   8.273
24784SOL    HW275794   0.015   2.422   8.402
24785SOL     OW75795   7.785   3.395   8.751
24785SOL    HW175796   7.783   3.351   8.666
24785SOL    HW275797   7.877   3.415   8.766
24786SOL     OW75798   7.840   2.603   9.053
24786SOL    HW175799   7.906   2.651   9.004
24786SOL    HW275800   7.864   2.511   9.042
24787SOL     OW75801   7.934   1.943   9.192
24787SOL    HW175802   7.893   1.880   9.132
24787SOL    HW275803   7.864   2.004   9.215
24788SOL     OW75804   7.989   2.786   8.483
24788SOL    HW175805   8.005   2.880   8.479
24788SOL    HW275806   7.943   2.773   8.566
24789SOL     OW75807   7.736   2.055   8.698
24789SOL    HW175808   7.693   2.087   8.777
24789SOL    HW275809   7.717   1.961   8.697
24790SOL     OW75810   7.502   3.174   8.726
24790SOL    HW175811   7.530   3.119   8.799
24790SOL    HW275812   7.501   3.263   8.762
24791SOL     OW75813   7.739   1.932   8.070
24791SOL    HW175814   7.727   2.025   8.087
24791SOL    HW275815   7.758   1.894   8.157
24792SOL     OW75816   7.808   2.782   9.266
24792SOL    HW175817   7.892   2.826   9.251
24792SOL    HW275818   7.810   2.705   9.209
24793SOL     OW75819   7.741   2.676   8.409
24793SOL    HW175820   7.833   2.702   8.415
24793SOL    HW275821   7.740   2.584   8.432
24794SOL     OW75822   7.748   2.399   8.459
24794SOL    HW175823   7.720   2.309   8.448
24794SOL    HW275824   7.824   2.408   8.401
24795SOL     OW75825   7.471   3.171   7.631
24795SOL    HW175826   7.383   3.191   7.599
24795SOL    HW275827   7.462   3.085   7.672
24796SOL     OW75828   7.550   3.636   8.398
24796SOL    HW175829   7.515   3.563   8.348
24796SOL    HW275830   7.636   3.654   8.359
24797SOL     OW75831   7.481   2.410   8.567
24797SOL    HW175832   7.562   2.416   8.516
24797SOL    HW275833   7.510   2.412   8.658
24798SOL     OW75834   7.634   2.386   9.183
24798SOL    HW175835   7.699   2.351   9.122
24798SOL    HW275836   7.594   2.460   9.135
24799SOL     OW75837   0.210   2.372   7.746
24799SOL    HW175838   0.168   2.288   7.764
24799SOL    HW275839   0.183   2.429   7.818
24800SOL     OW75840   7.689   3.411   9.161
24800SOL    HW175841   7.672   3.475   9.230
24800SOL    HW275842   7.706   3.329   9.207
24801SOL     OW75843   7.906   2.363   7.597
24801SOL    HW175844   7.958   2.434   7.636
24801SOL    HW275845   7.816   2.394   7.603
24802SOL     OW75846   7.580   3.004   8.931
24802SOL    HW175847   7.582   2.961   9.016
24802SOL    HW275848   7.598   2.935   8.868
24803SOL     OW75849   7.540   3.120   8.468
24803SOL    HW175850   7.519   3.137   8.559
24803SOL    HW275851   7.459   3.082   8.431
24804SOL     OW75852   7.595   3.657   9.291
24804SOL    HW175853   7.547   3.587   9.335
24804SOL    HW275854   7.643   3.702   9.361
24805SOL     OW75855   7.718   2.190   8.162
24805SOL    HW175856   7.634   2.225   8.134
24805SOL    HW275857   7.710   2.179   8.257
24806SOL     OW75858   7.815   3.155   8.961
24806SOL    HW175859   7.812   3.230   8.902
24806SOL    HW275860   7.734   3.107   8.944
24807SOL     OW75861   8.023   3.422   7.872
24807SOL    HW175862   7.981   3.349   7.918
24807SOL    HW275863   7.989   3.500   7.916
24808SOL     OW75864   7.724   3.189   7.753
24808SOL    HW175865   7.637   3.189   7.714
24808SOL    HW275866   7.715   3.241   7.833
24809SOL     OW75867   7.566   2.902   9.186
24809SOL    HW175868   7.487   2.874   9.232
24809SOL    HW275869   7.637   2.855   9.228
24810SOL     OW75870   7.501   2.195   7.487
24810SOL    HW175871   7.417   2.174   7.446
24810SOL    HW275872   7.529   2.276   7.445
24811SOL     OW75873   7.503   2.013   7.742
24811SOL    HW175874   7.486   2.087   7.684
24811SOL    HW275875   7.592   1.985   7.719
24812SOL     OW75876   7.831   3.620   9.018
24812SOL    HW175877   7.747   3.659   8.996
24812SOL    HW275878   7.810   3.532   9.049
24813SOL     OW75879   7.696   3.161   9.296
24813SOL    HW175880   7.640   3.096   9.254
24813SOL    HW275881   7.654   3.176   9.381
24814SOL     OW75882   7.539   3.096   8.122
24814SOL    HW175883   7.529   3.045   8.201
24814SOL    HW275884   7.602   3.047   8.069
24815SOL     OW75885   0.101   3.304   8.996
24815SOL    HW175886   0.051   3.244   9.050
24815SOL    HW275887   0.174   3.332   9.051
24816SOL     OW75888   7.794   2.426   8.739
24816SOL    HW175889   7.861   2.375   8.783
24816SOL    HW275890   7.801   2.402   8.646
24817SOL     OW75891   7.487   2.923   7.763
24817SOL    HW175892   7.577   2.909   7.736
24817SOL    HW275893   7.455   2.836   7.788
24818SOL     OW75894   7.656   2.471   9.448
24818SOL    HW175895   7.566   2.472   9.481
24818SOL    HW275896   7.646   2.460   9.354
24819SOL     OW75897   7.673   2.144  10.302
24819SOL    HW175898   7.698   2.111  10.388
24819SOL    HW275899   7.583   2.112  10.290
24820SOL     OW75900   7.450   2.249   9.953
24820SOL    HW175901   7.368   2.276   9.996
24820SOL    HW275902   7.425   2.173   9.901
24821SOL     OW75903   7.751   3.299  10.360
24821SOL    HW175904   7.676   3.241  10.351
24821SOL    HW275905   7.784   3.311  10.271
24822SOL     OW75906   7.850   2.275  10.860
24822SOL    HW175907   7.928   2.225  10.837
24822SOL    HW275908   7.777   2.217  10.838
24823SOL     OW75909   7.662   3.576   9.786
24823SOL    HW175910   7.679   3.656   9.834
24823SOL    HW275911   7.742   3.560   9.735
24824SOL     OW75912   7.674   3.306   9.849
24824SOL    HW175913   7.656   3.400   9.843
24824SOL    HW275914   7.610   3.273   9.912
24825SOL     OW75915   7.714   2.954  10.208
24825SOL    HW175916   7.702   2.865  10.241
24825SOL    HW275917   7.654   3.007  10.260
24826SOL     OW75918   7.573   2.507   9.878
24826SOL    HW175919   7.531   2.424   9.899
24826SOL    HW275920   7.560   2.561   9.957
24827SOL     OW75921   7.501   3.448   9.430
24827SOL    HW175922   7.478   3.357   9.448
24827SOL    HW275923   7.467   3.496   9.506
24828SOL     OW75924   7.551   2.603  10.893
24828SOL    HW175925   7.640   2.640  10.894
24828SOL    HW275926   7.494   2.678  10.880
24829SOL     OW75927   7.635   2.813  10.607
24829SOL    HW175928   7.723   2.777  10.600
24829SOL    HW275929   7.590   2.782  10.529
24830SOL     OW75930   7.759   2.116  11.157
24830SOL    HW175931   7.807   2.198  11.170
24830SOL    HW275932   7.667   2.140  11.167
24831SOL     OW75933   8.007   2.597   9.571
24831SOL    HW175934   8.021   2.690   9.553
24831SOL    HW275935   7.944   2.596   9.643
24832SOL     OW75936   7.536   2.676  10.090
24832SOL    HW175937   7.612   2.676  10.147
24832SOL    HW275938   7.484   2.751  10.119
24833SOL     OW75939   7.571   3.732  10.895
24833SOL    HW175940   7.577   3.711  10.988
24833SOL    HW275941   7.494   3.683  10.864
24834SOL     OW75942   7.964   2.060  10.192
24834SOL    HW175943   7.963   2.074  10.287
24834SOL    HW275944   7.959   2.149  10.155
24835SOL     OW75945   7.810   3.699  10.177
24835SOL    HW175946   7.876   3.629  10.181
24835SOL    HW275947   7.861   3.779  10.188
24836SOL     OW75948   7.742   2.825   9.565
24836SOL    HW175949   7.808   2.851   9.501
24836SOL    HW275950   7.723   2.734   9.545
24837SOL     OW75951   7.955   3.104  11.052
24837SOL    HW175952   7.915   3.110  10.965
24837SOL    HW275953   7.883   3.125  11.112
24838SOL     OW75954   7.631   2.123  10.806
24838SOL    HW175955   7.553   2.177  10.822
24838SOL    HW275956   7.609   2.037  10.842
24839SOL     OW75957   7.703   3.651  10.533
24839SOL    HW175958   7.748   3.574  10.568
24839SOL    HW275959   7.683   3.627  10.442
24840SOL     OW75960   7.825   2.565   9.772
24840SOL    HW175961   7.874   2.499   9.822
24840SOL    HW275962   7.734   2.553   9.798
24841SOL     OW75963   0.012   1.941   9.457
24841SOL    HW175964   0.107   1.929   9.465
24841SOL    HW275965  -0.004   1.946   9.363
24842SOL     OW75966   7.991   1.879   9.829
24842SOL    HW175967   7.902   1.902   9.858
24842SOL    HW275968   8.019   1.954   9.777
24843SOL     OW75969   7.740   1.927   9.489
24843SOL    HW175970   7.745   1.998   9.425
24843SOL    HW275971   7.831   1.903   9.505
24844SOL     OW75972   7.924   2.961  10.037
24844SOL    HW175973   7.853   2.958  10.100
24844SOL    HW275974   7.881   2.962   9.952
24845SOL     OW75975   7.540   2.412  10.699
24845SOL    HW175976   7.633   2.414  10.675
24845SOL    HW275977   7.531   2.481  10.765
24846SOL     OW75978   7.988   2.058  10.460
24846SOL    HW175979   8.039   2.001  10.518
24846SOL    HW275980   7.902   2.064  10.502
24847SOL     OW75981   7.881   2.688  10.595
24847SOL    HW175982   7.976   2.684  10.606
24847SOL    HW275983   7.853   2.596  10.595
24848SOL     OW75984   7.522   3.435  10.671
24848SOL    HW175985   7.493   3.503  10.610
24848SOL    HW275986   7.617   3.430  10.659
24849SOL     OW75987   7.795   2.978   9.794
24849SOL    HW175988   7.781   3.057   9.742
24849SOL    HW275989   7.778   2.906   9.733
24850SOL     OW75990  -0.027   2.430  10.178
24850SOL    HW175991   0.012   2.506  10.135
24850SOL    HW275992   0.015   2.425  10.264
24851SOL     OW75993   7.786   3.393  10.616
24851SOL    HW175994   7.784   3.350  10.531
24851SOL    HW275995   7.878   3.415  10.630
24852SOL     OW75996   7.837   2.604  10.911
24852SOL    HW175997   7.893   2.654  10.851
24852SOL    HW275998   7.867   2.514  10.903
24853SOL     OW75999   7.936   1.946  11.045
24853SOL    HW176000   7.890   1.879  10.994
24853SOL    HW276001   7.867   2.006  11.074
24854SOL     OW76002   7.989   2.785  10.351
24854SOL    HW176003   8.006   2.879  10.342
24854SOL    HW276004   7.939   2.778  10.433
24855SOL     OW76005   7.736   2.055  10.560
24855SOL    HW176006   7.694   2.087  10.639
24855SOL    HW276007   7.718   1.961  10.559
24856SOL     OW76008   7.488   3.174  10.590
24856SOL    HW176009   7.524   3.119  10.660
24856SOL    HW276010   7.496   3.264  10.622
24857SOL     OW76011   7.738   1.931   9.932
24857SOL    HW176012   7.726   2.025   9.948
24857SOL    HW276013   7.756   1.895  10.019
24858SOL     OW76014   7.808   2.782  11.125
24858SOL    HW176015   7.894   2.823  11.112
24858SOL    HW276016   7.810   2.705  11.067
24859SOL     OW76017   7.743   2.678  10.272
24859SOL    HW176018   7.835   2.702  10.275
24859SOL    HW276019   7.741   2.585  10.293
24860SOL     OW76020   7.748   2.400  10.320
24860SOL    HW176021   7.720   2.309  10.309
24860SOL    HW276022   7.824   2.409  10.263
24861SOL     OW76023   7.468   3.172   9.499
24861SOL    HW176024   7.380   3.193   9.466
24861SOL    HW276025   7.459   3.085   9.537
24862SOL     OW76026   7.550   3.638  10.261
24862SOL    HW176027   7.516   3.565  10.210
24862SOL    HW276028   7.634   3.659  10.222
24863SOL     OW76029   7.482   2.412  10.429
24863SOL    HW176030   7.562   2.417  10.377
24863SOL    HW276031   7.512   2.413  10.520
24864SOL     OW76032   7.636   2.386  11.044
24864SOL    HW176033   7.705   2.354  10.987
24864SOL    HW276034   7.596   2.459  10.996
24865SOL     OW76035   0.212   2.370   9.609
24865SOL    HW176036   0.165   2.288   9.625
24865SOL    HW276037   0.184   2.428   9.680
24866SOL     OW76038   7.685   3.410  11.023
24866SOL    HW176039   7.673   3.473  11.094
24866SOL    HW276040   7.705   3.327  11.068
24867SOL     OW76041   7.909   2.361   9.466
24867SOL    HW176042   7.959   2.434   9.502
24867SOL    HW276043   7.818   2.390   9.468
24868SOL     OW76044   7.579   3.005  10.791
24868SOL    HW176045   7.582   2.962  10.876
24868SOL    HW276046   7.598   2.935  10.728
24869SOL     OW76047   7.536   3.121  10.331
24869SOL    HW176048   7.511   3.138  10.422
24869SOL    HW276049   7.461   3.078  10.292
24870SOL     OW76050   7.590   3.659  11.155
24870SOL    HW176051   7.544   3.588  11.199
24870SOL    HW276052   7.640   3.702  11.225
24871SOL     OW76053   7.719   2.190  10.024
24871SOL    HW176054   7.635   2.225   9.996
24871SOL    HW276055   7.711   2.179  10.119
24872SOL     OW76056   7.815   3.154  10.824
24872SOL    HW176057   7.816   3.228  10.763
24872SOL    HW276058   7.734   3.108  10.805
24873SOL     OW76059  -0.013   3.435   9.724
24873SOL    HW176060  -0.006   3.356   9.777
24873SOL    HW276061   0.060   3.490   9.753
24874SOL     OW76062   7.723   3.188   9.613
24874SOL    HW176063   7.634   3.189   9.577
24874SOL    HW276064   7.717   3.242   9.692
24875SOL     OW76065   7.566   2.904  11.047
24875SOL    HW176066   7.487   2.875  11.093
24875SOL    HW276067   7.637   2.855  11.088
24876SOL     OW76068   7.501   2.197   9.345
24876SOL    HW176069   7.421   2.177   9.295
24876SOL    HW276070   7.534   2.277   9.305
24877SOL     OW76071   7.503   2.014   9.603
24877SOL    HW176072   7.485   2.087   9.544
24877SOL    HW276073   7.592   1.986   9.580
24878SOL     OW76074   7.832   3.621  10.879
24878SOL    HW176075   7.747   3.659  10.858
24878SOL    HW276076   7.812   3.531  10.907
24879SOL     OW76077   7.700   3.161  11.159
24879SOL    HW176078   7.641   3.096  11.119
24879SOL    HW276079   7.667   3.172  11.248
24880SOL     OW76080   7.536   3.090   9.982
24880SOL    HW176081   7.550   3.038  10.062
24880SOL    HW276082   7.601   3.057   9.920
24881SOL     OW76083   0.098   3.308  10.860
24881SOL    HW176084   0.051   3.245  10.915
24881SOL    HW276085   0.174   3.333  10.913
24882SOL     OW76086   7.794   2.425  10.599
24882SOL    HW176087   7.864   2.375  10.641
24882SOL    HW276088   7.800   2.403  10.506
24883SOL     OW76089   7.485   2.922   9.627
24883SOL    HW176090   7.576   2.911   9.600
24883SOL    HW276091   7.455   2.834   9.650
24884SOL     OW76092   7.655   2.474  11.309
24884SOL    HW176093   7.565   2.472  11.343
24884SOL    HW276094   7.646   2.461  11.215
24885SOL     OW76095   7.668   2.150  12.156
24885SOL    HW176096   7.697   2.114  12.240
24885SOL    HW276097   7.578   2.116  12.146
24886SOL     OW76098   7.450   2.251  11.813
24886SOL    HW176099   7.370   2.276  11.859
24886SOL    HW276100   7.426   2.175  11.761
24887SOL     OW76101   7.764   3.295  12.219
24887SOL    HW176102   7.682   3.247  12.211
24887SOL    HW276103   7.797   3.300  12.129
24888SOL     OW76104   7.664   3.576  11.648
24888SOL    HW176105   7.683   3.656  11.696
24888SOL    HW276106   7.747   3.553  11.604
24889SOL     OW76107   7.675   3.303  11.707
24889SOL    HW176108   7.654   3.397  11.708
24889SOL    HW276109   7.615   3.265  11.770
24890SOL     OW76110   7.707   2.953  12.077
24890SOL    HW176111   7.705   2.863  12.110
24890SOL    HW276112   7.653   3.002  12.138
24891SOL     OW76113   7.570   2.511  11.740
24891SOL    HW176114   7.531   2.426  11.762
24891SOL    HW276115   7.558   2.564  11.818
24892SOL     OW76116   7.497   3.450  11.296
24892SOL    HW176117   7.479   3.358  11.313
24892SOL    HW276118   7.465   3.496  11.374
24893SOL     OW76119   7.598   2.596   0.207
24893SOL    HW176120   7.597   2.602   0.302
24893SOL    HW276121   7.528   2.655   0.178
24894SOL     OW76122   7.635   2.858  12.391
24894SOL    HW176123   7.713   2.805  12.405
24894SOL    HW276124   7.566   2.813  12.440
24895SOL     OW76125   8.005   2.596  11.432
24895SOL    HW176126   8.022   2.689  11.417
24895SOL    HW276127   7.942   2.594  11.505
24896SOL     OW76128   7.534   2.688  11.948
24896SOL    HW176129   7.615   2.681  11.999
24896SOL    HW276130   7.488   2.762  11.987
24897SOL     OW76131   7.959   2.062  12.043
24897SOL    HW176132   7.963   2.072  12.138
24897SOL    HW276133   7.962   2.151  12.008
24898SOL     OW76134   7.823   3.694  12.039
24898SOL    HW176135   7.886   3.630  12.071
24898SOL    HW276136   7.870   3.778  12.040
24899SOL     OW76137   7.742   2.825  11.428
24899SOL    HW176138   7.811   2.850  11.366
24899SOL    HW276139   7.724   2.733  11.408
24900SOL     OW76140   7.667   3.663  12.393
24900SOL    HW176141   7.706   3.584  12.431
24900SOL    HW276142   7.647   3.638  12.303
24901SOL     OW76143   7.824   2.565  11.633
24901SOL    HW176144   7.873   2.503  11.688
24901SOL    HW276145   7.733   2.552  11.659
24902SOL     OW76146   0.013   1.943  11.316
24902SOL    HW176147   0.107   1.927  11.326
24902SOL    HW276148  -0.001   1.949  11.221
24903SOL     OW76149   7.985   1.873  11.676
24903SOL    HW176150   7.901   1.897  11.715
24903SOL    HW276151   8.014   1.953  11.631
24904SOL     OW76152   7.739   1.926  11.351
24904SOL    HW176153   7.748   1.997  11.288
24904SOL    HW276154   7.829   1.900  11.370
24905SOL     OW76155   7.916   2.978  11.904
24905SOL    HW176156   7.845   2.967  11.967
24905SOL    HW276157   7.873   2.973  11.819
24906SOL     OW76158   7.990   2.074  12.310
24906SOL    HW176159   8.036   2.035  12.385
24906SOL    HW276160   7.899   2.077  12.338
24907SOL     OW76161   7.866   2.699  12.442
24907SOL    HW176162   7.911   2.722  12.524
24907SOL    HW276163   7.851   2.605  12.448
24908SOL     OW76164   7.789   2.978  11.659
24908SOL    HW176165   7.777   3.057  11.605
24908SOL    HW276166   7.775   2.906  11.598
24909SOL     OW76167  -0.016   2.418  12.056
24909SOL    HW176168   0.021   2.492  12.007
24909SOL    HW276169   0.027   2.423  12.142
24910SOL     OW76170   7.786   3.431  12.469
24910SOL    HW176171   7.782   3.372  12.394
24910SOL    HW276172   7.873   3.417  12.506
24911SOL     OW76173   7.900   2.598   0.206
24911SOL    HW176174   7.992   2.607   0.232
24911SOL    HW276175   7.854   2.580   0.287
24912SOL     OW76176   7.998   2.780  12.217
24912SOL    HW176177   8.009   2.875  12.212
24912SOL    HW276178   7.947   2.765  12.297
24913SOL     OW76179   7.737   2.061  12.405
24913SOL    HW176180   7.721   2.093  12.494
24913SOL    HW276181   7.719   1.967  12.411
24914SOL     OW76182   7.508   3.200  12.434
24914SOL    HW176183   7.540   3.125  12.484
24914SOL    HW276184   7.514   3.273  12.495
24915SOL     OW76185   7.741   1.931  11.796
24915SOL    HW176186   7.730   2.024  11.814
24915SOL    HW276187   7.759   1.892  11.881
24916SOL     OW76188   7.753   2.676  12.114
24916SOL    HW176189   7.844   2.699  12.132
24916SOL    HW276190   7.746   2.585  12.143
24917SOL     OW76191   7.746   2.405  12.177
24917SOL    HW176192   7.718   2.314  12.169
24917SOL    HW276193   7.829   2.410  12.130
24918SOL     OW76194   7.465   3.175  11.365
24918SOL    HW176195   7.378   3.195  11.331
24918SOL    HW276196   7.457   3.086  11.400
24919SOL     OW76197   7.562   3.645  12.119
24919SOL    HW176198   7.529   3.567  12.074
24919SOL    HW276199   7.649   3.659  12.083
24920SOL     OW76200   7.494   2.427  12.284
24920SOL    HW176201   7.575   2.433  12.233
24920SOL    HW276202   7.516   2.368  12.357
24921SOL     OW76203   0.211   2.369  11.471
24921SOL    HW176204   0.167   2.287  11.489
24921SOL    HW276205   0.183   2.427  11.542
24922SOL     OW76206   7.908   2.361  11.323
24922SOL    HW176207   7.959   2.433  11.361
24922SOL    HW276208   7.817   2.391  11.328
24923SOL     OW76209   7.521   3.152  12.170
24923SOL    HW176210   7.508   3.165  12.264
24923SOL    HW276211   7.462   3.081  12.147
24924SOL     OW76212   7.721   2.193  11.881
24924SOL    HW176213   7.635   2.226  11.854
24924SOL    HW276214   7.713   2.182  11.976
24925SOL     OW76215  -0.018   3.435  11.589
24925SOL    HW176216  -0.011   3.357  11.643
24925SOL    HW276217   0.056   3.490  11.616
24926SOL     OW76218   7.721   3.189  11.469
24926SOL    HW176219   7.631   3.189  11.437
24926SOL    HW276220   7.718   3.241  11.549
24927SOL     OW76221   7.504   2.197  11.205
24927SOL    HW176222   7.424   2.178  11.156
24927SOL    HW276223   7.538   2.277  11.163
24928SOL     OW76224   7.503   2.013  11.466
24928SOL    HW176225   7.487   2.087  11.407
24928SOL    HW276226   7.591   1.984  11.444
24929SOL     OW76227   7.772   3.575   0.246
24929SOL    HW176228   7.738   3.540   0.164
24929SOL    HW276229   7.849   3.522   0.266
24930SOL     OW76230   7.538   3.093  11.845
24930SOL    HW176231   7.548   3.049  11.929
24930SOL    HW276232   7.601   3.050  11.788
24931SOL     OW76233   7.484   2.922  11.487
24931SOL    HW176234   7.576   2.911  11.461
24931SOL    HW276235   7.455   2.833  11.509
24932SOL     OW76236   7.635   4.248   0.044
24932SOL    HW176237   7.620   4.318   0.108
24932SOL    HW276238   7.695   4.287  -0.020
24933SOL     OW76239   7.672   4.007   0.993
24933SOL    HW176240   7.698   3.974   1.079
24933SOL    HW276241   7.583   3.973   0.981
24934SOL     OW76242   7.443   4.107   0.645
24934SOL    HW176243   7.367   4.135   0.695
24934SOL    HW276244   7.415   4.026   0.602
24935SOL     OW76245   7.747   5.173   1.052
24935SOL    HW176246   7.671   5.116   1.039
24935SOL    HW276247   7.799   5.162   0.972
24936SOL     OW76248   7.857   4.131   1.520
24936SOL    HW176249   7.931   4.073   1.536
24936SOL    HW276250   7.781   4.073   1.516
24937SOL     OW76251   7.648   5.444   0.489
24937SOL    HW176252   7.679   5.518   0.540
24937SOL    HW276253   7.704   5.443   0.411
24938SOL     OW76254   7.662   5.170   0.533
24938SOL    HW176255   7.651   5.265   0.536
24938SOL    HW276256   7.605   5.136   0.602
24939SOL     OW76257   7.707   4.815   0.898
24939SOL    HW176258   7.697   4.726   0.933
24939SOL    HW276259   7.649   4.868   0.953
24940SOL     OW76260   7.558   4.359   0.574
24940SOL    HW176261   7.519   4.276   0.600
24940SOL    HW276262   7.550   4.414   0.652
24941SOL     OW76263   7.482   5.246   0.141
24941SOL    HW176264   7.395   5.209   0.129
24941SOL    HW276265   7.467   5.325   0.194
24942SOL     OW76266   7.563   4.468   1.578
24942SOL    HW176267   7.652   4.504   1.582
24942SOL    HW276268   7.506   4.545   1.581
24943SOL     OW76269   7.639   4.680   1.286
24943SOL    HW176270   7.726   4.641   1.278
24943SOL    HW276271   7.584   4.626   1.229
24944SOL     OW76272   7.765   3.989   1.849
24944SOL    HW176273   7.809   4.066   1.886
24944SOL    HW276274   7.672   4.004   1.866
24945SOL     OW76275   7.533   4.541   0.775
24945SOL    HW176276   7.609   4.536   0.833
24945SOL    HW276277   7.483   4.616   0.808
24946SOL     OW76278   7.572   5.592   1.586
24946SOL    HW176279   7.580   5.575   1.679
24946SOL    HW276280   7.492   5.545   1.560
24947SOL     OW76281   7.961   3.939   0.881
24947SOL    HW176282   7.962   3.931   0.976
24947SOL    HW276283   7.957   4.033   0.865
24948SOL     OW76284   7.818   5.560   0.870
24948SOL    HW176285   7.886   5.496   0.894
24948SOL    HW276286   7.862   5.645   0.876
24949SOL     OW76287   7.748   4.715   0.257
24949SOL    HW176288   7.837   4.741   0.235
24949SOL    HW276289   7.739   4.627   0.221
24950SOL     OW76290   7.956   4.969   1.738
24950SOL    HW176291   7.914   4.973   1.652
24950SOL    HW276292   7.886   4.989   1.800
24951SOL     OW76293   7.626   3.986   1.505
24951SOL    HW176294   7.547   4.033   1.531
24951SOL    HW276295   7.613   3.896   1.536
24952SOL     OW76296   7.701   5.512   1.229
24952SOL    HW176297   7.749   5.445   1.278
24952SOL    HW276298   7.699   5.478   1.139
24953SOL     OW76299   7.803   4.383   0.447
24953SOL    HW176300   7.869   4.364   0.514
24953SOL    HW276301   7.720   4.374   0.493
24954SOL     OW76302   0.063   3.820   0.047
24954SOL    HW176303   0.138   3.827   0.105
24954SOL    HW276304   0.050   3.726   0.036
24955SOL     OW76305   7.984   3.740   0.506
24955SOL    HW176306   7.902   3.766   0.549
24955SOL    HW276307   8.018   3.821   0.468
24956SOL     OW76308   7.918   4.843   0.735
24956SOL    HW176309   7.847   4.830   0.798
24956SOL    HW276310   7.876   4.841   0.650
24957SOL     OW76311   7.532   4.281   1.384
24957SOL    HW176312   7.625   4.277   1.362
24957SOL    HW276313   7.526   4.348   1.452
24958SOL     OW76314   7.986   3.911   1.145
24958SOL    HW176315   8.044   3.872   1.210
24958SOL    HW276316   7.902   3.919   1.190
24959SOL     OW76317   7.879   4.541   1.266
24959SOL    HW176318   7.961   4.541   1.315
24959SOL    HW276319   7.844   4.453   1.277
24960SOL     OW76320   7.524   5.298   1.362
24960SOL    HW176321   7.504   5.373   1.305
24960SOL    HW276322   7.618   5.287   1.355
24961SOL     OW76323   7.796   4.852   0.492
24961SOL    HW176324   7.786   4.936   0.446
24961SOL    HW276325   7.773   4.786   0.427
24962SOL     OW76326  -0.022   4.274   0.865
24962SOL    HW176327   0.015   4.353   0.826
24962SOL    HW276328   0.015   4.271   0.953
24963SOL     OW76329   7.786   5.251   1.313
24963SOL    HW176330   7.783   5.213   1.225
24963SOL    HW276331   7.879   5.273   1.325
24964SOL     OW76332   7.854   4.455   1.604
24964SOL    HW176333   7.943   4.488   1.589
24964SOL    HW276334   7.861   4.361   1.589
24965SOL     OW76335   7.936   3.821   1.727
24965SOL    HW176336   7.891   3.751   1.681
24965SOL    HW276337   7.866   3.877   1.761
24966SOL     OW76338   7.985   4.644   1.033
24966SOL    HW176339   8.011   4.735   1.044
24966SOL    HW276340   7.948   4.619   1.118
24967SOL     OW76341   7.733   3.919   1.251
24967SOL    HW176342   7.691   3.950   1.331
24967SOL    HW276343   7.717   3.825   1.251
24968SOL     OW76344   7.495   5.037   1.275
24968SOL    HW176345   7.525   4.980   1.345
24968SOL    HW276346   7.498   5.125   1.312
24969SOL     OW76347   7.744   3.802   0.624
24969SOL    HW176348   7.732   3.894   0.648
24969SOL    HW276349   7.762   3.758   0.707
24970SOL     OW76350   7.798   4.640   1.806
24970SOL    HW176351   7.886   4.673   1.818
24970SOL    HW276352   7.808   4.564   1.748
24971SOL     OW76353   7.740   4.538   0.954
24971SOL    HW176354   7.830   4.566   0.970
24971SOL    HW276355   7.739   4.446   0.981
24972SOL     OW76356   7.745   4.264   1.001
24972SOL    HW176357   7.718   4.172   0.998
24972SOL    HW276358   7.824   4.267   0.948
24973SOL     OW76359   7.544   5.505   0.939
24973SOL    HW176360   7.514   5.427   0.893
24973SOL    HW276361   7.634   5.519   0.908
24974SOL     OW76362   7.484   4.285   1.113
24974SOL    HW176363   7.568   4.284   1.067
24974SOL    HW276364   7.508   4.280   1.206
24975SOL     OW76365   7.620   4.250   1.738
24975SOL    HW176366   7.681   4.204   1.680
24975SOL    HW276367   7.590   4.325   1.686
24976SOL     OW76368   7.684   5.272   1.714
24976SOL    HW176369   7.668   5.334   1.786
24976SOL    HW276370   7.705   5.190   1.757
24977SOL     OW76371   7.908   4.163   0.179
24977SOL    HW176372   7.932   4.246   0.220
24977SOL    HW276373   7.816   4.174   0.155
24978SOL     OW76374   7.580   4.866   1.476
24978SOL    HW176375   7.581   4.821   1.560
24978SOL    HW276376   7.601   4.798   1.412
24979SOL     OW76377   7.533   4.993   1.014
24979SOL    HW176378   7.514   5.006   1.107
24979SOL    HW276379   7.460   4.940   0.982
24980SOL     OW76380   7.593   5.526   1.845
24980SOL    HW176381   7.547   5.456   1.890
24980SOL    HW276382   7.641   5.572   1.915
24981SOL     OW76383   7.714   4.057   0.717
24981SOL    HW176384   7.626   4.087   0.695
24981SOL    HW276385   7.711   4.042   0.811
24982SOL     OW76386   7.815   5.017   1.510
24982SOL    HW176387   7.809   5.093   1.452
24982SOL    HW276388   7.734   4.968   1.495
24983SOL     OW76389  -0.012   5.257   0.416
24983SOL    HW176390  -0.003   5.183   0.475
24983SOL    HW276391   0.035   5.328   0.459
24984SOL     OW76392   7.741   5.062   0.301
24984SOL    HW176393   7.669   5.081   0.242
24984SOL    HW276394   7.719   5.108   0.382
24985SOL     OW76395   7.558   4.754   1.723
24985SOL    HW176396   7.482   4.732   1.777
24985SOL    HW276397   7.632   4.713   1.768
24986SOL     OW76398   7.516   3.870   0.324
24986SOL    HW176399   7.508   3.960   0.291
24986SOL    HW276400   7.609   3.861   0.346
24987SOL     OW76401   7.829   5.480   1.567
24987SOL    HW176402   7.742   5.518   1.553
24987SOL    HW276403   7.812   5.392   1.600
24988SOL     OW76404   7.708   5.031   1.855
24988SOL    HW176405   7.637   4.971   1.832
24988SOL    HW276406   7.700   5.042   1.949
24989SOL     OW76407   7.531   4.955   0.677
24989SOL    HW176408   7.551   4.906   0.756
24989SOL    HW276409   7.590   4.918   0.611
24990SOL     OW76410   0.100   5.168   1.546
24990SOL    HW176411   0.053   5.103   1.599
24990SOL    HW276412   0.173   5.196   1.602
24991SOL     OW76413   7.788   4.282   1.295
24991SOL    HW176414   7.838   4.230   1.358
24991SOL    HW276415   7.814   4.247   1.210
24992SOL     OW76416   7.487   4.796   0.349
24992SOL    HW176417   7.573   4.792   0.308
24992SOL    HW276418   7.472   4.707   0.382
24993SOL     OW76419   7.652   4.342   1.999
24993SOL    HW176420   7.565   4.337   2.039
24993SOL    HW276421   7.638   4.325   1.906
24994SOL     OW76422   7.672   4.005   2.855
24994SOL    HW176423   7.698   3.972   2.941
24994SOL    HW276424   7.583   3.972   2.843
24995SOL     OW76425   7.446   4.116   2.504
24995SOL    HW176426   7.366   4.142   2.550
24995SOL    HW276427   7.421   4.038   2.455
24996SOL     OW76428   7.750   5.168   2.913
24996SOL    HW176429   7.675   5.109   2.903
24996SOL    HW276430   7.789   5.173   2.826
24997SOL     OW76431   7.863   4.164   3.388
24997SOL    HW176432   7.945   4.115   3.397
24997SOL    HW276433   7.795   4.096   3.391
24998SOL     OW76434   7.671   5.440   2.337
24998SOL    HW176435   7.684   5.519   2.390
24998SOL    HW276436   7.760   5.414   2.313
24999SOL     OW76437   7.672   5.162   2.391
24999SOL    HW176438   7.649   5.254   2.398
24999SOL    HW276439   7.616   5.119   2.456
25000SOL     OW76440   7.716   4.814   2.763
25000SOL    HW176441   7.703   4.726   2.799
25000SOL    HW276442   7.655   4.869   2.813
25001SOL     OW76443   7.570   4.373   2.428
25001SOL    HW176444   7.531   4.289   2.451
25001SOL    HW276445   7.560   4.426   2.507
25002SOL     OW76446   7.497   5.312   1.978
25002SOL    HW176447   7.480   5.219   1.996
25002SOL    HW276448   7.468   5.358   2.056
25003SOL     OW76449   7.594   4.508   3.417
25003SOL    HW176450   7.608   4.552   3.501
25003SOL    HW276451   7.520   4.554   3.378
25004SOL     OW76452   7.640   4.678   3.156
25004SOL    HW176453   7.723   4.633   3.170
25004SOL    HW276454   7.601   4.635   3.080
25005SOL     OW76455   7.756   4.028   3.679
25005SOL    HW176456   7.815   4.067   3.744
25005SOL    HW276457   7.673   4.018   3.724
25006SOL     OW76458   8.005   4.463   2.117
25006SOL    HW176459   8.024   4.557   2.120
25006SOL    HW276460   7.944   4.449   2.189
25007SOL     OW76461   7.539   4.547   2.638
25007SOL    HW176462   7.613   4.540   2.698
25007SOL    HW276463   7.488   4.620   2.671
25008SOL     OW76464   7.571   5.593   3.448
25008SOL    HW176465   7.580   5.574   3.541
25008SOL    HW276466   7.488   5.553   3.423
25009SOL     OW76467   7.961   3.931   2.742
25009SOL    HW176468   7.962   3.931   2.838
25009SOL    HW276469   7.957   4.024   2.718
25010SOL     OW76470   7.822   5.558   2.737
25010SOL    HW176471   7.893   5.498   2.761
25010SOL    HW276472   7.861   5.645   2.740
25011SOL     OW76473   7.746   4.689   2.122
25011SOL    HW176474   7.833   4.706   2.085
25011SOL    HW276475   7.726   4.600   2.096
25012SOL     OW76476   7.950   4.970   3.601
25012SOL    HW176477   7.909   4.976   3.515
25012SOL    HW276478   7.879   4.991   3.662
25013SOL     OW76479   7.638   3.990   3.365
25013SOL    HW176480   7.552   4.031   3.369
25013SOL    HW276481   7.625   3.902   3.399
25014SOL     OW76482   7.702   5.512   3.091
25014SOL    HW176483   7.750   5.444   3.138
25014SOL    HW276484   7.697   5.480   3.001
25015SOL     OW76485   7.827   4.418   2.318
25015SOL    HW176486   7.875   4.366   2.382
25015SOL    HW276487   7.735   4.408   2.344
25016SOL     OW76488   0.015   3.821   1.999
25016SOL    HW176489   0.108   3.798   2.009
25016SOL    HW276490   0.002   3.823   1.904
25017SOL     OW76491   7.972   3.734   2.351
25017SOL    HW176492   7.895   3.760   2.400
25017SOL    HW276493   8.009   3.816   2.318
25018SOL     OW76494   7.739   3.781   2.047
25018SOL    HW176495   7.773   3.851   1.992
25018SOL    HW276496   7.817   3.736   2.079
25019SOL     OW76497   7.925   4.827   2.593
25019SOL    HW176498   7.854   4.821   2.657
25019SOL    HW276499   7.879   4.826   2.508
25020SOL     OW76500   7.536   4.286   3.253
25020SOL    HW176501   7.626   4.276   3.223
25020SOL    HW276502   7.538   4.363   3.310
25021SOL     OW76503   7.989   3.916   3.007
25021SOL    HW176504   8.048   3.878   3.072
25021SOL    HW276505   7.904   3.921   3.052
25022SOL     OW76506   7.874   4.534   3.186
25022SOL    HW176507   7.970   4.536   3.187
25022SOL    HW276508   7.853   4.445   3.158
25023SOL     OW76509   7.524   5.298   3.223
25023SOL    HW176510   7.503   5.374   3.168
25023SOL    HW276511   7.619   5.289   3.216
25024SOL     OW76512   7.792   4.842   2.352
25024SOL    HW176513   7.776   4.922   2.303
25024SOL    HW276514   7.773   4.772   2.289
25025SOL     OW76515  -0.026   4.289   2.726
25025SOL    HW176516   0.015   4.366   2.685
25025SOL    HW276517   0.015   4.283   2.812
25026SOL     OW76518   7.788   5.251   3.174
25026SOL    HW176519   7.784   5.211   3.086
25026SOL    HW276520   7.880   5.273   3.186
25027SOL     OW76521   7.922   3.819   3.601
25027SOL    HW176522   7.884   3.751   3.546
25027SOL    HW276523   7.853   3.885   3.611
25028SOL     OW76524   7.978   4.655   2.915
25028SOL    HW176525   8.009   4.743   2.894
25028SOL    HW276526   7.937   4.664   3.001
25029SOL     OW76527   7.738   3.920   3.114
25029SOL    HW176528   7.699   3.951   3.195
25029SOL    HW276529   7.721   3.826   3.112
25030SOL     OW76530   7.503   5.037   3.137
25030SOL    HW176531   7.528   4.982   3.211
25030SOL    HW276532   7.502   5.126   3.173
25031SOL     OW76533   7.743   3.794   2.490
25031SOL    HW176534   7.730   3.887   2.508
25031SOL    HW276535   7.762   3.755   2.575
25032SOL     OW76536   7.846   4.567   3.605
25032SOL    HW176537   7.827   4.564   3.699
25032SOL    HW276538   7.917   4.630   3.597
25033SOL     OW76539   7.741   4.538   2.828
25033SOL    HW176540   7.832   4.565   2.840
25033SOL    HW276541   7.740   4.444   2.845
25034SOL     OW76542   7.747   4.261   2.866
25034SOL    HW176543   7.719   4.170   2.858
25034SOL    HW276544   7.823   4.269   2.809
25035SOL     OW76545   7.461   5.036   2.051
25035SOL    HW176546   7.373   5.056   2.017
25035SOL    HW276547   7.453   4.948   2.088
25036SOL     OW76548   7.546   5.502   2.803
25036SOL    HW176549   7.515   5.425   2.756
25036SOL    HW276550   7.636   5.515   2.772
25037SOL     OW76551   7.480   4.279   2.978
25037SOL    HW176552   7.561   4.277   2.927
25037SOL    HW276553   7.509   4.280   3.069
25038SOL     OW76554   7.658   4.265   3.574
25038SOL    HW176555   7.691   4.178   3.593
25038SOL    HW276556   7.568   4.251   3.543
25039SOL     OW76557   0.209   4.230   2.162
25039SOL    HW176558   0.168   4.146   2.184
25039SOL    HW276559   0.185   4.288   2.235
25040SOL     OW76560   7.685   5.274   3.576
25040SOL    HW176561   7.669   5.339   3.643
25040SOL    HW276562   7.708   5.194   3.624
25041SOL     OW76563   7.902   4.226   2.001
25041SOL    HW176564   7.957   4.292   2.043
25041SOL    HW276565   7.813   4.259   2.010
25042SOL     OW76566   7.577   4.864   3.345
25042SOL    HW176567   7.580   4.817   3.428
25042SOL    HW276568   7.598   4.798   3.279
25043SOL     OW76569   7.538   4.986   2.878
25043SOL    HW176570   7.520   5.002   2.971
25043SOL    HW276571   7.459   4.944   2.846
25044SOL     OW76572   7.597   5.521   3.706
25044SOL    HW176573   7.548   5.452   3.752
25044SOL    HW276574   7.642   5.569   3.775
25045SOL     OW76575   7.716   4.054   2.578
25045SOL    HW176576   7.631   4.087   2.551
25045SOL    HW276577   7.709   4.039   2.672
25046SOL     OW76578   7.812   5.017   3.373
25046SOL    HW176579   7.809   5.092   3.314
25046SOL    HW276580   7.730   4.970   3.356
25047SOL     OW76581  -0.010   5.290   2.274
25047SOL    HW176582  -0.004   5.219   2.338
25047SOL    HW276583   0.052   5.355   2.305
25048SOL     OW76584   7.717   5.059   2.146
25048SOL    HW176585   7.625   5.054   2.121
25048SOL    HW276586   7.716   5.107   2.229
25049SOL     OW76587   7.557   4.739   3.594
25049SOL    HW176588   7.472   4.728   3.636
25049SOL    HW276589   7.619   4.743   3.666
25050SOL     OW76590   7.506   4.056   1.905
25050SOL    HW176591   7.417   4.037   1.875
25050SOL    HW276592   7.532   4.135   1.857
25051SOL     OW76593   7.504   3.875   2.157
25051SOL    HW176594   7.491   3.951   2.101
25051SOL    HW276595   7.592   3.843   2.134
25052SOL     OW76596   7.828   5.481   3.428
25052SOL    HW176597   7.742   5.519   3.413
25052SOL    HW276598   7.811   5.393   3.460
25053SOL     OW76599   7.705   5.032   3.725
25053SOL    HW176600   7.614   5.007   3.711
25053SOL    HW276601   7.712   5.048   3.819
25054SOL     OW76602   7.541   4.952   2.536
25054SOL    HW176603   7.534   4.906   2.619
25054SOL    HW276604   7.608   4.904   2.487
25055SOL     OW76605   0.098   5.164   3.409
25055SOL    HW176606   0.051   5.101   3.464
25055SOL    HW276607   0.171   5.194   3.463
25056SOL     OW76608   7.784   4.279   3.143
25056SOL    HW176609   7.843   4.219   3.187
25056SOL    HW276610   7.793   4.259   3.050
25057SOL     OW76611   7.485   4.783   2.172
25057SOL    HW176612   7.577   4.772   2.147
25057SOL    HW276613   7.456   4.695   2.196
25058SOL     OW76614   7.661   4.360   3.843
25058SOL    HW176615   7.577   4.353   3.887
25058SOL    HW276616   7.643   4.340   3.751
25059SOL     OW76617   7.673   4.006   4.718
25059SOL    HW176618   7.699   3.972   4.804
25059SOL    HW276619   7.584   3.974   4.705
25060SOL     OW76620   7.443   4.116   4.366
25060SOL    HW176621   7.364   4.144   4.411
25060SOL    HW276622   7.418   4.037   4.319
25061SOL     OW76623   7.751   5.167   4.774
25061SOL    HW176624   7.676   5.109   4.767
25061SOL    HW276625   7.787   5.172   4.685
25062SOL     OW76626   7.885   4.083   5.235
25062SOL    HW176627   7.922   3.996   5.250
25062SOL    HW276628   7.790   4.069   5.237
25063SOL     OW76629   7.670   5.438   4.202
25063SOL    HW176630   7.680   5.518   4.254
25063SOL    HW276631   7.758   5.419   4.170
25064SOL     OW76632   7.670   5.161   4.253
25064SOL    HW176633   7.652   5.255   4.257
25064SOL    HW276634   7.613   5.122   4.319
25065SOL     OW76635   7.714   4.814   4.623
25065SOL    HW176636   7.700   4.726   4.658
25065SOL    HW276637   7.654   4.870   4.672
25066SOL     OW76638   7.576   4.371   4.289
25066SOL    HW176639   7.532   4.289   4.312
25066SOL    HW276640   7.563   4.426   4.366
25067SOL     OW76641   7.498   5.309   3.841
25067SOL    HW176642   7.476   5.218   3.860
25067SOL    HW276643   7.469   5.358   3.917
25068SOL     OW76644   7.552   4.468   5.304
25068SOL    HW176645   7.636   4.514   5.313
25068SOL    HW276646   7.487   4.537   5.295
25069SOL     OW76647   7.636   4.678   5.020
25069SOL    HW176648   7.723   4.640   5.006
25069SOL    HW276649   7.581   4.637   4.953
25070SOL     OW76650   7.754   3.989   5.576
25070SOL    HW176651   7.789   4.078   5.583
25070SOL    HW276652   7.660   3.999   5.588
25071SOL     OW76653   8.008   4.468   3.964
25071SOL    HW176654   8.037   4.558   3.982
25071SOL    HW276655   7.950   4.446   4.036
25072SOL     OW76656   7.538   4.550   4.493
25072SOL    HW176657   7.612   4.542   4.553
25072SOL    HW276658   7.486   4.622   4.528
25073SOL     OW76659   7.571   5.594   5.309
25073SOL    HW176660   7.579   5.574   5.402
25073SOL    HW276661   7.489   5.552   5.282
25074SOL     OW76662   7.961   3.934   4.603
25074SOL    HW176663   7.961   3.933   4.699
25074SOL    HW276664   7.957   4.027   4.580
25075SOL     OW76665   7.821   5.558   4.598
25075SOL    HW176666   7.890   5.497   4.626
25075SOL    HW276667   7.863   5.644   4.602
25076SOL     OW76668   7.761   4.679   3.958
25076SOL    HW176669   7.855   4.696   3.961
25076SOL    HW276670   7.753   4.585   3.971
25077SOL     OW76671   7.944   4.948   5.462
25077SOL    HW176672   7.906   4.964   5.376
25077SOL    HW276673   7.876   4.977   5.524
25078SOL     OW76674   7.624   4.001   5.238
25078SOL    HW176675   7.536   4.039   5.233
25078SOL    HW276676   7.609   3.911   5.268
25079SOL     OW76677   7.705   5.514   4.951
25079SOL    HW176678   7.749   5.441   4.994
25079SOL    HW276679   7.690   5.483   4.861
25080SOL     OW76680   7.826   4.424   4.165
25080SOL    HW176681   7.883   4.390   4.233
25080SOL    HW276682   7.737   4.407   4.198
25081SOL     OW76683   0.010   3.828   3.861
25081SOL    HW176684   0.102   3.804   3.871
25081SOL    HW276685  -0.005   3.828   3.766
25082SOL     OW76686   7.960   3.730   4.202
25082SOL    HW176687   7.889   3.761   4.259
25082SOL    HW276688   8.007   3.809   4.177
25083SOL     OW76689   7.746   3.772   3.915
25083SOL    HW176690   7.826   3.816   3.887
25083SOL    HW276691   7.777   3.697   3.967
25084SOL     OW76692   7.922   4.833   4.453
25084SOL    HW176693   7.852   4.825   4.517
25084SOL    HW276694   7.878   4.830   4.368
25085SOL     OW76695   7.540   4.278   5.110
25085SOL    HW176696   7.633   4.278   5.089
25085SOL    HW276697   7.530   4.347   5.175
25086SOL     OW76698   7.988   3.912   4.869
25086SOL    HW176699   8.041   3.856   4.926
25086SOL    HW276700   7.905   3.922   4.915
25087SOL     OW76701   7.880   4.546   4.994
25087SOL    HW176702   7.973   4.548   5.020
25087SOL    HW276703   7.854   4.455   5.007
25088SOL     OW76704   7.522   5.299   5.086
25088SOL    HW176705   7.497   5.371   5.028
25088SOL    HW276706   7.617   5.293   5.076
25089SOL     OW76707   7.798   4.840   4.206
25089SOL    HW176708   7.774   4.921   4.161
25089SOL    HW276709   7.765   4.770   4.149
25090SOL     OW76710  -0.023   4.284   4.594
25090SOL    HW176711   0.016   4.361   4.552
25090SOL    HW276712   0.017   4.281   4.681
25091SOL     OW76713   7.787   5.255   5.033
25091SOL    HW176714   7.784   5.213   4.947
25091SOL    HW276715   7.880   5.276   5.046
25092SOL     OW76716   7.844   4.476   5.339
25092SOL    HW176717   7.916   4.509   5.285
25092SOL    HW276718   7.849   4.381   5.329
25093SOL     OW76719   7.933   3.830   5.451
25093SOL    HW176720   7.894   3.755   5.406
25093SOL    HW276721   7.859   3.879   5.486
25094SOL     OW76722   7.984   4.645   4.755
25094SOL    HW176723   8.003   4.739   4.754
25094SOL    HW276724   7.942   4.630   4.840
25095SOL     OW76725   7.737   3.918   4.979
25095SOL    HW176726   7.689   3.953   5.054
25095SOL    HW276727   7.717   3.825   4.978
25096SOL     OW76728   7.510   5.038   5.000
25096SOL    HW176729   7.532   4.981   5.074
25096SOL    HW276730   7.504   5.125   5.038
25097SOL     OW76731   7.741   3.794   4.354
25097SOL    HW176732   7.727   3.887   4.372
25097SOL    HW276733   7.761   3.756   4.439
25098SOL     OW76734   7.809   4.653   5.554
25098SOL    HW176735   7.876   4.713   5.521
25098SOL    HW276736   7.814   4.578   5.495
25099SOL     OW76737   7.741   4.536   4.678
25099SOL    HW176738   7.832   4.564   4.689
25099SOL    HW276739   7.740   4.445   4.706
25100SOL     OW76740   7.750   4.262   4.739
25100SOL    HW176741   7.721   4.171   4.729
25100SOL    HW276742   7.826   4.269   4.682
25101SOL     OW76743   7.460   5.034   3.906
25101SOL    HW176744   7.372   5.054   3.875
25101SOL    HW276745   7.453   4.947   3.945
25102SOL     OW76746   7.547   5.501   4.668
25102SOL    HW176747   7.515   5.425   4.619
25102SOL    HW276748   7.636   5.515   4.634
25103SOL     OW76749   7.481   4.274   4.842
25103SOL    HW176750   7.564   4.278   4.793
25103SOL    HW276751   7.507   4.275   4.934
25104SOL     OW76752   7.626   4.248   5.457
25104SOL    HW176753   7.635   4.182   5.388
25104SOL    HW276754   7.590   4.324   5.412
25105SOL     OW76755   0.207   4.233   4.025
25105SOL    HW176756   0.174   4.147   4.051
25105SOL    HW276757   0.184   4.290   4.098
25106SOL     OW76758   7.688   5.273   5.439
25106SOL    HW176759   7.669   5.335   5.508
25106SOL    HW276760   7.706   5.190   5.484
25107SOL     OW76761   7.899   4.219   3.861
25107SOL    HW176762   7.959   4.280   3.904
25107SOL    HW276763   7.814   4.261   3.866
25108SOL     OW76764   7.580   4.866   5.207
25108SOL    HW176765   7.579   4.821   5.292
25108SOL    HW276766   7.598   4.797   5.143
25109SOL     OW76767   7.538   4.985   4.742
25109SOL    HW176768   7.523   5.002   4.835
25109SOL    HW276769   7.456   4.948   4.711
25110SOL     OW76770   7.594   5.522   5.568
25110SOL    HW176771   7.546   5.452   5.611
25110SOL    HW276772   7.640   5.567   5.638
25111SOL     OW76773   7.714   4.054   4.440
25111SOL    HW176774   7.629   4.088   4.414
25111SOL    HW276775   7.708   4.042   4.534
25112SOL     OW76776   7.815   5.016   5.235
25112SOL    HW176777   7.811   5.092   5.177
25112SOL    HW276778   7.733   4.970   5.220
25113SOL     OW76779  -0.006   5.285   4.135
25113SOL    HW176780   0.001   5.217   4.202
25113SOL    HW276781   0.053   5.354   4.166
25114SOL     OW76782   7.715   5.058   4.009
25114SOL    HW176783   7.623   5.053   3.983
25114SOL    HW276784   7.715   5.107   4.091
25115SOL     OW76785   7.562   4.754   5.456
25115SOL    HW176786   7.481   4.732   5.503
25115SOL    HW276787   7.631   4.714   5.508
25116SOL     OW76788   7.500   4.055   3.782
25116SOL    HW176789   7.431   4.002   3.742
25116SOL    HW276790   7.467   4.145   3.779
25117SOL     OW76791   7.510   3.874   4.022
25117SOL    HW176792   7.496   3.954   3.972
25117SOL    HW276793   7.598   3.844   3.996
25118SOL     OW76794   7.829   5.481   5.294
25118SOL    HW176795   7.744   5.520   5.275
25118SOL    HW276796   7.809   5.394   5.327
25119SOL     OW76797   7.701   5.026   5.576
25119SOL    HW176798   7.628   4.972   5.546
25119SOL    HW276799   7.683   5.043   5.669
25120SOL     OW76800   7.538   4.955   4.404
25120SOL    HW176801   7.522   4.907   4.485
25120SOL    HW276802   7.611   4.908   4.363
25121SOL     OW76803   0.099   5.164   5.270
25121SOL    HW176804   0.047   5.104   5.324
25121SOL    HW276805   0.171   5.191   5.326
25122SOL     OW76806   7.800   4.281   5.024
25122SOL    HW176807   7.862   4.223   5.068
25122SOL    HW276808   7.807   4.258   4.932
25123SOL     OW76809   7.497   4.782   4.023
25123SOL    HW176810   7.585   4.766   3.988
25123SOL    HW276811   7.468   4.696   4.054
25124SOL     OW76812   7.653   4.337   5.720
25124SOL    HW176813   7.566   4.336   5.760
25124SOL    HW276814   7.637   4.322   5.627
25125SOL     OW76815   7.676   4.002   6.578
25125SOL    HW176816   7.699   3.972   6.666
25125SOL    HW276817   7.585   3.972   6.566
25126SOL     OW76818   7.443   4.110   6.229
25126SOL    HW176819   7.365   4.144   6.274
25126SOL    HW276820   7.412   4.032   6.183
25127SOL     OW76821   7.751   5.166   6.634
25127SOL    HW176822   7.675   5.109   6.628
25127SOL    HW276823   7.787   5.167   6.546
25128SOL     OW76824   7.865   4.115   7.101
25128SOL    HW176825   7.930   4.045   7.100
25128SOL    HW276826   7.781   4.070   7.098
25129SOL     OW76827   7.663   5.438   6.065
25129SOL    HW176828   7.679   5.518   6.115
25129SOL    HW276829   7.747   5.419   6.023
25130SOL     OW76830   7.674   5.162   6.120
25130SOL    HW176831   7.652   5.255   6.122
25130SOL    HW276832   7.616   5.122   6.184
25131SOL     OW76833   7.718   4.816   6.488
25131SOL    HW176834   7.701   4.728   6.521
25131SOL    HW276835   7.656   4.872   6.534
25132SOL     OW76836   7.586   4.371   6.146
25132SOL    HW176837   7.536   4.292   6.167
25132SOL    HW276838   7.573   4.428   6.222
25133SOL     OW76839   7.502   5.309   5.703
25133SOL    HW176840   7.478   5.218   5.720
25133SOL    HW276841   7.470   5.357   5.779
25134SOL     OW76842   7.553   4.468   7.167
25134SOL    HW176843   7.638   4.512   7.169
25134SOL    HW276844   7.490   4.539   7.155
25135SOL     OW76845   7.635   4.678   6.883
25135SOL    HW176846   7.721   4.640   6.868
25135SOL    HW276847   7.580   4.639   6.815
25136SOL     OW76848   7.757   3.984   7.436
25136SOL    HW176849   7.797   4.071   7.442
25136SOL    HW276850   7.663   4.001   7.447
25137SOL     OW76851   0.040   4.483   5.816
25137SOL    HW176852   0.037   4.579   5.812
25137SOL    HW276853  -0.023   4.460   5.885
25138SOL     OW76854   7.544   4.543   6.354
25138SOL    HW176855   7.615   4.540   6.418
25138SOL    HW276856   7.488   4.615   6.385
25139SOL     OW76857   7.573   5.596   7.169
25139SOL    HW176858   7.577   5.576   7.263
25139SOL    HW276859   7.496   5.547   7.138
25140SOL     OW76860   7.971   3.971   6.463
25140SOL    HW176861   7.963   3.964   6.558
25140SOL    HW276862   7.971   4.066   6.446
25141SOL     OW76863   7.817   5.560   6.457
25141SOL    HW176864   7.881   5.493   6.482
25141SOL    HW276865   7.865   5.642   6.462
25142SOL     OW76866   7.740   4.681   5.833
25142SOL    HW176867   7.780   4.691   5.747
25142SOL    HW276868   7.717   4.588   5.838
25143SOL     OW76869   7.953   4.965   7.328
25143SOL    HW176870   7.913   4.973   7.241
25143SOL    HW276871   7.881   4.984   7.389
25144SOL     OW76872   7.626   3.990   7.090
25144SOL    HW176873   7.541   4.033   7.091
25144SOL    HW276874   7.608   3.901   7.122
25145SOL     OW76875   7.708   5.516   6.808
25145SOL    HW176876   7.749   5.439   6.848
25145SOL    HW276877   7.683   5.487   6.720
25146SOL     OW76878   7.845   4.403   6.007
25146SOL    HW176879   7.896   4.379   6.084
25146SOL    HW276880   7.754   4.398   6.035
25147SOL     OW76881   0.018   3.819   5.720
25147SOL    HW176882   0.112   3.800   5.728
25147SOL    HW276883   0.002   3.822   5.625
25148SOL     OW76884   7.963   3.794   6.139
25148SOL    HW176885   7.887   3.812   6.084
25148SOL    HW276886   8.038   3.825   6.087
25149SOL     OW76887   7.745   3.789   5.766
25149SOL    HW176888   7.756   3.865   5.708
25149SOL    HW276889   7.833   3.752   5.775
25150SOL     OW76890   7.924   4.825   6.314
25150SOL    HW176891   7.852   4.821   6.376
25150SOL    HW276892   7.882   4.822   6.228
25151SOL     OW76893   7.539   4.279   6.973
25151SOL    HW176894   7.632   4.281   6.950
25151SOL    HW276895   7.528   4.347   7.039
25152SOL     OW76896   7.993   3.915   6.725
25152SOL    HW176897   8.054   3.886   6.793
25152SOL    HW276898   7.908   3.921   6.769
25153SOL     OW76899   7.879   4.548   6.854
25153SOL    HW176900   7.967   4.551   6.890
25153SOL    HW276901   7.849   4.458   6.869
25154SOL     OW76902   7.520   5.301   6.950
25154SOL    HW176903   7.490   5.366   6.887
25154SOL    HW276904   7.615   5.295   6.936
25155SOL     OW76905   7.816   4.834   6.057
25155SOL    HW176906   7.787   4.918   6.021
25155SOL    HW276907   7.789   4.769   5.992
25156SOL     OW76908  -0.017   4.268   6.455
25156SOL    HW176909   0.014   4.348   6.414
25156SOL    HW276910   0.020   4.269   6.543
25157SOL     OW76911   7.784   5.258   6.891
25157SOL    HW176912   7.782   5.214   6.806
25157SOL    HW276913   7.877   5.278   6.905
25158SOL     OW76914   7.845   4.468   7.196
25158SOL    HW176915   7.928   4.502   7.163
25158SOL    HW276916   7.853   4.373   7.185
25159SOL     OW76917   7.919   3.798   7.324
25159SOL    HW176918   7.878   3.736   7.263
25159SOL    HW276919   7.850   3.860   7.344
25160SOL     OW76920   7.987   4.642   6.619
25160SOL    HW176921   8.004   4.737   6.617
25160SOL    HW276922   7.945   4.627   6.703
25161SOL     OW76923   7.743   3.920   6.836
25161SOL    HW176924   7.692   3.950   6.911
25161SOL    HW276925   7.727   3.826   6.832
25162SOL     OW76926   7.510   5.038   6.862
25162SOL    HW176927   7.533   4.981   6.936
25162SOL    HW276928   7.503   5.126   6.901
25163SOL     OW76929   7.709   3.773   6.295
25163SOL    HW176930   7.707   3.869   6.294
25163SOL    HW276931   7.632   3.747   6.244
25164SOL     OW76932   7.811   4.648   7.409
25164SOL    HW176933   7.895   4.690   7.390
25164SOL    HW276934   7.809   4.572   7.351
25165SOL     OW76935   7.742   4.536   6.543
25165SOL    HW176936   7.833   4.564   6.554
25165SOL    HW276937   7.741   4.445   6.572
25166SOL     OW76938   7.751   4.259   6.598
25166SOL    HW176939   7.721   4.168   6.590
25166SOL    HW276940   7.828   4.264   6.541
25167SOL     OW76941   7.462   5.035   5.771
25167SOL    HW176942   7.375   5.055   5.738
25167SOL    HW276943   7.453   4.948   5.811
25168SOL     OW76944   7.549   5.500   6.534
25168SOL    HW176945   7.514   5.426   6.485
25168SOL    HW276946   7.635   5.517   6.495
25169SOL     OW76947   7.483   4.273   6.704
25169SOL    HW176948   7.567   4.279   6.657
25169SOL    HW276949   7.508   4.274   6.796
25170SOL     OW76950   7.628   4.249   7.320
25170SOL    HW176951   7.660   4.193   7.249
25170SOL    HW276952   7.590   4.325   7.276
25171SOL     OW76953   0.198   4.244   5.898
25171SOL    HW176954   0.224   4.165   5.945
25171SOL    HW276955   0.168   4.304   5.967
25172SOL     OW76956   7.687   5.271   7.303
25172SOL    HW176957   7.668   5.328   7.377
25172SOL    HW276958   7.704   5.186   7.342
25173SOL     OW76959   7.902   4.230   5.738
25173SOL    HW176960   7.945   4.286   5.803
25173SOL    HW276961   7.812   4.261   5.735
25174SOL     OW76962   7.580   4.867   7.070
25174SOL    HW176963   7.581   4.823   7.155
25174SOL    HW276964   7.598   4.798   7.006
25175SOL     OW76965   7.537   4.986   6.603
25175SOL    HW176966   7.521   5.002   6.696
25175SOL    HW276967   7.457   4.945   6.571
25176SOL     OW76968   7.587   5.528   7.430
25176SOL    HW176969   7.543   5.454   7.472
25176SOL    HW276970   7.638   5.569   7.501
25177SOL     OW76971   7.710   4.044   6.299
25177SOL    HW176972   7.627   4.082   6.269
25177SOL    HW276973   7.705   4.048   6.394
25178SOL     OW76974   7.816   5.018   7.099
25178SOL    HW176975   7.811   5.092   7.039
25178SOL    HW276976   7.735   4.969   7.083
25179SOL     OW76977  -0.004   5.286   5.997
25179SOL    HW176978  -0.005   5.217   6.064
25179SOL    HW276979   0.061   5.349   6.029
25180SOL     OW76980   7.717   5.055   5.877
25180SOL    HW176981   7.625   5.052   5.849
25180SOL    HW276982   7.715   5.104   5.959
25181SOL     OW76983   7.566   4.768   7.326
25181SOL    HW176984   7.486   4.740   7.370
25181SOL    HW276985   7.636   4.719   7.369
25182SOL     OW76986   7.498   4.050   5.631
25182SOL    HW176987   7.407   4.030   5.606
25182SOL    HW276988   7.515   4.135   5.591
25183SOL     OW76989   7.510   3.874   5.885
25183SOL    HW176990   7.490   3.951   5.831
25183SOL    HW276991   7.596   3.845   5.854
25184SOL     OW76992   7.832   5.482   7.158
25184SOL    HW176993   7.746   5.519   7.137
25184SOL    HW276994   7.813   5.394   7.189
25185SOL     OW76995   7.693   5.019   7.431
25185SOL    HW176996   7.641   4.951   7.389
25185SOL    HW276997   7.649   5.034   7.515
25186SOL     OW76998   7.536   4.959   6.267
25186SOL    HW176999   7.518   4.908   6.346
25186SOL    HW277000   7.599   4.905   6.218
25187SOL     OW77001   0.098   5.171   7.133
25187SOL    HW177002   0.050   5.106   7.186
25187SOL    HW277003   0.173   5.195   7.188
25188SOL     OW77004   7.796   4.287   6.885
25188SOL    HW177005   7.850   4.231   6.940
25188SOL    HW277006   7.811   4.255   6.796
25189SOL     OW77007   7.486   4.787   5.899
25189SOL    HW177008   7.577   4.775   5.872
25189SOL    HW277009   7.457   4.700   5.924
25190SOL     OW77010   7.658   4.329   7.586
25190SOL    HW177011   7.570   4.331   7.623
25190SOL    HW277012   7.644   4.317   7.492
25191SOL     OW77013   7.675   4.004   8.440
25191SOL    HW177014   7.700   3.972   8.527
25191SOL    HW277015   7.586   3.972   8.428
25192SOL     OW77016   7.446   4.111   8.091
25192SOL    HW177017   7.366   4.141   8.135
25192SOL    HW277018   7.419   4.033   8.042
25193SOL     OW77019   7.750   5.166   8.493
25193SOL    HW177020   7.672   5.111   8.489
25193SOL    HW277021   7.792   5.154   8.408
25194SOL     OW77022   7.861   4.120   8.968
25194SOL    HW177023   7.929   4.053   8.967
25194SOL    HW277024   7.779   4.071   8.962
25195SOL     OW77025   7.657   5.436   7.924
25195SOL    HW177026   7.677   5.518   7.970
25195SOL    HW277027   7.738   5.413   7.880
25196SOL     OW77028   7.677   5.165   7.988
25196SOL    HW177029   7.647   5.255   7.988
25196SOL    HW277030   7.617   5.120   8.048
25197SOL     OW77031   7.725   4.819   8.361
25197SOL    HW177032   7.706   4.729   8.388
25197SOL    HW277033   7.656   4.872   8.401
25198SOL     OW77034   7.574   4.368   8.014
25198SOL    HW177035   7.529   4.286   8.034
25198SOL    HW277036   7.562   4.422   8.092
25199SOL     OW77037   7.504   5.311   7.565
25199SOL    HW177038   7.481   5.219   7.581
25199SOL    HW277039   7.469   5.358   7.640
25200SOL     OW77040   7.551   4.465   9.030
25200SOL    HW177041   7.638   4.505   9.030
25200SOL    HW277042   7.491   4.538   9.014
25201SOL     OW77043   7.638   4.676   8.746
25201SOL    HW177044   7.725   4.638   8.735
25201SOL    HW277045   7.586   4.637   8.675
25202SOL     OW77046   7.755   3.983   9.299
25202SOL    HW177047   7.800   4.066   9.314
25202SOL    HW277048   7.662   4.004   9.310
25203SOL     OW77049   8.012   4.458   7.708
25203SOL    HW177050   8.020   4.552   7.691
25203SOL    HW277051   7.949   4.452   7.780
25204SOL     OW77052   7.541   4.539   8.223
25204SOL    HW177053   7.614   4.537   8.286
25204SOL    HW277054   7.487   4.613   8.252
25205SOL     OW77055   7.577   5.603   9.030
25205SOL    HW177056   7.579   5.582   9.124
25205SOL    HW277057   7.505   5.551   8.995
25206SOL     OW77058   7.970   3.927   8.330
25206SOL    HW177059   7.966   3.930   8.426
25206SOL    HW277060   7.953   4.018   8.303
25207SOL     OW77061   7.809   5.556   8.307
25207SOL    HW177062   7.863   5.476   8.301
25207SOL    HW277063   7.872   5.626   8.323
25208SOL     OW77064   7.742   4.684   7.702
25208SOL    HW177065   7.793   4.701   7.623
25208SOL    HW277066   7.722   4.590   7.697
25209SOL     OW77067   7.953   4.971   9.191
25209SOL    HW177068   7.913   4.977   9.105
25209SOL    HW277069   7.882   4.986   9.253
25210SOL     OW77070   7.626   3.989   8.951
25210SOL    HW177071   7.539   4.030   8.951
25210SOL    HW277072   7.610   3.900   8.984
25211SOL     OW77073   7.714   5.519   8.664
25211SOL    HW177074   7.751   5.439   8.702
25211SOL    HW277075   7.679   5.490   8.579
25212SOL     OW77076   7.827   4.418   7.905
25212SOL    HW177077   7.874   4.359   7.963
25212SOL    HW277078   7.735   4.410   7.930
25213SOL     OW77079   0.037   3.829   7.561
25213SOL    HW177080   0.067   3.917   7.536
25213SOL    HW277081  -0.010   3.797   7.483
25214SOL     OW77082   7.987   3.709   7.934
25214SOL    HW177083   7.910   3.736   7.984
25214SOL    HW277084   8.029   3.791   7.908
25215SOL     OW77085   7.750   3.792   7.632
25215SOL    HW177086   7.757   3.863   7.568
25215SOL    HW277087   7.840   3.765   7.647
25216SOL     OW77088   7.924   4.836   8.178
25216SOL    HW177089   7.854   4.827   8.243
25216SOL    HW277090   7.879   4.831   8.093
25217SOL     OW77091   7.539   4.277   8.835
25217SOL    HW177092   7.631   4.278   8.811
25217SOL    HW277093   7.530   4.344   8.902
25218SOL     OW77094   7.989   3.915   8.596
25218SOL    HW177095   8.038   3.856   8.653
25218SOL    HW277096   7.904   3.925   8.640
25219SOL     OW77097   7.882   4.546   8.724
25219SOL    HW177098   7.975   4.539   8.746
25219SOL    HW277099   7.850   4.456   8.730
25220SOL     OW77100   7.521   5.301   8.814
25220SOL    HW177101   7.487   5.361   8.748
25220SOL    HW277102   7.615   5.296   8.795
25221SOL     OW77103   7.798   4.837   7.931
25221SOL    HW177104   7.781   4.917   7.881
25221SOL    HW277105   7.781   4.766   7.869
25222SOL     OW77106  -0.027   4.286   8.314
25222SOL    HW177107   0.013   4.362   8.272
25222SOL    HW277108   0.015   4.282   8.401
25223SOL     OW77109   7.785   5.262   8.749
25223SOL    HW177110   7.782   5.216   8.665
25223SOL    HW277111   7.878   5.281   8.763
25224SOL     OW77112   7.837   4.467   9.055
25224SOL    HW177113   7.906   4.506   9.002
25224SOL    HW277114   7.854   4.373   9.050
25225SOL     OW77115   7.934   3.815   9.187
25225SOL    HW177116   7.893   3.747   9.133
25225SOL    HW277117   7.862   3.871   9.214
25226SOL     OW77118   7.990   4.645   8.486
25226SOL    HW177119   8.006   4.740   8.483
25226SOL    HW277120   7.944   4.632   8.569
25227SOL     OW77121   7.738   3.921   8.701
25227SOL    HW177122   7.690   3.950   8.778
25227SOL    HW277123   7.722   3.826   8.697
25228SOL     OW77124   7.508   5.038   8.724
25228SOL    HW177125   7.532   4.979   8.796
25228SOL    HW277126   7.502   5.124   8.764
25229SOL     OW77127   7.762   3.792   8.070
25229SOL    HW177128   7.742   3.884   8.086
25229SOL    HW277129   7.773   3.754   8.157
25230SOL     OW77130   7.812   4.648   9.270
25230SOL    HW177131   7.899   4.685   9.253
25230SOL    HW277132   7.807   4.570   9.214
25231SOL     OW77133   7.742   4.539   8.411
25231SOL    HW177134   7.834   4.562   8.416
25231SOL    HW277135   7.739   4.446   8.433
25232SOL     OW77136   7.747   4.261   8.458
25232SOL    HW177137   7.719   4.170   8.449
25232SOL    HW277138   7.823   4.269   8.400
25233SOL     OW77139   7.468   5.035   7.634
25233SOL    HW177140   7.380   5.056   7.602
25233SOL    HW277141   7.459   4.948   7.673
25234SOL     OW77142   7.549   5.501   8.400
25234SOL    HW177143   7.513   5.427   8.351
25234SOL    HW277144   7.634   5.518   8.359
25235SOL     OW77145   7.481   4.279   8.565
25235SOL    HW177146   7.563   4.279   8.515
25235SOL    HW277147   7.509   4.276   8.656
25236SOL     OW77148   7.626   4.249   9.186
25236SOL    HW177149   7.668   4.195   9.119
25236SOL    HW277150   7.589   4.323   9.138
25237SOL     OW77151   0.214   4.223   7.751
25237SOL    HW177152   0.175   4.141   7.783
25237SOL    HW277153   0.189   4.289   7.816
25238SOL     OW77154   7.688   5.270   9.168
25238SOL    HW177155   7.667   5.323   9.245
25238SOL    HW277156   7.703   5.182   9.203
25239SOL     OW77157   7.911   4.222   7.606
25239SOL    HW177158   7.959   4.295   7.643
25239SOL    HW277159   7.819   4.250   7.607
25240SOL     OW77160   7.581   4.866   8.931
25240SOL    HW177161   7.583   4.823   9.016
25240SOL    HW277162   7.599   4.796   8.868
25241SOL     OW77163   7.533   4.992   8.462
25241SOL    HW177164   7.514   5.004   8.555
25241SOL    HW277165   7.459   4.941   8.429
25242SOL     OW77166   7.584   5.533   9.292
25242SOL    HW177167   7.540   5.458   9.330
25242SOL    HW277168   7.634   5.571   9.364
25243SOL     OW77169   7.718   4.050   8.162
25243SOL    HW177170   7.633   4.083   8.133
25243SOL    HW277171   7.708   4.037   8.257
25244SOL     OW77172   7.814   5.020   8.963
25244SOL    HW177173   7.811   5.092   8.899
25244SOL    HW277174   7.735   4.969   8.945
25245SOL     OW77175  -0.016   5.304   7.865
25245SOL    HW177176  -0.013   5.221   7.913
25245SOL    HW277177   0.064   5.350   7.892
25246SOL     OW77178   7.722   5.052   7.749
25246SOL    HW177179   7.633   5.051   7.714
25246SOL    HW277180   7.716   5.103   7.830
25247SOL     OW77181   7.569   4.774   9.191
25247SOL    HW177182   7.488   4.745   9.233
25247SOL    HW277183   7.637   4.720   9.231
25248SOL     OW77184   7.500   4.052   7.487
25248SOL    HW177185   7.412   4.031   7.455
25248SOL    HW277186   7.521   4.135   7.446
25249SOL     OW77187   7.507   3.874   7.745
25249SOL    HW177188   7.486   3.949   7.690
25249SOL    HW277189   7.597   3.850   7.720
25250SOL     OW77190   7.836   5.482   9.027
25250SOL    HW177191   7.751   5.519   9.001
25250SOL    HW277192   7.816   5.394   9.056
25251SOL     OW77193   7.684   5.016   9.291
25251SOL    HW177194   7.644   4.943   9.244
25251SOL    HW277195   7.628   5.030   9.367
25252SOL     OW77196   7.538   4.958   8.124
25252SOL    HW177197   7.521   4.903   8.201
25252SOL    HW277198   7.599   4.907   8.071
25253SOL     OW77199   0.100   5.174   8.995
25253SOL    HW177200   0.050   5.110   9.045
25253SOL    HW277201   0.175   5.195   9.050
25254SOL     OW77202   7.794   4.287   8.742
25254SOL    HW177203   7.850   4.229   8.794
25254SOL    HW277204   7.806   4.256   8.652
25255SOL     OW77205   7.487   4.786   7.764
25255SOL    HW177206   7.578   4.774   7.737
25255SOL    HW277207   7.457   4.699   7.788
25256SOL     OW77208   7.653   4.342   9.448
25256SOL    HW177209   7.564   4.338   9.482
25256SOL    HW277210   7.644   4.323   9.354
25257SOL     OW77211   7.672   4.006  10.303
25257SOL    HW177212   7.699   3.972  10.388
25257SOL    HW277213   7.584   3.973  10.290
25258SOL     OW77214   7.449   4.111   9.952
25258SOL    HW177215   7.368   4.137   9.995
25258SOL    HW277216   7.426   4.034   9.900
25259SOL     OW77217   7.749   5.164  10.357
25259SOL    HW177218   7.672   5.108  10.350
25259SOL    HW277219   7.791   5.159  10.271
25260SOL     OW77220   7.852   4.130  10.847
25260SOL    HW177221   7.927   4.075  10.826
25260SOL    HW277222   7.776   4.074  10.832
25261SOL     OW77223   7.658   5.438   9.787
25261SOL    HW177224   7.679   5.520   9.832
25261SOL    HW277225   7.739   5.412   9.744
25262SOL     OW77226   7.676   5.168   9.852
25262SOL    HW177227   7.646   5.259   9.852
25262SOL    HW277228   7.616   5.123   9.911
25263SOL     OW77229   7.723   4.817  10.219
25263SOL    HW177230   7.707   4.727  10.248
25263SOL    HW277231   7.656   4.869  10.264
25264SOL     OW77232   7.570   4.369   9.878
25264SOL    HW177233   7.529   4.284   9.897
25264SOL    HW277234   7.558   4.420   9.957
25265SOL     OW77235   7.505   5.312   9.425
25265SOL    HW177236   7.483   5.221   9.441
25265SOL    HW277237   7.471   5.359   9.501
25266SOL     OW77238   7.551   4.464  10.894
25266SOL    HW177239   7.639   4.501  10.893
25266SOL    HW277240   7.493   4.539  10.878
25267SOL     OW77241   7.638   4.675  10.607
25267SOL    HW177242   7.726   4.638  10.599
25267SOL    HW277243   7.589   4.637  10.533
25268SOL     OW77244   7.753   3.980  11.162
25268SOL    HW177245   7.800   4.063  11.172
25268SOL    HW277246   7.661   4.004  11.172
25269SOL     OW77247   8.002   4.459   9.573
25269SOL    HW177248   8.016   4.551   9.549
25269SOL    HW277249   7.940   4.462   9.646
25270SOL     OW77250   7.537   4.537  10.090
25270SOL    HW177251   7.613   4.536  10.149
25270SOL    HW277252   7.487   4.613  10.118
25271SOL     OW77253   7.574   5.597  10.894
25271SOL    HW177254   7.578   5.576  10.987
25271SOL    HW277255   7.500   5.545  10.861
25272SOL     OW77256   7.968   3.925  10.198
25272SOL    HW177257   7.966   3.938  10.293
25272SOL    HW277258   7.957   4.013  10.161
25273SOL     OW77259   7.812   5.561  10.174
25273SOL    HW177260   7.871   5.487  10.183
25273SOL    HW277261   7.867   5.638  10.186
25274SOL     OW77262   7.739   4.679   9.559
25274SOL    HW177263   7.782   4.694   9.475
25274SOL    HW277264   7.723   4.585   9.562
25275SOL     OW77265   7.955   4.970  11.052
25275SOL    HW177266   7.915   4.975  10.965
25275SOL    HW277267   7.884   4.987  11.113
25276SOL     OW77268   7.627   3.984  10.809
25276SOL    HW177269   7.543   4.029  10.815
25276SOL    HW277270   7.610   3.896  10.843
25277SOL     OW77271   7.708   5.515  10.531
25277SOL    HW177272   7.748   5.437  10.568
25277SOL    HW277273   7.681   5.489  10.443
25278SOL     OW77274   7.822   4.430   9.776
25278SOL    HW177275   7.870   4.357   9.813
25278SOL    HW277276   7.731   4.416   9.803
25279SOL     OW77277   0.012   3.807   9.455
25279SOL    HW177278   0.107   3.792   9.463
25279SOL    HW277279  -0.003   3.814   9.360
25280SOL     OW77280   8.000   3.754   9.840
25280SOL    HW177281   7.908   3.770   9.861
25280SOL    HW277282   8.022   3.824   9.779
25281SOL     OW77283   7.740   3.789   9.491
25281SOL    HW177284   7.748   3.860   9.428
25281SOL    HW277285   7.830   3.760   9.506
25282SOL     OW77286   7.923   4.843  10.038
25282SOL    HW177287   7.853   4.831  10.102
25282SOL    HW277288   7.878   4.835   9.953
25283SOL     OW77289   7.539   4.275  10.698
25283SOL    HW177290   7.632   4.276  10.674
25283SOL    HW277291   7.531   4.343  10.765
25284SOL     OW77292   7.989   3.923  10.467
25284SOL    HW177293   8.033   3.851  10.511
25284SOL    HW277294   7.902   3.927  10.507
25285SOL     OW77295   7.883   4.547  10.591
25285SOL    HW177296   7.977   4.540  10.605
25285SOL    HW277297   7.852   4.456  10.592
25286SOL     OW77298   7.521   5.298  10.673
25286SOL    HW177299   7.490   5.363  10.610
25286SOL    HW277300   7.615   5.293  10.658
25287SOL     OW77301   7.794   4.836   9.792
25287SOL    HW177302   7.781   4.914   9.738
25287SOL    HW277303   7.780   4.763   9.732
25288SOL     OW77304   7.971   4.290  10.178
25288SOL    HW177305   8.013   4.364  10.133
25288SOL    HW277306   8.014   4.287  10.263
25289SOL     OW77307   7.784   5.258  10.613
25289SOL    HW177308   7.782   5.214  10.528
25289SOL    HW277309   7.877   5.278  10.627
25290SOL     OW77310   7.836   4.464  10.912
25290SOL    HW177311   7.897   4.508  10.853
25290SOL    HW277312   7.860   4.371  10.905
25291SOL     OW77313   7.932   3.808  11.055
25291SOL    HW177314   7.894   3.744  10.996
25291SOL    HW277315   7.860   3.866  11.078
25292SOL     OW77316   7.990   4.647  10.349
25292SOL    HW177317   8.007   4.741  10.344
25292SOL    HW277318   7.942   4.636  10.431
25293SOL     OW77319   7.735   3.918  10.562
25293SOL    HW177320   7.690   3.947  10.641
25293SOL    HW277321   7.719   3.823  10.558
25294SOL     OW77322   7.496   5.036  10.587
25294SOL    HW177323   7.527   4.980  10.658
25294SOL    HW277324   7.499   5.124  10.624
25295SOL     OW77325   7.740   3.796   9.929
25295SOL    HW177326   7.726   3.889   9.946
25295SOL    HW277327   7.756   3.758  10.015
25296SOL     OW77328   7.809   4.645  11.124
25296SOL    HW177329   7.896   4.683  11.112
25296SOL    HW277330   7.808   4.568  11.068
25297SOL     OW77331   7.742   4.539  10.274
25297SOL    HW177332   7.835   4.561  10.276
25297SOL    HW277333   7.739   4.446  10.294
25298SOL     OW77334   7.746   4.262  10.319
25298SOL    HW177335   7.718   4.171  10.310
25298SOL    HW277336   7.822   4.270  10.262
25299SOL     OW77337   7.472   5.035   9.493
25299SOL    HW177338   7.384   5.056   9.463
25299SOL    HW277339   7.463   4.949   9.534
25300SOL     OW77340   7.549   5.501  10.261
25300SOL    HW177341   7.515   5.427  10.211
25300SOL    HW277342   7.634   5.520  10.220
25301SOL     OW77343   7.481   4.280  10.427
25301SOL    HW177344   7.561   4.279  10.375
25301SOL    HW277345   7.511   4.276  10.518
25302SOL     OW77346   7.631   4.248  11.047
25302SOL    HW177347   7.689   4.204  10.984
25302SOL    HW277348   7.593   4.320  10.998
25303SOL     OW77349   0.212   4.236   9.606
25303SOL    HW177350   0.169   4.151   9.620
25303SOL    HW277351   0.182   4.290   9.679
25304SOL     OW77352   7.686   5.271  11.026
25304SOL    HW177353   7.670   5.329  11.100
25304SOL    HW277354   7.704   5.186  11.066
25305SOL     OW77355   7.905   4.225   9.463
25305SOL    HW177356   7.956   4.296   9.500
25305SOL    HW277357   7.814   4.256   9.466
25306SOL     OW77358   7.580   4.867  10.791
25306SOL    HW177359   7.583   4.823  10.876
25306SOL    HW277360   7.599   4.797  10.728
25307SOL     OW77361   7.532   4.990  10.325
25307SOL    HW177362   7.510   5.003  10.417
25307SOL    HW277363   7.460   4.938  10.289
25308SOL     OW77364   7.587   5.527  11.154
25308SOL    HW177365   7.542   5.453  11.196
25308SOL    HW277366   7.637   5.568  11.225
25309SOL     OW77367   7.720   4.053  10.025
25309SOL    HW177368   7.634   4.086   9.997
25309SOL    HW277369   7.710   4.040  10.119
25310SOL     OW77370   7.815   5.019  10.824
25310SOL    HW177371   7.812   5.092  10.761
25310SOL    HW277372   7.735   4.969  10.806
25311SOL     OW77373  -0.020   5.305   9.725
25311SOL    HW177374  -0.021   5.222   9.772
25311SOL    HW277375   0.059   5.349   9.754
25312SOL     OW77376   7.728   5.050   9.616
25312SOL    HW177377   7.642   5.052   9.575
25312SOL    HW277378   7.716   5.102   9.696
25313SOL     OW77379   7.568   4.772  11.051
25313SOL    HW177380   7.488   4.742  11.095
25313SOL    HW277381   7.638   4.720  11.089
25314SOL     OW77382   7.499   4.057   9.350
25314SOL    HW177383   7.419   4.033   9.303
25314SOL    HW277384   7.526   4.139   9.308
25315SOL     OW77385   7.504   3.876   9.603
25315SOL    HW177386   7.486   3.948   9.542
25315SOL    HW277387   7.592   3.847   9.580
25316SOL     OW77388   7.833   5.482  10.883
25316SOL    HW177389   7.748   5.519  10.861
25316SOL    HW277390   7.813   5.393  10.913
25317SOL     OW77391   7.692   5.019  11.155
25317SOL    HW177392   7.644   4.949  11.111
25317SOL    HW277393   7.646   5.032  11.237
25318SOL     OW77394   7.538   4.956   9.982
25318SOL    HW177395   7.532   4.902  10.060
25318SOL    HW277396   7.600   4.910   9.925
25319SOL     OW77397   0.100   5.173  10.859
25319SOL    HW177398   0.051   5.109  10.911
25319SOL    HW277399   0.175   5.196  10.914
25320SOL     OW77400   7.793   4.287  10.599
25320SOL    HW177401   7.856   4.232  10.645
25320SOL    HW277402   7.801   4.262  10.508
25321SOL     OW77403   7.487   4.786   9.627
25321SOL    HW177404   7.577   4.773   9.599
25321SOL    HW277405   7.456   4.698   9.650
25322SOL     OW77406   7.654   4.341  11.308
25322SOL    HW177407   7.563   4.340  11.339
25322SOL    HW277408   7.648   4.324  11.214
25323SOL     OW77409   7.654   4.010  12.153
25323SOL    HW177410   7.684   3.975  12.237
25323SOL    HW277411   7.563   3.981  12.146
25324SOL     OW77412   7.458   4.114  11.810
25324SOL    HW177413   7.375   4.131  11.855
25324SOL    HW277414   7.441   4.038  11.755
25325SOL     OW77415   7.769   5.151  12.217
25325SOL    HW177416   7.687   5.101  12.215
25325SOL    HW277417   7.790   5.165  12.125
25326SOL     OW77418   7.662   5.439  11.648
25326SOL    HW177419   7.682   5.519  11.696
25326SOL    HW277420   7.744   5.415  11.605
25327SOL     OW77421   7.673   5.167  11.710
25327SOL    HW177422   7.650   5.260  11.711
25327SOL    HW277423   7.613   5.127  11.773
25328SOL     OW77424   7.708   4.814  12.073
25328SOL    HW177425   7.703   4.726  12.110
25328SOL    HW277426   7.654   4.867  12.131
25329SOL     OW77427   7.571   4.375  11.740
25329SOL    HW177428   7.535   4.289  11.762
25329SOL    HW277429   7.558   4.428  11.819
25330SOL     OW77430   7.500   5.312  11.290
25330SOL    HW177431   7.481   5.220  11.308
25330SOL    HW277432   7.468   5.358  11.367
25331SOL     OW77433   7.598   4.458   0.208
25331SOL    HW177434   7.596   4.463   0.303
25331SOL    HW277435   7.530   4.518   0.178
25332SOL     OW77436   7.635   4.718  12.394
25332SOL    HW177437   7.714   4.665  12.406
25332SOL    HW277438   7.568   4.675  12.447
25333SOL     OW77439   8.002   4.460  11.432
25333SOL    HW177440   8.020   4.552  11.415
25333SOL    HW277441   7.941   4.461  11.506
25334SOL     OW77442   7.530   4.545  11.952
25334SOL    HW177443   7.612   4.540  12.002
25334SOL    HW277444   7.485   4.622  11.988
25335SOL     OW77445   7.961   3.929  12.049
25335SOL    HW177446   7.965   3.943  12.144
25335SOL    HW277447   7.966   4.017  12.012
25336SOL     OW77448   7.816   5.561  12.040
25336SOL    HW177449   7.873   5.493  12.076
25336SOL    HW277450   7.868   5.641  12.043
25337SOL     OW77451   7.740   4.684  11.425
25337SOL    HW177452   7.800   4.707  11.355
25337SOL    HW277453   7.724   4.590  11.413
25338SOL     OW77454   7.674   5.524  12.395
25338SOL    HW177455   7.713   5.443  12.428
25338SOL    HW277456   7.638   5.500  12.310
25339SOL     OW77457   7.824   4.430  11.636
25339SOL    HW177458   7.873   4.361  11.681
25339SOL    HW277459   7.733   4.418  11.663
25340SOL     OW77460   0.010   3.807  11.320
25340SOL    HW177461   0.104   3.792  11.327
25340SOL    HW277462  -0.006   3.811  11.226
25341SOL     OW77463   8.000   3.752  11.696
25341SOL    HW177464   7.909   3.768  11.720
25341SOL    HW277465   8.021   3.824  11.636
25342SOL     OW77466   7.736   3.788  11.356
25342SOL    HW177467   7.747   3.859  11.292
25342SOL    HW277468   7.826   3.758  11.373
25343SOL     OW77469   7.917   4.844  11.902
25343SOL    HW177470   7.846   4.831  11.965
25343SOL    HW277471   7.874   4.836  11.816
25344SOL     OW77472   7.987   3.946  12.317
25344SOL    HW177473   8.031   3.899  12.388
25344SOL    HW277474   7.895   3.945  12.340
25345SOL     OW77475   7.865   4.558  12.441
25345SOL    HW177476   7.897   4.568  12.531
25345SOL    HW277477   7.868   4.464  12.424
25346SOL     OW77478   7.790   4.839  11.656
25346SOL    HW177479   7.778   4.917  11.601
25346SOL    HW277480   7.776   4.765  11.596
25347SOL     OW77481  -0.017   4.280  12.057
25347SOL    HW177482   0.018   4.352  12.005
25347SOL    HW277483   0.025   4.289  12.143
25348SOL     OW77484   7.790   5.290  12.466
25348SOL    HW177485   7.786   5.229  12.391
25348SOL    HW277486   7.877   5.275  12.504
25349SOL     OW77487   7.901   4.463   0.204
25349SOL    HW177488   7.992   4.470   0.231
25349SOL    HW277489   7.854   4.443   0.285
25350SOL     OW77490   7.995   4.646  12.215
25350SOL    HW177491   8.008   4.741  12.212
25350SOL    HW277492   7.947   4.631  12.297
25351SOL     OW77493   7.731   3.923  12.403
25351SOL    HW177494   7.730   3.950  12.495
25351SOL    HW277495   7.714   3.828  12.406
25352SOL     OW77496   7.512   5.058  12.437
25352SOL    HW177497   7.543   4.983  12.488
25352SOL    HW277498   7.515   5.132  12.498
25353SOL     OW77499   7.741   3.794  11.793
25353SOL    HW177500   7.733   3.887  11.813
25353SOL    HW277501   7.763   3.754  11.877
25354SOL     OW77502   7.752   4.536  12.114
25354SOL    HW177503   7.843   4.562  12.132
25354SOL    HW277504   7.748   4.444  12.143
25355SOL     OW77505   7.746   4.264  12.178
25355SOL    HW177506   7.716   4.174  12.168
25355SOL    HW277507   7.829   4.268  12.131
25356SOL     OW77508   7.469   5.036  11.360
25356SOL    HW177509   7.382   5.056  11.327
25356SOL    HW277510   7.461   4.948  11.398
25357SOL     OW77511   7.552   5.507  12.121
25357SOL    HW177512   7.519   5.431  12.074
25357SOL    HW277513   7.638   5.524  12.084
25358SOL     OW77514   7.492   4.276  12.281
25358SOL    HW177515   7.574   4.288  12.232
25358SOL    HW277516   7.521   4.248  12.368
25359SOL     OW77517   0.213   4.235  11.469
25359SOL    HW177518   0.168   4.152  11.481
25359SOL    HW277519   0.183   4.290  11.542
25360SOL     OW77520   7.906   4.224  11.327
25360SOL    HW177521   7.957   4.297  11.363
25360SOL    HW277522   7.815   4.255  11.330
25361SOL     OW77523   7.529   5.004  12.175
25361SOL    HW177524   7.514   5.021  12.268
25361SOL    HW277525   7.464   4.938  12.152
25362SOL     OW77526   7.726   4.055  11.882
25362SOL    HW177527   7.642   4.090  11.854
25362SOL    HW277528   7.716   4.041  11.977
25363SOL     OW77529  -0.018   5.296  11.586
25363SOL    HW177530  -0.018   5.219  11.643
25363SOL    HW277531   0.057   5.348  11.616
25364SOL     OW77532   7.725   5.051  11.475
25364SOL    HW177533   7.636   5.051  11.438
25364SOL    HW277534   7.718   5.103  11.554
25365SOL     OW77535   7.497   4.061  11.210
25365SOL    HW177536   7.423   4.036  11.154
25365SOL    HW277537   7.531   4.140  11.169
25366SOL     OW77538   7.501   3.881  11.465
25366SOL    HW177539   7.485   3.949  11.401
25366SOL    HW277540   7.590   3.849  11.445
25367SOL     OW77541   7.776   5.438   0.247
25367SOL    HW177542   7.739   5.410   0.163
25367SOL    HW277543   7.844   5.372   0.266
25368SOL     OW77544   7.539   4.951  11.843
25368SOL    HW177545   7.554   4.910  11.928
25368SOL    HW277546   7.602   4.909  11.785
25369SOL     OW77547   7.484   4.785  11.487
25369SOL    HW177548   7.576   4.773  11.460
25369SOL    HW277549   7.454   4.697  11.509
25370SOL     OW77550   7.653   6.107   0.057
25370SOL    HW177551   7.634   6.177   0.120
25370SOL    HW277552   7.671   6.154  -0.025
25371SOL     OW77553   7.672   5.869   0.993
25371SOL    HW177554   7.698   5.836   1.079
25371SOL    HW277555   7.583   5.835   0.980
25372SOL     OW77556   7.446   5.969   0.645
25372SOL    HW177557   7.369   5.995   0.695
25372SOL    HW277558   7.419   5.888   0.601
25373SOL     OW77559   7.746   7.036   1.053
25373SOL    HW177560   7.671   6.979   1.036
25373SOL    HW277561   7.803   7.023   0.976
25374SOL     OW77562   7.857   5.993   1.516
25374SOL    HW177563   7.931   5.936   1.538
25374SOL    HW277564   7.781   5.935   1.516
25375SOL     OW77565   7.648   7.308   0.493
25375SOL    HW177566   7.683   7.383   0.540
25375SOL    HW277567   7.699   7.304   0.412
25376SOL     OW77568   7.655   7.032   0.530
25376SOL    HW177569   7.651   7.128   0.534
25376SOL    HW277570   7.601   7.003   0.604
25377SOL     OW77571   7.702   6.676   0.896
25377SOL    HW177572   7.696   6.587   0.931
25377SOL    HW277573   7.646   6.728   0.954
25378SOL     OW77574   7.558   6.221   0.573
25378SOL    HW177575   7.521   6.137   0.599
25378SOL    HW277576   7.550   6.276   0.651
25379SOL     OW77577   7.480   7.110   0.138
25379SOL    HW177578   7.392   7.073   0.128
25379SOL    HW277579   7.468   7.187   0.192
25380SOL     OW77580   7.566   6.331   1.577
25380SOL    HW177581   7.655   6.364   1.581
25380SOL    HW277582   7.510   6.409   1.582
25381SOL     OW77583   7.640   6.541   1.284
25381SOL    HW177584   7.727   6.502   1.278
25381SOL    HW277585   7.586   6.486   1.227
25382SOL     OW77586   7.766   5.864   1.830
25382SOL    HW177587   7.811   5.930   1.884
25382SOL    HW277588   7.676   5.864   1.863
25383SOL     OW77589   7.531   6.403   0.776
25383SOL    HW177590   7.608   6.397   0.833
25383SOL    HW277591   7.483   6.478   0.809
25384SOL     OW77592   7.573   7.450   1.585
25384SOL    HW177593   7.578   7.435   1.680
25384SOL    HW277594   7.499   7.395   1.557
25385SOL     OW77595   7.962   5.801   0.881
25385SOL    HW177596   7.962   5.794   0.976
25385SOL    HW277597   7.957   5.896   0.864
25386SOL     OW77598   7.818   7.423   0.870
25386SOL    HW177599   7.886   7.359   0.891
25386SOL    HW277600   7.861   7.508   0.876
25387SOL     OW77601   7.746   6.580   0.258
25387SOL    HW177602   7.832   6.612   0.231
25387SOL    HW277603   7.741   6.491   0.222
25388SOL     OW77604   7.958   6.833   1.738
25388SOL    HW177605   7.915   6.836   1.652
25388SOL    HW277606   7.888   6.851   1.800
25389SOL     OW77607   7.626   5.847   1.504
25389SOL    HW177608   7.548   5.893   1.534
25389SOL    HW277609   7.614   5.757   1.536
25390SOL     OW77610   7.702   7.371   1.226
25390SOL    HW177611   7.750   7.302   1.273
25390SOL    HW277612   7.700   7.340   1.135
25391SOL     OW77613   7.804   6.246   0.445
25391SOL    HW177614   7.871   6.225   0.512
25391SOL    HW277615   7.721   6.235   0.491
25392SOL     OW77616   0.070   5.683   0.048
25392SOL    HW177617   0.147   5.686   0.105
25392SOL    HW277618   0.032   5.597   0.063
25393SOL     OW77619   7.979   5.601   0.503
25393SOL    HW177620   7.899   5.628   0.549
25393SOL    HW277621   8.015   5.682   0.467
25394SOL     OW77622   7.917   6.705   0.737
25394SOL    HW177623   7.844   6.691   0.798
25394SOL    HW277624   7.876   6.703   0.651
25395SOL     OW77625   7.531   6.143   1.383
25395SOL    HW177626   7.624   6.137   1.361
25395SOL    HW277627   7.527   6.210   1.451
25396SOL     OW77628   7.985   5.774   1.146
25396SOL    HW177629   8.043   5.732   1.209
25396SOL    HW277630   7.901   5.782   1.191
25397SOL     OW77631   7.879   6.401   1.267
25397SOL    HW177632   7.960   6.398   1.318
25397SOL    HW277633   7.842   6.313   1.276
25398SOL     OW77634   7.523   7.161   1.363
25398SOL    HW177635   7.503   7.232   1.302
25398SOL    HW277636   7.618   7.149   1.355
25399SOL     OW77637   7.795   6.715   0.494
25399SOL    HW177638   7.788   6.798   0.448
25399SOL    HW277639   7.773   6.649   0.428
25400SOL     OW77640  -0.023   6.136   0.864
25400SOL    HW177641   0.015   6.215   0.825
25400SOL    HW277642   0.015   6.133   0.952
25401SOL     OW77643   7.786   7.112   1.313
25401SOL    HW177644   7.782   7.074   1.225
25401SOL    HW277645   7.878   7.135   1.325
25402SOL     OW77646   7.856   6.316   1.602
25402SOL    HW177647   7.946   6.346   1.589
25402SOL    HW277648   7.860   6.221   1.587
25403SOL     OW77649   7.935   5.685   1.725
25403SOL    HW177650   7.890   5.614   1.680
25403SOL    HW277651   7.865   5.743   1.754
25404SOL     OW77652   7.983   6.505   1.035
25404SOL    HW177653   8.014   6.595   1.049
25404SOL    HW277654   7.947   6.479   1.119
25405SOL     OW77655   7.733   5.781   1.251
25405SOL    HW177656   7.691   5.812   1.331
25405SOL    HW277657   7.717   5.687   1.250
25406SOL     OW77658   7.490   6.900   1.274
25406SOL    HW177659   7.522   6.841   1.343
25406SOL    HW277660   7.497   6.987   1.312
25407SOL     OW77661   7.743   5.664   0.625
25407SOL    HW177662   7.733   5.756   0.649
25407SOL    HW277663   7.761   5.620   0.708
25408SOL     OW77664   7.790   6.498   1.800
25408SOL    HW177665   7.875   6.516   1.841
25408SOL    HW277666   7.807   6.427   1.739
25409SOL     OW77667   7.739   6.401   0.954
25409SOL    HW177668   7.829   6.429   0.970
25409SOL    HW277669   7.738   6.308   0.980
25410SOL     OW77670   7.744   6.126   0.999
25410SOL    HW177671   7.717   6.034   0.997
25410SOL    HW277672   7.823   6.130   0.946
25411SOL     OW77673   7.544   7.367   0.938
25411SOL    HW177674   7.515   7.289   0.892
25411SOL    HW277675   7.633   7.382   0.907
25412SOL     OW77676   7.484   6.150   1.112
25412SOL    HW177677   7.568   6.147   1.065
25412SOL    HW277678   7.509   6.144   1.204
25413SOL     OW77679   7.615   6.115   1.742
25413SOL    HW177680   7.677   6.063   1.690
25413SOL    HW277681   7.590   6.187   1.684
25414SOL     OW77682   7.681   7.133   1.717
25414SOL    HW177683   7.668   7.190   1.793
25414SOL    HW277684   7.704   7.048   1.754
25415SOL     OW77685   7.906   6.027   0.181
25415SOL    HW177686   7.925   6.107   0.229
25415SOL    HW277687   7.819   6.042   0.143
25416SOL     OW77688   7.580   6.728   1.473
25416SOL    HW177689   7.581   6.683   1.557
25416SOL    HW277690   7.602   6.660   1.409
25417SOL     OW77691   7.528   6.860   1.012
25417SOL    HW177692   7.509   6.870   1.105
25417SOL    HW277693   7.461   6.801   0.979
25418SOL     OW77694   7.587   7.396   1.848
25418SOL    HW177695   7.543   7.322   1.890
25418SOL    HW277696   7.640   7.434   1.918
25419SOL     OW77697   7.716   5.919   0.717
25419SOL    HW177698   7.628   5.949   0.694
25419SOL    HW277699   7.712   5.904   0.812
25420SOL     OW77700   7.813   6.881   1.511
25420SOL    HW177701   7.809   6.954   1.450
25420SOL    HW277702   7.734   6.831   1.494
25421SOL     OW77703  -0.016   7.101   0.429
25421SOL    HW177704   0.020   7.036   0.490
25421SOL    HW277705   0.041   7.177   0.439
25422SOL     OW77706   7.740   6.921   0.301
25422SOL    HW177707   7.668   6.943   0.242
25422SOL    HW277708   7.721   6.970   0.381
25423SOL     OW77709   7.556   6.621   1.722
25423SOL    HW177710   7.481   6.597   1.776
25423SOL    HW277711   7.631   6.577   1.764
25424SOL     OW77712   7.515   5.732   0.324
25424SOL    HW177713   7.507   5.819   0.286
25424SOL    HW277714   7.608   5.724   0.346
25425SOL     OW77715   7.831   7.343   1.568
25425SOL    HW177716   7.743   7.377   1.554
25425SOL    HW277717   7.818   7.253   1.599
25426SOL     OW77718   7.708   6.891   1.853
25426SOL    HW177719   7.641   6.826   1.830
25426SOL    HW277720   7.700   6.900   1.948
25427SOL     OW77721   7.530   6.815   0.677
25427SOL    HW177722   7.559   6.766   0.754
25427SOL    HW277723   7.587   6.787   0.607
25428SOL     OW77724   0.097   7.034   1.548
25428SOL    HW177725   0.052   6.966   1.599
25428SOL    HW277726   0.172   7.059   1.603
25429SOL     OW77727   7.787   6.143   1.293
25429SOL    HW177728   7.835   6.091   1.358
25429SOL    HW277729   7.814   6.107   1.209
25430SOL     OW77730   7.485   6.659   0.348
25430SOL    HW177731   7.572   6.656   0.309
25430SOL    HW277732   7.471   6.570   0.382
25431SOL     OW77733   7.650   6.209   2.000
25431SOL    HW177734   7.564   6.201   2.039
25431SOL    HW277735   7.636   6.190   1.907
25432SOL     OW77736   7.672   5.869   2.855
25432SOL    HW177737   7.698   5.835   2.941
25432SOL    HW277738   7.584   5.834   2.842
25433SOL     OW77739   7.447   5.980   2.503
25433SOL    HW177740   7.367   6.003   2.550
25433SOL    HW277741   7.424   5.901   2.453
25434SOL     OW77742   7.746   7.039   2.914
25434SOL    HW177743   7.671   6.983   2.896
25434SOL    HW277744   7.812   7.013   2.850
25435SOL     OW77745   7.859   5.993   3.377
25435SOL    HW177746   7.933   5.936   3.395
25435SOL    HW277747   7.783   5.935   3.377
25436SOL     OW77748   7.673   7.305   2.332
25436SOL    HW177749   7.685   7.382   2.388
25436SOL    HW277750   7.762   7.274   2.315
25437SOL     OW77751   7.669   7.024   2.388
25437SOL    HW177752   7.646   7.116   2.400
25437SOL    HW277753   7.618   6.977   2.454
25438SOL     OW77754   7.705   6.676   2.761
25438SOL    HW177755   7.700   6.586   2.795
25438SOL    HW277756   7.648   6.726   2.819
25439SOL     OW77757   7.568   6.236   2.426
25439SOL    HW177758   7.531   6.150   2.449
25439SOL    HW277759   7.557   6.289   2.505
25440SOL     OW77760   7.497   7.175   1.977
25440SOL    HW177761   7.481   7.083   1.994
25440SOL    HW277762   7.468   7.219   2.057
25441SOL     OW77763   7.564   6.330   3.438
25441SOL    HW177764   7.652   6.367   3.444
25441SOL    HW277765   7.506   6.407   3.441
25442SOL     OW77766   7.639   6.541   3.145
25442SOL    HW177767   7.726   6.502   3.137
25442SOL    HW277768   7.583   6.484   3.093
25443SOL     OW77769   7.766   5.859   3.700
25443SOL    HW177770   7.809   5.931   3.747
25443SOL    HW277771   7.674   5.865   3.727
25444SOL     OW77772   7.997   6.326   2.114
25444SOL    HW177773   8.031   6.414   2.129
25444SOL    HW277774   7.937   6.310   2.188
25445SOL     OW77775   7.531   6.416   2.632
25445SOL    HW177776   7.607   6.402   2.688
25445SOL    HW277777   7.486   6.491   2.671
25446SOL     OW77778   7.574   7.451   3.446
25446SOL    HW177779   7.580   7.437   3.541
25446SOL    HW277780   7.500   7.397   3.418
25447SOL     OW77781   7.962   5.798   2.742
25447SOL    HW177782   7.962   5.794   2.838
25447SOL    HW277783   7.955   5.892   2.723
25448SOL     OW77784   7.820   7.422   2.738
25448SOL    HW177785   7.890   7.360   2.761
25448SOL    HW277786   7.862   7.508   2.742
25449SOL     OW77787   7.749   6.551   2.124
25449SOL    HW177788   7.841   6.563   2.100
25449SOL    HW277789   7.730   6.461   2.098
25450SOL     OW77790   7.958   6.833   3.600
25450SOL    HW177791   7.915   6.836   3.514
25450SOL    HW277792   7.887   6.851   3.662
25451SOL     OW77793   7.627   5.848   3.367
25451SOL    HW177794   7.546   5.893   3.392
25451SOL    HW277795   7.614   5.759   3.399
25452SOL     OW77796   7.703   7.372   3.089
25452SOL    HW177797   7.750   7.305   3.139
25452SOL    HW277798   7.703   7.339   2.999
25453SOL     OW77799   7.825   6.282   2.320
25453SOL    HW177800   7.874   6.228   2.382
25453SOL    HW277801   7.733   6.270   2.345
25454SOL     OW77802   0.011   5.692   1.993
25454SOL    HW177803   0.101   5.664   2.007
25454SOL    HW277804  -0.001   5.691   1.898
25455SOL     OW77805   7.965   5.597   2.341
25455SOL    HW177806   7.892   5.625   2.397
25455SOL    HW277807   8.007   5.679   2.314
25456SOL     OW77808   7.743   5.635   2.054
25456SOL    HW177809   7.815   5.687   2.017
25456SOL    HW277810   7.787   5.566   2.104
25457SOL     OW77811   7.915   6.717   2.598
25457SOL    HW177812   7.845   6.699   2.661
25457SOL    HW277813   7.873   6.707   2.512
25458SOL     OW77814   7.531   6.143   3.245
25458SOL    HW177815   7.624   6.137   3.223
25458SOL    HW277816   7.527   6.210   3.314
25459SOL     OW77817   7.986   5.777   3.007
25459SOL    HW177818   8.045   5.738   3.072
25459SOL    HW277819   7.902   5.783   3.053
25460SOL     OW77820   7.877   6.398   3.127
25460SOL    HW177821   7.951   6.399   3.188
25460SOL    HW277822   7.840   6.310   3.135
25461SOL     OW77823   7.523   7.162   3.226
25461SOL    HW177824   7.504   7.233   3.164
25461SOL    HW277825   7.618   7.149   3.218
25462SOL     OW77826   7.783   6.706   2.355
25462SOL    HW177827   7.772   6.784   2.300
25462SOL    HW277828   7.768   6.633   2.295
25463SOL     OW77829  -0.024   6.140   2.725
25463SOL    HW177830   0.016   6.216   2.684
25463SOL    HW277831   0.014   6.137   2.813
25464SOL     OW77832   7.785   7.113   3.176
25464SOL    HW177833   7.781   7.076   3.088
25464SOL    HW277834   7.878   7.136   3.187
25465SOL     OW77835   7.858   6.317   3.463
25465SOL    HW177836   7.950   6.342   3.455
25465SOL    HW277837   7.858   6.222   3.450
25466SOL     OW77838   7.935   5.683   3.589
25466SOL    HW177839   7.890   5.613   3.542
25466SOL    HW277840   7.865   5.741   3.619
25467SOL     OW77841   7.978   6.504   2.897
25467SOL    HW177842   8.030   6.580   2.923
25467SOL    HW277843   7.942   6.470   2.979
25468SOL     OW77844   7.734   5.781   3.114
25468SOL    HW177845   7.691   5.812   3.193
25468SOL    HW277846   7.718   5.687   3.112
25469SOL     OW77847   7.497   6.901   3.135
25469SOL    HW177848   7.526   6.841   3.205
25469SOL    HW277849   7.500   6.988   3.175
25470SOL     OW77850   7.743   5.657   2.490
25470SOL    HW177851   7.730   5.750   2.510
25470SOL    HW277852   7.762   5.617   2.575
25471SOL     OW77853   7.791   6.499   3.662
25471SOL    HW177854   7.875   6.516   3.703
25471SOL    HW277855   7.808   6.428   3.600
25472SOL     OW77856   7.735   6.399   2.813
25472SOL    HW177857   7.826   6.428   2.829
25472SOL    HW277858   7.735   6.307   2.838
25473SOL     OW77859   7.743   6.126   2.861
25473SOL    HW177860   7.717   6.034   2.858
25473SOL    HW277861   7.822   6.130   2.807
25474SOL     OW77862   7.460   6.900   2.053
25474SOL    HW177863   7.372   6.919   2.019
25474SOL    HW277864   7.453   6.811   2.088
25475SOL     OW77865   7.543   7.367   2.799
25475SOL    HW177866   7.514   7.288   2.753
25475SOL    HW277867   7.634   7.379   2.772
25476SOL     OW77868   7.484   6.152   2.974
25476SOL    HW177869   7.568   6.146   2.927
25476SOL    HW277870   7.508   6.144   3.066
25477SOL     OW77871   7.617   6.114   3.603
25477SOL    HW177872   7.674   6.061   3.546
25477SOL    HW277873   7.589   6.187   3.547
25478SOL     OW77874   0.207   6.095   2.162
25478SOL    HW177875   0.168   6.010   2.182
25478SOL    HW277876   0.185   6.149   2.238
25479SOL     OW77877   7.682   7.133   3.579
25479SOL    HW177878   7.666   7.189   3.656
25479SOL    HW277879   7.704   7.048   3.616
25480SOL     OW77880   7.898   6.087   1.998
25480SOL    HW177881   7.954   6.154   2.039
25480SOL    HW277882   7.809   6.121   2.007
25481SOL     OW77883   7.581   6.728   3.335
25481SOL    HW177884   7.582   6.683   3.420
25481SOL    HW277885   7.602   6.659   3.272
25482SOL     OW77886   7.529   6.861   2.872
25482SOL    HW177887   7.512   6.872   2.966
25482SOL    HW277888   7.459   6.803   2.842
25483SOL     OW77889   7.588   7.397   3.709
25483SOL    HW177890   7.544   7.323   3.751
25483SOL    HW277891   7.640   7.435   3.779
25484SOL     OW77892   7.717   5.917   2.578
25484SOL    HW177893   7.630   5.950   2.553
25484SOL    HW277894   7.710   5.902   2.673
25485SOL     OW77895   7.813   6.881   3.373
25485SOL    HW177896   7.809   6.954   3.312
25485SOL    HW277897   7.734   6.830   3.357
25486SOL     OW77898  -0.010   7.149   2.275
25486SOL    HW177899  -0.003   7.080   2.340
25486SOL    HW277900   0.048   7.218   2.307
25487SOL     OW77901   7.717   6.921   2.145
25487SOL    HW177902   7.625   6.916   2.119
25487SOL    HW277903   7.717   6.970   2.227
25488SOL     OW77904   7.557   6.624   3.586
25488SOL    HW177905   7.481   6.599   3.639
25488SOL    HW277906   7.631   6.578   3.627
25489SOL     OW77907   7.506   5.918   1.910
25489SOL    HW177908   7.420   5.897   1.874
25489SOL    HW277909   7.534   5.996   1.862
25490SOL     OW77910   7.506   5.738   2.154
25490SOL    HW177911   7.493   5.813   2.097
25490SOL    HW277912   7.594   5.707   2.132
25491SOL     OW77913   7.832   7.343   3.431
25491SOL    HW177914   7.743   7.377   3.418
25491SOL    HW277915   7.819   7.253   3.462
25492SOL     OW77916   7.706   6.889   3.714
25492SOL    HW177917   7.641   6.824   3.689
25492SOL    HW277918   7.696   6.898   3.809
25493SOL     OW77919   7.545   6.813   2.533
25493SOL    HW177920   7.547   6.771   2.619
25493SOL    HW277921   7.611   6.766   2.482
25494SOL     OW77922   0.097   7.034   3.409
25494SOL    HW177923   0.052   6.966   3.460
25494SOL    HW277924   0.172   7.059   3.464
25495SOL     OW77925   7.787   6.142   3.155
25495SOL    HW177926   7.834   6.089   3.219
25495SOL    HW277927   7.813   6.105   3.070
25496SOL     OW77928   7.486   6.644   2.170
25496SOL    HW177929   7.578   6.633   2.146
25496SOL    HW277930   7.457   6.556   2.194
25497SOL     OW77931   7.650   6.209   3.861
25497SOL    HW177932   7.564   6.201   3.901
25497SOL    HW277933   7.636   6.190   3.769
25498SOL     OW77934   7.673   5.868   4.718
25498SOL    HW177935   7.699   5.835   4.804
25498SOL    HW277936   7.584   5.834   4.704
25499SOL     OW77937   7.446   5.979   4.365
25499SOL    HW177938   7.366   6.003   4.411
25499SOL    HW277939   7.422   5.900   4.315
25500SOL     OW77940   7.746   7.034   4.775
25500SOL    HW177941   7.670   6.978   4.762
25500SOL    HW277942   7.803   7.015   4.701
25501SOL     OW77943   7.860   5.988   5.238
25501SOL    HW177944   7.932   5.927   5.250
25501SOL    HW277945   7.782   5.933   5.237
25502SOL     OW77946   7.673   7.306   4.195
25502SOL    HW177947   7.685   7.384   4.250
25502SOL    HW277948   7.762   7.274   4.180
25503SOL     OW77949   7.671   7.025   4.252
25503SOL    HW177950   7.644   7.116   4.262
25503SOL    HW277951   7.618   6.977   4.316
25504SOL     OW77952   7.711   6.676   4.628
25504SOL    HW177953   7.701   6.587   4.660
25504SOL    HW277954   7.649   6.727   4.680
25505SOL     OW77955   7.569   6.234   4.289
25505SOL    HW177956   7.530   6.150   4.311
25505SOL    HW277957   7.558   6.287   4.368
25506SOL     OW77958   7.499   7.175   3.838
25506SOL    HW177959   7.482   7.083   3.854
25506SOL    HW277960   7.469   7.220   3.917
25507SOL     OW77961   7.557   6.328   5.302
25507SOL    HW177962   7.644   6.367   5.304
25507SOL    HW277963   7.497   6.403   5.295
25508SOL     OW77964   7.640   6.539   5.013
25508SOL    HW177965   7.728   6.501   5.004
25508SOL    HW277966   7.585   6.488   4.954
25509SOL     OW77967   7.762   5.850   5.577
25509SOL    HW177968   7.806   5.930   5.608
25509SOL    HW277969   7.669   5.866   5.592
25510SOL     OW77970   7.997   6.326   3.976
25510SOL    HW177971   8.030   6.415   3.990
25510SOL    HW277972   7.937   6.311   4.050
25511SOL     OW77973   7.534   6.413   4.495
25511SOL    HW177974   7.609   6.401   4.553
25511SOL    HW277975   7.486   6.486   4.533
25512SOL     OW77976   7.582   7.456   5.308
25512SOL    HW177977   7.580   7.438   5.402
25512SOL    HW277978   7.511   7.403   5.272
25513SOL     OW77979   7.963   5.797   4.605
25513SOL    HW177980   7.963   5.794   4.700
25513SOL    HW277981   7.955   5.890   4.584
25514SOL     OW77982   7.817   7.422   4.598
25514SOL    HW177983   7.884   7.359   4.623
25514SOL    HW277984   7.862   7.507   4.601
25515SOL     OW77985   7.748   6.550   3.985
25515SOL    HW177986   7.839   6.563   3.958
25515SOL    HW277987   7.728   6.460   3.960
25516SOL     OW77988   7.955   6.835   5.466
25516SOL    HW177989   7.914   6.838   5.380
25516SOL    HW277990   7.883   6.848   5.528
25517SOL     OW77991   7.626   5.849   5.230
25517SOL    HW177992   7.541   5.891   5.243
25517SOL    HW277993   7.613   5.760   5.261
25518SOL     OW77994   7.704   7.373   4.945
25518SOL    HW177995   7.747   7.297   4.985
25518SOL    HW277996   7.688   7.347   4.855
25519SOL     OW77997   7.825   6.283   4.183
25519SOL    HW177998   7.874   6.227   4.243
25519SOL    HW277999   7.734   6.270   4.208
25520SOL     OW78000   0.014   5.690   3.857
25520SOL    HW178001   0.106   5.663   3.869
25520SOL    HW278002   0.001   5.688   3.763
25521SOL     OW78003   7.963   5.594   4.202
25521SOL    HW178004   7.891   5.623   4.258
25521SOL    HW278005   8.006   5.675   4.176
25522SOL     OW78006   7.741   5.638   3.913
25522SOL    HW178007   7.798   5.701   3.868
25522SOL    HW278008   7.802   5.579   3.957
25523SOL     OW78009   7.916   6.717   4.459
25523SOL    HW178010   7.847   6.698   4.523
25523SOL    HW278011   7.874   6.705   4.374
25524SOL     OW78012   7.533   6.140   5.108
25524SOL    HW178013   7.626   6.137   5.085
25524SOL    HW278014   7.528   6.207   5.176
25525SOL     OW78015   7.987   5.777   4.870
25525SOL    HW178016   8.042   5.728   4.931
25525SOL    HW278017   7.903   5.784   4.915
25526SOL     OW78018   7.881   6.401   4.990
25526SOL    HW178019   7.965   6.396   5.035
25526SOL    HW278020   7.844   6.313   4.999
25527SOL     OW78021   7.521   7.163   5.088
25527SOL    HW178022   7.494   7.229   5.024
25527SOL    HW278023   7.615   7.155   5.077
25528SOL     OW78024   7.787   6.705   4.216
25528SOL    HW178025   7.774   6.783   4.162
25528SOL    HW278026   7.770   6.632   4.156
25529SOL     OW78027  -0.025   6.142   4.588
25529SOL    HW178028   0.016   6.218   4.546
25529SOL    HW278029   0.014   6.139   4.675
25530SOL     OW78030   7.784   7.119   5.033
25530SOL    HW178031   7.779   7.077   4.947
25530SOL    HW278032   7.876   7.140   5.044
25531SOL     OW78033   7.849   6.320   5.327
25531SOL    HW178034   7.937   6.349   5.304
25531SOL    HW278035   7.851   6.225   5.318
25532SOL     OW78036   7.936   5.683   5.456
25532SOL    HW178037   7.892   5.613   5.407
25532SOL    HW278038   7.864   5.738   5.487
25533SOL     OW78039   7.984   6.505   4.757
25533SOL    HW178040   8.012   6.596   4.771
25533SOL    HW278041   7.947   6.478   4.841
25534SOL     OW78042   7.736   5.782   4.976
25534SOL    HW178043   7.690   5.812   5.055
25534SOL    HW278044   7.720   5.688   4.974
25535SOL     OW78045   7.502   6.900   4.998
25535SOL    HW178046   7.529   6.841   5.069
25535SOL    HW278047   7.500   6.987   5.039
25536SOL     OW78048   7.742   5.657   4.352
25536SOL    HW178049   7.729   5.750   4.372
25536SOL    HW278050   7.761   5.618   4.437
25537SOL     OW78051   7.799   6.501   5.531
25537SOL    HW178052   7.890   6.513   5.560
25537SOL    HW278053   7.803   6.430   5.468
25538SOL     OW78054   7.737   6.400   4.680
25538SOL    HW178055   7.828   6.426   4.692
25538SOL    HW278056   7.735   6.307   4.704
25539SOL     OW78057   7.744   6.125   4.726
25539SOL    HW178058   7.718   6.034   4.722
25539SOL    HW278059   7.823   6.130   4.671
25540SOL     OW78060   7.460   6.900   3.914
25540SOL    HW178061   7.373   6.919   3.880
25540SOL    HW278062   7.453   6.811   3.949
25541SOL     OW78063   7.546   7.364   4.668
25541SOL    HW178064   7.515   7.287   4.619
25541SOL    HW278065   7.634   7.380   4.633
25542SOL     OW78066   7.483   6.151   4.837
25542SOL    HW178067   7.566   6.145   4.789
25542SOL    HW278068   7.508   6.142   4.929
25543SOL     OW78069   7.622   6.112   5.464
25543SOL    HW178070   7.667   6.056   5.401
25543SOL    HW278071   7.588   6.185   5.411
25544SOL     OW78072   0.207   6.096   4.024
25544SOL    HW178073   0.169   6.010   4.043
25544SOL    HW278074   0.184   6.150   4.100
25545SOL     OW78075   7.686   7.133   5.445
25545SOL    HW178076   7.660   7.182   5.523
25545SOL    HW278077   7.703   7.044   5.477
25546SOL     OW78078   7.898   6.088   3.861
25546SOL    HW178079   7.954   6.154   3.901
25546SOL    HW278080   7.809   6.122   3.870
25547SOL     OW78081   7.582   6.728   5.201
25547SOL    HW178082   7.584   6.685   5.287
25547SOL    HW278083   7.602   6.658   5.139
25548SOL     OW78084   7.529   6.858   4.736
25548SOL    HW178085   7.513   6.869   4.829
25548SOL    HW278086   7.458   6.802   4.705
25549SOL     OW78087   7.581   7.398   5.571
25549SOL    HW178088   7.540   7.321   5.610
25549SOL    HW278089   7.625   7.441   5.644
25550SOL     OW78090   7.716   5.917   4.440
25550SOL    HW178091   7.630   5.949   4.414
25550SOL    HW278092   7.709   5.903   4.535
25551SOL     OW78093   7.814   6.883   5.237
25551SOL    HW178094   7.809   6.955   5.174
25551SOL    HW278095   7.736   6.831   5.220
25552SOL     OW78096  -0.011   7.153   4.136
25552SOL    HW178097  -0.005   7.081   4.199
25552SOL    HW278098   0.050   7.219   4.169
25553SOL     OW78099   7.717   6.921   4.008
25553SOL    HW178100   7.625   6.916   3.982
25553SOL    HW278101   7.716   6.970   4.090
25554SOL     OW78102   7.566   6.637   5.462
25554SOL    HW178103   7.487   6.607   5.507
25554SOL    HW278104   7.636   6.583   5.499
25555SOL     OW78105   7.506   5.918   3.771
25555SOL    HW178106   7.418   5.898   3.740
25555SOL    HW278107   7.532   5.996   3.722
25556SOL     OW78108   7.506   5.737   4.018
25556SOL    HW178109   7.492   5.813   3.961
25556SOL    HW278110   7.593   5.706   3.995
25557SOL     OW78111   7.844   7.350   5.319
25557SOL    HW178112   7.761   7.389   5.292
25557SOL    HW278113   7.822   7.259   5.340
25558SOL     OW78114   7.691   6.880   5.567
25558SOL    HW178115   7.644   6.807   5.525
25558SOL    HW278116   7.648   6.890   5.652
25559SOL     OW78117   7.544   6.816   4.397
25559SOL    HW178118   7.538   6.771   4.481
25559SOL    HW278119   7.609   6.766   4.347
25560SOL     OW78120   0.093   7.039   5.270
25560SOL    HW178121   0.046   6.970   5.317
25560SOL    HW278122   0.169   7.057   5.325
25561SOL     OW78123   7.789   6.144   5.017
25561SOL    HW178124   7.839   6.090   5.079
25561SOL    HW278125   7.811   6.109   4.931
25562SOL     OW78126   7.486   6.645   4.033
25562SOL    HW178127   7.578   6.633   4.008
25562SOL    HW278128   7.457   6.557   4.057
25563SOL     OW78129   7.649   6.209   5.724
25563SOL    HW178130   7.561   6.201   5.761
25563SOL    HW278131   7.638   6.189   5.631
25564SOL     OW78132   7.673   5.869   6.581
25564SOL    HW178133   7.699   5.834   6.666
25564SOL    HW278134   7.585   5.834   6.567
25565SOL     OW78135   7.447   5.977   6.228
25565SOL    HW178136   7.366   6.002   6.272
25565SOL    HW278137   7.423   5.899   6.177
25566SOL     OW78138   7.753   7.025   6.634
25566SOL    HW178139   7.674   6.971   6.628
25566SOL    HW278140   7.795   7.016   6.548
25567SOL     OW78141   7.863   5.981   7.097
25567SOL    HW178142   7.931   5.914   7.098
25567SOL    HW278143   7.781   5.932   7.098
25568SOL     OW78144   7.655   7.301   6.061
25568SOL    HW178145   7.674   7.380   6.111
25568SOL    HW278146   7.741   7.267   6.036
25569SOL     OW78147   7.674   7.026   6.125
25569SOL    HW178148   7.636   7.114   6.132
25569SOL    HW278149   7.621   6.973   6.184
25570SOL     OW78150   7.722   6.678   6.500
25570SOL    HW178151   7.706   6.588   6.526
25570SOL    HW278152   7.653   6.729   6.543
25571SOL     OW78153   7.569   6.232   6.151
25571SOL    HW178154   7.529   6.147   6.172
25571SOL    HW278155   7.558   6.284   6.231
25572SOL     OW78156   7.505   7.173   5.700
25572SOL    HW178157   7.483   7.081   5.715
25572SOL    HW278158   7.470   7.219   5.776
25573SOL     OW78159   7.553   6.327   7.166
25573SOL    HW178160   7.640   6.365   7.167
25573SOL    HW278161   7.494   6.401   7.153
25574SOL     OW78162   7.643   6.538   6.881
25574SOL    HW178163   7.729   6.498   6.870
25574SOL    HW278164   7.587   6.493   6.818
25575SOL     OW78165   7.755   5.847   7.440
25575SOL    HW178166   7.797   5.931   7.454
25575SOL    HW278167   7.661   5.864   7.454
25576SOL     OW78168   7.987   6.326   5.839
25576SOL    HW178169   8.031   6.410   5.849
25576SOL    HW278170   7.931   6.318   5.916
25577SOL     OW78171   7.538   6.407   6.360
25577SOL    HW178172   7.612   6.399   6.421
25577SOL    HW278173   7.487   6.480   6.394
25578SOL     OW78174   7.570   7.455   7.170
25578SOL    HW178175   7.576   7.435   7.263
25578SOL    HW278176   7.492   7.410   7.140
25579SOL     OW78177   7.967   5.794   6.471
25579SOL    HW178178   7.965   5.796   6.566
25579SOL    HW278179   7.954   5.885   6.444
25580SOL     OW78180   7.810   7.424   6.453
25580SOL    HW178181   7.875   7.358   6.479
25580SOL    HW278182   7.857   7.507   6.459
25581SOL     OW78183   7.741   6.544   5.847
25581SOL    HW178184   7.818   6.561   5.792
25581SOL    HW278185   7.721   6.452   5.831
25582SOL     OW78186   7.944   6.820   7.334
25582SOL    HW178187   7.905   6.827   7.247
25582SOL    HW278188   7.873   6.838   7.395
25583SOL     OW78189   7.624   5.852   7.095
25583SOL    HW178190   7.535   5.888   7.092
25583SOL    HW278191   7.612   5.762   7.126
25584SOL     OW78192   7.710   7.376   6.806
25584SOL    HW178193   7.745   7.296   6.844
25584SOL    HW278194   7.678   7.349   6.719
25585SOL     OW78195   7.824   6.289   6.053
25585SOL    HW178196   7.872   6.220   6.101
25585SOL    HW278197   7.732   6.275   6.076
25586SOL     OW78198   0.016   5.680   5.725
25586SOL    HW178199   0.109   5.659   5.734
25586SOL    HW278200   0.001   5.683   5.631
25587SOL     OW78201   7.985   5.602   6.089
25587SOL    HW178202   7.901   5.625   6.128
25587SOL    HW278203   8.013   5.682   6.044
25588SOL     OW78204   7.740   5.645   5.770
25588SOL    HW178205   7.766   5.717   5.712
25588SOL    HW278206   7.822   5.603   5.795
25589SOL     OW78207   7.919   6.717   6.320
25589SOL    HW178208   7.851   6.699   6.384
25589SOL    HW278209   7.876   6.705   6.235
25590SOL     OW78210   7.535   6.139   6.971
25590SOL    HW178211   7.628   6.137   6.947
25590SOL    HW278212   7.529   6.206   7.039
25591SOL     OW78213   7.987   5.780   6.737
25591SOL    HW178214   8.035   5.713   6.787
25591SOL    HW278215   7.903   5.786   6.781
25592SOL     OW78216   7.885   6.400   6.856
25592SOL    HW178217   7.974   6.387   6.889
25592SOL    HW278218   7.845   6.313   6.862
25593SOL     OW78219   7.519   7.161   6.951
25593SOL    HW178220   7.486   7.225   6.888
25593SOL    HW278221   7.613   7.157   6.935
25594SOL     OW78222   7.791   6.701   6.074
25594SOL    HW178223   7.777   6.777   6.018
25594SOL    HW278224   7.775   6.625   6.018
25595SOL     OW78225  -0.027   6.146   6.450
25595SOL    HW178226   0.015   6.220   6.406
25595SOL    HW278227   0.013   6.143   6.537
25596SOL     OW78228   7.786   7.119   6.890
25596SOL    HW178229   7.781   7.076   6.805
25596SOL    HW278230   7.880   7.138   6.902
25597SOL     OW78231   7.840   6.324   7.193
25597SOL    HW178232   7.920   6.354   7.150
25597SOL    HW278233   7.845   6.229   7.190
25598SOL     OW78234   7.933   5.680   7.325
25598SOL    HW178235   7.894   5.611   7.271
25598SOL    HW278236   7.859   5.734   7.352
25599SOL     OW78237   7.989   6.506   6.622
25599SOL    HW178238   8.004   6.601   6.628
25599SOL    HW278239   7.948   6.482   6.705
25600SOL     OW78240   7.736   5.782   6.840
25600SOL    HW178241   7.687   5.810   6.918
25600SOL    HW278242   7.721   5.688   6.835
25601SOL     OW78243   7.509   6.898   6.863
25601SOL    HW178244   7.535   6.840   6.935
25601SOL    HW278245   7.500   6.984   6.903
25602SOL     OW78246   7.744   5.658   6.209
25602SOL    HW178247   7.729   5.751   6.228
25602SOL    HW278248   7.760   5.618   6.294
25603SOL     OW78249   7.806   6.507   7.404
25603SOL    HW178250   7.898   6.535   7.401
25603SOL    HW278251   7.803   6.431   7.345
25604SOL     OW78252   7.738   6.400   6.547
25604SOL    HW178253   7.831   6.422   6.554
25604SOL    HW278254   7.735   6.306   6.569
25605SOL     OW78255   7.745   6.125   6.591
25605SOL    HW178256   7.718   6.033   6.585
25605SOL    HW278257   7.822   6.131   6.535
25606SOL     OW78258   7.468   6.897   5.772
25606SOL    HW178259   7.380   6.917   5.740
25606SOL    HW278260   7.460   6.810   5.811
25607SOL     OW78261   7.547   7.361   6.536
25607SOL    HW178262   7.514   7.287   6.486
25607SOL    HW278263   7.632   7.381   6.496
25608SOL     OW78264   7.482   6.151   6.700
25608SOL    HW178265   7.563   6.143   6.650
25608SOL    HW278266   7.508   6.142   6.792
25609SOL     OW78267   7.625   6.109   7.324
25609SOL    HW178268   7.653   6.047   7.258
25609SOL    HW278269   7.589   6.182   7.274
25610SOL     OW78270   0.208   6.101   5.882
25610SOL    HW178271   0.169   6.015   5.896
25610SOL    HW278272   0.183   6.150   5.961
25611SOL     OW78273   7.691   7.131   7.304
25611SOL    HW178274   7.669   7.190   7.376
25611SOL    HW278275   7.700   7.045   7.346
25612SOL     OW78276   7.898   6.088   5.725
25612SOL    HW178277   7.952   6.158   5.763
25612SOL    HW278278   7.808   6.120   5.734
25613SOL     OW78279   7.593   6.730   7.069
25613SOL    HW178280   7.589   6.685   7.153
25613SOL    HW278281   7.608   6.659   7.005
25614SOL     OW78282   7.531   6.857   6.600
25614SOL    HW178283   7.513   6.867   6.693
25614SOL    HW278284   7.459   6.803   6.567
25615SOL     OW78285   7.591   7.386   7.430
25615SOL    HW178286   7.544   7.314   7.473
25615SOL    HW278287   7.638   7.430   7.500
25616SOL     OW78288   7.717   5.916   6.303
25616SOL    HW178289   7.631   5.948   6.275
25616SOL    HW278290   7.708   5.902   6.397
25617SOL     OW78291   7.825   6.888   7.092
25617SOL    HW178292   7.803   6.966   7.041
25617SOL    HW278293   7.749   6.830   7.080
25618SOL     OW78294  -0.015   7.171   6.007
25618SOL    HW178295  -0.015   7.088   6.055
25618SOL    HW278296   0.065   7.215   6.035
25619SOL     OW78297   7.722   6.917   5.886
25619SOL    HW178298   7.633   6.914   5.851
25619SOL    HW278299   7.714   6.965   5.968
25620SOL     OW78300   7.567   6.639   7.329
25620SOL    HW178301   7.486   6.608   7.370
25620SOL    HW278302   7.636   6.584   7.367
25621SOL     OW78303   7.504   5.918   5.631
25621SOL    HW178304   7.417   5.895   5.596
25621SOL    HW278305   7.528   5.998   5.584
25622SOL     OW78306   7.505   5.738   5.880
25622SOL    HW178307   7.491   5.812   5.822
25622SOL    HW278308   7.593   5.706   5.857
25623SOL     OW78309   7.824   7.337   7.159
25623SOL    HW178310   7.741   7.380   7.137
25623SOL    HW278311   7.798   7.253   7.196
25624SOL     OW78312   7.685   6.880   7.429
25624SOL    HW178313   7.638   6.808   7.389
25624SOL    HW278314   7.642   6.893   7.514
25625SOL     OW78315   7.542   6.817   6.260
25625SOL    HW178316   7.524   6.766   6.339
25625SOL    HW278317   7.603   6.763   6.210
25626SOL     OW78318   0.076   7.030   7.177
25626SOL    HW178319   0.034   6.946   7.162
25626SOL    HW278320   0.030   7.067   7.252
25627SOL     OW78321   7.790   6.145   6.879
25627SOL    HW178322   7.842   6.087   6.936
25627SOL    HW278323   7.807   6.112   6.790
25628SOL     OW78324   7.486   6.646   5.899
25628SOL    HW178325   7.577   6.632   5.873
25628SOL    HW278326   7.455   6.558   5.923
25629SOL     OW78327   7.651   6.209   7.585
25629SOL    HW178328   7.562   6.202   7.620
25629SOL    HW278329   7.642   6.187   7.492
25630SOL     OW78330   7.676   5.866   8.442
25630SOL    HW178331   7.698   5.832   8.529
25630SOL    HW278332   7.588   5.833   8.425
25631SOL     OW78333   7.450   5.974   8.091
25631SOL    HW178334   7.369   6.000   8.135
25631SOL    HW278335   7.426   5.897   8.039
25632SOL     OW78336   7.752   7.026   8.496
25632SOL    HW178337   7.676   6.967   8.489
25632SOL    HW278338   7.785   7.033   8.407
25633SOL     OW78339   7.896   5.920   8.963
25633SOL    HW178340   7.919   5.855   9.029
25633SOL    HW278341   7.801   5.912   8.953
25634SOL     OW78342   7.665   7.304   7.926
25634SOL    HW178343   7.681   7.385   7.975
25634SOL    HW278344   7.750   7.279   7.891
25635SOL     OW78345   7.674   7.029   7.985
25635SOL    HW178346   7.648   7.121   7.987
25635SOL    HW278347   7.615   6.986   8.047
25636SOL     OW78348   7.731   6.679   8.363
25636SOL    HW178349   7.710   6.590   8.393
25636SOL    HW278350   7.662   6.734   8.402
25637SOL     OW78351   7.569   6.231   8.017
25637SOL    HW178352   7.527   6.146   8.035
25637SOL    HW278353   7.556   6.281   8.097
25638SOL     OW78354   7.500   7.172   7.564
25638SOL    HW178355   7.479   7.080   7.581
25638SOL    HW278356   7.469   7.219   7.642
25639SOL     OW78357   7.548   6.326   9.028
25639SOL    HW178358   7.634   6.367   9.036
25639SOL    HW278359   7.488   6.400   9.015
25640SOL     OW78360   7.631   6.543   8.742
25640SOL    HW178361   7.715   6.497   8.740
25640SOL    HW278362   7.577   6.497   8.677
25641SOL     OW78363   7.755   5.846   9.310
25641SOL    HW178364   7.796   5.931   9.324
25641SOL    HW278365   7.661   5.864   9.321
25642SOL     OW78366   7.997   6.324   7.713
25642SOL    HW178367   8.021   6.415   7.697
25642SOL    HW278368   7.939   6.327   7.789
25643SOL     OW78369   7.540   6.400   8.230
25643SOL    HW178370   7.615   6.399   8.290
25643SOL    HW278371   7.488   6.475   8.257
25644SOL     OW78372   7.573   7.459   9.031
25644SOL    HW178373   7.576   7.439   9.125
25644SOL    HW278374   7.503   7.404   8.996
25645SOL     OW78375   7.972   5.786   8.339
25645SOL    HW178376   7.945   5.817   8.425
25645SOL    HW278377   7.943   5.853   8.278
25646SOL     OW78378   7.812   7.427   8.317
25646SOL    HW178379   7.878   7.359   8.326
25646SOL    HW278380   7.860   7.509   8.328
25647SOL     OW78381   7.739   6.542   7.702
25647SOL    HW178382   7.791   6.559   7.623
25647SOL    HW278383   7.718   6.449   7.697
25648SOL     OW78384   7.954   6.832   9.190
25648SOL    HW178385   7.912   6.838   9.104
25648SOL    HW278386   7.883   6.849   9.252
25649SOL     OW78387   7.623   5.864   8.962
25649SOL    HW178388   7.534   5.895   8.949
25649SOL    HW278389   7.614   5.774   8.992
25650SOL     OW78390   7.705   7.374   8.669
25650SOL    HW178391   7.748   7.296   8.705
25650SOL    HW278392   7.683   7.349   8.579
25651SOL     OW78393   7.822   6.289   7.919
25651SOL    HW178394   7.860   6.203   7.934
25651SOL    HW278395   7.731   6.280   7.947
25652SOL     OW78396   0.013   5.673   7.591
25652SOL    HW178397   0.107   5.656   7.598
25652SOL    HW278398  -0.003   5.678   7.497
25653SOL     OW78399   8.007   5.649   8.002
25653SOL    HW178400   7.911   5.645   8.004
25653SOL    HW278401   8.026   5.694   7.919
25654SOL     OW78402   7.739   5.647   7.630
25654SOL    HW178403   7.756   5.720   7.571
25654SOL    HW278404   7.826   5.608   7.646
25655SOL     OW78405   7.929   6.676   8.176
25655SOL    HW178406   7.859   6.679   8.242
25655SOL    HW278407   7.883   6.678   8.092
25656SOL     OW78408   7.539   6.142   8.829
25656SOL    HW178409   7.633   6.136   8.813
25656SOL    HW278410   7.531   6.209   8.897
25657SOL     OW78411   7.989   5.819   8.620
25657SOL    HW178412   8.026   5.731   8.628
25657SOL    HW278413   7.902   5.812   8.658
25658SOL     OW78414   7.862   6.394   8.746
25658SOL    HW178415   7.956   6.395   8.726
25658SOL    HW278416   7.838   6.301   8.745
25659SOL     OW78417   7.522   7.162   8.812
25659SOL    HW178418   7.492   7.226   8.748
25659SOL    HW278419   7.616   7.155   8.798
25660SOL     OW78420   7.797   6.697   7.932
25660SOL    HW178421   7.782   6.776   7.881
25660SOL    HW278422   7.780   6.625   7.872
25661SOL     OW78423  -0.027   6.170   8.332
25661SOL    HW178424   0.022   6.237   8.284
25661SOL    HW278425   0.028   6.149   8.407
25662SOL     OW78426   7.785   7.118   8.753
25662SOL    HW178427   7.783   7.074   8.668
25662SOL    HW278428   7.878   7.138   8.767
25663SOL     OW78429   7.829   6.342   9.061
25663SOL    HW178430   7.883   6.373   8.989
25663SOL    HW278431   7.850   6.249   9.069
25664SOL     OW78432   7.928   5.709   9.157
25664SOL    HW178433   7.896   5.626   9.123
25664SOL    HW278434   7.856   5.743   9.210
25665SOL     OW78435   8.009   6.515   8.520
25665SOL    HW178436   8.016   6.607   8.491
25665SOL    HW278437   7.915   6.502   8.535
25666SOL     OW78438   7.734   5.785   8.701
25666SOL    HW178439   7.682   5.809   8.778
25666SOL    HW278440   7.724   5.690   8.695
25667SOL     OW78441   7.501   6.900   8.723
25667SOL    HW178442   7.529   6.843   8.795
25667SOL    HW278443   7.501   6.987   8.761
25668SOL     OW78444   7.736   5.658   8.063
25668SOL    HW178445   7.721   5.750   8.081
25668SOL    HW278446   7.751   5.618   8.149
25669SOL     OW78447   7.814   6.517   9.277
25669SOL    HW178448   7.900   6.553   9.259
25669SOL    HW278449   7.807   6.442   9.217
25670SOL     OW78450   7.754   6.396   8.408
25670SOL    HW178451   7.838   6.391   8.361
25670SOL    HW278452   7.740   6.307   8.440
25671SOL     OW78453   7.750   6.121   8.471
25671SOL    HW178454   7.723   6.031   8.454
25671SOL    HW278455   7.828   6.133   8.416
25672SOL     OW78456   7.467   6.896   7.635
25672SOL    HW178457   7.380   6.917   7.603
25672SOL    HW278458   7.459   6.809   7.675
25673SOL     OW78459   7.549   7.362   8.398
25673SOL    HW178460   7.516   7.288   8.347
25673SOL    HW278461   7.634   7.382   8.359
25674SOL     OW78462   7.479   6.147   8.562
25674SOL    HW178463   7.560   6.137   8.513
25674SOL    HW278464   7.506   6.142   8.654
25675SOL     OW78465   7.621   6.106   9.182
25675SOL    HW178466   7.630   6.036   9.117
25675SOL    HW278467   7.586   6.180   9.133
25676SOL     OW78468   0.213   6.101   7.743
25676SOL    HW178469   0.170   6.015   7.752
25676SOL    HW278470   0.182   6.150   7.819
25677SOL     OW78471   7.686   7.132   9.166
25677SOL    HW178472   7.671   7.187   9.242
25677SOL    HW278473   7.703   7.045   9.202
25678SOL     OW78474   7.902   6.089   7.602
25678SOL    HW178475   7.953   6.161   7.638
25678SOL    HW278476   7.811   6.121   7.605
25679SOL     OW78477   7.579   6.731   8.930
25679SOL    HW178478   7.583   6.686   9.015
25679SOL    HW278479   7.597   6.661   8.866
25680SOL     OW78480   7.535   6.851   8.462
25680SOL    HW178481   7.514   6.865   8.554
25680SOL    HW278482   7.462   6.800   8.428
25681SOL     OW78483   7.583   7.394   9.292
25681SOL    HW178484   7.541   7.318   9.333
25681SOL    HW278485   7.635   7.433   9.362
25682SOL     OW78486   7.721   5.916   8.167
25682SOL    HW178487   7.637   5.948   8.134
25682SOL    HW278488   7.706   5.900   8.260
25683SOL     OW78489   7.814   6.881   8.962
25683SOL    HW178490   7.813   6.954   8.900
25683SOL    HW278491   7.734   6.832   8.944
25684SOL     OW78492  -0.015   7.161   7.858
25684SOL    HW178493  -0.009   7.083   7.914
25684SOL    HW278494   0.053   7.219   7.891
25685SOL     OW78495   7.723   6.913   7.749
25685SOL    HW178496   7.634   6.912   7.714
25685SOL    HW278497   7.717   6.965   7.829
25686SOL     OW78498   7.568   6.635   9.190
25686SOL    HW178499   7.487   6.606   9.232
25686SOL    HW278500   7.637   6.584   9.233
25687SOL     OW78501   7.498   5.918   7.493
25687SOL    HW178502   7.417   5.890   7.450
25687SOL    HW278503   7.522   6.000   7.449
25688SOL     OW78504   7.506   5.739   7.741
25688SOL    HW178505   7.489   5.810   7.680
25688SOL    HW278506   7.593   5.707   7.718
25689SOL     OW78507   7.833   7.345   9.022
25689SOL    HW178508   7.748   7.381   8.998
25689SOL    HW278509   7.814   7.256   9.052
25690SOL     OW78510   7.688   6.879   9.291
25690SOL    HW178511   7.643   6.807   9.246
25690SOL    HW278512   7.638   6.892   9.372
25691SOL     OW78513   7.537   6.820   8.123
25691SOL    HW178514   7.523   6.763   8.199
25691SOL    HW278515   7.599   6.771   8.069
25692SOL     OW78516   0.100   7.030   8.998
25692SOL    HW178517   0.051   6.969   9.053
25692SOL    HW278518   0.175   7.055   9.052
25693SOL     OW78519   7.801   6.128   8.752
25693SOL    HW178520   7.854   6.059   8.790
25693SOL    HW278521   7.800   6.109   8.658
25694SOL     OW78522   7.485   6.647   7.764
25694SOL    HW178523   7.576   6.634   7.737
25694SOL    HW278524   7.455   6.559   7.788
25695SOL     OW78525   7.652   6.206   9.443
25695SOL    HW178526   7.564   6.201   9.480
25695SOL    HW278527   7.641   6.185   9.350
25696SOL     OW78528   7.674   5.868  10.304
25696SOL    HW178529   7.700   5.833  10.389
25696SOL    HW278530   7.586   5.834  10.290
25697SOL     OW78531   7.451   5.974   9.952
25697SOL    HW178532   7.370   5.999   9.996
25697SOL    HW278533   7.427   5.897   9.900
25698SOL     OW78534   7.749   7.027  10.358
25698SOL    HW178535   7.673   6.970  10.350
25698SOL    HW278536   7.791   7.023  10.272
25699SOL     OW78537   7.871   5.959  10.823
25699SOL    HW178538   7.917   5.887  10.866
25699SOL    HW278539   7.781   5.928  10.815
25700SOL     OW78540   7.663   7.301   9.786
25700SOL    HW178541   7.681   7.382   9.833
25700SOL    HW278542   7.747   7.275   9.748
25701SOL     OW78543   7.674   7.029   9.849
25701SOL    HW178544   7.648   7.121   9.850
25701SOL    HW278545   7.614   6.986   9.911
25702SOL     OW78546   7.723   6.679  10.220
25702SOL    HW178547   7.708   6.590  10.250
25702SOL    HW278548   7.656   6.731  10.265
25703SOL     OW78549   7.570   6.232   9.876
25703SOL    HW178550   7.530   6.147   9.896
25703SOL    HW278551   7.558   6.283   9.957
25704SOL     OW78552   7.502   7.174   9.427
25704SOL    HW178553   7.483   7.082   9.443
25704SOL    HW278554   7.470   7.219   9.505
25705SOL     OW78555   7.552   6.327  10.890
25705SOL    HW178556   7.640   6.365  10.892
25705SOL    HW278557   7.494   6.402  10.879
25706SOL     OW78558   7.638   6.538  10.603
25706SOL    HW178559   7.725   6.500  10.595
25706SOL    HW278560   7.586   6.494  10.536
25707SOL     OW78561   7.757   5.846  11.167
25707SOL    HW178562   7.802   5.928  11.189
25707SOL    HW278563   7.664   5.866  11.179
25708SOL     OW78564   8.006   6.320   9.573
25708SOL    HW178565   8.013   6.413   9.550
25708SOL    HW278566   7.945   6.319   9.647
25709SOL     OW78567   7.539   6.402  10.088
25709SOL    HW178568   7.614   6.398  10.147
25709SOL    HW278569   7.488   6.477  10.119
25710SOL     OW78570   7.580   7.466  10.894
25710SOL    HW178571   7.581   7.444  10.987
25710SOL    HW278572   7.510   7.412  10.857
25711SOL     OW78573   7.974   5.790  10.202
25711SOL    HW178574   7.967   5.799  10.297
25711SOL    HW278575   7.950   5.876  10.168
25712SOL     OW78576   7.809   7.428  10.175
25712SOL    HW178577   7.874   7.359  10.162
25712SOL    HW278578   7.861   7.507  10.193
25713SOL     OW78579   7.738   6.540   9.558
25713SOL    HW178580   7.777   6.552   9.471
25713SOL    HW278581   7.723   6.446   9.564
25714SOL     OW78582   7.957   6.833  11.049
25714SOL    HW178583   7.914   6.838  10.963
25714SOL    HW278584   7.886   6.849  11.111
25715SOL     OW78585   7.621   5.854  10.817
25715SOL    HW178586   7.533   5.891  10.818
25715SOL    HW278587   7.610   5.764  10.848
25716SOL     OW78588   7.708   7.375  10.528
25716SOL    HW178589   7.748   7.296  10.565
25716SOL    HW278590   7.682   7.350  10.440
25717SOL     OW78591   7.823   6.283   9.773
25717SOL    HW178592   7.866   6.206   9.809
25717SOL    HW278593   7.732   6.275   9.800
25718SOL     OW78594   0.009   5.671   9.444
25718SOL    HW178595   0.102   5.652   9.457
25718SOL    HW278596   0.000   5.689   9.351
25719SOL     OW78597   8.011   5.643   9.852
25719SOL    HW178598   7.916   5.643   9.865
25719SOL    HW278599   8.024   5.696   9.773
25720SOL     OW78600   7.737   5.645   9.496
25720SOL    HW178601   7.754   5.719   9.437
25720SOL    HW278602   7.822   5.605   9.510
25721SOL     OW78603   7.923   6.697  10.037
25721SOL    HW178604   7.853   6.689  10.102
25721SOL    HW278605   7.878   6.691   9.953
25722SOL     OW78606   7.538   6.140  10.694
25722SOL    HW178607   7.631   6.138  10.672
25722SOL    HW278608   7.530   6.207  10.762
25723SOL     OW78609   7.988   5.785  10.471
25723SOL    HW178610   8.027   5.706  10.508
25723SOL    HW278611   7.902   5.792  10.512
25724SOL     OW78612   7.880   6.405  10.583
25724SOL    HW178613   7.972   6.400  10.608
25724SOL    HW278614   7.849   6.314  10.591
25725SOL     OW78615   7.520   7.162  10.675
25725SOL    HW178616   7.490   7.225  10.610
25725SOL    HW278617   7.614   7.155  10.660
25726SOL     OW78618   7.796   6.697   9.790
25726SOL    HW178619   7.782   6.776   9.738
25726SOL    HW278620   7.781   6.625   9.729
25727SOL     OW78621   7.971   6.150  10.177
25727SOL    HW178622   8.011   6.225  10.133
25727SOL    HW278623   8.014   6.148  10.263
25728SOL     OW78624   7.783   7.119  10.614
25728SOL    HW178625   7.780   7.075  10.529
25728SOL    HW278626   7.875   7.139  10.628
25729SOL     OW78627   7.839   6.326  10.914
25729SOL    HW178628   7.915   6.362  10.869
25729SOL    HW278629   7.852   6.231  10.913
25730SOL     OW78630   7.934   5.688  11.039
25730SOL    HW178631   7.895   5.614  10.993
25730SOL    HW278632   7.860   5.736  11.075
25731SOL     OW78633   7.994   6.508  10.349
25731SOL    HW178634   8.006   6.603  10.345
25731SOL    HW278635   7.943   6.493  10.428
25732SOL     OW78636   7.733   5.782  10.563
25732SOL    HW178637   7.686   5.809  10.642
25732SOL    HW278638   7.720   5.687  10.559
25733SOL     OW78639   7.500   6.899  10.586
25733SOL    HW178640   7.529   6.841  10.657
25733SOL    HW278641   7.499   6.986  10.625
25734SOL     OW78642   7.743   5.658   9.926
25734SOL    HW178643   7.727   5.751   9.945
25734SOL    HW278644   7.758   5.619  10.012
25735SOL     OW78645   7.806   6.506  11.124
25735SOL    HW178646   7.898   6.533  11.125
25735SOL    HW278647   7.804   6.431  11.064
25736SOL     OW78648   7.743   6.400  10.271
25736SOL    HW178649   7.837   6.420  10.273
25736SOL    HW278650   7.738   6.307  10.294
25737SOL     OW78651   7.745   6.124  10.320
25737SOL    HW178652   7.718   6.033  10.311
25737SOL    HW278653   7.822   6.132  10.263
25738SOL     OW78654   7.470   6.897   9.496
25738SOL    HW178655   7.382   6.918   9.465
25738SOL    HW278656   7.462   6.811   9.536
25739SOL     OW78657   7.548   7.363  10.261
25739SOL    HW178658   7.515   7.288  10.210
25739SOL    HW278659   7.633   7.383  10.221
25740SOL     OW78660   7.481   6.148  10.425
25740SOL    HW178661   7.562   6.143  10.374
25740SOL    HW278662   7.509   6.142  10.516
25741SOL     OW78663   7.621   6.110  11.048
25741SOL    HW178664   7.653   6.048  10.982
25741SOL    HW278665   7.588   6.184  10.998
25742SOL     OW78666   0.216   6.092   9.610
25742SOL    HW178667   0.171   6.008   9.621
25742SOL    HW278668   0.185   6.146   9.683
25743SOL     OW78669   7.687   7.134  11.028
25743SOL    HW178670   7.666   7.187  11.105
25743SOL    HW278671   7.704   7.046  11.064
25744SOL     OW78672   7.901   6.088   9.464
25744SOL    HW178673   7.955   6.158   9.501
25744SOL    HW278674   7.812   6.121   9.466
25745SOL     OW78675   7.582   6.728  10.790
25745SOL    HW178676   7.584   6.685  10.875
25745SOL    HW278677   7.600   6.658  10.727
25746SOL     OW78678   7.531   6.855  10.323
25746SOL    HW178679   7.511   6.866  10.416
25746SOL    HW278680   7.460   6.800  10.290
25747SOL     OW78681   7.587   7.395  11.154
25747SOL    HW178682   7.542   7.321  11.195
25747SOL    HW278683   7.635   7.436  11.226
25748SOL     OW78684   7.720   5.916  10.027
25748SOL    HW178685   7.635   5.947   9.998
25748SOL    HW278686   7.709   5.900  10.121
25749SOL     OW78687   7.814   6.883  10.821
25749SOL    HW178688   7.808   6.956  10.760
25749SOL    HW278689   7.736   6.831  10.805
25750SOL     OW78690  -0.019   7.165   9.725
25750SOL    HW178691  -0.012   7.083   9.775
25750SOL    HW278692   0.055   7.217   9.754
25751SOL     OW78693   7.726   6.912   9.614
25751SOL    HW178694   7.638   6.913   9.576
25751SOL    HW278695   7.718   6.964   9.694
25752SOL     OW78696   7.567   6.635  11.050
25752SOL    HW178697   7.487   6.605  11.094
25752SOL    HW278698   7.637   6.583  11.089
25753SOL     OW78699   7.496   5.916   9.356
25753SOL    HW178700   7.416   5.887   9.312
25753SOL    HW278701   7.517   5.999   9.315
25754SOL     OW78702   7.503   5.739   9.604
25754SOL    HW178703   7.487   5.810   9.542
25754SOL    HW278704   7.590   5.707   9.582
25755SOL     OW78705   7.839   7.351  10.893
25755SOL    HW178706   7.754   7.385  10.867
25755SOL    HW278707   7.822   7.260  10.920
25756SOL     OW78708   7.696   6.882  11.154
25756SOL    HW178709   7.644   6.812  11.115
25756SOL    HW278710   7.661   6.892  11.242
25757SOL     OW78711   7.537   6.819   9.984
25757SOL    HW178712   7.528   6.764  10.062
25757SOL    HW278713   7.599   6.773   9.929
25758SOL     OW78714   0.098   7.036  10.857
25758SOL    HW178715   0.050   6.969  10.906
25758SOL    HW278716   0.173   7.056  10.913
25759SOL     OW78717   7.796   6.142  10.607
25759SOL    HW178718   7.851   6.082  10.657
25759SOL    HW278719   7.806   6.114  10.516
25760SOL     OW78720   7.486   6.647   9.626
25760SOL    HW178721   7.577   6.635   9.598
25760SOL    HW278722   7.456   6.559   9.649
25761SOL     OW78723   7.652   6.206  11.308
25761SOL    HW178724   7.563   6.200  11.344
25761SOL    HW278725   7.642   6.187  11.215
25762SOL     OW78726   7.668   5.875  12.157
25762SOL    HW178727   7.698   5.838  12.241
25762SOL    HW278728   7.580   5.840  12.146
25763SOL     OW78729   7.451   5.975  11.812
25763SOL    HW178730   7.370   5.999  11.858
25763SOL    HW278731   7.428   5.898  11.760
25764SOL     OW78732   7.766   7.017  12.218
25764SOL    HW178733   7.682   6.970  12.214
25764SOL    HW278734   7.798   7.017  12.127
25765SOL     OW78735   7.666   7.306  11.647
25765SOL    HW178736   7.681   7.386  11.698
25765SOL    HW278737   7.754   7.276  11.624
25766SOL     OW78738   7.672   7.029  11.707
25766SOL    HW178739   7.643   7.120  11.714
25766SOL    HW278740   7.617   6.981  11.769
25767SOL     OW78741   7.707   6.676  12.074
25767SOL    HW178742   7.705   6.587  12.107
25767SOL    HW278743   7.653   6.726  12.135
25768SOL     OW78744   7.569   6.235  11.739
25768SOL    HW178745   7.530   6.150  11.761
25768SOL    HW278746   7.556   6.288  11.818
25769SOL     OW78747   7.502   7.175  11.286
25769SOL    HW178748   7.483   7.082  11.302
25769SOL    HW278749   7.470   7.220  11.364
25770SOL     OW78750   7.597   6.319   0.212
25770SOL    HW178751   7.596   6.328   0.307
25770SOL    HW278752   7.528   6.378   0.181
25771SOL     OW78753   7.640   6.580  12.395
25771SOL    HW178754   7.716   6.524  12.407
25771SOL    HW278755   7.569   6.533  12.438
25772SOL     OW78756   8.000   6.324  11.430
25772SOL    HW178757   8.021   6.417  11.425
25772SOL    HW278758   7.939   6.317  11.504
25773SOL     OW78759   7.532   6.413  11.946
25773SOL    HW178760   7.612   6.404  11.997
25773SOL    HW278761   7.487   6.488  11.986
25774SOL     OW78762   7.969   5.790  12.055
25774SOL    HW178763   7.969   5.805  12.149
25774SOL    HW278764   7.962   5.878  12.016
25775SOL     OW78765   7.813   7.419  12.039
25775SOL    HW178766   7.871   7.356  12.079
25775SOL    HW278767   7.862   7.501  12.039
25776SOL     OW78768   7.739   6.544  11.428
25776SOL    HW178769   7.805   6.564  11.361
25776SOL    HW278770   7.721   6.451  11.417
25777SOL     OW78771   7.674   7.383  12.390
25777SOL    HW178772   7.713   7.304  12.427
25777SOL    HW278773   7.636   7.354  12.307
25778SOL     OW78774   7.823   6.285  11.633
25778SOL    HW178775   7.871   6.220  11.685
25778SOL    HW278776   7.732   6.275  11.660
25779SOL     OW78777   0.011   5.672  11.313
25779SOL    HW178778   0.104   5.654  11.323
25779SOL    HW278779  -0.002   5.682  11.219
25780SOL     OW78780   8.006   5.617  11.694
25780SOL    HW178781   7.914   5.629  11.721
25780SOL    HW278782   8.023   5.690  11.634
25781SOL     OW78783   7.737   5.647  11.355
25781SOL    HW178784   7.753   5.719  11.295
25781SOL    HW278785   7.824   5.611  11.373
25782SOL     OW78786   7.914   6.716  11.904
25782SOL    HW178787   7.844   6.699  11.967
25782SOL    HW278788   7.873   6.704  11.819
25783SOL     OW78789   7.991   5.812  12.324
25783SOL    HW178790   8.032   5.754  12.388
25783SOL    HW278791   7.898   5.811  12.347
25784SOL     OW78792   7.859   6.402  12.439
25784SOL    HW178793   7.875   6.394  12.533
25784SOL    HW278794   7.886   6.318  12.402
25785SOL     OW78795   7.792   6.701  11.656
25785SOL    HW178796   7.778   6.779  11.602
25785SOL    HW278797   7.776   6.628  11.597
25786SOL     OW78798  -0.015   6.142  12.054
25786SOL    HW178799   0.019   6.213  12.000
25786SOL    HW278800   0.025   6.156  12.140
25787SOL     OW78801   7.790   7.152  12.469
25787SOL    HW178802   7.786   7.092  12.394
25787SOL    HW278803   7.876   7.137  12.508
25788SOL     OW78804   7.898   6.334   0.202
25788SOL    HW178805   7.990   6.340   0.228
25788SOL    HW278806   7.852   6.311   0.283
25789SOL     OW78807   7.984   6.509  12.213
25789SOL    HW178808   8.016   6.599  12.221
25789SOL    HW278809   7.946   6.489  12.298
25790SOL     OW78810   7.736   5.785  12.407
25790SOL    HW178811   7.716   5.815  12.495
25790SOL    HW278812   7.717   5.691  12.409
25791SOL     OW78813   7.509   6.920  12.435
25791SOL    HW178814   7.544   6.846  12.485
25791SOL    HW278815   7.512   6.994  12.496
25792SOL     OW78816   7.747   5.657  11.790
25792SOL    HW178817   7.732   5.750  11.810
25792SOL    HW278818   7.762   5.617  11.876
25793SOL     OW78819   7.749   6.399  12.111
25793SOL    HW178820   7.837   6.428  12.135
25793SOL    HW278821   7.745   6.308  12.141
25794SOL     OW78822   7.748   6.130  12.176
25794SOL    HW178823   7.720   6.038  12.169
25794SOL    HW278824   7.831   6.134  12.129
25795SOL     OW78825   7.467   6.898  11.360
25795SOL    HW178826   7.379   6.919  11.328
25795SOL    HW278827   7.459   6.811  11.398
25796SOL     OW78828   7.547   7.367  12.117
25796SOL    HW178829   7.518   7.289  12.070
25796SOL    HW278830   7.635   7.384  12.082
25797SOL     OW78831   7.498   6.154  12.288
25797SOL    HW178832   7.579   6.160  12.236
25797SOL    HW278833   7.511   6.077  12.343
25798SOL     OW78834   0.212   6.097  11.469
25798SOL    HW178835   0.168   6.013  11.482
25798SOL    HW278836   0.185   6.150  11.543
25799SOL     OW78837   7.902   6.088  11.321
25799SOL    HW178838   7.956   6.159  11.357
25799SOL    HW278839   7.812   6.121  11.326
25800SOL     OW78840   7.524   6.872  12.172
25800SOL    HW178841   7.511   6.886  12.266
25800SOL    HW278842   7.463   6.802  12.149
25801SOL     OW78843   7.722   5.918  11.883
25801SOL    HW178844   7.637   5.949  11.855
25801SOL    HW278845   7.713   5.905  11.978
25802SOL     OW78846  -0.011   7.153  11.580
25802SOL    HW178847  -0.015   7.082  11.644
25802SOL    HW278848   0.050   7.216  11.618
25803SOL     OW78849   7.722   6.916  11.469
25803SOL    HW178850   7.632   6.915  11.436
25803SOL    HW278851   7.718   6.967  11.550
25804SOL     OW78852   7.500   5.919  11.215
25804SOL    HW178853   7.420   5.893  11.169
25804SOL    HW278854   7.526   6.001  11.173
25805SOL     OW78855   7.502   5.738  11.465
25805SOL    HW178856   7.487   5.811  11.404
25805SOL    HW278857   7.590   5.707  11.444
25806SOL     OW78858   7.766   7.300   0.248
25806SOL    HW178859   7.736   7.266   0.163
25806SOL    HW278860   7.849   7.254   0.264
25807SOL     OW78861   7.541   6.815  11.843
25807SOL    HW178862   7.547   6.776  11.931
25807SOL    HW278863   7.603   6.766  11.791
25808SOL     OW78864   7.484   6.646  11.485
25808SOL    HW178865   7.576   6.633  11.460
25808SOL    HW278866   7.453   6.558  11.508
25809SOL     OW78867   7.671   7.718   0.997
25809SOL    HW178868   7.698   7.684   1.082
25809SOL    HW278869   7.582   7.685   0.985
25810SOL     OW78870   7.432   7.828   0.647
25810SOL    HW178871   7.349   7.866   0.676
25810SOL    HW278872   7.408   7.745   0.606
25811SOL     OW78873   7.839   7.873   1.538
25811SOL    HW178874   7.922   7.843   1.500
25811SOL    HW278875   7.780   7.799   1.529
25812SOL     OW78876   7.509   0.096   0.583
25812SOL    HW178877   7.486   0.006   0.605
25812SOL    HW278878   7.604   0.099   0.588
25813SOL     OW78879   7.760   7.720   1.832
25813SOL    HW178880   7.740   7.808   1.799
25813SOL    HW278881   7.682   7.696   1.883
25814SOL     OW78882   7.960   7.665   0.877
25814SOL    HW178883   7.961   7.658   0.973
25814SOL    HW278884   7.955   7.758   0.859
25815SOL     OW78885   7.627   7.703   1.504
25815SOL    HW178886   7.553   7.748   1.545
25815SOL    HW278887   7.617   7.612   1.531
25816SOL     OW78888   0.045   7.497   0.064
25816SOL    HW178889   0.122   7.534   0.106
25816SOL    HW278890   0.079   7.423   0.012
25817SOL     OW78891   7.989   7.466   0.504
25817SOL    HW178892   7.909   7.492   0.549
25817SOL    HW278893   8.025   7.548   0.470
25818SOL     OW78894   7.541  -0.013   1.385
25818SOL    HW178895   7.625  -0.045   1.417
25818SOL    HW278896   7.533   0.075   1.422
25819SOL     OW78897   7.987   7.641   1.142
25819SOL    HW178898   8.044   7.592   1.202
25819SOL    HW278899   7.903   7.648   1.189
25820SOL     OW78900   7.970   7.955   0.875
25820SOL    HW178901   7.982   8.043   0.839
25820SOL    HW278902   8.011   7.960   0.962
25821SOL     OW78903   7.934   7.548   1.724
25821SOL    HW178904   7.892   7.479   1.673
25821SOL    HW278905   7.862   7.604   1.754
25822SOL     OW78906   7.736   7.637   1.254
25822SOL    HW178907   7.692   7.666   1.334
25822SOL    HW278908   7.721   7.543   1.251
25823SOL     OW78909   7.750   7.530   0.624
25823SOL    HW178910   7.734   7.621   0.649
25823SOL    HW278911   7.766   7.485   0.706
25824SOL     OW78912   7.738   7.973   1.032
25824SOL    HW178913   7.722   7.879   1.020
25824SOL    HW278914   7.823   7.988   0.990
25825SOL     OW78915   7.476   7.959   1.121
25825SOL    HW178916   7.560   7.958   1.075
25825SOL    HW278917   7.499   7.962   1.213
25826SOL     OW78918   7.644   7.947   1.723
25826SOL    HW178919   7.709   7.943   1.652
25826SOL    HW278920   7.624   8.041   1.731
25827SOL     OW78921   7.702   7.780   0.726
25827SOL    HW178922   7.612   7.805   0.704
25827SOL    HW278923   7.699   7.760   0.819
25828SOL     OW78924   7.509   7.596   0.323
25828SOL    HW178925   7.498   7.677   0.274
25828SOL    HW278926   7.603   7.591   0.341
25829SOL     OW78927   7.673   7.720   2.857
25829SOL    HW178928   7.699   7.686   2.942
25829SOL    HW278929   7.584   7.687   2.844
25830SOL     OW78930   7.432   7.830   2.508
25830SOL    HW178931   7.347   7.859   2.541
25830SOL    HW278932   7.415   7.747   2.465
25831SOL     OW78933   7.842   7.868   3.398
25831SOL    HW178934   7.924   7.832   3.364
25831SOL    HW278935   7.780   7.795   3.394
25832SOL     OW78936   7.505   0.102   2.478
25832SOL    HW178937   7.482   0.010   2.488
25832SOL    HW278938   7.601   0.103   2.484
25833SOL     OW78939   7.760   7.721   3.694
25833SOL    HW178940   7.740   7.808   3.662
25833SOL    HW278941   7.684   7.696   3.747
25834SOL     OW78942   7.961   7.667   2.740
25834SOL    HW178943   7.961   7.659   2.836
25834SOL    HW278944   7.956   7.761   2.724
25835SOL     OW78945   7.618   7.708   3.370
25835SOL    HW178946   7.544   7.748   3.417
25835SOL    HW278947   7.613   7.616   3.394
25836SOL     OW78948   0.005   7.549   1.988
25836SOL    HW178949   0.095   7.521   2.008
25836SOL    HW278950  -0.005   7.531   1.895
25837SOL     OW78951   7.953   7.446   2.342
25837SOL    HW178952   7.885   7.479   2.401
25837SOL    HW278953   8.001   7.524   2.313
25838SOL     OW78954   7.744   7.494   2.057
25838SOL    HW178955   7.824   7.535   2.024
25838SOL    HW278956   7.775   7.425   2.116
25839SOL     OW78957   7.542  -0.010   3.249
25839SOL    HW178958   7.621  -0.058   3.273
25839SOL    HW278959   7.550   0.074   3.293
25840SOL     OW78960   7.985   7.640   3.006
25840SOL    HW178961   8.042   7.592   3.066
25840SOL    HW278962   7.902   7.648   3.053
25841SOL     OW78963   7.971   7.956   2.733
25841SOL    HW178964   7.996   8.038   2.689
25841SOL    HW278965   8.007   7.965   2.821
25842SOL     OW78966   7.935   7.551   3.584
25842SOL    HW178967   7.892   7.480   3.535
25842SOL    HW278968   7.862   7.605   3.615
25843SOL     OW78969   7.734   7.640   3.118
25843SOL    HW178970   7.686   7.668   3.196
25843SOL    HW278971   7.720   7.545   3.114
25844SOL     OW78972   7.737   7.518   2.494
25844SOL    HW178973   7.725   7.611   2.513
25844SOL    HW278974   7.758   7.478   2.578
25845SOL     OW78975   7.738   7.976   2.896
25845SOL    HW178976   7.724   7.882   2.882
25845SOL    HW278977   7.817   7.997   2.846
25846SOL     OW78978   7.476   7.963   2.984
25846SOL    HW178979   7.560   7.961   2.938
25846SOL    HW278980   7.500   7.963   3.077
25847SOL     OW78981   7.643   7.946   3.592
25847SOL    HW178982   7.692   7.949   3.510
25847SOL    HW278983   7.591   8.027   3.592
25848SOL     OW78984   7.712   7.775   2.581
25848SOL    HW178985   7.625   7.810   2.560
25848SOL    HW278986   7.709   7.760   2.676
25849SOL     OW78987   7.497   7.780   1.919
25849SOL    HW178988   7.441   7.762   1.843
25849SOL    HW278989   7.540   7.863   1.897
25850SOL     OW78990   7.505   7.599   2.148
25850SOL    HW178991   7.488   7.670   2.085
25850SOL    HW278992   7.594   7.570   2.129
25851SOL     OW78993   7.672   7.717   4.719
25851SOL    HW178994   7.699   7.684   4.805
25851SOL    HW278995   7.583   7.686   4.708
25852SOL     OW78996   7.434   7.824   4.375
25852SOL    HW178997   7.350   7.858   4.403
25852SOL    HW278998   7.413   7.742   4.329
25853SOL     OW78999   7.867   7.855   5.258
25853SOL    HW179000   7.935   7.827   5.198
25853SOL    HW279001   7.796   7.792   5.246
25854SOL     OW79002   7.506   0.095   4.338
25854SOL    HW179003   7.484   0.003   4.349
25854SOL    HW279004   7.601   0.096   4.326
25855SOL     OW79005   7.766   7.739   5.564
25855SOL    HW179006   7.752   7.817   5.509
25855SOL    HW279007   7.682   7.727   5.609
25856SOL     OW79008   7.960   7.662   4.602
25856SOL    HW179009   7.961   7.659   4.697
25856SOL    HW279010   7.954   7.756   4.581
25857SOL     OW79011   7.632   7.709   5.225
25857SOL    HW179012   7.543   7.744   5.221
25857SOL    HW279013   7.622   7.620   5.259
25858SOL     OW79014   0.006   7.550   3.849
25858SOL    HW179015   0.095   7.521   3.869
25858SOL    HW279016  -0.004   7.532   3.755
25859SOL     OW79017   7.962   7.450   4.215
25859SOL    HW179018   7.889   7.483   4.268
25859SOL    HW279019   8.004   7.529   4.182
25860SOL     OW79020   7.745   7.494   3.918
25860SOL    HW179021   7.826   7.535   3.887
25860SOL    HW279022   7.775   7.422   3.974
25861SOL     OW79023   7.535  -0.010   5.117
25861SOL    HW179024   7.628  -0.004   5.137
25861SOL    HW279025   7.500   0.078   5.133
25862SOL     OW79026   7.989   7.641   4.867
25862SOL    HW179027   8.040   7.584   4.924
25862SOL    HW279028   7.905   7.650   4.912
25863SOL     OW79029   7.970   7.955   4.603
25863SOL    HW179030   7.984   8.042   4.565
25863SOL    HW279031   8.012   7.959   4.689
25864SOL     OW79032   7.926   7.520   5.528
25864SOL    HW179033   7.900   7.455   5.462
25864SOL    HW279034   7.863   7.592   5.517
25865SOL     OW79035   7.740   7.639   4.977
25865SOL    HW179036   7.696   7.668   5.057
25865SOL    HW279037   7.723   7.544   4.973
25866SOL     OW79038   7.737   7.522   4.354
25866SOL    HW179039   7.724   7.615   4.373
25866SOL    HW279040   7.756   7.482   4.439
25867SOL     OW79041   7.740   7.972   4.761
25867SOL    HW179042   7.722   7.879   4.746
25867SOL    HW279043   7.823   7.988   4.717
25868SOL     OW79044   7.478   7.950   4.848
25868SOL    HW179045   7.562   7.954   4.803
25868SOL    HW279046   7.500   7.957   4.941
25869SOL     OW79047   7.645   7.957   5.446
25869SOL    HW179048   7.626   7.928   5.357
25869SOL    HW279049   7.573   8.017   5.467
25870SOL     OW79050   7.705   7.778   4.447
25870SOL    HW179051   7.615   7.804   4.425
25870SOL    HW279052   7.702   7.760   4.541
25871SOL     OW79053   7.501   7.783   3.795
25871SOL    HW179054   7.437   7.769   3.725
25871SOL    HW279055   7.544   7.865   3.771
25872SOL     OW79056   7.507   7.598   4.013
25872SOL    HW179057   7.491   7.671   3.953
25872SOL    HW279058   7.596   7.569   3.993
25873SOL     OW79059   7.673   7.721   6.579
25873SOL    HW179060   7.699   7.688   6.665
25873SOL    HW279061   7.584   7.690   6.567
25874SOL     OW79062   7.432   7.815   6.244
25874SOL    HW179063   7.349   7.853   6.271
25874SOL    HW279064   7.409   7.736   6.196
25875SOL     OW79065   7.849   7.862   7.124
25875SOL    HW179066   7.923   7.830   7.073
25875SOL    HW279067   7.781   7.795   7.112
25876SOL     OW79068   7.495   0.087   6.220
25876SOL    HW179069   7.487  -0.009   6.221
25876SOL    HW279070   7.536   0.108   6.304
25877SOL     OW79071   7.772   7.714   7.423
25877SOL    HW179072   7.772   7.799   7.380
25877SOL    HW279073   7.682   7.701   7.453
25878SOL     OW79074   7.960   7.654   6.472
25878SOL    HW179075   7.963   7.649   6.568
25878SOL    HW279076   7.966   7.747   6.453
25879SOL     OW79077   7.629   7.706   7.086
25879SOL    HW179078   7.543   7.747   7.088
25879SOL    HW279079   7.615   7.618   7.119
25880SOL     OW79080   7.987   7.558   6.120
25880SOL    HW179081   7.899   7.529   6.144
25880SOL    HW279082   7.990   7.549   6.024
25881SOL     OW79083   7.745   7.511   5.770
25881SOL    HW179084   7.794   7.575   5.719
25881SOL    HW279085   7.805   7.437   5.780
25882SOL     OW79086   7.533  -0.010   6.973
25882SOL    HW179087   7.625  -0.003   6.999
25882SOL    HW279088   7.496   0.077   6.993
25883SOL     OW79089   7.994   7.640   6.738
25883SOL    HW179090   8.035   7.573   6.793
25883SOL    HW279091   7.908   7.653   6.777
25884SOL     OW79092   7.988   7.927   6.467
25884SOL    HW179093   7.950   7.988   6.403
25884SOL    HW279094   8.026   7.983   6.534
25885SOL     OW79095   7.951   7.539   7.295
25885SOL    HW179096   7.906   7.467   7.251
25885SOL    HW279097   7.881   7.594   7.329
25886SOL     OW79098   7.742   7.642   6.838
25886SOL    HW179099   7.694   7.671   6.916
25886SOL    HW279100   7.725   7.548   6.833
25887SOL     OW79101   7.731   7.518   6.208
25887SOL    HW179102   7.716   7.611   6.225
25887SOL    HW279103   7.750   7.481   6.294
25888SOL     OW79104   7.749   7.972   6.634
25888SOL    HW179105   7.731   7.882   6.610
25888SOL    HW279106   7.835   7.991   6.596
25889SOL     OW79107   7.480   7.952   6.704
25889SOL    HW179108   7.567   7.952   6.664
25889SOL    HW279109   7.497   7.958   6.798
25890SOL     OW79110   7.647   7.945   7.324
25890SOL    HW179111   7.671   7.935   7.231
25890SOL    HW279112   7.599   8.028   7.327
25891SOL     OW79113   7.698   7.780   6.302
25891SOL    HW179114   7.605   7.792   6.286
25891SOL    HW279115   7.703   7.762   6.396
25892SOL     OW79116   7.504   7.776   5.654
25892SOL    HW179117   7.448   7.766   5.577
25892SOL    HW279118   7.527   7.869   5.655
25893SOL     OW79119   7.504   7.597   5.879
25893SOL    HW179120   7.486   7.667   5.817
25893SOL    HW279121   7.594   7.571   5.861
25894SOL     OW79122   7.670   7.727   8.446
25894SOL    HW179123   7.699   7.688   8.528
25894SOL    HW279124   7.582   7.693   8.433
25895SOL     OW79125   7.435   7.815   8.095
25895SOL    HW179126   7.352   7.851   8.128
25895SOL    HW279127   7.410   7.735   8.050
25896SOL     OW79128   7.874   7.841   9.003
25896SOL    HW179129   7.933   7.849   8.928
25896SOL    HW279130   7.805   7.782   8.973
25897SOL     OW79131   7.516   0.085   8.067
25897SOL    HW179132   7.502  -0.009   8.063
25897SOL    HW279133   7.552   0.108   7.982
25898SOL     OW79134   7.764   7.731   9.293
25898SOL    HW179135   7.790   7.809   9.245
25898SOL    HW279136   7.673   7.746   9.318
25899SOL     OW79137   7.962   7.658   8.341
25899SOL    HW179138   7.963   7.666   8.437
25899SOL    HW279139   7.966   7.749   8.310
25900SOL     OW79140   7.629   7.715   8.956
25900SOL    HW179141   7.543   7.741   8.923
25900SOL    HW279142   7.616   7.626   8.989
25901SOL     OW79143   0.006   7.517   7.574
25901SOL    HW179144   0.099   7.518   7.598
25901SOL    HW279145   0.006   7.513   7.479
25902SOL     OW79146   7.983   7.461   7.968
25902SOL    HW179147   7.898   7.488   8.000
25902SOL    HW279148   8.014   7.534   7.915
25903SOL     OW79149   7.737   7.512   7.630
25903SOL    HW179150   7.774   7.582   7.576
25903SOL    HW279151   7.812   7.460   7.658
25904SOL     OW79152   7.538  -0.014   8.831
25904SOL    HW179153   7.615  -0.008   8.887
25904SOL    HW279154   7.503   0.075   8.828
25905SOL     OW79155   7.991   7.665   8.610
25905SOL    HW179156   8.040   7.594   8.651
25905SOL    HW279157   7.904   7.659   8.648
25906SOL     OW79158   7.983   7.949   8.339
25906SOL    HW179159   7.940   7.979   8.259
25906SOL    HW279160   8.038   8.022   8.365
25907SOL     OW79161   7.931   7.538   9.194
25907SOL    HW179162   7.896   7.472   9.133
25907SOL    HW279163   7.858   7.597   9.209
25908SOL     OW79164   7.740   7.638   8.704
25908SOL    HW179165   7.693   7.665   8.783
25908SOL    HW279166   7.724   7.543   8.698
25909SOL     OW79167   7.737   7.528   8.072
25909SOL    HW179168   7.722   7.621   8.090
25909SOL    HW279169   7.754   7.490   8.158
25910SOL     OW79170   7.760   7.974   8.506
25910SOL    HW179171   7.732   7.884   8.486
25910SOL    HW279172   7.838   7.987   8.452
25911SOL     OW79173   7.473   7.930   8.574
25911SOL    HW179174   7.551   7.939   8.520
25911SOL    HW279175   7.505   7.944   8.664
25912SOL     OW79176   7.630   7.990   9.115
25912SOL    HW179177   7.644   7.900   9.085
25912SOL    HW279178   7.544   7.989   9.156
25913SOL     OW79179   7.698   7.788   8.169
25913SOL    HW179180   7.605   7.798   8.148
25913SOL    HW279181   7.699   7.769   8.263
25914SOL     OW79182   7.506   7.770   7.505
25914SOL    HW179183   7.446   7.761   7.431
25914SOL    HW279184   7.547   7.855   7.493
25915SOL     OW79185   7.502   7.599   7.738
25915SOL    HW179186   7.484   7.668   7.674
25915SOL    HW279187   7.590   7.569   7.718
25916SOL     OW79188   7.673   7.726  10.303
25916SOL    HW179189   7.701   7.688  10.387
25916SOL    HW279190   7.585   7.692  10.290
25917SOL     OW79191   7.432   7.814   9.965
25917SOL    HW179192   7.349   7.852   9.994
25917SOL    HW279193   7.408   7.737   9.914
25918SOL     OW79194   7.923   7.785  10.840
25918SOL    HW179195   7.948   7.850  10.774
25918SOL    HW279196   7.830   7.771  10.826
25919SOL     OW79197   7.498   0.085   9.949
25919SOL    HW179198   7.489  -0.011   9.945
25919SOL    HW279199   7.528   0.102  10.039
25920SOL     OW79200   7.762   7.733  11.161
25920SOL    HW179201   7.762   7.813  11.108
25920SOL    HW279202   7.675   7.731  11.200
25921SOL     OW79203   7.968   7.658  10.214
25921SOL    HW179204   7.966   7.671  10.309
25921SOL    HW279205   7.968   7.747  10.178
25922SOL     OW79206   7.634   7.721  10.814
25922SOL    HW179207   7.548   7.743  10.778
25922SOL    HW279208   7.623   7.633  10.849
25923SOL     OW79209   0.007   7.510   9.454
25923SOL    HW179210   0.102   7.509   9.466
25923SOL    HW279211  -0.006   7.510   9.359
25924SOL     OW79212   7.995   7.471   9.849
25924SOL    HW179213   7.903   7.491   9.867
25924SOL    HW279214   8.021   7.537   9.785
25925SOL     OW79215   7.736   7.517   9.488
25925SOL    HW179216   7.761   7.589   9.431
25925SOL    HW279217   7.819   7.474   9.509
25926SOL     OW79218   7.528  -0.005  10.700
25926SOL    HW179219   7.612   0.006  10.744
25926SOL    HW279220   7.484   0.079  10.711
25927SOL     OW79221   8.007   7.643  10.490
25927SOL    HW179222   8.021   7.548  10.490
25927SOL    HW279223   7.918   7.654  10.523
25928SOL     OW79224   7.977   7.940  10.195
25928SOL    HW179225   7.935   7.984  10.120
25928SOL    HW279226   8.025   8.009  10.240
25929SOL     OW79227   7.931   7.553  11.052
25929SOL    HW179228   7.895   7.481  11.000
25929SOL    HW279229   7.854   7.606  11.076
25930SOL     OW79230   7.744   7.640  10.560
25930SOL    HW179231   7.700   7.668  10.641
25930SOL    HW279232   7.726   7.546  10.556
25931SOL     OW79233   7.734   7.523   9.929
25931SOL    HW179234   7.719   7.617   9.945
25931SOL    HW279235   7.751   7.487  10.016
25932SOL     OW79236   7.753   7.974  10.367
25932SOL    HW179237   7.732   7.884  10.342
25932SOL    HW279238   7.835   7.993  10.321
25933SOL     OW79239   7.479   7.952  10.431
25933SOL    HW179240   7.565   7.948  10.389
25933SOL    HW279241   7.498   7.962  10.524
25934SOL     OW79242   7.680   7.943  10.991
25934SOL    HW179243   7.636   7.873  10.941
25934SOL    HW279244   7.608   7.995  11.027
25935SOL     OW79245   7.701   7.780  10.022
25935SOL    HW179246   7.607   7.793  10.006
25935SOL    HW279247   7.707   7.768  10.117
25936SOL     OW79248   7.508   7.793   9.360
25936SOL    HW179249   7.448   7.779   9.287
25936SOL    HW279250   7.496   7.886   9.383
25937SOL     OW79251   7.503   7.600   9.599
25937SOL    HW179252   7.487   7.670   9.537
25937SOL    HW279253   7.591   7.568   9.578
25938SOL     OW79254   7.670   7.713  12.146
25938SOL    HW179255   7.699   7.683  12.232
25938SOL    HW279256   7.579   7.685  12.140
25939SOL     OW79257   7.432   7.821  11.825
25939SOL    HW179258   7.348   7.858  11.851
25939SOL    HW279259   7.409   7.740  11.779
25940SOL     OW79260   7.868   7.764   0.176
25940SOL    HW179261   7.949   7.768   0.124
25940SOL    HW279262   7.874   7.680   0.222
25941SOL     OW79263   7.527   0.085  11.822
25941SOL    HW179264   7.502  -0.007  11.814
25941SOL    HW279265   7.507   0.107  11.913
25942SOL     OW79266   7.958   7.650  12.046
25942SOL    HW179267   7.961   7.644  12.142
25942SOL    HW279268   7.964   7.744  12.028
25943SOL     OW79269   0.016   7.548  11.311
25943SOL    HW179270   0.105   7.515  11.323
25943SOL    HW279271  -0.006   7.528  11.220
25944SOL     OW79272   7.970   7.444  11.680
25944SOL    HW179273   7.891   7.476  11.724
25944SOL    HW279274   8.010   7.522  11.642
25945SOL     OW79275   7.738   7.503  11.361
25945SOL    HW179276   7.796   7.567  11.322
25945SOL    HW279277   7.797   7.440  11.403
25946SOL     OW79278   7.525   0.028   0.053
25946SOL    HW179279   7.620   0.017   0.059
25946SOL    HW279280   7.502   0.083   0.127
25947SOL     OW79281   7.992   7.640  12.317
25947SOL    HW179282   8.024   7.571  12.374
25947SOL    HW279283   7.900   7.653  12.342
25948SOL     OW79284   7.987   7.921  12.044
25948SOL    HW179285   7.948   7.985  11.984
25948SOL    HW279286   8.024   7.974  12.114
25949SOL     OW79287   7.810   0.225   0.289
25949SOL    HW179288   7.828   0.312   0.253
25949SOL    HW279289   7.894   0.196   0.324
25950SOL     OW79290   7.737   7.643  12.402
25950SOL    HW179291   7.710   7.677  12.487
25950SOL    HW279292   7.716   7.549  12.406
25951SOL     OW79293   7.737   7.526  11.796
25951SOL    HW179294   7.725   7.620  11.814
25951SOL    HW279295   7.752   7.487  11.882
25952SOL     OW79296   7.735   7.968  12.188
25952SOL    HW179297   7.719   7.876  12.167
25952SOL    HW279298   7.828   7.981  12.172
25953SOL     OW79299   7.483   7.980  12.288
25953SOL    HW179300   7.570   7.972  12.249
25953SOL    HW279301   7.500   7.984  12.382
25954SOL     OW79302   7.704   7.791  11.880
25954SOL    HW179303   7.611   7.803  11.861
25954SOL    HW279304   7.707   7.767  11.972
25955SOL     OW79305   7.501   7.784  11.236
25955SOL    HW179306   7.445   7.776  11.159
25955SOL    HW279307   7.504   7.878  11.254
25956SOL     OW79308   7.501   7.597  11.462
25956SOL    HW179309   7.485   7.667  11.399
25956SOL    HW279310   7.590   7.567  11.442
25957NA      NA79311   0.631   1.806   3.410
25958NA      NA79312   1.533   1.028   8.797
25959NA      NA79313   0.051   0.599  11.786
25960NA      NA79314   1.075   0.696  11.260
25961NA      NA79315   0.854   2.391   3.305
25962NA      NA79316   0.504   2.473   5.313
25963NA      NA79317   1.716   3.702   4.594
25964NA      NA79318   0.497   3.596   7.765
25965NA      NA79319   1.274   3.862   8.084
25966NA      NA79320   0.207   4.331   5.677
25967NA      NA79321   1.428   5.130  12.083
25968NA      NA79322   0.276   7.130   7.111
25969NA      NA79323   0.445   5.992   8.688
25970NA      NA79324   0.927   6.255  10.556
25971NA      NA79325   1.351   5.929   9.777
25972NA      NA79326   0.104   7.695  10.964
25973NA      NA79327   2.845   1.580   0.904
25974NA      NA79328   3.283   0.655   8.948
25975NA      NA79329   2.124   3.555   0.474
25976NA      NA79330   2.318   2.681   6.844
25977NA      NA79331   2.285   4.716  11.874
25978NA      NA79332   3.795   7.494   8.621
25979NA      NA79333   2.298   7.573  11.584
25980NA      NA79334   4.203   1.355   1.269
25981NA      NA79335   5.042   3.237   0.935
25982NA      NA79336   4.645   2.064   6.912
25983NA      NA79337   4.693   2.310   7.852
25984NA      NA79338   4.935   7.031   3.398
25985NA      NA79339   4.619   6.571   5.508
25986NA      NA79340   3.958   7.769   3.968
25987NA      NA79341   5.001   0.319  11.283
25988NA      NA79342   4.985   7.774   0.208
25989NA      NA79343   6.985   0.671   3.405
25990NA      NA79344   7.097   0.231   2.094
25991NA      NA79345   6.654   0.897   8.221
25992NA      NA79346   5.729   1.309  11.122
25993NA      NA79347   5.539   1.209  12.268
25994NA      NA79348   6.857   3.227   4.667
25995NA      NA79349   5.609   2.339   3.737
25996NA      NA79350   5.714   5.187   0.586
25997NA      NA79351   7.076   4.009  12.056
25998NA      NA79352   6.332   6.440   0.468
25999NA      NA79353   5.484   7.093   2.137
26000NA      NA79354   7.651   1.348   3.753
26001NA      NA79355   7.654   0.500   9.086
26002NA      NA79356   7.940   3.764   6.367
26003NA      NA79357   7.817   4.395   3.446
26004NA      NA79358   0.131   7.581   5.636
   8.00000   8.00000  12.50000
